/*--------------------------------*- C++ -*----------------------------------*\
| =========                 |                                                 |
| \\      /  F ield         | OpenFOAM: The Open Source CFD Toolbox           |
|  \\    /   O peration     | Version:  2312                                  |
|   \\  /    A nd           | Website:  www.openfoam.com                      |
|    \\/     M anipulation  |                                                 |
\*---------------------------------------------------------------------------*/
FoamFile
{
    version     2.0;
    format      ascii;
    arch        "LSB;label=32;scalar=64";
    class       volScalarField;
    location    "1.7/water";
    object      Ct2;
}
// * * * * * * * * * * * * * * * * * * * * * * * * * * * * * * * * * * * * * //

dimensions      [0 0 0 0 0 0 0];

internalField   nonuniform List<scalar> 
23300
(
8.97364558529
8.9743859183
8.97484574979
8.97510782855
8.97526924541
8.97537503135
8.9754466267
8.97549517566
8.97552678029
8.97554487017
8.9755511209
8.9755458507
8.97552709927
8.97549154589
8.97543359284
8.9753431197
8.97520255876
8.97498256915
8.97464164281
8.97415504721
8.97360515138
8.97327234777
8.97346980102
8.97397609093
8.97444701308
8.97479685826
8.97504313453
8.97521735391
8.97534341552
8.97543692924
8.97550774189
8.97556223352
8.97560458649
8.97563768128
8.97566348938
8.97568344432
8.97569855029
8.97570957226
8.97571704645
8.97572139805
8.97572291461
8.97572183004
8.97571828281
8.97571238112
8.97570415257
8.97569359241
8.97568059499
8.97566520825
8.97564745427
8.97562726613
8.97560449768
8.9755789805
8.97555048522
8.9755187591
8.97548348333
8.97544430419
8.97540079052
8.97535245967
8.97529873564
8.97523897017
8.97517240252
8.97509817734
8.97501530971
8.97492270514
8.97481914018
8.9747032995
8.97457379719
8.97442926861
8.97426849401
8.97409064204
8.97389565811
8.97368492087
8.97346230839
8.97323585624
8.97302023671
8.97284007213
8.97273294629
8.97273960133
8.97284890987
8.97302089999
8.97322583351
8.97344458876
8.97366499671
8.97387930237
8.97408274062
8.9742725804
8.97444754746
8.97460733598
8.97475231167
8.97488323088
8.97500109551
8.97510699893
8.97520207075
8.97528739721
8.97536401337
8.97543286335
8.97549481426
8.9755506362
8.97560102394
8.97564658595
8.9756878671
8.97572534162
8.9757594341
8.97579051311
8.97581890586
8.97584487322
8.97586853536
8.97588972637
8.97590875756
8.9759258006
8.9759409063
8.97595397317
8.97596471732
8.97597263454
8.97597702503
8.97597710498
8.97597223211
8.97596213952
8.97594706737
8.97592769882
8.97590496274
8.97587978748
8.97585291294
8.97582478278
8.97579553399
8.97576503174
8.97573292946
8.97569870391
8.97566166537
8.97562091732
8.97557527399
8.97552309879
8.97546202255
8.97538839077
8.97529608947
8.97517366252
8.97499587624
8.97469453217
8.97410347601
8.97363015485
8.96821190133
8.96898019877
8.96977872452
8.97046580647
8.97102745845
8.9714779408
8.97183608394
8.97211900044
8.97234022401
8.97251013333
8.97263618524
8.97272381794
8.97279605998
8.9728436418
8.97283774278
8.97276905726
8.9726403108
8.97247188191
8.97230968996
8.97221285579
8.97223754557
8.97240988153
8.97270349576
8.9730468904
8.97336661987
8.97363464022
8.97384999332
8.9740208844
8.97415627725
8.9742637308
8.97434897402
8.9744164579
8.97446952327
8.97451084933
8.9745424623
8.97456603214
8.97458280673
8.97459383871
8.97459989112
8.97460162426
8.97459948843
8.97459388365
8.97458504712
8.97457319322
8.97455840078
8.97454073783
8.9745201714
8.97449700619
8.9744710298
8.97444211211
8.97441005759
8.9743746863
8.97433573529
8.97429294176
8.97424595317
8.97419440274
8.97413782588
8.97407572806
8.97400750807
8.97393251988
8.97385000495
8.97375915226
8.97365904581
8.97354873205
8.97342719613
8.97329345642
8.97314659737
8.97298593054
8.97281114131
8.97262259919
8.97242174032
8.97221169515
8.97199810266
8.97179016521
8.97160161292
8.97145087658
8.97135877138
8.97134086044
8.97139585501
8.97150932832
8.97166441933
8.97184627791
8.9720428885
8.97224500883
8.97244584987
8.97264064342
8.97282626216
8.97300081795
8.97316336783
8.97331362029
8.97345175527
8.97357823738
8.97369372675
8.97379896721
8.97389475397
8.97398186679
8.97406106919
8.97413306676
8.97419852263
8.97425802963
8.97431213447
8.97436131984
8.97440603855
8.97444671701
8.97448383658
8.97451807244
8.97455076284
8.97458421943
8.97461735864
8.9746512251
8.97468699438
8.97472589793
8.97476908171
8.97481729769
8.97487049217
8.97492727648
8.97498441623
8.9750364731
8.97507618265
8.97509626953
8.97509247338
8.97506552718
8.97502017111
8.97496226249
8.97489649043
8.97482558838
8.97475055773
8.97467116824
8.97458638099
8.97449454344
8.97439338454
8.97427979541
8.97414936861
8.9739954546
8.97380705053
8.97356300267
8.97321336869
8.97266084465
8.97269155148
8.97447318304
8.96883935699
8.96917189724
8.9694727989
8.96972578221
8.96994424031
8.97014050281
8.97032389121
8.97050175818
8.97068040776
8.97086648825
8.97106940926
8.9713105612
8.97159246002
8.97185876541
8.97208949678
8.97228972901
8.97247630937
8.97266067507
8.9728547674
8.97303102917
8.97319009032
8.97333980752
8.97348258387
8.97361726313
8.97374024183
8.97384880582
8.97394197472
8.97402029671
8.97408505593
8.97413786674
8.97418029641
8.97421386691
8.97423991731
8.97425969006
8.97427422935
8.97428447488
8.9742911765
8.97429499259
8.97429641709
8.97429587729
8.97429366724
8.97429004019
8.97428514515
8.97427911198
8.97427198977
8.97426381659
8.97425476293
8.97424458109
8.97423300381
8.97421984818
8.97420493252
8.97418810913
8.97416920015
8.97414803777
8.97412441284
8.97409811444
8.97406888575
8.97403646074
8.97400052619
8.97396075624
8.97391678186
8.97386822577
8.97381468296
8.97375576142
8.97369108041
8.97362032655
8.97354328174
8.97345990978
8.97337043247
8.97327546948
8.97317618847
8.97307452225
8.97297339633
8.9728769581
8.97279065227
8.97272092762
8.97267422682
8.97265498887
8.97266387213
8.97269809566
8.9727528255
8.97282267777
8.97290269193
8.97298854079
8.97307670351
8.97316444027
8.97324972799
8.97333113749
8.97340772629
8.97347891714
8.9735444168
8.97360412656
8.97365809454
8.97370645515
8.97374940619
8.97378716779
8.97381997498
8.97384804855
8.97387159693
8.97389079463
8.97390579117
8.97391669799
8.97392361052
8.97392662101
8.97392589568
8.97392180903
8.97391527644
8.97390835706
8.97390218255
8.97389712994
8.97389439473
8.97389554993
8.97390258999
8.97391794523
8.97394451051
8.97398566604
8.97404529298
8.97412744081
8.97423483074
8.97436481284
8.97450328522
8.97462353441
8.97469862473
8.97471850023
8.97469203901
8.97463527442
8.97456134832
8.97447769646
8.97438720368
8.97428996215
8.97418440334
8.97406768411
8.9739354761
8.9737810817
8.97359317453
8.97334901288
8.97299390794
8.97256923921
8.97394894405
8.97526465175
8.9691592592
8.96948537699
8.96977016697
8.97000501957
8.97020306429
8.97037409183
8.97052637056
8.97066738178
8.97080556588
8.97095260481
8.97112813159
8.97135618578
8.97161515948
8.97189798493
8.97219278394
8.97249365991
8.97276805429
8.97297310912
8.9731312006
8.97325433673
8.97335248448
8.97343423054
8.97350533695
8.97356920136
8.97362715591
8.97367924479
8.97372509216
8.9737645108
8.97379763058
8.97382488251
8.97384686145
8.97386427101
8.97387782525
8.9738882337
8.97389613654
8.97390211398
8.97390664505
8.97391013437
8.97391288716
8.97391514469
8.97391706721
8.97391877079
8.97392031298
8.97392172786
8.97392301378
8.97392416838
8.97392517603
8.97392563923
8.97392526755
8.97392385014
8.9739212106
8.97391720438
8.97391168989
8.97390453504
8.97389559766
8.9738847353
8.97387179081
8.97385660298
8.97383899598
8.97381879076
8.97379579884
8.97376983589
8.97374072175
8.9737082988
8.97367244146
8.97363308341
8.97359024091
8.97354405327
8.97349482382
8.97344307583
8.97338960928
8.97333556299
8.97328246329
8.97323224122
8.97318717663
8.97314971495
8.97312211177
8.97310594852
8.97310160011
8.97310836435
8.97312486614
8.97314912964
8.97317900902
8.97321254042
8.9732479671
8.97328381176
8.97331888736
8.97335226417
8.97338324468
8.97341131946
8.97343613467
8.97345745281
8.97347512885
8.97348907961
8.97349926866
8.97350568302
8.97350832458
8.97350719205
8.9735022771
8.97349355051
8.97348096298
8.97346443763
8.97344388111
8.9734191947
8.97339031981
8.97335731125
8.97332048813
8.97328064933
8.97323943385
8.97319678333
8.97315310198
8.97310903748
8.97306552674
8.97302390599
8.97298611474
8.97295504598
8.97293516458
8.97293346351
8.97296076288
8.97303287655
8.97316959922
8.97338490313
8.97366087987
8.97392937744
8.97411184999
8.97418135094
8.97416293282
8.97409363998
8.97399862943
8.97388933998
8.97376857431
8.97363447483
8.97348217215
8.97330360418
8.97308526712
8.97279999693
8.97239036128
8.9723023131
8.97456521384
8.97550224487
8.9695551709
8.96989338456
8.97018737203
8.97043093
8.97063859313
8.97082054642
8.97098540557
8.97114052439
8.97129354367
8.97145601566
8.9716565844
8.97187525339
8.97212953358
8.9724234298
8.97267584054
8.97287960718
8.97303589819
8.97315271863
8.97324130488
8.97330995551
8.97336438466
8.97340895883
8.97344696148
8.97348062417
8.97351114084
8.9735389133
8.9735639332
8.97358612323
8.97360550606
8.97362225142
8.97363664498
8.97364904959
8.97365985648
8.97366945585
8.97367820547
8.97368641927
8.97369435306
8.97370220739
8.97371012479
8.97371820035
8.97372648401
8.9737349933
8.97374371658
8.97375262548
8.97376167809
8.97377083045
8.97377992495
8.97378861045
8.97379663288
8.97380380553
8.97380998235
8.97381504557
8.97381889177
8.97382142785
8.97382256366
8.97382221193
8.97382028419
8.97381669269
8.97381134855
8.9738041651
8.97379505831
8.97378395206
8.97377078142
8.97375550086
8.97373809155
8.97371857347
8.97369701773
8.97367356302
8.97364843213
8.97362195043
8.97359456176
8.97356684017
8.97353949145
8.97351333765
8.97348927573
8.9734681999
8.97345088706
8.97343785781
8.97342928644
8.97342486365
8.97342402951
8.97342618194
8.97343052529
8.97343622936
8.97344249957
8.97344866908
8.973454142
8.97345842714
8.97346112378
8.97346190702
8.97346052012
8.97345676045
8.97345046924
8.97344151882
8.97342980455
8.97341523389
8.9733977201
8.97337717309
8.97335349476
8.97332657172
8.97329627297
8.97326244595
8.97322491969
8.97318351019
8.97313803942
8.97308836709
8.97303445243
8.97297645805
8.97291492533
8.97284997802
8.9727814209
8.9727090628
8.97263276891
8.97255249397
8.97246838701
8.97238099288
8.97229164141
8.97220316249
8.97212119138
8.97205649602
8.97202891523
8.97207274566
8.97223802766
8.97256367075
8.97300228232
8.97339759899
8.97361959449
8.97366803757
8.9736099939
8.9734997764
8.97336222198
8.97320335669
8.97302003778
8.9728040817
8.97254209249
8.97220765689
8.97177446313
8.97245261104
8.97492928606
8.97564430682
8.96992170977
8.97026295321
8.97055674084
8.97079905172
8.97100625235
8.97118990729
8.97135951615
8.97152387469
8.97169167817
8.9718880297
8.97211030444
8.97233574527
8.97255340194
8.97274014122
8.97288785843
8.97300200569
8.97309064544
8.97315990732
8.97321447626
8.97325800905
8.97329339375
8.97332299019
8.97334868707
8.97337187019
8.97339340106
8.97341369223
8.97343287722
8.97345098027
8.97346802911
8.97348410017
8.97349932326
8.97351386451
8.97352790668
8.97354162911
8.97355519429
8.97356873742
8.9735823624
8.97359614004
8.97361011053
8.9736242864
8.97363865752
8.97365319563
8.97366785943
8.97368259904
8.97369736051
8.97371209029
8.97372660144
8.973740618
8.97375394163
8.97376642762
8.97377796718
8.97378847572
8.97379788388
8.97380613263
8.97381316907
8.97381894498
8.97382341496
8.9738265367
8.97382827053
8.97382858089
8.97382743697
8.97382481534
8.97382070177
8.97381509523
8.97380801106
8.97379948628
8.97378958406
8.9737783997
8.97376606534
8.97375275469
8.97373868502
8.97372411665
8.97370934701
8.97369469871
8.97368049894
8.9736670503
8.97365459417
8.97364327396
8.97363310339
8.97362398387
8.97361561341
8.97360765938
8.97359983754
8.97359188858
8.97358350752
8.97357436327
8.97356420374
8.97355279882
8.97353993631
8.97352544135
8.97350916345
8.97349096947
8.97347074088
8.97344837007
8.97342375592
8.97339679894
8.97336739769
8.97333544411
8.97330082021
8.97326339406
8.97322301714
8.97317952147
8.97313271896
8.97308240193
8.9730283481
8.97297033035
8.97290813688
8.97284160573
8.97277065989
8.97269538057
8.97261532088
8.97252989673
8.97243846042
8.97234026682
8.97223449313
8.97212029575
8.97199694458
8.97186410897
8.97172244949
8.97157482807
8.97142878299
8.97130152092
8.971229327
8.97128036488
8.97154593977
8.97204626746
8.97260536266
8.97296811581
8.97306755244
8.97299688791
8.9728442978
8.97264841514
8.97241825002
8.97215145437
8.97184160055
8.97147406045
8.97111992761
8.97286982568
8.9751355819
8.97573245319
8.97027354933
8.97060906559
8.97089412798
8.97112802139
8.97132873733
8.97150988733
8.97168358016
8.97185881468
8.9720464405
8.97224635847
8.97243008801
8.97259552225
8.97273212866
8.97284184186
8.97293071067
8.97300322185
8.97306274619
8.97311183495
8.97315260571
8.97318690568
8.97321635562
8.9732423691
8.97326612435
8.97328851531
8.97331013413
8.97333130302
8.97335215681
8.97337272923
8.97339302323
8.97341304511
8.97343281992
8.97345238745
8.97347179787
8.97349110092
8.97351034155
8.97352955271
8.97354875493
8.97356795347
8.97358714093
8.97360629712
8.9736253928
8.97364439066
8.97366324898
8.97368192305
8.97370036838
8.97371854411
8.97373629578
8.97375341322
8.97376974967
8.97378520102
8.97379969233
8.9738131684
8.97382558697
8.97383691477
8.97384712432
8.97385619278
8.97386410044
8.97387083097
8.97387637074
8.97388070987
8.97388384208
8.97388576628
8.97388648686
8.97388601569
8.97388437267
8.97388158798
8.97387770258
8.97387277022
8.97386685729
8.97386004355
8.97385242037
8.9738440889
8.97383515528
8.97382572504
8.97381589438
8.97380574064
8.97379531114
8.9737846139
8.97377361343
8.97376222672
8.97375033638
8.97373778083
8.97372434957
8.97370986588
8.9736942778
8.97367749555
8.9736594231
8.973639915
8.97361890273
8.97359630667
8.97357203659
8.97354601453
8.97351816749
8.97348841996
8.97345669251
8.97342290184
8.97338695789
8.97334876164
8.97330820256
8.9732651565
8.97321948297
8.97317102294
8.97311959618
8.97306499945
8.97300700484
8.97294535992
8.97287979024
8.97281000753
8.97273572179
8.97265672032
8.97257264535
8.97248279462
8.9723863488
8.9722823209
8.9721695344
8.97204660828
8.97191196186
8.97176387049
8.971600637
8.97142102377
8.97122526971
8.97101743395
8.97081072226
8.97063900218
8.9705763842
8.97074074424
8.97120385007
8.97180847711
8.97221242657
8.97228741806
8.97215318989
8.97192514939
8.97165178828
8.97134949579
8.97102693815
8.97069016823
8.97058689106
8.97336053579
8.97526847783
8.97579405923
8.97059040633
8.97091425051
8.97118517658
8.97140697451
8.97160030809
8.97178086353
8.9719590291
8.97213522027
8.97231141154
8.97246122513
8.97259049631
8.97269521466
8.97278112359
8.97285389338
8.97291665299
8.97297113813
8.97301860546
8.97306015332
8.97309683481
8.97312967904
8.9731596603
8.97318765331
8.97321439336
8.97324043852
8.97326616055
8.97329175993
8.97331731182
8.97334281254
8.9733682248
8.97339350156
8.97341860302
8.9734434977
8.97346816488
8.97349258866
8.97351675762
8.97354065928
8.97356428073
8.97358760503
8.97361061305
8.97363328158
8.97365558564
8.97367749764
8.97369898971
8.97372003374
8.97374060353
8.97376067866
8.97378015895
8.97379888274
8.97381674259
8.97383366578
8.97384960301
8.97386452083
8.97387839599
8.97389121244
8.97390295859
8.97391362659
8.97392321087
8.97393170847
8.97393911815
8.97394544125
8.97395068092
8.97395484338
8.97395793711
8.97395997415
8.97396096926
8.97396094101
8.9739599107
8.97395790303
8.9739549445
8.97395106336
8.97394628736
8.9739406428
8.97393415153
8.97392682923
8.97391868195
8.97390970406
8.97389987528
8.97388916014
8.97387750756
8.97386485399
8.97385112633
8.97383623789
8.97382011645
8.97380263883
8.97378370384
8.97376322146
8.97374124366
8.97371773355
8.97369266488
8.97366596772
8.97363761247
8.97360757825
8.97357580683
8.97354224095
8.97350682492
8.97346949409
8.97343017465
8.97338878158
8.97334521835
8.97329937513
8.97325112616
8.9732003278
8.97314681516
8.97309039925
8.97303086259
8.97296795556
8.9729013914
8.97283084303
8.9727559427
8.97267629033
8.97259164898
8.9725013252
8.97240447684
8.97230008454
8.97218690782
8.97206344016
8.97192786116
8.97177799494
8.97161129644
8.9714249264
8.97121605702
8.97098276159
8.97072635461
8.97045727352
8.97020871386
8.97005943853
8.97013350738
8.97050815941
8.97102611057
8.97131903963
8.97127995526
8.97106429719
8.97079020108
8.97050582218
8.97023501176
8.9700035008
8.97029645463
8.97378523998
8.97536188659
8.9758395483
8.97085934574
8.97116682212
8.97142177135
8.97163318274
8.97182412644
8.97200665366
8.97217282137
8.97233101723
8.97246611216
8.97257656471
8.9726616034
8.97273127485
8.97279223554
8.97284745479
8.97289812366
8.97294475804
8.9729877455
8.9730275167
8.97306457762
8.97309947852
8.97313277055
8.97316495639
8.97319645574
8.97322757708
8.97325851381
8.97328935165
8.973320097
8.9733507029
8.97338109925
8.97341120834
8.97344095969
8.97347029174
8.97349915639
8.97352751471
8.97355533806
8.973582603
8.97360929203
8.97363538946
8.97366088254
8.97368575859
8.97371000636
8.97373361429
8.97375657204
8.9737788698
8.97380050004
8.97382146241
8.97384171317
8.97386112318
8.97387961196
8.97389712822
8.97391363988
8.97392912771
8.97394358041
8.97395699228
8.97396936073
8.97398068588
8.97399096908
8.97400021337
8.97400842237
8.97401560112
8.97402175504
8.97402689091
8.9740310157
8.97403413753
8.97403626434
8.9740374046
8.97403756574
8.97403675459
8.97403497555
8.97403223069
8.97402851778
8.97402383027
8.97401815547
8.97401147467
8.97400376178
8.97399498399
8.97398510126
8.97397406802
8.97396183408
8.97394834753
8.97393355547
8.97391740909
8.97389985679
8.97388083997
8.97386033254
8.97383825172
8.97381454549
8.97378915918
8.97376215092
8.97373351544
8.97370323283
8.97367127826
8.97363759695
8.97360219072
8.97356500934
8.97352599125
8.97348507368
8.97344218752
8.97339724932
8.97335016308
8.97330081667
8.97324908136
8.97319480772
8.9731378227
8.97307792406
8.97301487554
8.9729483988
8.97287816581
8.97280378813
8.97272477318
8.97264093347
8.97255170056
8.97245624236
8.97235359218
8.9722425586
8.97212167362
8.97198912738
8.97184269068
8.97167962768
8.9714966221
8.97128977256
8.9710548197
8.97078802816
8.9704888501
8.97016719272
8.96986058499
8.96965685859
8.96967128175
8.96994092437
8.97027298099
8.97036250599
8.97022111041
8.97000372964
8.96978986335
8.96961296966
8.96951789337
8.97026139886
8.97411419319
8.97543210439
8.97587463275
8.9710780732
8.97136823567
8.97161017111
8.97181736226
8.97200702098
8.97216869632
8.97232256878
8.97246395922
8.97257035074
8.97264496466
8.97270330339
8.9727545254
8.97280261799
8.97284898957
8.97289395387
8.97293747364
8.97297949941
8.97302007603
8.97305935223
8.97309754415
8.97313489579
8.97317163587
8.97320795162
8.97324396685
8.97327974047
8.97331526886
8.97335050444
8.9733853696
8.97341977723
8.97345363952
8.97348687964
8.97351943205
8.97355124696
8.97358228619
8.97361252455
8.97364194475
8.97367053805
8.97369829981
8.9737252302
8.97375133085
8.97377660577
8.97380105909
8.97382469619
8.97384752264
8.9738695459
8.9738907822
8.97391123886
8.97393080769
8.97394942515
8.97396705313
8.97398366978
8.97399926405
8.97401383123
8.97402737105
8.97403988537
8.97405137787
8.97406185264
8.97407131467
8.97407976865
8.9740872198
8.97409367274
8.97409913231
8.97410360238
8.97410708661
8.97410958708
8.9741111049
8.97411163869
8.97411118502
8.97410973676
8.97410728349
8.97410380991
8.97409929641
8.97409371784
8.97408704445
8.9740792413
8.97407026967
8.97406008723
8.97404865009
8.97403591362
8.97402183479
8.9740063732
8.97398949188
8.97397115699
8.9739513413
8.97393001155
8.97390712672
8.97388267881
8.97385661807
8.97382890181
8.97379949332
8.97376837147
8.97373561505
8.97370116126
8.97366500818
8.97362708093
8.97358735177
8.97354579613
8.97350233906
8.97345689955
8.97340939252
8.97335971981
8.97330776541
8.97325339381
8.973196446
8.97313673504
8.97307404072
8.9730081014
8.97293860643
8.97286518711
8.97278738808
8.97270476519
8.97261707318
8.97252353446
8.97242325159
8.97231511364
8.97219774665
8.97206944357
8.97192807619
8.97177098224
8.9715948339
8.97139550209
8.97116798585
8.97090660082
8.97060600282
8.97026465597
8.96989492252
8.96954604459
8.96931984803
8.96930720119
8.96947553397
8.96960820122
8.96955789481
8.96942084463
8.9692890944
8.96920286648
8.96923205421
8.97041506351
8.9743621133
8.97548730657
8.97590249191
8.97125081103
8.97152635746
8.97176112033
8.97196453334
8.97212954805
8.97228893626
8.97245452093
8.97257223718
8.97264582151
8.97269785355
8.97274146981
8.97278274323
8.97282406608
8.9728660564
8.97290859793
8.97295135804
8.97299402798
8.97303639802
8.97307836561
8.97311990439
8.97316103387
8.97320178405
8.97324217609
8.97328220394
8.97332183348
8.97336100099
8.97339962536
8.97343761418
8.97347487763
8.97351133197
8.97354690823
8.97358155055
8.97361521995
8.97364788969
8.97367954662
8.97371018595
8.97373981186
8.97376843291
8.97379606268
8.97382271616
8.97384841054
8.97387316268
8.97389698992
8.97391990877
8.97394193591
8.97396310033
8.97398345379
8.97400290111
8.97402138985
8.97403888849
8.97405538006
8.97407085714
8.97408531788
8.97409876418
8.97411119948
8.9741226285
8.97413305583
8.97414248635
8.97415092416
8.97415837322
8.97416483631
8.97417031579
8.97417481243
8.9741783261
8.97418085453
8.9741823939
8.9741829375
8.97418247623
8.97418099731
8.97417848475
8.97417491826
8.97417027396
8.97416452357
8.97415763557
8.97414957485
8.9741403043
8.97412978492
8.97411797776
8.97410484439
8.97409034883
8.97407445776
8.97405714182
8.97403837512
8.97401813435
8.9739963983
8.97397315018
8.97394836507
8.97392200837
8.97389406772
8.97386452492
8.97383332123
8.97380042997
8.9737657474
8.97372940659
8.97369132835
8.97365146705
8.97360980107
8.97356623637
8.97352073279
8.9734732324
8.97342363263
8.97337182184
8.97331767571
8.97326105017
8.97320177238
8.97313963854
8.97307440378
8.97300577572
8.97293340069
8.97285685533
8.97277561481
8.9726895622
8.97259803343
8.97250019512
8.97239503201
8.97228128486
8.97215738183
8.97202135232
8.97187071022
8.97170230548
8.97151213864
8.97129516103
8.97104513474
8.97075482256
8.97041733608
8.9700311589
8.96961545567
8.9692410928
8.96902437147
8.96901344148
8.96910338625
8.9691163104
8.96904767354
8.9689794109
8.96895930146
8.96909019551
8.97068265524
8.97455033054
8.97553205983
8.97592507106
8.97138574826
8.97165065579
8.97188033216
8.9720590734
8.9722224692
8.97242323821
8.97257169706
8.97265646726
8.97270905067
8.97274856009
8.97278432
8.97282047881
8.97285852933
8.97289867338
8.97294057129
8.97298372445
8.97302766247
8.9730720055
8.97311647645
8.97316087857
8.97320507422
8.97324895624
8.97329243372
8.97333541552
8.97337780907
8.9734195158
8.97346043879
8.97350048349
8.97353956688
8.97357761707
8.97361457946
8.97365041333
8.97368509482
8.97371861175
8.9737509649
8.97378216266
8.97381222171
8.9738411625
8.97386900982
8.97389578939
8.97392152845
8.9739462533
8.97396998977
8.97399276161
8.974014591
8.97403550064
8.97405558841
8.97407478428
8.97409303027
8.97411029751
8.97412656992
8.97414184059
8.97415610815
8.97416937472
8.97418164377
8.97419291972
8.97420320657
8.97421250826
8.97422082765
8.97422816711
8.97423452751
8.97423990893
8.97424430959
8.97424772651
8.97425015442
8.9742515863
8.97425201236
8.97425142047
8.97424979522
8.97424711847
8.9742433685
8.9742385208
8.97423254755
8.97422541868
8.97421710167
8.97420756295
8.97419676798
8.97418468284
8.9741712744
8.97415651187
8.97414036674
8.97412281381
8.97410383044
8.97408339698
8.97406149545
8.97403810842
8.97401321857
8.97398681023
8.97395886109
8.97392933701
8.97389820812
8.97386547307
8.97383106352
8.97379494267
8.97375705998
8.97371729735
8.97367581101
8.97363245624
8.97358717865
8.97353992364
8.97349058249
8.9734390795
8.97338531843
8.97332915364
8.9732704201
8.9732089283
8.9731444533
8.97307672256
8.97300540659
8.97293010305
8.97285027036
8.97276575297
8.97267613299
8.97258060854
8.97247826144
8.97236794797
8.97224823659
8.97211732937
8.97197295064
8.97181220034
8.97163135719
8.97142563183
8.97118888232
8.97091339705
8.97059011736
8.97021059349
8.96977485381
8.96931603142
8.96893859619
8.96876442768
8.96878125397
8.9688327086
8.9688191619
8.96879416001
8.96881873269
8.96903807374
8.97101030061
8.97469589636
8.97556912164
8.97594362625
8.97149047804
8.97174823091
8.97195793175
8.97211775247
8.97234692332
8.97255005051
8.97266397133
8.97272718288
8.97276825944
8.9728014227
8.97283350702
8.97286750089
8.97290439116
8.97294416117
8.97298635966
8.97303040038
8.97307571864
8.97312182788
8.97316833768
8.9732149393
8.97326139219
8.97330750088
8.97335310427
8.97339806023
8.97344224387
8.97348554042
8.97352784974
8.97356908323
8.9736091697
8.97364805221
8.9736856922
8.97372206492
8.97375716159
8.97379098399
8.9738235455
8.97385486594
8.9738849722
8.97391389395
8.97394166427
8.97396831642
8.97399388451
8.97401840125
8.97404189867
8.97406440678
8.97408595475
8.97410655628
8.97412628857
8.97414517934
8.97416314559
8.97418015324
8.97419618355
8.97421122822
8.97422528492
8.97423835495
8.97425044096
8.97426154643
8.97427167437
8.97428082756
8.9742890076
8.97429621535
8.97430245012
8.97430771017
8.97431199187
8.9743152902
8.97431759792
8.97431890605
8.974319203
8.97431847511
8.97431670584
8.97431387639
8.97430996508
8.97430494808
8.97429879906
8.97429149013
8.97428299171
8.97427327368
8.97426230543
8.97425005707
8.97423649948
8.9742216055
8.9742053497
8.97418770924
8.97416866321
8.974148193
8.97412628113
8.97410291141
8.97407806743
8.97405173189
8.97402388579
8.97399450947
8.97396357996
8.97393106162
8.97389690843
8.97386109921
8.97382360711
8.97378434728
8.97374327531
8.97370029946
8.97365533992
8.97360848724
8.97355957809
8.9735085299
8.97345525344
8.97339960177
8.97334144279
8.97328062333
8.97321692248
8.97315008325
8.97307980047
8.97300571001
8.97292734443
8.97284423743
8.97275634761
8.97266294303
8.97256319013
8.9724560467
8.97234021519
8.97221406787
8.97207554405
8.97192201363
8.97175008743
8.97155536457
8.97133209923
8.97107280785
8.97076794334
8.97040620271
8.96997757544
8.96948651031
8.96899241167
8.96864419295
8.96854836791
8.9686156155
8.96866348319
8.96867594174
8.96873452777
8.96904129954
8.97136386425
8.97481079756
8.97560027677
8.97595901173
8.97157150843
8.97181612925
8.97198516457
8.97220464857
8.97247904843
8.97265026449
8.97273956312
8.97279099411
8.97282662074
8.97285731728
8.97288835081
8.97292201696
8.97295902098
8.97299924346
8.97304219265
8.97308724992
8.97313380708
8.97318132061
8.97322933509
8.97327747548
8.97332544009
8.97337298179
8.97341989996
8.97346602584
8.97351122024
8.97355536466
8.97359836347
8.97364013834
8.9736806317
8.97371980175
8.97375762515
8.97379409166
8.97382920568
8.97386298073
8.97389544042
8.97392661339
8.97395653407
8.97398523856
8.97401276537
8.97403915238
8.97406443759
8.97408865705
8.97411184562
8.9741340359
8.97415525906
8.97417553916
8.97419492587
8.97421350673
8.97423119514
8.97424794954
8.97426374759
8.97427857855
8.97429243828
8.97430532658
8.97431724488
8.97432819551
8.97433818048
8.97434720153
8.97435525922
8.97436235329
8.9743684819
8.97437364205
8.97437782886
8.974381036
8.97438325497
8.97438447558
8.97438468525
8.97438386951
8.97438201142
8.97437909211
8.97437509033
8.97436998319
8.97436374583
8.97435635231
8.97434777542
8.97433798775
8.97432696154
8.97431466976
8.974301086
8.97428618539
8.97426994432
8.97425234119
8.97423335571
8.9742129694
8.97419116456
8.97416792449
8.97414323224
8.97411707077
8.97408942151
8.97406026429
8.97402957563
8.97399732997
8.97396349925
8.97392804724
8.9738909246
8.97385207743
8.97381147702
8.9737690648
8.97372475064
8.97367846783
8.973630082
8.97357951064
8.97352681133
8.97347177766
8.97341427393
8.97335416405
8.97329122987
8.97322524741
8.97315596261
8.97308302112
8.97300599804
8.97292430445
8.97283801676
8.97274659035
8.97264922626
8.97254499278
8.97243272293
8.97231095094
8.97217782306
8.97203097511
8.97186735887
8.97168300407
8.97147268562
8.97122947883
8.97094420742
8.97060496951
8.9701976135
8.96971082893
8.96915946126
8.96864910662
8.96837585525
8.9683975089
8.96852009931
8.96858627241
8.96867964315
8.9690823958
8.97172154445
8.97490323552
8.97562674527
8.97597183339
8.97162798041
8.97183747801
8.97200437486
8.97232099339
8.97258836238
8.97272944383
8.97280501518
8.97285111561
8.97288516523
8.97291586876
8.97294751244
8.97298197963
8.97301983361
8.97306092866
8.97310478331
8.97315078865
8.9731983326
8.97324685325
8.97329586707
8.97334496699
8.97339382069
8.97344215543
8.97348975228
8.97353643215
8.97358205313
8.97362650047
8.97366968721
8.97371154686
8.9737520353
8.9737911246
8.97382880467
8.97386507744
8.97389995798
8.97393346901
8.97396564177
8.97399651123
8.97402611686
8.97405449879
8.97408169861
8.97410775659
8.97413271237
8.97415660314
8.97417946422
8.97420132791
8.97422222384
8.97424217834
8.9742612417
8.97427952978
8.97429695539
8.97431347546
8.97432906288
8.97434370371
8.97435739128
8.97437012353
8.97438190057
8.97439272374
8.97440259425
8.97441151313
8.97441948032
8.97442649487
8.97443255428
8.97443765482
8.97444179085
8.97444495523
8.97444713874
8.97444833044
8.97444851718
8.97444768405
8.9744458139
8.97444288791
8.97443888524
8.97443378369
8.97442755945
8.97442018791
8.97441164347
8.97440190042
8.97439093279
8.97437871528
8.97436522299
8.97435043228
8.97433432036
8.97431686601
8.9742980489
8.97427785011
8.97425625123
8.97423323468
8.97420878265
8.97418287733
8.97415549967
8.97412662964
8.97409624482
8.97406432068
8.97403082857
8.97399573712
8.97395901021
8.9739206082
8.97388047905
8.97383855923
8.97379478414
8.97374910383
8.97370143167
8.97365165757
8.97359968317
8.97354533492
8.97348846471
8.97342912316
8.97336702656
8.97330194894
8.97323367093
8.97316185416
8.97308612119
8.9730059994
8.97292110827
8.97283144829
8.9727362478
8.97263466894
8.97252565472
8.97240788716
8.97227970344
8.97213898919
8.97198302345
8.97180826445
8.97161004092
8.97138211817
8.97111609018
8.97080060448
8.97042066788
8.96995848438
8.96940253678
8.96879066373
8.96830247983
8.96816773161
8.96833520076
8.96849592136