/*--------------------------------*- C++ -*----------------------------------*\
| =========                 |                                                 |
| \\      /  F ield         | OpenFOAM: The Open Source CFD Toolbox           |
|  \\    /   O peration     | Version:  2312                                  |
|   \\  /    A nd           | Website:  www.openfoam.com                      |
|    \\/     M anipulation  |                                                 |
\*---------------------------------------------------------------------------*/
FoamFile
{
    version     2.0;
    format      ascii;
    arch        "LSB;label=32;scalar=64";
    class       volScalarField;
    location    "0.655/water";
    object      alpha.gas_0;
}
// * * * * * * * * * * * * * * * * * * * * * * * * * * * * * * * * * * * * * //

dimensions      [0 0 0 0 0 0 0];

internalField   nonuniform List<scalar> 
1504
(
0.729171524665
0.695709769815
0.674254489618
0.67563798412
0.642397961175
0.550177741271
0.451140433791
0.370468654363
0.30037220583
0.251867102777
0.23585376594
0.238043868616
0.246358849307
0.266207387549
0.328074046589
0.37075481054
0.371207298823
0.347790137003
0.227255862269
0.0735715666612
0.799633561707
0.72948152309
0.69154868114
0.682646172922
0.654285378558
0.559394751536
0.450850781261
0.362345417306
0.289598921886
0.243800553232
0.23193595005
0.234997202256
0.24390511207
0.262487727027
0.31811459003
0.371017832783
0.37075481054
0.356573380326
0.257489825343
0.106885455005
0.798296804728
0.752598905147
0.713123014048
0.694537220695
0.668344985711
0.575422720138
0.456682812596
0.356573038746
0.28030754334
0.236510132412
0.228664176616
0.232378584005
0.242400368347
0.261113365762
0.30837775369
0.368331399938
0.370913616146
0.364004942283
0.285380400106
0.142748227718
0.802721446961
0.764257604542
0.731212882619
0.707611003246
0.67881807944
0.59472755071
0.471020247518
0.359834813512
0.275579447651
0.23087321171
0.225484850553
0.229767649587
0.241788326743
0.261951394304
0.302436589563
0.356577222078
0.370900693492
0.370981880402
0.312993935277
0.180402850779
0.799192890466
0.769422708636
0.741040937302
0.716298333396
0.68458768082
0.607705978298
0.486607389311
0.366098242893
0.273400843523
0.226175965573
0.222047233984
0.227374672427
0.242478607884
0.265826937487
0.29905206217
0.339401330659
0.3687624828
0.379062768269
0.339022211805
0.217808467503
0.80448767078
0.771007688948
0.744310988758
0.719211522043
0.685566992245
0.610796207524
0.493123153937
0.368703906748
0.269501736811
0.220866791186
0.218856738434
0.224782437971
0.245617510419
0.272965880592
0.296585070675
0.322087646159
0.359492262448
0.388401511887
0.362137768934
0.250808467106
0.800042023523
0.770948578033
0.744128913099
0.718437762011
0.682171005845
0.606205908545
0.489551023137
0.363209159448
0.259640626858
0.219052303941
0.219013246902
0.222968039202
0.251216584287
0.281715700905
0.292580690466
0.30458473724
0.345204906713
0.395306949912
0.377912461559
0.274340973748
0.804623610145
0.768595237779
0.740458545871
0.712422372301
0.669305334056
0.588263439084
0.470925937588
0.343523099306
0.243388180042
0.219013246902
0.218474026634
0.223345159797
0.258757898047
0.283916750519
0.285324765506
0.289469403933
0.334123754077
0.39638054817
0.384237315233
0.28902456209
0.800210400068
0.761011949977
0.728658248403
0.695912735801
0.643676800981
0.554868440472
0.434881689271
0.309864593918
0.227351486924
0.218700909417
0.219013246902
0.22486610221
0.263349428559
0.28194661434
0.27659879765
0.280172015952
0.332485924163
0.39631310955
0.387881217201
0.301313958667
0.804056195629
0.744485570816
0.705308039108
0.664491835015
0.601169134302
0.503851169326
0.38230188844
0.267517493064
0.219369022569
0.219013246902
0.218213171407
0.227943613903
0.26423951348
0.274491672654
0.267665098804
0.277495010538
0.337244232394
0.397054012887
0.393942156238
0.316453702625
0.799477844728
0.717022146487
0.66751307704
0.612844375635
0.535932379336
0.431368924603
0.314537459651
0.230467451774
0.219013246902
0.218333676633
0.219013246902
0.228497360022
0.261284532914
0.264612706086
0.262081960351
0.280514516717
0.349118434974
0.398542741349
0.401211359052
0.334167810802
0.803066744195
0.678313831005
0.609317157379
0.534178867483
0.443580648904
0.338191770967
0.246199860582
0.219013246902
0.218485485698
0.219013246902
0.217812210406
0.228138269553
0.25354208821
0.256259784266
0.260779577669
0.292227575094
0.362513857556
0.399593291091
0.401419299192
0.355543553551
0.798893602382
0.615235173714
0.522117343361
0.425323733593
0.329511704177
0.247662579016
0.219013246902
0.218629420205
0.219013246902
0.217823615597
0.219013246902
0.224842517537
0.245430792759
0.252100532563
0.263885511449
0.305838252047
0.368981414476
0.398971109673
0.401478577181
0.382845240868
0.802650758564
0.524390769523
0.406113833289
0.298089371299
0.234244192902
0.219013246902
0.2184351704
0.219013246902
0.217683160543
0.219013246902
0.217595309326
0.222115679462
0.240197863055
0.24987761584
0.266686103531
0.311457201483
0.36961547938
0.397746938275
0.401534798929
0.400421984011
0.798293759066
0.421601536793
0.280694888668
0.220499180933
0.219013246902
0.217888485134
0.219013246902
0.217129430392
0.219013246902
0.217313291559
0.21888598331
0.22078257117
0.23690844025
0.245660109955
0.263930078639
0.309331121839
0.366561115282
0.395883461656
0.4015905629
0.401647412296
0.772848933312
0.295119137101
0.219254528325
0.219013246902
0.216998651641
0.219013246902
0.216098956942
0.219013246902
0.21667029073
0.21888598331
0.217412058819
0.221588331442
0.231682956463
0.235580520016
0.250389984505
0.294340668574
0.354441393676
0.391427062259
0.40095579875
0.401705465558
0.648320203968
0.218760500613
0.219013246902
0.216259240916
0.219013246902
0.215497557828
0.219013246902
0.215768529835
0.21888598331
0.217093839607
0.218732280277
0.22119300082
0.223434259688
0.222499169181
0.228573947402
0.263321053829
0.327601789156
0.380122565613
0.398957312096
0.401763517597
0.492028134299
0.246110145692
0.230567251702
0.221880338414
0.21681799116
0.219013246902
0.216376098483
0.219304965374
0.219056046475
0.219298146923
0.218463457368
0.219089685602
0.216639516459
0.215060237794
0.214695596117
0.228514187586
0.282917358217
0.353025956144
0.392168342538
0.401821568412
0.497516373885
0.416322639179
0.380913490022
0.346337269421
0.312052101122
0.282726947029
0.258399471151
0.238980351796
0.227641168408
0.221040409177
0.217082101633
0.214613275633
0.213401399287
0.212814646358
0.212189521614
0.212621846086
0.232492275136
0.300785103488
0.370735032223
0.402454110211
0.638893420447
0.703506017698
0.660481800476
0.619858163251
0.567859721473
0.498640945298
0.400066493183
0.305304384576
0.248098037292
0.224032249496
0.215329393699
0.212471617162
0.212103839686
0.212050489847
0.21193123389
0.211909117568
0.212158970213
0.238264664122
0.327543487469
0.399407999444
0.809704151234
0.842010668025
0.814623013629
0.789749337038
0.762668456519
0.719446696555
0.629693359432
0.489283979145
0.345507119082
0.256917317935
0.220925542963
0.21194077926
0.211899823984
0.211930796588
0.21190327959
0.211930796588
0.211871572119
0.212281326609
0.268814808915
0.381062946855
0.86689146593
0.861088902073
0.843249829975
0.821999248154
0.804606334619
0.780275093509
0.730030284125
0.635723561367
0.493098242108
0.349137875781
0.250362588997
0.211912787401
0.211930796588
0.211868540982
0.211930796588
0.211837083633
0.211930796588
0.211783535106
0.219822899239
0.343295561545
0.86780839771
0.862676330904
0.84497042439
0.822641384968
0.804906078277
0.781897879674
0.739085010583
0.665787855128
0.554771148576
0.425160067476
0.300642678855
0.214978868348
0.211798388184
0.211930796588
0.211834918796
0.211930796588
0.211656054279
0.211930796588
0.211694227892
0.298524555193
0.868448038944
0.861258182368
0.839835136619
0.8141411982
0.793648316622
0.770359857047
0.730574601006
0.661860954804
0.559779688012
0.442199433888
0.322727814679
0.224319480803
0.211930796588
0.211627203254
0.211930796588
0.211651001942
0.211930796588
0.211361999342
0.211930796588
0.260985147344
0.86780839771
0.852060755972
0.820945827518
0.789107297661
0.764928338285
0.739227780551
0.699668932982
0.634866234385
0.544132155031
0.434269728036
0.318531997272
0.225286866591
0.211682248799
0.211930796588
0.211429495328
0.211930796588
0.21140053666
0.211930796588
0.211030597416
0.241405239083
0.86807565037
0.82877063522
0.788231228755
0.752267861708
0.726324319518
0.696403815583
0.651013589914
0.584164558387
0.498285111946
0.396315052961
0.288739100498
0.2172977054
0.211930796588
0.211420169478
0.211930796588
0.211287090378
0.211930796588
0.211114073156
0.211930796588
0.235685110348
0.861429854459
0.790180525329
0.750803612528
0.716674246258
0.690550332997
0.652782903004
0.596975294467
0.522613736268
0.433067171218
0.332235483048
0.240305169979
0.211930796588
0.211638517884
0.211930796588
0.211244141735
0.211930796588
0.211175715895
0.211930796588
0.210831504319
0.237464646735
0.818579144598
0.74321929925
0.719142493592
0.695091057598
0.665990580895
0.616130054603
0.545617677232
0.45941681033
0.361935277521
0.264237260936
0.213340367689
0.211771817695
0.211930796588
0.211303824255
0.211930796588
0.211166266274
0.211930796588
0.211037577805
0.211930796588
0.244328823008
0.716464773986
0.699967775086
0.699210910593
0.688042299759
0.654507239011
0.590075137042
0.5021449986
0.40104055718
0.296455767602
0.221105994987
0.211802471461
0.211930796588
0.211329526886
0.211930796588
0.211116254297
0.211954353896
0.211114407282
0.211930796588
0.210898054336
0.253870628994
0.615233381047
0.665561220664
0.687589847151
0.682647896324
0.645248385673
0.567912054427
0.464783893798
0.351400473194
0.249287930866
0.21197888708
0.211930796588
0.211424535406
0.211930796588
0.211072371843
0.211930796588
0.211096162718
0.211930796588
0.211095431757
0.217796185005
0.255438555949
0.613730369374
0.633037455997
0.674016208848
0.672021152501
0.630688156697
0.543238295211
0.429855467366
0.311629180949
0.225291850132
0.211930796588
0.211533553958
0.211930796588
0.211102589033
0.211930796588
0.211015912277
0.211930796588
0.211132091663
0.211930796588
0.224627505508
0.248852650559
0.610715292207
0.612300763168
0.652006475821
0.651091556772
0.606929300358
0.513412283108
0.395147474657
0.279319636369
0.215335931273
0.21172629433
0.211930796588
0.211196304812
0.211930796588
0.211015912277
0.211930796588
0.211087632505
0.211930796588
0.215231463381
0.225497296221
0.237172670276
0.616415920485
0.581363358127
0.618393951094
0.616179879064
0.571100516739
0.476077276165
0.357669931887
0.250668717004
0.212034525798
0.211930796588
0.211376001876
0.211930796588
0.211062526952
0.211930796588
0.211081614909
0.211930796588
0.213337469033
0.224345979056
0.221094314741
0.225766980219
0.612410536199
0.524734530497
0.563809123553
0.560698838712
0.517664248768
0.425948797102
0.313138287625
0.225590416507
0.211930796588
0.211434675511
0.211930796588
0.211105012539
0.211930796588
0.211117936722
0.211930796588
0.212623102175
0.22831101235
0.226867686184
0.217298422621
0.217820452572
0.61325613622
0.435427714974
0.478654501435
0.475632976078
0.437987661876
0.356304111927
0.259644459756
0.212376425786
0.211629649412
0.211930796588
0.21114837656
0.211930796588
0.211183865417
0.211930796588
0.214279688408
0.229997876408
0.232009971655
0.226410296757
0.216366664877
0.214138679424
0.609466904283
0.335563922636
0.373298843274
0.367637425953
0.33621816226
0.274066125019
0.217245650001
0.211664401046
0.211930796588
0.211193084652
0.211930796588
0.211257096254
0.212258532928
0.219639346107
0.231688800501
0.232009971655
0.232041109552
0.225186587048
0.216429676184
0.213926068371
0.609349096566
0.29490979789
0.295467245779
0.289773962925
0.267128423478
0.229094900798
0.21164802212
0.211930796588
0.211167464928
0.211981308639
0.21834546204
0.222040536314
0.227691611825
0.232041109552
0.232009971655
0.232041109552
0.231385536215
0.224599684571
0.217476940906
0.214415848767
0.568235333873
0.29514901777
0.299962952517
0.292486879532
0.268613451253
0.235189978167
0.221526096342
1e-15
1e-15
1e-15
1e-15
1e-15
1e-15
1e-15
1e-15
1e-15
1e-15
1e-15
1e-15
1e-15
1e-15
1.01848815106e-15
1.05049652725e-15
1.83383883187e-15
0.00705469827517
9.78168445725e-05
1.12999699083e-15
1e-15
1e-15
1e-15
1e-15
1e-15
1e-15
1e-15
1e-15
1e-15
1e-15
1e-15
1e-15
1e-15
1e-15
1.02426209097e-15
1.06347274991e-15
1.83383584868e-15
0.0158812534442
0.000443381469738
2.31398997921e-07
1e-15
1e-15
1e-15
1.00185777779e-15
1e-15
1e-15
1e-15
1e-15
1e-15
1e-15
1e-15
1e-15
1e-15
1.01113854019e-15
1.03029657801e-15
1.07375915319e-15
1.83262367986e-15
0.0298979526728
0.00143949596157
4.34388562155e-06
1e-15
1e-15
1.00012015733e-15
1.00622159941e-15
1.00574432343e-15
1e-15
1e-15
1e-15
1e-15
1e-15
1e-15
1e-15
1e-15
1.01852685491e-15
1.03660891578e-15
1.081933679e-15
1.83325534476e-15
0.0490862141538
0.00359279020242
2.7632450821e-05
1.06912473802e-15
1e-15
1.00338520724e-15
1.00938754094e-15
1.01102522751e-15
1.00805973745e-15
1e-15
1e-15
1e-15
1e-15
1e-15
1.00247626922e-15
1.01590998942e-15
1.02473273769e-15
1.04329256162e-15
1.09028640873e-15
1.83740688875e-15
0.0723145282017
0.00736943406309
0.000104921191384
1e-15
1e-15
1.00135163759e-15
1.01412076018e-15
1.01520948439e-15
1.01651415365e-15
1.01489041405e-15
1.00782570612e-15
1.00504279386e-15
1.00701919857e-15
1.01205424245e-15
1.01914437335e-15
1.02426504692e-15
1.03074805484e-15
1.05009121835e-15
1.10094407997e-15
1.84494272544e-15
0.0964126560038
0.01283796091
0.000289277818309
1e-15
1e-15
1e-15
1.01737197235e-15
1.02088656407e-15
1.02293157815e-15
1.02309105377e-15
1.02252491027e-15
1.0218715784e-15
1.02261863614e-15
1.02412712876e-15
1.02628544748e-15
1.02967811201e-15
1.03577808448e-15
1.05636796163e-15
1.11303997873e-15
1.85558442087e-15
0.11767126582
0.0194772487071
0.000630052178867
3.59539154309e-07
1e-15
1e-15
1.01402970383e-15
1.02661152188e-15
1.02848865001e-15
1.02835784106e-15
1.02795045055e-15
1.02781118758e-15
1.02803856642e-15
1.02875134099e-15
1.03049268523e-15
1.03374410915e-15
1.03935324166e-15
1.06152020295e-15
1.12344431033e-15
1.86834748906e-15
0.134844950275
0.0265247511525
0.00113532496255
2.00533361925e-06
1e-15
1.00043852956e-15
1.00321281885e-15
1.02887211774e-15
1.03049169277e-15
1.0306299534e-15
1.03054900208e-15
1.03060443906e-15
1.03072437968e-15
1.03143078859e-15
1.03310278415e-15
1.03613090877e-15
1.04125813395e-15
1.0651740808e-15
1.13151453872e-15
1.88137408678e-15
0.150185176627
0.0337053226077
0.00177958186558
5.58128313363e-06
1e-15
1e-15
1e-15
1.02444313843e-15
1.03106933003e-15
1.03115997265e-15
1.03125061528e-15
1.03134197214e-15
1.03149097097e-15
1.03227758548e-15
1.0338934422e-15
1.0367086272e-15
1.041458186e-15
1.06720936656e-15
1.13826159774e-15
1.89440303111e-15
0.16705473146
0.0417103596512
0.00261305190924
1.18840487493e-05
1e-15
1e-15
1e-15
1.0042003851e-15
1.02816271155e-15
1.03106933003e-15
1.03059211857e-15
1.03023832517e-15
1.0305563691e-15
1.03147749961e-15
1.03304630225e-15
1.03563649709e-15
1.03996212383e-15
1.06771967675e-15
1.14481381104e-15
1.90798464133e-15
0.189193092674
0.0526954654712
0.00389483292802
2.44026215466e-05
1e-15
1e-15
1e-15
1e-15
1.02228425879e-15
1.02786262891e-15
1.02733760993e-15
1.027327207e-15
1.02792836169e-15
1.02896755495e-15
1.03047267694e-15
1.03284594829e-15
1.036824548e-15
1.06711697544e-15
1.15276416243e-15
1.92165010456e-15
0.222260261114
0.0696261540257
0.00606048663608
5.22778139812e-05
1e-15
1e-15
1e-15
1e-15
1.01681433085e-15
1.02231780365e-15
1.0228773776e-15
1.02334843757e-15
1.02410968666e-15
1.02514969546e-15
1.0265569161e-15
1.0287409429e-15
1.03248038871e-15
1.06563188141e-15
1.16212183768e-15
1.93465664506e-15
0.26438385878
0.0931558996628
0.00981349628004
0.000130097550963
1e-15
1e-15
1e-15
1e-15
1.00736167739e-15
1.01548118092e-15
1.01790943762e-15
1.01859378984e-15
1.01935204344e-15
1.02031185584e-15
1.02155683254e-15
1.02349951602e-15
1.02704924016e-15
1.06382301137e-15
1.17129119863e-15
1.9458660064e-15
0.299377641337
0.121802369946
0.0165330547761
0.000376031524423
5.37789584283e-07
1e-15
1e-15
1e-15
1e-15
1.01039810231e-15
1.01282392335e-15
1.01348011364e-15
1.01419962729e-15
1.01505099037e-15
1.01610262086e-15
1.01774271726e-15
1.02091096221e-15
1.06211287346e-15
1.17817444026e-15
1.95531697018e-15
0.323186243177
0.155183839597
0.0282392160094
0.00112747934025
6.8669993162e-06
1e-15
1e-15
1e-15
1e-15
1.00626774471e-15
1.00780080269e-15
1.00846859277e-15
1.00914001848e-15
1.00987949205e-15
1.01075532758e-15
1.01209984213e-15
1.01481058633e-15
1.06091361754e-15
1.17894382992e-15
1.96459288126e-15
0.343182487735
0.193918794737
0.0479745814381
0.00326210799886
4.93199882782e-05
3.54949414189e-08
1e-15
1e-15
1e-15
1.00007223364e-15
1.0034945654e-15
1.00421235824e-15
1.00475188842e-15
1.00533256019e-15
1.00600516006e-15
1.00702927775e-15
1.00922605207e-15
1.06059240172e-15
1.17438584821e-15
1.9762102012e-15
0.362444914962
0.236944185185
0.0796122384143
0.00891552089853
0.000282928445741
1.23808192801e-06
1e-15
1e-15
1e-15
1e-15
1.0010490212e-15
1.00138042863e-15
1.00172204646e-15
1.00210826666e-15
1.00255426397e-15
1.0032243053e-15
1.00480732963e-15
1.06178827613e-15
1.1641264722e-15
1.99243020211e-15
0.383502744002
0.281867197658
0.124929541715
0.0222415247893
0.00131179869109
1.67605158481e-05
5.44511757397e-11
1e-15
1e-15
1e-15
1.00000175388e-15
1.00005840713e-15
1.00016777021e-15
1.00032406199e-15
1.00053876767e-15
1.00093250113e-15
1.00198926739e-15
1.06589148212e-15
1.14798341251e-15
2.01467429572e-15
0.410620378096
0.325818172403
0.179544615579
0.0484673636428
0.00493380667683
0.000152170894617
2.42180192753e-07
1e-15
1e-15
1e-15
1e-15
1e-15
1e-15
1e-15
1e-15
1.00002687567e-15
1.00283443942e-15
1.07811594875e-15
1.12938942507e-15
2.03448544551e-15
0.417979534038
0.362578508554
0.23574756567
0.0893389780323
0.0149535203886
0.000956858097714
1.05576075107e-05
1e-15
1e-15
1e-15
1e-15
1e-15
1e-15
1e-15
1e-15
1e-15
1.01647665882e-15
1.09735732974e-15
1.12931952313e-15
2.03512197327e-15
0.41805389636
0.38988228887
0.28515157
0.139257689555
0.0358746332015
0.00411704746863
0.000135830647998
9.61911666303e-08
1e-15
1e-15
1e-15
1e-15
1e-15
1e-15
1e-15
1e-15
1.03838865537e-15
1.11211865519e-15
1.13526062192e-15
2.04162925262e-15
0.417979534038
0.408801486459
0.32483309602
0.19074124123
0.0694039611792
0.0129491893464
0.000986533533447
1.26566460148e-05
1e-15
1e-15
1e-15
1e-15
1e-15
1e-15
1e-15
1e-15
1.06103823777e-15
1.12789211244e-15
1.13247282433e-15
2.07002025474e-15
0.412378536937
0.420628559546
0.357827486314
0.24144836112
0.114186851862
0.0317172576262
0.004347222066
0.000179358319971
2.85850171285e-07
1e-15
1e-15
1e-15
1e-15
1e-15
1e-15
1.0210959105e-15
1.08699458821e-15
1.15990242186e-15
1.13278990907e-15
2.1052401496e-15
0.398671218842
0.420633009318
0.384954526943
0.290725840271
0.166801496596
0.063046784774
0.0133760337743
0.00124878666991
2.43788801929e-05
1.02998146751e-15
1e-15
1e-15
1e-15
1e-15
1e-15
1.02507135211e-15
1.09069791967e-15
1.17026822627e-15
1.13575033989e-15
2.1331089741e-15
0.380019505368
0.420637459
0.405824824152
0.335372080149
0.221866305932
0.105221923506
0.0312678036672
0.00503466905247
0.00029320252723
2.00767473994e-06
1e-15
1e-15
1e-15
1e-15
1e-15
1.01929205271e-15
1.08407319719e-15
1.17052461811e-15
1.16512674928e-15
2.16962300983e-15
0.362878583765
0.420641908592
0.421955614233
0.373542952235
0.273064206578
0.152087054206
0.0582512913329
0.0137017469902
0.0016616252328
6.2438559292e-05
7.98683274756e-08
1e-15
1e-15
1e-15
1e-15
1.00566613564e-15
1.06630139114e-15
1.16612035324e-15
1.21348026106e-15
2.22365038514e-15
0.350033023092
0.419292240201
0.427393022966
0.400796370109
0.315516920618
0.196724411518
0.0905734217168
0.0281501711247
0.00539066606329
0.000476578229825
9.37425974804e-06
1.00381741565e-15
1e-15
1e-15
1e-15
1e-15
1.04612098652e-15
1.16312503215e-15
1.26784031347e-15
2.27072008359e-15
0.339945574863
0.412639106396
0.427381278146
0.416524274374
0.347844483593
0.235908038542
0.124300564533
0.0475454339374
0.0122777206146
0.00190112584993
0.000116909106659
8.81914680125e-07
3.5616275768e-13
1e-15
1.25610742588e-15
1.45729243824e-15
1.27379317203e-15
1.18411511072e-15
1.30642260839e-15
2.27881412761e-15
0.328799726741
0.401252625298
0.427393022966
0.424409040456
0.371656987799
0.270219145957
0.157789815867
0.0703949494025
0.0224910740867
0.00485105274461
0.000556930604481
1.84011828615e-05
1.84048027015e-08
1e-15
1.32859847246e-11
1.79605163523e-11
6.9653054854e-12
3.32090446302e-13
1.81470250256e-15
2.3407310691e-15
0.315458376395
0.388307115873
0.426340275717
0.429276909316
0.390559936987
0.3006545039
0.190354370189
0.0956680732849
0.0360540173651
0.00971944512526
0.00170482107469
0.000136521944075
2.1325985395e-06
7.56484028565e-08
8.9662445178e-08
9.96635202012e-08
3.2079689371e-08
1.23539416693e-09
2.14926325875e-12
1.37906413801e-12
0.300484126477
0.374310547092
0.422696821151
0.42927591669
0.405572782067
0.329073899638
0.224493408136
0.125665171796
0.0550788323532
0.0180814896536
0.00426903651545
0.000599980583133
3.78751639478e-05
2.47016923126e-05
4.07553231291e-05
4.31831769619e-05
1.5173848876e-05
9.47754663938e-07
1.02322053058e-08
4.93914180913e-09
0.282981157026
0.356990315337
0.413748994914
0.429276909316
0.415930954553
0.357112909702
0.264567449163
0.166885639393
0.086749947726
0.0356946366941
0.0113497433331
0.0026597128285
0.000481882235484
0.000823082002277
0.0025747500643
0.00282462665919
0.00152579746461
0.000301919276035
9.16239169786e-06
1.76486888723e-06
0.262326802569
0.333563500313
0.398950044869
0.426960974805
0.421379322941
0.385111411038
0.314645988112
0.227709538502
0.143094087932
0.0767110275031
0.0353674930108
0.0151897094886
0.00448201493793
0.00618342243619
0.0436524784141
0.0649893098414
0.0421447656424
0.0192159272844
0.00168873352345
0.000119582242774
0.240396673926
0.30084080377
0.372840186765
0.416553409581
0.428499996128
0.418092892564
0.379394328261
0.310054731947
0.228144750824
0.154326732565
0.0987575707289
0.0575345684695
0.0253001446621
0.0409392866836
0.221297339666
0.530783543133
0.532987407842
0.269811390006
0.0527077941988
0.00180327915149
0.22267394739
0.261452920374
0.329023275073
0.392195197522
0.438572649212
0.459469512068
0.445532486882
0.397521473626
0.329119004735
0.257613891956
0.184355462206
0.108447289744
0.114075218608
0.335124037982
0.614063147771
0.612407352558
0.615192598011
0.612407352558
0.27155498798
0.00615050525647
0.213862497485
0.22771732824
0.27452613764
0.353504312617
0.435927260526
0.475835369853
0.476398505109
0.456131025004
0.408725634829
0.32848554948
0.225865975037
0.230427292003
0.461748021403
0.614695302142
0.612099445951
0.615029870284
0.612663698803
0.614608487319
0.384908892051
0.00998682957817
0.212541712208
0.212438318575
0.230670951231
0.301464229907
0.413948936591
0.474381640274
0.476372558109
0.467543427216
0.418375602644
0.3325528201
0.339116016905
0.530420306543
0.613336719609
0.611730177387
0.614135855979
0.612214777956
0.614581380918
0.612214777956
0.398963189645
0.0124014823392
)
;

boundaryField
{
    emptyPatch
    {
        type            empty;
    }
    minY
    {
        type            fixedValue;
        value           nonuniform List<scalar> 0();
    }
    maxY
    {
        type            inletOutlet;
        phi             phi.gas;
        inletValue      nonuniform List<scalar> 0();
        value           nonuniform List<scalar> 0();
    }
    water_to_cooler
    {
        type            zeroGradient;
    }
    water_to_heater
    {
        type            zeroGradient;
    }
    procBoundary3to1
    {
        type            processor;
        value           nonuniform List<scalar> 
41
(
0.223761651178
0.230489491
0.238694422452
0.241842643973
0.238944774423
0.233626710718
0.231619296373
0.231072403746
0.231023767343
0.228931063427
0.2242844008
0.21963727308
0.215856739497
0.540498190208
0.387257098506
0.391813336038
0.377859190426
0.349180705399
0.326631661714
0.223761651178
0.320079747475
0.212955315217
0.210882494454
0.211639803574
0.249424619654
0.355901333065
0.449823451775
0.472419860367
0.453884136905
0.410143859216
0.409012416839
0.549497619189
0.611656973057
0.61124287577
0.612252683298
0.611730177387
0.61435746928
0.612214777956
0.614121628167
0.363124079448
0.0106674886747
)
;
    }
    procBoundary3to2
    {
        type            processor;
        value           nonuniform List<scalar> 
41
(
0.608753905097
0.660163679216
0.661406583691
0.671071223186
0.632489542041
0.54375621758
0.451553170466
0.37514452947
0.309069500284
0.259534755711
0.240862301167
0.24227366332
0.250415635543
0.270893156254
0.334213996903
0.37140978747
0.37075481054
0.334067920444
0.190330123486
0.0443705750364
1e-15
1e-15
1e-15
1.00037557534e-15
1e-15
1e-15
1e-15
1e-15
1e-15
1e-15
1e-15
1e-15
1e-15
1e-15
1.01344561953e-15
1.03131061544e-15
1.83333182033e-15
0.0024982652687
1.39092733972e-05
1.03516954574e-15
1.03516954574e-15
)
;
    }
}


// ************************************************************************* //
