/*--------------------------------*- C++ -*----------------------------------*\
| =========                 |                                                 |
| \\      /  F ield         | OpenFOAM: The Open Source CFD Toolbox           |
|  \\    /   O peration     | Version:  2312                                  |
|   \\  /    A nd           | Website:  www.openfoam.com                      |
|    \\/     M anipulation  |                                                 |
\*---------------------------------------------------------------------------*/
FoamFile
{
    version     2.0;
    format      ascii;
    arch        "LSB;label=32;scalar=64";
    class       surfaceScalarField;
    location    "0.81/water";
    object      phi;
}
// * * * * * * * * * * * * * * * * * * * * * * * * * * * * * * * * * * * * * //

dimensions      [0 3 -1 0 0 0 0];

oriented        oriented;

internalField   nonuniform List<scalar> 
2929
(
4.84173622392e-08
6.55043923701e-07
-6.63695818434e-08
7.63209465155e-07
-5.29746555846e-08
6.91788623459e-07
2.82066001107e-09
6.48182968542e-07
4.38476956742e-08
5.50507681481e-07
6.79668060942e-08
4.92188317997e-07
8.07460804509e-08
4.6467062614e-07
8.5495612743e-08
4.55140980305e-07
8.43346331584e-08
4.57502963943e-07
8.05608523746e-08
4.64201020732e-07
7.59051919206e-08
4.68112864305e-07
7.00156113322e-08
4.67071728581e-07
6.25370000506e-08
4.62292153143e-07
5.28553206412e-08
4.61935088116e-07
4.18379670599e-08
4.69537852248e-07
3.04976357694e-08
4.70943333857e-07
1.74773007842e-08
4.57159078281e-07
1.76190927509e-09
4.21187889739e-07
-1.34166394988e-08
3.69774983863e-07
3.26707933267e-07
-2.25811506099e-08
5.65322271777e-08
7.5940637625e-07
-4.12437308769e-08
8.6119220998e-07
-1.95026310094e-08
6.72230854617e-07
3.09106145257e-08
5.97587986005e-07
6.1567299015e-08
5.19510661147e-07
8.00429218712e-08
4.73501712156e-07
9.01412460945e-08
4.54438331301e-07
9.3497707733e-08
4.51687276549e-07
9.20933187204e-08
4.58822027668e-07
8.88985476976e-08
4.67309275564e-07
8.47044754499e-08
4.7221632827e-07
7.91358658789e-08
4.72544307085e-07
7.15430425599e-08
4.69783007099e-07
6.19067831206e-08
4.71459059788e-07
5.17411871891e-08
4.79570549199e-07
4.07084553494e-08
4.81824523758e-07
2.66692237831e-08
4.71036420064e-07
8.66482792759e-09
4.39035822293e-07
-8.84540588966e-09
3.87169359351e-07
3.37882753481e-07
-2.00698106293e-08
1.25474465513e-07
7.75885143433e-07
9.17879690037e-08
8.86422147818e-07
8.05740534205e-08
6.81048216505e-07
9.85278142909e-08
5.78427831684e-07
1.10793930323e-07
5.06614411181e-07
1.17747393861e-07
4.66253080681e-07
1.20459306629e-07
4.51571931181e-07
1.18875580739e-07
4.53169615821e-07
1.14352182718e-07
4.63257138146e-07
1.09093899333e-07
4.72478437037e-07
1.03052275542e-07
4.78164205504e-07
9.58034778084e-08
4.79693228509e-07
8.6601442356e-08
4.78878260422e-07
7.61128931645e-08
4.81830019113e-07
6.59800578828e-08
4.89568194465e-07
5.45566876616e-08
4.93095287568e-07
3.8290972949e-08
4.8713628445e-07
1.70975642411e-08
4.60062593867e-07
-3.28780952685e-09
4.07421586397e-07
3.51565050607e-07
-1.70343127786e-08
1.55630802615e-07
7.52962298448e-07
1.45758806896e-07
8.78965779032e-07
1.45183777928e-07
6.75275452929e-07
1.54101367382e-07
5.66734712419e-07
1.58866331891e-07
5.00670637501e-07
1.59301791827e-07
4.65350230408e-07
1.5646622363e-07
4.54206217036e-07
1.50352129908e-07
4.59169464908e-07
1.42490311449e-07
4.71024199106e-07
1.34385494246e-07
4.8049037439e-07
1.25542011091e-07
4.86910134468e-07
1.15677920392e-07
4.89452469283e-07
1.04604390229e-07
4.89839241525e-07
9.28079404304e-08
4.93505076063e-07
8.1909138591e-08
5.00332522265e-07
6.93184419201e-08
5.05535076956e-07
4.99836492549e-08
5.06300730208e-07
2.5341231256e-08
4.84527106095e-07
2.01417652666e-09
4.30597810237e-07
3.67828142999e-07
-1.43283835984e-08
1.45378968376e-07
7.42293386708e-07
1.59269547587e-07
8.50367368293e-07
1.78277746994e-07
6.48500653572e-07
1.90330894522e-07
5.50793129725e-07
1.94951884785e-07
4.94398823232e-07
1.9339769688e-07
4.66272253697e-07
1.87472328454e-07
4.59880507902e-07
1.78106702936e-07
4.68404152334e-07
1.67867376618e-07
4.81160271092e-07
1.57173787557e-07
4.91086187595e-07
1.45722847505e-07
4.98257697638e-07
1.33986453596e-07
5.01077360762e-07
1.21625157143e-07
5.02083162971e-07
1.08886209746e-07
5.06120454737e-07
9.64561753831e-08
5.12631460936e-07
8.13177443116e-08
5.20526243817e-07
5.87730624947e-08
5.28669337723e-07
3.11555471738e-08
5.11954760316e-07
5.21112145981e-09
4.56375220905e-07
3.865066668e-07
-1.35616144687e-08
7.62802104162e-08
8.06628659939e-07
1.74932428552e-07
7.36694091914e-07
2.0245920607e-07
6.10450104324e-07
2.17325126705e-07
5.3106202461e-07
2.22656777002e-07
4.87104003865e-07
2.20043627582e-07
4.68154109419e-07
2.11403315901e-07
4.68238057999e-07
1.99270858864e-07
4.80390795791e-07
1.86932334887e-07
4.93387807774e-07
1.73786928507e-07
5.04126672672e-07
1.60703904692e-07
5.11229416537e-07
1.4789064221e-07
5.13774820021e-07
1.34909785984e-07
5.14944305152e-07
1.218936589e-07
5.19013885168e-07
1.07650917082e-07
5.26747098938e-07
8.90922230516e-08
5.38937729318e-07
6.37216044658e-08
5.53855852058e-07
3.34341971028e-08
5.42040327666e-07
4.88308782589e-09
4.8474491654e-07
4.0746396306e-07
-1.6182541849e-08
1.42512183063e-07
7.98543969177e-07
1.88961747364e-07
6.67640421805e-07
2.17965865813e-07
5.69234943019e-07
2.34799055796e-07
5.08963043967e-07
2.40211099626e-07
4.79666020689e-07
2.35803731712e-07
4.71825675666e-07
2.24080941618e-07
4.7967469617e-07
2.10090247842e-07
4.94226745857e-07
1.95875432214e-07
5.07485733654e-07
1.81433507671e-07
5.18455635843e-07
1.67905417277e-07
5.24641861303e-07
1.54885482971e-07
5.26676720679e-07
1.42239160476e-07
5.274716513e-07
1.29050550894e-07
5.32083997015e-07
1.13265203028e-07
5.42406927062e-07
9.18741181921e-08
5.60175885083e-07
6.48599135588e-08
5.80675852116e-07
3.30591006667e-08
5.73627272065e-07
1.50281885858e-09
5.16106029033e-07
4.31346451523e-07
-2.25025269956e-08
1.60944567192e-07
7.68663592073e-07
1.96848182037e-07
6.06792277238e-07
2.25295360564e-07
5.28655710364e-07
2.41422555298e-07
4.87874692946e-07
2.44047094029e-07
4.75208194206e-07
2.35059101526e-07
4.80163193585e-07
2.2022350011e-07
4.94240123834e-07
2.05605705446e-07
5.08690515318e-07
1.90844887936e-07
5.22125062366e-07
1.76866717584e-07
5.32316579216e-07
1.63940300291e-07
5.37451013551e-07
1.5209293529e-07
5.38407439262e-07
1.40410270276e-07
5.39040773889e-07
1.27299288279e-07
5.4507966327e-07
1.1092946873e-07
5.58647470297e-07
8.84451468963e-08
5.82496586255e-07
6.14567653216e-08
6.07459767262e-07
3.16079934792e-08
6.03243879896e-07
-3.57816418264e-09
5.5107755204e-07
4.59317818711e-07
-3.16917229834e-08
1.60490882986e-07
7.41858887959e-07
1.96382528245e-07
5.47089325231e-07
2.22370636847e-07
4.91766130184e-07
2.33103185799e-07
4.72921598422e-07
2.27850164769e-07
4.78988673806e-07
2.13229553654e-07
4.94233989204e-07
1.97291880497e-07
5.09928261851e-07
1.83234530912e-07
5.22604412737e-07
1.69710675925e-07
5.35528547153e-07
1.57459717659e-07
5.44451547639e-07
1.46384600337e-07
5.48412349985e-07
1.36295368293e-07
5.48387942421e-07
1.25376255722e-07
5.4985275225e-07
1.13188121642e-07
5.57152455014e-07
9.80094189714e-08
5.73688956068e-07
7.78698168254e-08
6.02459215891e-07
5.38555047039e-08
6.31252110772e-07
2.88060090288e-08
6.28057095015e-07
-8.74880700676e-09
5.88401089959e-07
4.91785097677e-07
-4.13844735851e-08
1.66944453086e-07
7.06336411092e-07
1.94678247519e-07
4.97405129195e-07
2.08975249883e-07
4.68353271737e-07
2.05127188102e-07
4.73638361134e-07
1.90263697069e-07
4.9269622811e-07
1.72629844355e-07
5.11413796982e-07
1.57049001996e-07
5.25306800675e-07
1.44103302114e-07
5.35429035613e-07
1.3246171164e-07
5.47060465417e-07
1.22208372822e-07
5.54597973749e-07
1.13022169768e-07
5.57495563545e-07
1.03441452905e-07
5.57870071077e-07
9.32220805581e-08
5.59968340394e-07
8.28721838623e-08
5.67384779468e-07
7.13605867882e-08
5.8505491282e-07
5.71966084175e-08
6.16436310112e-07
3.94679889512e-08
6.48757836065e-07
1.97922343196e-08
6.4748581243e-07
-1.15979267952e-08
6.19533131172e-07
5.29469941088e-07
-4.94846422707e-08
1.82542436696e-07
6.52341514505e-07
1.90998863573e-07
4.68998081691e-07
1.8198929509e-07
4.70430304127e-07
1.61432482755e-07
4.91754952406e-07
1.39300730967e-07
5.13961808291e-07
1.19436571483e-07
5.30976178254e-07
1.02735694661e-07
5.41868770677e-07
8.91364041945e-08
5.48936975472e-07
7.83757646855e-08
5.57724108361e-07
6.87739382881e-08
5.64108142659e-07
5.95809103427e-08
5.66598546728e-07
4.96497819571e-08
5.67708175272e-07
4.04208313216e-08
5.69095486554e-07
3.28945727847e-08
5.74792009798e-07
2.7543040907e-08
5.90256722455e-07
2.21782629599e-08
6.21608561565e-07
1.34397025969e-08
6.57257548768e-07
1.60913194318e-11
6.60660602445e-07
-1.75088980883e-08
6.36784043605e-07
5.69506829176e-07
-5.77994774117e-08
1.78672179056e-07
6.31255549331e-07
1.57775781538e-07
4.75490252145e-07
1.2661521029e-07
4.96020493635e-07
9.59631454165e-08
5.20581832095e-07
6.83852365124e-08
5.41040941471e-07
4.48678998463e-08
5.5432402467e-07
2.59075723773e-08
5.60747531763e-07
1.02589100226e-08
5.64504429709e-07
-1.48427452938e-09
5.69394561184e-07
-1.11718092164e-08
5.73716814452e-07
-2.05727035558e-08
5.75917018919e-07
-2.92906789332e-08
5.76336502157e-07
-3.5926598262e-08
5.75630539933e-07
-3.84867243186e-08
5.77233211283e-07
-3.57759366768e-08
5.87396844951e-07
-2.90630079788e-08
6.14701871932e-07
-2.45719010814e-08
6.52531100726e-07
-2.92824055266e-08
6.65107032009e-07
-3.67803687742e-08
6.43991004507e-07
5.9756955621e-07
-6.5155059994e-08
1.52075352653e-07
6.35278630831e-07
8.51741806063e-08
5.30467958155e-07
2.82457026659e-08
5.4857606694e-07
-1.8620552862e-08
5.66302588444e-07
-5.60670780053e-08
5.78267661386e-07
-8.41259520007e-08
5.82329372322e-07
-1.03209673493e-07
5.79773125756e-07
-1.15690651136e-07
5.76931746292e-07
-1.2281184739e-07
5.76450889411e-07
-1.27037234271e-07
5.77869569521e-07
-1.30357968049e-07
5.79156806764e-07
-1.32502821879e-07
5.78390947454e-07
-1.3259854884e-07
5.75624624566e-07
-1.2837757554e-07
5.72896536248e-07
-1.16990252749e-07
5.75869183666e-07
-9.74067585914e-08
5.94931935692e-07
-7.62405701909e-08
6.31123227233e-07
-6.89848189964e-08
6.5757469157e-07
-6.85928499653e-08
6.43298890499e-07
6.05111742447e-07
-7.64519411615e-08
1.1227416754e-07
6.80879141601e-07
-2.11872082987e-08
6.55698068925e-07
-1.30428125136e-07
6.56002432282e-07
-2.13242305622e-07
6.49298784006e-07
-2.67127382254e-07
6.32176636358e-07
-2.94406810458e-07
6.0958265196e-07
-3.00101238818e-07
5.8541596797e-07
-2.92970859215e-07
5.69731556911e-07
-2.80220843811e-07
5.63622813799e-07
-2.66012297603e-07
5.63575433836e-07
-2.52221346002e-07
5.65272523794e-07
-2.39368836715e-07
5.65437111034e-07
-2.27059352545e-07
5.63205050516e-07
-2.14063567506e-07
5.59782072168e-07
-1.96857337975e-07
5.5853175231e-07
-1.68902430377e-07
5.66809075757e-07
-1.32767501494e-07
5.94756612106e-07
-1.06591785447e-07
6.31114301182e-07
-9.58257219855e-08
6.32226122661e-07
5.98904945793e-07
-8.99471920277e-08
1.26523289342e-07
7.33275820887e-07
-6.82479578616e-08
8.4531780274e-07
-2.14174299358e-07
8.05955975865e-07
-3.29023610889e-07
7.66848376199e-07
-4.11767567799e-07
7.15551255489e-07
-4.56105883877e-07
6.53974924411e-07
-4.60252975428e-07
5.895028704e-07
-4.36756666319e-07
5.46155036123e-07
-4.03171577637e-07
5.29950002009e-07
-3.68802709018e-07
5.29113505356e-07
-3.37075095386e-07
5.33445439182e-07
-3.09251672707e-07
5.37506577993e-07
-2.84951525315e-07
5.38789818151e-07
-2.63336808138e-07
5.38043647035e-07
-2.42718167177e-07
5.37782178573e-07
-2.16189486702e-07
5.40136888088e-07
-1.75369196481e-07
5.53738827387e-07
-1.33295100435e-07
5.88769049617e-07
-1.13382867816e-07
6.12008995389e-07
5.84140267077e-07
-9.89492906479e-08
1.75890030181e-07
6.92423721e-07
7.11280083749e-08
9.35180838146e-07
-5.95186757317e-08
9.34661635292e-07
-1.99606187352e-07
9.06759656305e-07
-3.21104746237e-07
8.38037584298e-07
-4.02451110331e-07
7.3559301475e-07
-4.35410701916e-07
6.22437561623e-07
-4.28048456963e-07
5.38712402328e-07
-4.01635106113e-07
5.03461214763e-07
-3.67863823087e-07
4.95265934403e-07
-3.34613108554e-07
5.00110087657e-07
-3.05166438076e-07
5.07964834308e-07
-2.79513207072e-07
5.13029646723e-07
-2.5678203261e-07
5.15195846887e-07
-2.36304686902e-07
5.17177505075e-07
-2.16457303019e-07
5.2015471676e-07
-1.86302235637e-07
5.23429259089e-07
-1.43098038279e-07
5.4532848123e-07
-1.15464151542e-07
5.840716446e-07
5.66605561157e-07
-9.82567266572e-08
6.86985643215e-08
6.58413033781e-07
7.15211103227e-08
9.23550629446e-07
4.855324183e-08
9.5202226682e-07
1.51726730032e-08
9.37772142805e-07
-5.99037145114e-08
9.12385453719e-07
-1.78624993516e-07
8.5411485112e-07
-2.76135664316e-07
7.19837242014e-07
-2.92663926504e-07
5.55114582961e-07
-2.89880718338e-07
5.00570619381e-07
-2.75782027838e-07
4.81080958799e-07
-2.56157535655e-07
4.80404319624e-07
-2.36757139373e-07
4.88475039977e-07
-2.19673747272e-07
4.95847439047e-07
-2.04169698159e-07
4.99581161253e-07
-1.89864736457e-07
5.02752006131e-07
-1.77098595403e-07
5.07257347903e-07
-1.6292861174e-07
5.09120835229e-07
-1.32187239526e-07
5.14397681185e-07
-1.02565692285e-07
5.54154543269e-07
5.52906007214e-07
-8.91926811442e-08
4.63701161952e-08
6.31302611039e-07
5.01024434818e-08
9.10370584306e-07
4.43567590219e-08
9.51387420696e-07
3.54212190284e-08
9.43719465901e-07
1.44848041321e-08
9.32152788098e-07
-2.52674435812e-08
8.93407315247e-07
-1.05793427195e-07
8.00120094887e-07
-1.33429071354e-07
5.82548689759e-07
-1.4677845975e-07
5.13757495906e-07
-1.514086332e-07
4.85589888284e-07
-1.48700548458e-07
4.77603435445e-07
-1.42106302167e-07
4.81791841964e-07
-1.36153944681e-07
4.89796777399e-07
-1.30468610034e-07
4.9378938104e-07
-1.24811620534e-07
4.96977963174e-07
-1.19893886217e-07
5.02214595281e-07
-1.16210830696e-07
5.05301174659e-07
-1.046030982e-07
5.02641939287e-07
-8.06424361331e-08
5.29940075217e-07
5.45815323778e-07
-7.38623573714e-08
2.2010398752e-08
6.29671242131e-07
1.26458282903e-08
9.11345685436e-07
1.16276382386e-08
9.4740629416e-07
1.6638439938e-08
9.36069202588e-07
2.16558930054e-08
9.25959511556e-07
2.05749834502e-08
8.93968014446e-07
1.06437130966e-08
8.09754749501e-07
-8.09211282371e-09
6.01041936466e-07
-2.43742208232e-08
5.29839739846e-07
-3.73978520167e-08
4.98458179092e-07
-4.5954328159e-08
4.8604571015e-07
-4.99557537662e-08
4.85702259558e-07
-5.32727100054e-08
4.93015837049e-07
-5.59607397486e-08
4.9637068728e-07
-5.80420753681e-08
4.98946634323e-07
-6.00184221453e-08
5.04067214578e-07
-6.31129630633e-08
5.08266633567e-07
-6.55696743617e-08
5.04957767559e-07
-5.31291393913e-08
5.1728213608e-07
5.4474052781e-07
-5.23552141446e-08
-1.04388730887e-08
6.66084413441e-07
-3.95249861286e-08
9.36804783594e-07
-4.6049475434e-08
9.52972127751e-07
-3.97550045158e-08
9.29017017669e-07
-2.62437739017e-08
9.11929270166e-07
-1.17875763617e-08
8.79167124419e-07
7.36891879062e-08
7.24015726877e-07
7.32239684321e-08
6.01254604768e-07
6.11990928497e-08
5.416545201e-07
4.78546236716e-08
5.11635261927e-07
3.56384589522e-08
4.98136362153e-07
2.53112575099e-08
4.95935304687e-07
1.62935370728e-08
5.01933232036e-07
8.11651466012e-09
5.04443194928e-07
6.41191302475e-10
5.06309463121e-07
-6.46287215401e-09
5.1105486582e-07
-1.42813933394e-08
5.15957246805e-07
-2.35406131405e-08
5.14084529588e-07
-2.3946593191e-08
5.17513661409e-07
5.49034608038e-07
-2.85378008476e-08
-4.83726995737e-08
7.47856621832e-07
-9.28543555112e-08
9.86876576584e-07
-1.03694213658e-07
9.67480866095e-07
-9.85555937169e-08
9.25065002173e-07
-8.01371861712e-08
8.93575668257e-07
4.38759992848e-08
7.54962382652e-07
1.10201712141e-07
6.57401212406e-07
1.22452628392e-07
5.8875547899e-07
1.17497064522e-07
5.46400952161e-07
1.06848889469e-07
5.22115118288e-07
9.46050878233e-08
5.102536048e-07
8.13571413319e-08
5.09085849941e-07
6.94383721571e-08
5.13753259783e-07
5.83773901414e-08
5.15399076625e-07
4.78525079794e-08
5.16726029461e-07
3.77875170366e-08
5.2100365833e-07
2.73868762803e-08
5.26239841695e-07
1.52894616024e-08
5.2605378955e-07
5.03814245085e-09
5.27586908239e-07
5.5785523681e-07
-4.0537483585e-09
-8.22816594845e-08
8.72438315381e-07
-1.30467362023e-07
1.05002262629e-06
-1.4669033116e-07
9.916777447e-07
-1.40700752157e-07
9.21302762828e-07
6.82655297494e-09
7.46365452376e-07
9.38287808922e-08
6.67633163715e-07
1.3560305752e-07
6.15355294063e-07
1.51188479261e-07
5.72940819598e-07
1.5221693395e-07
5.45179336161e-07
1.45771414533e-07
5.28405865036e-07
1.34839661571e-07
5.2106951842e-07
1.20677367085e-07
5.23151951631e-07
1.07606930512e-07
5.26721109242e-07
9.52780742254e-08
5.27625279531e-07
8.33436522641e-08
5.28550949375e-07
7.18565957953e-08
5.32377890955e-07
6.03518982324e-08
5.37619733084e-07
4.7352868484e-08
5.3892046829e-07
3.20046689483e-08
5.42788993475e-07
5.70053098201e-07
1.95368022452e-08
-9.0513009487e-08
1.00825402144e-06
-1.21165689876e-07
1.09923879214e-06
-1.34033817436e-07
1.01247484052e-06
9.66366683015e-09
7.79942880819e-07
7.93452987013e-08
6.7637531079e-07
1.26424310982e-07
6.20258060067e-07
1.57299924123e-07
5.84232341284e-07
1.7151708052e-07
5.58518125995e-07
1.74701624784e-07
5.41825768138e-07
1.70388295097e-07
5.32587702186e-07
1.59395737272e-07
5.3196085929e-07
1.45889495976e-07
5.36558449635e-07
1.33118970975e-07
5.39393386381e-07
1.20763377029e-07
5.3987655082e-07
1.08604271656e-07
5.40604762386e-07
9.67940599779e-08
5.44075753607e-07
8.51630549535e-08
5.49137502992e-07
7.24304703931e-08
5.5153363654e-07
5.46875176072e-08
5.60352687524e-07
5.83246004281e-07
4.12452463106e-08
-5.896981537e-08
1.09678642165e-06
-8.15738069727e-08
1.13072538018e-06
4.07396110254e-08
8.96552127385e-07
9.03826685211e-08
7.29764189209e-07
1.28829176043e-07
6.37427461699e-07
1.59114455578e-07
5.89625735373e-07
1.80016886665e-07
5.63083779378e-07
1.90594037029e-07
5.47755948764e-07
1.92544460498e-07
5.39733879813e-07
1.8623993858e-07
5.38785612474e-07
1.74231772029e-07
5.43872717537e-07
1.61811529128e-07
5.48884477766e-07
1.49759206521e-07
5.51345176074e-07
1.37844564725e-07
5.51691205475e-07
1.25959918652e-07
5.52383127852e-07
1.14383612506e-07
5.55542006568e-07
1.03111092184e-07
5.60288562249e-07
9.04163456118e-08
5.6409877591e-07
7.33253360798e-08
5.77295115372e-07
5.95627115016e-07
6.07064719487e-08
4.80982760525e-09
1.12006216457e-06
8.40517160077e-08
1.05171233013e-06
1.27282011206e-07
8.51307267e-07
1.52311083734e-07
7.03094741041e-07
1.7216463584e-07
6.1666683264e-07
1.89863070677e-07
5.71450245817e-07
2.02455793852e-07
5.50222351277e-07
2.08024085932e-07
5.42019027609e-07
2.053925491e-07
5.42250131113e-07
1.95482112183e-07
5.48601732539e-07
1.83692600177e-07
5.5557105121e-07
1.72070598413e-07
5.6040941628e-07
1.60557358179e-07
5.62763434047e-07
1.48997304506e-07
5.6315136149e-07
1.37404641813e-07
5.63874021147e-07
1.26139996151e-07
5.66699422717e-07
1.15500863407e-07
5.70817365627e-07
1.01831018834e-07
5.77663237027e-07
8.81371393067e-08
5.90807418425e-07
6.06194427494e-07
7.73410432349e-08
1.16297736984e-07
1.07695602538e-06
1.72616238127e-07
9.73695310912e-07
1.93535278412e-07
8.2226983132e-07
2.02730891467e-07
6.90276450033e-07
2.11725586822e-07
6.06057992612e-07
2.19893444644e-07
5.62570673236e-07
2.24615802691e-07
5.45174931209e-07
2.23148368019e-07
5.43321823849e-07
2.14107715358e-07
5.5118517791e-07
2.02297300575e-07
5.60319481809e-07
1.90627769059e-07
5.67144865482e-07
1.79040997908e-07
5.71904166473e-07
1.67460573077e-07
5.74247336548e-07
1.55716746263e-07
5.74798602428e-07
1.43978186839e-07
5.75513191425e-07
1.32638993769e-07
5.77936826378e-07
1.21675347327e-07
5.8168051272e-07
1.08809465927e-07
5.90381801946e-07
9.91037845444e-08
6.00341583651e-07
6.14062838081e-07
9.10247858248e-08
2.12827424084e-07
9.67647366053e-07
2.25419791828e-07
9.25189694436e-07
2.34669980749e-07
7.99000930745e-07
2.4014059735e-07
6.78849589279e-07
2.43918391677e-07
5.99766522116e-07
2.45478173366e-07
5.59990399754e-07
2.42870217165e-07
5.47374666104e-07
2.33545243533e-07
5.52469630969e-07
2.20484096706e-07
5.64133203044e-07
2.07802785983e-07
5.72900842665e-07
1.95435813782e-07
5.79420402785e-07
1.83205690657e-07
5.84040385687e-07
1.70874548035e-07
5.86485667466e-07
1.58385431992e-07
5.87193257443e-07
1.45943669176e-07
5.8785774135e-07
1.34001775119e-07
5.89780208364e-07
1.21249855449e-07
5.94309026759e-07
1.10893041629e-07
6.00606396929e-07
1.04772287544e-07
6.06306042169e-07
6.17931806687e-07
1.00712396591e-07
1.99558262133e-07
8.93083165914e-07
2.23262213604e-07
8.64270275095e-07
2.43999640456e-07
7.61346365867e-07
2.56153124217e-07
6.59147739502e-07
2.60776972099e-07
5.91945221678e-07
2.59195849118e-07
5.60312710115e-07
2.50873732426e-07
5.55228437045e-07
2.36599140471e-07
5.66544574645e-07
2.22421985848e-07
5.78183954812e-07
2.08954320458e-07
5.86272567536e-07
1.95861427511e-07
5.92420775703e-07
1.82806727677e-07
5.9700647818e-07
1.6957108692e-07
5.99631285057e-07
1.56133370491e-07
6.00537940154e-07
1.4280726696e-07
6.01088851938e-07
1.29796522516e-07
6.02684123956e-07
1.16511884737e-07
6.07493601726e-07
1.07587206477e-07
6.09407940423e-07
1.03368439885e-07
6.10387019682e-07
6.17853701116e-07
1.03277355517e-07
1.80747276455e-07
8.50042320676e-07
2.12400215337e-07
7.98449072911e-07
2.44328497209e-07
7.12150718711e-07
2.62860439527e-07
6.32543360039e-07
2.68409121267e-07
5.82960037871e-07
2.63686732189e-07
5.63713669705e-07
2.49882679333e-07
5.68554457468e-07
2.33400323582e-07
5.82811477798e-07
2.18155532834e-07
5.93307924145e-07
2.03825638981e-07
6.00506683058e-07
1.8992569546e-07
6.06236109067e-07
1.76074535055e-07
6.10773483614e-07
1.61996180115e-07
6.13623179606e-07
1.47742490459e-07
6.14705439583e-07
1.33667107331e-07
6.15071212923e-07
1.18748066306e-07
6.17523946677e-07
1.06058670431e-07
6.20073328922e-07
9.7546381405e-08
6.17802070776e-07
9.34931349311e-08
6.14314735907e-07
6.15471730547e-07
9.57247351493e-08
1.6875342885e-07
8.26071386183e-07
2.05311042727e-07
7.32005514232e-07
2.4058538178e-07
6.61225758609e-07
2.60907461167e-07
6.04858728787e-07
2.65096069193e-07
5.7567759332e-07
2.55421787134e-07
5.72235216031e-07
2.37403695401e-07
5.86130147863e-07
2.19789573952e-07
6.00230501037e-07
2.0377933298e-07
6.09202923862e-07
1.88878286372e-07
6.15323285307e-07
1.74596551144e-07
6.20438196287e-07
1.60432859757e-07
6.24855857608e-07
1.46165605061e-07
6.27810228714e-07
1.319346296e-07
6.28850477039e-07
1.17860865971e-07
6.29065109637e-07
1.03043100062e-07
6.32231992715e-07
9.14402836886e-08
6.31565294657e-07
8.27640738232e-08
6.26368238396e-07
7.73384916451e-08
6.19625738096e-07
6.13252355581e-07
7.94255976822e-08
1.71914884603e-07
7.99396214074e-07
2.08441717732e-07
6.68090252888e-07
2.36479885392e-07
6.19333611131e-07
2.49875273257e-07
5.85269999882e-07
2.46631050725e-07
5.76477852918e-07
2.29506737338e-07
5.88452121518e-07
2.09113925817e-07
6.06158138051e-07
1.90646802744e-07
6.1853061629e-07
1.74199254637e-07
6.25555518281e-07
1.59368558105e-07
6.30076121239e-07
1.45419484431e-07
6.34309959794e-07
1.31855122593e-07
6.38345078569e-07
1.1844906383e-07
6.41133995128e-07
1.05440233565e-07
6.41781038086e-07
9.12469206227e-08
6.43158060394e-07
7.97595762733e-08
6.43618753287e-07
7.10925539974e-08
6.40127337992e-07
6.42294560588e-08
6.33124609573e-07
5.90520093856e-08
6.24691680762e-07
6.12709194364e-07
5.94744460872e-08
1.78894872462e-07
7.66178507597e-07
2.02242830818e-07
6.20441297283e-07
2.14274804224e-07
5.95723053378e-07
2.12189913185e-07
5.82598932662e-07
1.97686785065e-07
5.89200597174e-07
1.7589926316e-07
6.09555630774e-07
1.5494612192e-07
6.26844632589e-07
1.3652748545e-07
6.3683138319e-07
1.20985523986e-07
6.41021338224e-07
1.07668513253e-07
6.43322280604e-07
9.58208276712e-08
6.46091253559e-07
8.48635997909e-08
6.49225841076e-07
7.43503961445e-08
6.51574871774e-07
6.37007043605e-08
6.52339198289e-07
5.37882030773e-08
6.52978791541e-07
4.76668453557e-08
6.49640814558e-07
4.40383680492e-08
6.4365148792e-07
4.17286786094e-08
6.35327360083e-07
4.0593403924e-08
6.25714424445e-07
6.11587777274e-07
4.15948454748e-08
1.76541973354e-07
7.37155788837e-07
1.65987655217e-07
6.11318941597e-07
1.52639698858e-07
6.00227354549e-07
1.32470856642e-07
5.99263087782e-07
1.08297502808e-07
6.12130073692e-07
8.4687142059e-08
6.32733167383e-07
6.35472418168e-08
6.47836270593e-07
4.6151309641e-08
6.54163447222e-07
3.32162745011e-08
6.53898134776e-07
2.39597837152e-08
6.52526364757e-07
1.75571768402e-08
6.5242472156e-07
1.28369376985e-08
6.53880994161e-07
9.22979844835e-09
6.55098757052e-07
5.86969391282e-09
6.5561497774e-07
5.93695944557e-09
6.52817028836e-07
8.41922940649e-09
6.47054719472e-07
1.26222273335e-08
6.39340152069e-07
1.76477752806e-08
6.30190259859e-07
2.35446122547e-08
6.19700773258e-07
6.05109595558e-07
2.9899193438e-08
1.54854808996e-07
7.33109304618e-07
1.02803518194e-07
6.4786257834e-07
5.82500671964e-08
6.3867015877e-07
1.76607215288e-08
6.37746691383e-07
-1.84090434664e-08
6.47576102553e-07
-4.92115362058e-08
6.63357510592e-07
-7.46070992716e-08
6.73178230408e-07
-9.09520210453e-08
6.70465603989e-07
-9.6974103152e-08
6.59875099602e-07
-9.46728558076e-08
6.50162358116e-07
-8.76938022222e-08
6.45380645636e-07
-7.83340214883e-08
6.44442689911e-07
-6.81207419908e-08
6.44802436206e-07
-5.6572797899e-08
6.4397483524e-07
-4.37988463586e-08
6.3994064592e-07
-3.00976958482e-08
6.33243869847e-07
-1.61357828998e-08
6.25263182051e-07
-2.26751613221e-09
6.16203462894e-07
1.1775899298e-08
6.05534810383e-07
5.91052343393e-07
2.57045102179e-08
1.53103698571e-07
7.44057893313e-07
8.03955227774e-08
7.11912141889e-07
1.44716280539e-08
7.01079185305e-07
-4.73540676754e-08
6.98344979011e-07
-1.02172953613e-07
7.02236499452e-07
-1.52083596837e-07
7.13343822465e-07
-1.93905571082e-07
7.14966509145e-07
-2.17444918209e-07
6.9393815417e-07
-2.18301405473e-07
6.60652724173e-07
-2.02806789441e-07
6.34586790311e-07
-1.78636064816e-07
6.21124605831e-07
-1.51774200623e-07
6.17493584837e-07
-1.25153936416e-07
6.18090094451e-07
-1.00051182981e-07
6.18773196212e-07
-7.62926876897e-08
6.16075464699e-07
-5.3388284966e-08
6.10224612955e-07
-3.13346193621e-08
6.03088351747e-07
-1.03690873271e-08
5.95112864635e-07
9.92599798892e-09
5.85111334145e-07
5.70848671375e-07
2.99962532034e-08
2.21938525109e-07
7.01563608229e-07
1.8474736939e-07
7.24695812002e-07
1.24759148733e-07
7.45879113505e-07
5.16947910642e-08
7.65365157681e-07
-2.335101683e-08
7.75958494775e-07
-9.81256362777e-08
7.88161377457e-07
-1.64824304082e-07
7.81745312081e-07
-2.08803951884e-07
7.3786011289e-07
-2.20868674772e-07
6.72613131911e-07
-2.09910344504e-07
6.23523835043e-07
-1.85677103377e-07
5.96795191263e-07
-1.55442710937e-07
5.87168227829e-07
-1.25033571596e-07
5.87589236418e-07
-9.7095143815e-08
5.90736760875e-07
-7.13920113352e-08
5.90266008324e-07
-4.69524896905e-08
5.85670049149e-07
-2.33492065999e-08
5.79362158007e-07
-6.47693205975e-10
5.72283070984e-07
2.14651819779e-08
5.62866147507e-07
5.48674921542e-07
4.35017133025e-08
2.63969551632e-07
5.3889008693e-07
2.2828631377e-07
7.27286612054e-07
1.88509742614e-07
7.69425908488e-07
1.49624622031e-07
7.97182582237e-07
1.00861457616e-07
8.22378835229e-07
4.5063660627e-08
8.43427446877e-07
-1.75803177828e-08
8.44219932141e-07
-7.83115098824e-08
-1.03309685029e-07
-1.11489876541e-07
-1.04894438915e-07
-8.91057076854e-08
-6.86407503625e-08
-4.84398607583e-08
-2.97222282958e-08
-1.1639103667e-08
6.65588014319e-09
2.53061611477e-08
4.42114190778e-08
6.35856448058e-08
1.06368271251e-07
1.32382034526e-07
1.44778893036e-07
1.49735209646e-07
1.46449771198e-07
1.35171073827e-07
-2.77468913897e-08
2.57788266031e-07
-2.77029632641e-08
2.45266186909e-07
-2.73190633904e-08
2.3262339151e-07
-2.64323872692e-08
2.19404769856e-07
-2.48757415131e-08
2.05016871579e-07
-2.2609352357e-08
1.89012706831e-07
-1.98255187046e-08
1.71545998443e-07
-1.68406333455e-08
1.53413005746e-07
-1.39032040434e-08
1.35493407639e-07
-1.11509578394e-08
1.18343891513e-07
-8.65147577798e-09
1.02209637951e-07
-6.43644227605e-09
8.71431220686e-08
-4.52094817396e-09
7.30948972981e-08
-2.91689219592e-09
5.99710720758e-08
-1.64443630034e-09
4.7642819904e-08
-7.0877286733e-10
3.59582079515e-08
2.52359953075e-08
-2.49741889795e-08
3.01565714721e-07
-2.57532057856e-08
2.84367036481e-07
-2.63098080256e-08
2.71036323431e-07
-2.66704445967e-08
2.58148886538e-07
-2.67543685163e-08
2.45350116293e-07
-2.64267097666e-08
2.32295725173e-07
-2.55135142155e-08
2.18491583597e-07
-2.38755437384e-08
2.03378897601e-07
-2.1542564981e-08
1.86679737533e-07
-1.87617922413e-08
1.68765224734e-07
-1.58429861891e-08
1.50494209465e-07
-1.30042185772e-08
1.32654640959e-07
-1.03632010954e-08
1.15702882224e-07
-7.97814053494e-09
9.98245796906e-08
-5.8769037589e-09
8.50418908594e-08
-4.07307943217e-09
7.1291086811e-08
-2.57756375681e-09
5.84755465417e-08
-1.41110208804e-09
4.64763634808e-08
-5.87918933462e-10
3.513502902e-08
2.4648076128e-08
-2.34582105294e-08
3.04947009177e-07
-2.45838354116e-08
2.85492473126e-07
-2.53888367688e-08
2.71841321775e-07
-2.59420652853e-08
2.58702096066e-07
-2.61437716162e-08
2.45551826559e-07
-2.58410442699e-08
2.31992984346e-07
-2.48638941077e-08
2.17514439078e-07
-2.31192242032e-08
2.0163421686e-07
-2.07112008954e-08
1.84271719695e-07
-1.79262926762e-08
1.65980307429e-07
-1.50574828e-08
1.47625404696e-07
-1.2295015908e-08
1.29892166313e-07
-9.74024150326e-09
1.13148112306e-07
-7.44388033298e-09
9.75282114168e-08
-5.4308622626e-09
8.30288776292e-08
-3.71383012175e-09
6.9574042457e-08
-2.30265946895e-09
5.70643869965e-08
-1.21807083166e-09
4.53917664225e-08
-4.83155307642e-10
3.44001064118e-08
2.41649208622e-08
-2.19376299109e-08
3.09839105937e-07
-2.36666298133e-08
2.87221096906e-07
-2.48436203288e-08
2.73018307439e-07
-2.56420665742e-08
2.5950051894e-07
-2.5965856112e-08
2.45875617782e-07
-2.56625044561e-08
2.3168961513e-07
-2.45878400698e-08
2.16439777535e-07
-2.27139390632e-08
1.99760301588e-07
-2.02189914626e-08
1.8177677404e-07
-1.74132395816e-08
1.63174544326e-07
-1.45678525153e-08
1.44780018648e-07
-1.18492933954e-08
1.27173599204e-07