/*--------------------------------*- C++ -*----------------------------------*\
| =========                 |                                                 |
| \\      /  F ield         | OpenFOAM: The Open Source CFD Toolbox           |
|  \\    /   O peration     | Version:  2312                                  |
|   \\  /    A nd           | Website:  www.openfoam.com                      |
|    \\/     M anipulation  |                                                 |
\*---------------------------------------------------------------------------*/
FoamFile
{
    version     2.0;
    format      ascii;
    arch        "LSB;label=32;scalar=64";
    class       volScalarField;
    location    "0.42/water";
    object      d.gas;
}
// * * * * * * * * * * * * * * * * * * * * * * * * * * * * * * * * * * * * * //

dimensions      [0 1 0 0 0 0 0];

internalField   nonuniform List<scalar> 
1503
(
0.00497955972217
0.00497962263035
0.00497963973558
0.00497965282585
0.00497966403195
0.00497967406475
0.0049796832725
0.00497969165213
0.00497969912683
0.00497970572703
0.00497971148992
0.00497971647013
0.00497972074627
0.00497972439353
0.00497972747471
0.00497973004166
0.0049797321369
0.0049797337939
0.00497973503743
0.00497973588547
0.00497987392009
0.00497990495955
0.00497990249966
0.00497990240703
0.00497990724627
0.00497991173716
0.0049799160591
0.00497992028035
0.00497992451057
0.00497992864188
0.00497993245208
0.0049799358584
0.00497993889706
0.00497994160772
0.00497994400409
0.00497994608335
0.00497994783687
0.00497994925522
0.00497995032919
0.00497995105085
0.00498015765853
0.00498018890689
0.00498017579287
0.00498016579002
0.00498016300657
0.00498016093419
0.00498015951778
0.00498015891987
0.00498015904136
0.00498015973716
0.00498016078637
0.00498016193591
0.00498016304902
0.00498016409951
0.00498016508606
0.00498016599559
0.00498016680175
0.00498016747096
0.00498016796755
0.00498016825992
0.00498039515562
0.00498041656268
0.00498040296474
0.00498039655625
0.00498039648304
0.00498039560168
0.00498039393613
0.00498039224486
0.00498039085948
0.004980389861
0.0049803892347
0.00498038886095
0.00498038859877
0.00498038837651
0.00498038818052
0.00498038801022
0.0049803878572
0.00498038770197
0.00498038751704
0.00498038727477
0.00498063353272
0.00498064734423
0.00498062916943
0.00498062217766
0.00498062253097
0.00498062252988
0.00498062131397
0.00498061955092
0.00498061780585
0.00498061625654
0.00498061494062
0.00498061383195
0.00498061284775
0.0049806119178
0.00498061102076
0.00498061016315
0.00498060935456
0.00498060859685
0.00498060788266
0.00498060720161
0.00498085780387
0.0049808723165
0.00498085430278
0.00498084633221
0.00498084551382
0.0049808456585
0.00498084501763
0.00498084347927
0.00498084159918
0.00498083977268
0.00498083810583
0.00498083661558
0.00498083525555
0.00498083396277
0.00498083270702
0.0049808314908
0.00498083032855
0.00498082923268
0.00498082820867
0.00498082725888
0.00498108113742
0.00498109977562
0.00498108297247
0.00498107395514
0.00498107060738
0.00498106888345
0.00498106749214
0.00498106568173
0.00498106344062
0.00498106119783
0.00498105916962
0.00498105738642
0.00498105580373
0.00498105434484
0.00498105295685
0.00498105162441
0.00498105035239
0.0049810491502
0.00498104802441
0.00498104698088
0.00498129271715
0.004981315388
0.00498130374472
0.00498129571288
0.00498129186142
0.00498128891715
0.00498128659236
0.00498128445177
0.00498128207848
0.00498127965016
0.00498127749868
0.00498127569726
0.00498127418385
0.00498127285034
0.00498127161319
0.0049812704342
0.00498126930319
0.00498126822074
0.004981267189
0.00498126621441
0.00498149958858
0.00498152402001
0.00498151052711
0.00498150426935
0.00498150255111
0.00498150078672
0.00498149898616
0.00498149726349
0.00498149550317
0.0049814936982
0.00498149217283
0.00498149103599
0.00498149018253
0.00498148947039
0.00498148879563
0.0049814881096
0.00498148739591
0.00498148665266
0.00498148588418
0.00498148509954
0.00498170002569
0.0049817277244
0.00498171395716
0.0049817093546
0.00498170952263
0.00498170917344
0.0049817079798
0.00498170659837
0.00498170537621
0.0049817044627
0.00498170412987
0.00498170434289
0.00498170478462
0.00498170519299
0.0049817054512
0.00498170552217
0.00498170540251
0.00498170510463
0.00498170464694
0.00498170405339
0.00498189405812
0.0049819280737
0.00498191865491
0.0049819160566
0.00498191782471
0.00498191840668
0.00498191759102
0.00498191649992
0.00498191588371
0.0049819160005
0.00498191700641
0.00498191881635
0.00498192083031
0.004981922493
0.00498192367746
0.0049819244037
0.00498192471614
0.00498192466406
0.00498192429901
0.00498192367548
0.00498209720101
0.00498214151905
0.00498213925071
0.00498213799997
0.00498213989613
0.00498214000733
0.00498213867362
0.00498213726459
0.0049821365729
0.00498213678087
0.00498213803661
0.00498214039097
0.0049821430899
0.00498214515847
0.00498214640658
0.0049821469652
0.00498214695455
0.00498214647221
0.00498214560713
0.00498214444437
0.00498233463538
0.00498238804219
0.00498239040163
0.00498238858942
0.00498238867811
0.00498238653085
0.00498238346852
0.00498238083883
0.00498237865296
0.00498237669147
0.00498237542692
0.00498237542846
0.00498237617568
0.00498237642464
0.00498237580382
0.00498237455017
0.00498237286091
0.00498237084977
0.00498236860534
0.00498236621028
0.00498263189977
0.00498268213815
0.00498267348068
0.00498266717203
0.00498266333853
0.00498265806534
0.00498265254
0.00498264730361
0.00498264172243
0.00498263558044
0.00498262945411
0.00498262401747
0.00498261945308
0.00498261507582
0.00498261037411
0.00498260554746
0.00498260082292
0.00498259626886
0.00498259190206
0.00498258774397
0.0049829556599
0.00498298799887
0.00498296134514
0.0049829478172
0.00498293949364
0.00498293115799
0.00498292265192
0.00498291391197
0.00498290445181
0.00498289425292
0.00498288384973
0.00498287352689
0.00498286301332
0.00498285286332
0.00498284329849
0.00498283442408
0.00498282637939
0.00498281915674
0.00498281266087
0.00498280681512
0.00498318471588
0.00498319804915
0.00498317333693
0.00498316361664
0.00498315867516
0.00498315315093
0.00498314631812
0.00498313843524
0.00498312972824
0.0049831203552
0.00498311065945
0.00498310087022
0.00498308974764
0.00498307718478
0.00498306495231
0.00498305383253
0.00498304396826
0.00498303530748
0.00498302771297
0.0049830210536
0.00498335744154
0.00498336761714
0.00498334527971
0.0049833362318
0.00498333282458
0.00498332946951
0.00498332525215
0.00498332066028
0.00498331581084
0.00498331048945
0.00498330460567
0.00498329827676
0.00498329092695
0.00498328102926
0.00498326992901
0.00498325953751
0.004983250349
0.00498324229137
0.00498323526222
0.00498322915846
0.00498348661247
0.00498350315435
0.00498349330481
0.00498348967904
0.00498348997798
0.00498348996608
0.00498348897235
0.00498348740907
0.00498348582395
0.00498348426598
0.00498348184324
0.00498347787826
0.00498347305679
0.00498346709525
0.00498345965527
0.00498345240122
0.00498344607207
0.00498344054005
0.00498343569547
0.00498343150327
0.00498366614847
0.00498368238582
0.00498366359199
0.0049836566433
0.0049836550597
0.00498365375377
0.00498365195809
0.00498365044726
0.00498365042223
0.00498365190685
0.0049836519846
0.00498364920909
0.00498364515133
0.00498364184953
0.00498363878139
0.00498363612518
0.00498363422683
0.00498363264446
0.0049836311981
0.00498362993082
0.00498380569113
0.00498382550493
0.00498380948048
0.00498380560988
0.0049838066264
0.00498380742735
0.0049838076043
0.0049838090643
0.00498381449048
0.00498381943285
0.00498382150521
0.00498382015208
0.00498381667148
0.00498381452207
0.00498381481905
0.00498381680646
0.00498381988083
0.00498382280934
0.00498382526728
0.00498382734158
0.0049839768162
0.00498400064449
0.00498397876169
0.00498397148893
0.00498397104287
0.00498397163691
0.00498397371401
0.00498398132693
0.00498398941064
0.00498399518939
0.00498399788027
0.00498399816463
0.00498399557334
0.00498399373366
0.0049839959509
0.00498400170952
0.00498400912554
0.00498401605659
0.00498402201173
0.0049840270889
0.00498412686709
0.00498415784651
0.00498414233364
0.00498413840034
0.00498414153708
0.00498414634303
0.00498415516198
0.00498416739888
0.00498417806087
0.00498418151747
0.00498418558771
0.00498418911365
0.00498418762688
0.00498418580454
0.00498418880675
0.00498419704601
0.00498420737294
0.00498421693546
0.00498422515225
0.00498423218215
0.00498431876227
0.00498435856502
0.00498434510376
0.0049843403077
0.00498434365808
0.00498435054585
0.00498436303711
0.00498437769318
0.00498438186971
0.00498438759733
0.00498439419026
0.00498439941223
0.00498440122482
0.00498439761738
0.00498439942196
0.00498440760212
0.00498441843088
0.00498442853536
0.00498443716248
0.00498444457421
0.00498453900316
0.00498457771696
0.00498455979641
0.00498455711724
0.00498456401221
0.00498457481735
0.00498458993215
0.004984597744
0.00498460626128
0.00498461436534
0.00498462803279
0.00498464076942
0.00498463483485
0.0049846295236
0.00498462908293
0.00498463417622
0.0049846426784
0.00498465116055
0.00498465836004
0.00498466455478
0.0049847633483
0.00498480551219
0.004984786328
0.00498478649676
0.00498479607367
0.00498480790092
0.0049848197027
0.00498483322936
0.00498484588874
0.0049848630189
0.00498488317493
0.00498487708835
0.00498487280413
0.0049848708444
0.00498486969214
0.00498487117255
0.00498487606077
0.00498488196725
0.00498488682885
0.00498489081895
0.00498499155634
0.0049850385271
0.00498502383804
0.00498502585584
0.0049850362855
0.00498504937543
0.00498506664
0.00498508648704
0.00498510616171
0.00498512241626
0.00498511720605
0.00498511608206
0.00498511788597
0.00498511715292
0.00498511507935
0.00498511415397
0.00498511528117
0.00498511828987
0.00498512048846
0.00498512176182
0.00498523424798
0.00498529565558
0.00498529157057
0.00498529642522
0.00498531005151
0.00498532666434
0.00498534645999
0.00498536462411
0.00498537361989
0.0049853702583
0.00498536830533
0.00498537007082
0.00498536931855
0.00498536818509
0.00498536552608
0.00498536276876
0.00498536022636
0.0049853594419
0.00498535836558
0.00498535632327
0.00498554132597
0.00498561682619
0.00498562270308
0.00498562800531
0.00498563498448
0.00498564054439
0.00498564603504
0.00498564594082
0.00498563939387
0.004985633219
0.0049856305783
0.00498562829117
0.00498562744407
0.00498562432767
0.0049856201346
0.00498561468086
0.00498561005544
0.00498560494679
0.0049855997123
0.00498559353064
0.00498593183281
0.00498600342409
0.00498599633092
0.00498599014946
0.00498598094497
0.00498596797494
0.00498595495165
0.00498594003064
0.00498592495049
0.00498591249369
0.00498590386945
0.00498589783923
0.00498589223367
0.00498588636846
0.00498587771611
0.00498587019477
0.00498586362277
0.0049858539564
0.00498584330158
0.00498583188155
0.00498632438279
0.00498638013128
0.00498635640349
0.00498634069075
0.00498632448893
0.00498630301759
0.00498627953606
0.00498625514709
0.00498623153238
0.00498621073393
0.00498619408593
0.00498617906498
0.00498616448659
0.00498615096357
0.00498613847865
0.0049861275833
0.00498611730509
0.00498610324055
0.00498608613985
0.00498606847735
0.00498666116084
0.00498669464759
0.00498666521578
0.00498664988995
0.00498663583563
0.00498661594394
0.00498659012501
0.00498656108794
0.00498653149178
0.00498650387796
0.0049864788781
0.00498645458313
0.00498643095169
0.00498641014963
0.00498639318647
0.0049863785206
0.00498636389212
0.00498634594501
0.00498632268049
0.00498629854754
0.00498692280342
0.00498693307698
0.00498690780345
0.00498689643262
0.00498688603426
0.0049868715614
0.00498684917364
0.00498682070255
0.00498678959932
0.00498675882774
0.00498672940991
0.00498670053247
0.00498667290586
0.00498664854033
0.00498662907059
0.00498661243518
0.00498659365238
0.00498657262175
0.00498654528399
0.00498651590803
0.00498710780425
0.00498709914308
0.00498708221016
0.00498707378376
0.00498706609807
0.00498705648097
0.00498703962236
0.00498701534258
0.00498698711512
0.00498695824885
0.00498692992787
0.00498690182427
0.00498687499863
0.00498685155733
0.00498683294503
0.00498681369984
0.00498679355414
0.00498677252454
0.00498674548534
0.00498671418163
0.00498721227601
0.00498720392627
0.00498719059822
0.00498718437756
0.0049871793363
0.00498717458604
0.00498716454144
0.00498714750442
0.00498712605534
0.00498710344713
0.00498708066576
0.00498705725721
0.0049870345865
0.00498701525445
0.00498699868939
0.00498698130138
0.00498696281016
0.00498694250686
0.00498691881652
0.00498688962229
0.00498726268198
0.00498725934369
0.00498725309169
0.00498725033885
0.00498724839788
0.00498724834296
0.0049872447928
0.004987235119
0.00498722127942
0.00498720693861
0.00498719205757
0.00498717573611
0.00498715953381
0.00498714662218
0.00498713655265
0.00498712064646
0.00498710209296
0.00498708402037
0.00498706537232
0.00498704196357
0.0049873107045
0.00498731116727
0.00498730744727
0.00498730473656
0.00498730354499
0.00498730535094
0.00498730500746
0.00498729974207
0.00498729212385
0.00498728568551
0.00498727860464
0.00498726951643
0.00498726057731
0.00498725499197
0.00498724837925
0.00498723690305
0.00498722214739
0.00498720664301
0.00498719238146
0.00498717585025
0.00498735465462
0.00498735510895
0.00498735192087
0.00498734932385
0.00498734940213
0.00498735281618
0.0049873545805
0.00498735309495
0.00498735166072
0.00498735271791
0.00498735239897
0.00498734971847
0.00498734755476
0.00498734907898
0.00498734932566
0.00498734052491
0.00498732999712
0.00498731931825
0.00498730782105
0.00498729751771
0.00498739922
0.00498739972067
0.00498739571926
0.004987392658
0.00498739446744
0.00498739955051
0.00498740328443
0.00498740544725
0.00498741016491
0.00498741771572
0.00498742261828
0.00498742550722
0.00498742945031
0.00498743797714
0.00498744185136
0.00498743911825
0.00498743490112
0.00498742480845
0.00498741669941
0.00498741216798
0.0049797363407
0.00497973641993
0.00497973617053
0.00497973563659
0.00497973484919
0.00497973382896
0.00497973258797
0.00497973113129
0.0049797294584
0.00497972756395
0.00497972543802
0.0049797230647
0.00497972041842
0.00497971745799
0.00497971412681
0.00497971039302
0.00497970630924
0.00497970178687
0.00497969567422
0.00497963415078
0.00497995141202
0.00497995142362
0.00497995112789
0.00497995056929
0.00497994978176
0.00497994879224
0.00497994762246
0.00497994629068
0.00497994481268
0.00497994320129
0.00497994146443
0.00497993960159
0.00497993760143
0.00497993544903
0.0049799331615
0.00497993083586
0.00497992859029
0.00497992639352
0.00497992395041
0.00497992382076
0.00498016833433
0.00498016819087
0.00498016784696
0.00498016733261
0.00498016667745
0.00498016590974
0.00498016505518
0.00498016413663
0.00498016317324
0.00498016217868
0.00498016115953
0.00498016011571
0.00498015904826
0.00498015798075
0.00498015698817
0.00498015618112
0.00498015561426
0.00498015520018
0.00498015476304
0.00498015644647
0.00498038697546
0.00498038662091
0.00498038620289
0.00498038572767
0.00498038520951
0.00498038466426
0.00498038410632
0.00498038354693
0.00498038299274
0.00498038244476
0.00498038189927
0.00498038135251
0.00498038081188
0.00498038031114
0.00498037991046
0.00498037964869
0.00498037947031
0.00498037921556
0.00498037888393
0.00498038035647
0.00498060657693
0.00498060602207
0.00498060551201
0.00498060503244
0.0049806045814
0.00498060415891
0.00498060376469
0.00498060339623
0.00498060304794
0.00498060271125
0.00498060237747
0.0049806020437
0.00498060172207
0.00498060144577
0.00498060125468
0.00498060114759
0.0049806010396
0.00498060083998
0.0049806007242
0.0049806019988
0.00498082642455
0.00498082572909
0.00498082513967
0.00498082463162
0.004980824192
0.00498082381003
0.0049808234755
0.00498082317737
0.00498082290354
0.00498082264207
0.0049808223846
0.00498082213188
0.00498082189975
0.00498082171848
0.00498082161099
0.00498082154856
0.0049808214366
0.00498082127608
0.00498082127407
0.00498082225521
0.00498104606809
0.00498104531238
0.00498104468121
0.00498104414945
0.00498104370011
0.00498104331821
0.00498104298961
0.00498104270016
0.00498104243626
0.00498104218649
0.00498104194514
0.00498104171641
0.00498104151744
0.00498104137273
0.00498104128828
0.00498104121464
0.00498104107672
0.00498104096565
0.00498104102699
0.00498104177511
0.00498126534249
0.00498126460156
0.00498126397011
0.00498126342935
0.00498126296561
0.00498126256574
0.00498126221672
0.00498126190557
0.00498126162048
0.00498126135273
0.00498126109983
0.00498126086846
0.00498126067515
0.00498126053712
0.00498126044484
0.00498126033748
0.00498126018567
0.00498126012639
0.00498126020632
0.00498126077988
0.00498148434279
0.00498148365496
0.00498148303589
0.00498148248138
0.00498148198739
0.0049814815474
0.00498148115316
0.00498148079554
0.00498148046627
0.00498148016007
0.00498147987731
0.00498147962592
0.00498147942018
0.00498147926891
0.00498147914872
0.00498147899952
0.00498147884932
0.00498147882892
0.00498147890249
0.00498147935146
0.00498170338205
0.00498170270002
0.00498170203911
0.00498170141566
0.00498170083872
0.00498170031037
0.00498169982827
0.00498169938764
0.00498169898367
0.00498169861375
0.00498169827977
0.00498169798923
0.0049816977525
0.00498169756902
0.00498169740406
0.00498169721304
0.00498169707318
0.00498169707193
0.00498169712855
0.00498169748792
0.00498192287969
0.00498192201982
0.00498192116367
0.00498192034449
0.00498191958062
0.00498191887939
0.00498191824136
0.00498191766343
0.00498191714172
0.00498191667383
0.00498191626081
0.00498191590749
0.00498191561848
0.00498191538294
0.00498191515879
0.00498191493001
0.00498191479971
0.00498191479879
0.00498191483536
0.00498191512913
0.00498214310497
0.0049821417418
0.0049821404437
0.00498213924122
0.00498213814766
0.00498213716489
0.00498213628835
0.00498213551046
0.00498213482338
0.00498213422096
0.00498213370017
0.00498213326063
0.0049821328991
0.00498213259403
0.00498213230181
0.00498213204126
0.00498213191361
0.00498213190004
0.00498213191635
0.00498213216068
0.00498236380416
0.00498236156405
0.00498235956192
0.00498235779162
0.0049823562383
0.00498235488245
0.00498235370321
0.00498235268048
0.0049823517966
0.00498235103736
0.00498235039246
0.00498234985401
0.00498234940927
0.00498234902642
0.00498234866773
0.00498234838384
0.00498234825183
0.00498234822031
0.00498234821805
0.00498234842407
0.0049825839157
0.00498258057896
0.00498257774332
0.00498257533292
0.00498257328381
0.00498257154146
0.00498257005971
0.00498256879999
0.00498256773085
0.00498256682738
0.0049825660704
0.00498256544348
0.0049825649239
0.00498256447164
0.00498256406279
0.0049825637688
0.00498256363118
0.00498256358426
0.00498256356773
0.0049825637439
0.00498280169361
0.00498279741083
0.00498279389175
0.00498279098267
0.0049827885666
0.00498278655243
0.00498278486847
0.00498278345812
0.004982782277
0.00498278129065
0.00498278047224
0.00498277979788
0.00498277923628
0.00498277874357
0.0049827783163
0.00498277803214
0.00498277789683
0.00498277784409
0.00498277782093
0.00498277797489
0.00498301536951
0.00498301072884
0.0049830069933
0.00498300396031
0.00498300148028
0.00498299944032
0.00498299775432
0.00498299635622
0.00498299519541
0.00498299423323
0.00498299343949
0.0049829927862
0.00498299223679
0.00498299175046
0.00498299134781
0.00498299109927
0.00498299098282
0.00498299093912
0.0049829909199
0.00498299105966
0.00498322401803
0.00498321988023
0.0049832165912
0.00498321395125
0.00498321181409
0.00498321007073
0.00498320863937
0.00498320745845
0.0049832064817
0.00498320567433
0.00498320500893
0.00498320445799
0.00498320398457
0.0049832035596
0.00498320322734
0.00498320304196
0.00498320296542
0.00498320294779
0.00498320294441
0.0049832030786
0.00498342800959
0.00498342523251
0.0049834230478
0.00498342130979
0.00498341991208
0.00498341877619
0.00498341784433
0.00498341707404
0.00498341643433
0.00498341590245
0.00498341545971
0.00498341508361
0.00498341474272
0.00498341442851
0.00498341420454
0.00498341410538
0.00498341408814
0.00498341411183
0.00498341413507
0.00498341427239
0.00498362890064
0.00498362811134
0.00498362750573
0.00498362703158
0.00498362665082
0.00498362633637
0.00498362606974
0.00498362583883
0.00498362563613
0.00498362545673
0.00498362529458
0.00498362513571
0.00498362496039
0.00498362478728
0.004983624692
0.00498362469112
0.00498362474487
0.00498362481937
0.0049836248763
0.00498362502444
0.0049838290943
0.00498383052207
0.00498383165715
0.00498383256005
0.00498383327501
0.00498383383645
0.00498383427237
0.00498383460593
0.00498383485621
0.00498383503784
0.00498383515827
0.00498383521396
0.00498383520255
0.00498383517241
0.00498383520265
0.00498383529634
0.00498383542069
0.00498383554677
0.00498383563874
0.00498383580306
0.00498403132866
0.00498403471972
0.00498403738172
0.00498403948006
0.00498404113623
0.00498404244238
0.00498404346975
0.0049840442737
0.00498404489681
0.00498404537011
0.00498404571211
0.00498404593005
0.00498404604303
0.00498404612617
0.00498404625395
0.00498404642111
0.00498404660198
0.00498404677045
0.00498404689221
0.00498404707474
0.00498423803573
0.00498424268773
0.00498424631746
0.00498424916066
0.0049842513922
0.00498425314463
0.00498425451911
0.00498425559257
0.00498425642225
0.00498425704827
0.00498425749529
0.00498425778049
0.00498425794568
0.0049842580848
0.00498425826114
0.00498425846519
0.00498425867624
0.00498425886892
0.00498425900914
0.00498425920804
0.00498445076413
0.00498445567225
0.0049844594825
0.00498446244452
0.00498446474847
0.00498446654018
0.00498446793053
0.00498446900237
0.00498446981522
0.00498447040879
0.00498447080815
0.00498447103876
0.00498447116299
0.00498447128235
0.00498447144483
0.00498447163875
0.00498447184521
0.0049844720376
0.00498447218056
0.00498447239048
0.00498466976476
0.0049846738874
0.00498467705608
0.0049846794785
0.00498468132218
0.00498468271909
0.00498468376952
0.00498468454656
0.00498468509973
0.00498468545955
0.00498468564658
0.00498468569272
0.0049846856755
0.00498468569217
0.00498468577362
0.0049846859062
0.00498468606975
0.00498468623455
0.00498468636248
0.00498468657542
0.00498489410272
0.0049848966236
0.00498489846893
0.0049848997834
0.00498490069305
0.0049849012998
0.00498490167989
0.00498490188543
0.00498490194704
0.00498490188007
0.00498490169759
0.00498490143602
0.00498490118034
0.00498490101326
0.00498490094872
0.00498490096989
0.00498490105282
0.00498490116305
0.00498490125818
0.00498490146461
0.00498512249313
0.00498512280574
0.00498512278788
0.00498512252549
0.00498512209856
0.0049851215718
0.00498512098962
0.00498512037598
0.00498511973692
0.00498511906907
0.00498511837636
0.00498511769719
0.00498511711476
0.00498511668986
0.00498511642036
0.00498511628427
0.00498511625197
0.0049851162828
0.00498511632868
0.00498511651851
0.00498535386869
0.00498535138296
0.00498534898973
0.00498534671285
0.00498534457809
0.00498534260395
0.00498534079462
0.00498533913869
0.00498533761234
0.00498533619046
0.00498533486585
0.00498533367465
0.00498533268841
0.00498533194124
0.00498533141576
0.00498533108258
0.00498533090488
0.00498533083466
0.00498533081685
0.00498533098007
0.00498558712324
0.00498558117682
0.00498557586768
0.0049855711375
0.00498556693828
0.00498556322612
0.00498555995205
0.00498555705948
0.00498555448812
0.00498555218695
0.00498555013423
0.00498554835746
0.00498554690667
0.00498554578696
0.00498554496583
0.00498554440439
0.00498554405754
0.00498554386912
0.00498554377601
0.00498554390325
0.00498582062166
0.00498581051188
0.00498580176034
0.00498579418079
0.00498578761656
0.00498578193641
0.00498577702042
0.00498577275459
0.00498576903427
0.00498576577738
0.00498576294282
0.00498576054142
0.0049857585933
0.00498575707407
0.00498575593594
0.00498575512914
0.00498575459966
0.00498575428299
0.00498575410753
0.00498575419083
0.0049860516164
0.00498603682407
0.00498602428979
0.00498601364192
0.00498600457377
0.00498599683971
0.00498599023134
0.00498598456635
0.00498597968936
0.00498597548276
0.00498597188137
0.00498596887153
0.00498596643809
0.00498596452881
0.00498596308088
0.00498596203342
0.00498596132383
0.00498596087993
0.00498596062205
0.0049859606562
0.00498627598966
0.00498625654491
0.00498624033206
0.00498622676075
0.00498621534906
0.00498620572232
0.00498619757615
0.00498619065695
0.00498618475786
0.00498617972515
0.00498617546731
0.00498617194128
0.00498616909609
0.0049861668556
0.00498616514374
0.00498616388997
0.00498616302464
0.00498616246972
0.00498616213904
0.00498616212309
0.0049864886728
0.00498646549046
0.00498644637413
0.00498643054226
0.00498641735401
0.00498640631911
0.00498639704945
0.00498638923129
0.00498638261517
0.00498637701737
0.00498637232303
0.00498636846015
0.00498636534707
0.0049863628904
0.00498636100468
0.00498635961295
0.00498635864149
0.00498635800946
0.00498635762698
0.00498635756566
0.00498668471439
0.00498665974025
0.00498663924143
0.00498662236298
0.00498660838345
0.00498659674874
0.00498658702455
0.00498657886461
0.00498657199682
0.00498656622188
0.00498656141094
0.00498655747011
0.00498655429743
0.00498655179123
0.00498654986264
0.00498654843314
0.00498654742901
0.00498654677067
0.00498654636835
0.00498654627276
0.00498686116298
0.00498683696557
0.00498681708697
0.00498680073493
0.00498678722224
0.00498677600759
0.00498676666382
0.00498675884996
0.00498675229838
0.00498674681462
0.00498674227013
0.00498673856124
0.00498673557935
0.00498673322462
0.00498673141188
0.00498673006676
0.00498672912032
0.00498672849869
0.00498672811657
0.00498672800363
0.00498701791578
0.0049869971651
0.00498697998537
0.0049869657842
0.0049869540345
0.00498694429074
0.00498693618785
0.00498692942795
0.00498692377584
0.00498691906356
0.00498691517835
0.00498691202077
0.00498690948943
0.00498690749589
0.00498690596569
0.00498690483418
0.00498690404175
0.00498690352454
0.00498690320598
0.00498690309675
0.00498715824558
0.00498714287965
0.00498713001653
0.00498711928628
0.00498711038371
0.00498710300921
0.00498709689418
0.00498709180908
0.00498708757207
0.00498708405901
0.00498708118529
0.00498707886816
0.00498707702487
0.00498707558588
0.00498707449316
0.00498707369637
0.0049870731491
0.00498707280093
0.00498707258763
0.00498707250492
0.00498728699724
0.00498727803159
0.00498727048209
0.00498726411263
0.00498725882851
0.00498725448671
0.00498725092498
0.00498724799289
0.00498724557442
0.00498724359956
0.00498724201951
0.00498724077755
0.0049872398174
0.00498723909341
0.00498723856799
0.00498723820842
0.00498723798422
0.00498723786093
0.00498723778944
0.00498723775656
0.00498740876832
0.0049874066768
0.00498740502416
)
;

boundaryField
{
    emptyPatch
    {
        type            empty;
    }
    minY
    {
        type            calculated;
        value           nonuniform List<scalar> 
40
(
0.00497947079954
0.00497952651908
0.00497953567545
0.0049795463845
0.0049795569466
0.00497956685392
0.00497957604095
0.00497958441712
0.00497959189094
0.00497959849057
0.00497960425295
0.00497960923274
0.00497961350851
0.00497961715545
0.00497962023637
0.0049796228031
0.00497962489816
0.00497962655502
0.00497962779844
0.0049796286464
0.0049796291016
0.00497962918082
0.00497962893144
0.00497962839755
0.00497962761022
0.00497962659007
0.00497962534919
0.00497962389264
0.00497962221989
0.00497962032561
0.00497961819986
0.00497961582674
0.00497961318069
0.00497961022051
0.00497960688962
0.00497960315616
0.00497959907273
0.00497959455074
0.00497958843862
0.00497952692048
)
;
    }
    maxY
    {
        type            calculated;
        value           nonuniform List<scalar> 0();
    }
    water_to_cooler
    {
        type            calculated;
        value           nonuniform List<scalar> 
37
(
0.00497963415078
0.00497992382076
0.00498015644647
0.00498038035647
0.0049806019988
0.00498082225521
0.00498104177511
0.00498126077988
0.00498147935146
0.00498169748792
0.00498191512913
0.00498213216068
0.00498234842407
0.0049825637439
0.00498277797489
0.00498299105966
0.0049832030786
0.00498341427239
0.00498362502444
0.00498383580306
0.00498404707474
0.00498425920804
0.00498447239048
0.00498468657542
0.00498490146461
0.00498511651851
0.00498533098007
0.00498554390325
0.00498575419083
0.0049859606562
0.00498616212309
0.00498635756566
0.00498654627276
0.00498672800363
0.00498690309675
0.00498707250492
0.00498723775656
)
;
    }
    water_to_heater
    {
        type            calculated;
        value           nonuniform List<scalar> 
61
(
0.00497955971594
0.00497984216421
0.00497988443436
0.00498013681921
0.00498017832216
0.00498038465408
0.00498042616533
0.0049806333749
0.00498085761543
0.00498104470179
0.00498109299066
0.00498126848178
0.00498131644226
0.00498148731158
0.00498153526118
0.00498169970187
0.00498189370113
0.00498205969814
0.0049821091873
0.0049823089941
0.0049823594451
0.00498261874681
0.00498266956757
0.00498295516498
0.00498318414866
0.00498332565032
0.00498336724063
0.00498346541981
0.00498350653012
0.00498365507928
0.00498369668059
0.00498380498127
0.00498397607488
0.00498409519001
0.00498413638241
0.00498429713538
0.00498433875812
0.00498452777958
0.0049845692531
0.00498476245766
0.00498499063146
0.00498519973739
0.00498524449581
0.00498551680907
0.00498556392852
0.0049859187933
0.00498596701851
0.00498632336078
0.00498666008989
0.00498688886458
0.00498693259132
0.0049870885179
0.00498712456435
0.0049872032179
0.00498723415896
0.00498726134638
0.00498730932281
0.00498732955965
0.00498736114603
0.00498738236859
0.00498741315452
)
;
    }
    procBoundary2to3
    {
        type            processor;
        value           nonuniform List<scalar> 
41
(
0.00498744549808
0.00498744587222
0.00498743684035
0.00498743276112
0.0049874370583
0.00498744479653
0.00498745138186
0.004987458136
0.00498746999873
0.00498748315402
0.00498749258371
0.00498750120569
0.00498751134022
0.00498752624717
0.00498753543798
0.00498753607455
0.00498753281201
0.00498752723397
0.00498752334578
0.00498752424509
0.00498740357842
0.00498740242465
0.00498740156841
0.00498740095305
0.00498740051115
0.00498740020007
0.00498740000894
0.00498739992912
0.00498739993641
0.00498740000575
0.00498740011848
0.00498740025988
0.00498740041709
0.00498740057723
0.00498740072339
0.00498740082314
0.0049874008603
0.00498752771275
0.00498753270282
0.00498740357842
0.00498753730389
)
;
    }
}