/*--------------------------------*- C++ -*----------------------------------*\
| =========                 |                                                 |
| \\      /  F ield         | OpenFOAM: The Open Source CFD Toolbox           |
|  \\    /   O peration     | Version:  2312                                  |
|   \\  /    A nd           | Website:  www.openfoam.com                      |
|    \\/     M anipulation  |                                                 |
\*---------------------------------------------------------------------------*/
FoamFile
{
    version     2.0;
    format      ascii;
    arch        "LSB;label=32;scalar=64";
    class       volScalarField;
    location    "0.72/water";
    object      nut.gas;
}
// * * * * * * * * * * * * * * * * * * * * * * * * * * * * * * * * * * * * * //

dimensions      [0 2 -1 0 0 0 0];

internalField   nonuniform List<scalar> 
1496
(
1.06214114067e-05
9.87623068479e-06
8.34499370472e-06
6.69482208069e-06
5.19438150015e-06
3.92995746945e-06
2.88776306608e-06
2.06685138048e-06
1.52514215544e-06
1.28164958709e-06
1.2157968274e-06
1.14458575597e-06
9.94229659959e-07
8.20512389585e-07
6.80209384693e-07
5.73527854029e-07
4.74323181787e-07
3.87520239254e-07
3.5418506582e-07
3.45615614892e-07
1.05363193856e-05
9.90566863229e-06
8.37734768448e-06
6.73577015753e-06
5.2367314238e-06
3.95485485756e-06
2.88671211814e-06
2.05085803692e-06
1.50772277122e-06
1.26661676939e-06
1.1987006483e-06
1.12066314545e-06
9.72708168575e-07
8.15749297343e-07
6.90240780065e-07
5.75052449533e-07
4.59227300857e-07
3.89648692039e-07
3.9888738097e-07
4.07119245865e-07
1.02402533576e-05
9.84624593037e-06
8.29556654852e-06
6.60186719237e-06
5.08622918188e-06
3.8029953391e-06
2.74859784167e-06
1.95032208049e-06
1.45501926428e-06
1.2464132169e-06
1.18221910152e-06
1.09282859137e-06
9.48826528285e-07
8.07379633244e-07
6.74279862186e-07
5.41026170535e-07
4.40378179765e-07
4.12639709757e-07
4.59526255718e-07
4.71278579172e-07
1.0072938383e-05
9.70980341893e-06
7.95509210428e-06
6.17070675381e-06
4.67008308646e-06
3.44302854022e-06
2.47433200228e-06
1.78348699489e-06
1.38699673169e-06
1.23366234126e-06
1.16887048952e-06
1.06120642302e-06
9.17703558357e-07
7.65448440184e-07
6.17763512782e-07
5.04737406243e-07
4.44276271171e-07
4.58538894675e-07
5.27215325037e-07
5.27628103074e-07
9.66176014114e-06
9.13599074431e-06
7.22690559418e-06
5.42340024848e-06
4.00802052559e-06
2.92783803115e-06
2.13785603967e-06
1.62182277698e-06
1.35621065188e-06
1.25348990727e-06
1.1668795513e-06
1.0301718355e-06
8.60391515197e-07
6.94690942265e-07
5.7328040111e-07
5.00009239993e-07
4.77816178903e-07
5.2180998691e-07
5.87950665986e-07
5.67583813991e-07
9.70870745183e-06
8.64089134706e-06
6.47264742016e-06
4.58127432002e-06
3.27302172677e-06
2.41844979694e-06
1.87890170364e-06
1.57303779603e-06
1.42860834912e-06
1.33256979071e-06
1.19129429093e-06
9.98067476591e-07
8.01391508753e-07
6.62359168683e-07
5.79409074824e-07
5.3761621473e-07
5.41614017305e-07
5.86807947069e-07
6.28825734313e-07
5.92207628276e-07
9.88120171352e-06
8.3556255168e-06
5.94024865094e-06
3.92577714064e-06
2.71065040985e-06
2.10550447334e-06
1.84118417885e-06
1.73370909126e-06
1.64949006148e-06
1.49409898106e-06
1.26148016079e-06
1.00709584131e-06
8.1915512058e-07
7.13311461278e-07
6.51771752764e-07
6.22023827757e-07
6.19858955027e-07
6.35963891256e-07
6.50527720137e-07
6.06614926877e-07
9.68303079207e-06
7.8782517616e-06
5.36579096816e-06
3.43254379177e-06
2.43610775016e-06
2.12436466893e-06
2.11911257739e-06
2.13564602861e-06
2.02300965974e-06
1.76035489334e-06
1.42449163275e-06
1.13364368891e-06
9.61965680926e-07
8.62304090949e-07
7.90154436167e-07
7.32384343183e-07
6.89938604791e-07
6.73145531534e-07
6.64701396523e-07
6.14825137037e-07
8.8557193958e-06
6.98762796518e-06
4.65919877429e-06
3.12434365229e-06
2.54596753747e-06
2.54746492894e-06
2.70013635826e-06
2.72956106427e-06
2.5332055695e-06
2.15379590288e-06
1.72946062045e-06
1.4126166996e-06
1.22477033573e-06
1.08697206214e-06
9.58412896399e-07
8.40279097955e-07
7.56719604282e-07
7.1470622307e-07
6.82177483991e-07
6.20828963853e-07
7.72667770598e-06
6.08909175946e-06
4.25896361115e-06
3.27372562345e-06
3.07784200962e-06
3.25620889949e-06
3.45125569061e-06
3.44587471277e-06
3.16293027913e-06
2.67599759799e-06
2.17054438929e-06
1.80879721335e-06
1.55900647571e-06
1.33895366846e-06
1.12629735488e-06
9.49781002646e-07
8.36963439079e-07
7.710229211e-07
7.09639408181e-07
6.27725284331e-07
7.20018749765e-06
5.78728873591e-06
4.44288188021e-06
3.78676863917e-06
3.72775883927e-06
3.97146896801e-06
4.20196397931e-06
4.18067071083e-06
3.8268134394e-06
3.24218813681e-06
2.66691843662e-06
2.23279186421e-06
1.88774727984e-06
1.56813476571e-06
1.27624189062e-06
1.05802424298e-06
9.24318410824e-07
8.33713301346e-07
7.4066775741e-07
6.32588129387e-07
7.10626655229e-06
5.94989484247e-06
4.81720544064e-06
4.16964168438e-06
4.12854081001e-06
4.45888448155e-06
4.77468220864e-06
4.78059595264e-06
4.38112207818e-06
3.72165454426e-06
3.06845796176e-06
2.53864665159e-06
2.09611220607e-06
1.69313868506e-06
1.3516784676e-06
1.11289093358e-06
9.67317955247e-07
8.59061720701e-07
7.45315464469e-07
6.2220264679e-07
6.5409117053e-06
5.8970615417e-06
5.01565831055e-06
4.52340469657e-06
4.56039989049e-06
4.91395241162e-06
5.21438776074e-06
5.18011443897e-06
4.73791428875e-06
4.03602253187e-06
3.31128563953e-06
2.68642022461e-06
2.17686303861e-06
1.72782136313e-06
1.36570628595e-06
1.11687496351e-06
9.57153047649e-07
8.33794708044e-07
7.09417250126e-07
5.86915231647e-07
6.45588638177e-06
6.14895624044e-06
5.47385843036e-06
5.06246488477e-06
5.11785258991e-06
5.42531734794e-06
5.62338598448e-06
5.47503149795e-06
4.95720312547e-06
4.22132296823e-06
3.46593477399e-06
2.81044098262e-06
2.27201743446e-06
1.80859225363e-06
1.42972384879e-06
1.15859973713e-06
9.70271575372e-07
8.21882856466e-07
6.79192031296e-07
5.54789624309e-07
6.52771676303e-06
6.52587912979e-06
5.99391782261e-06
5.60455171968e-06
5.63804622817e-06
5.86981950249e-06
5.95269308149e-06
5.70420996933e-06
5.1398217208e-06
4.39725423254e-06
3.63912822538e-06
2.97525911123e-06
2.4320336873e-06
1.96938393653e-06
1.5777548963e-06
1.27573603863e-06
1.04657913512e-06
8.62367099607e-07
6.9870685322e-07
5.82311165128e-07
6.49769670845e-06
6.66320311996e-06
6.24716917767e-06
5.90583716281e-06
5.93684413221e-06
6.12372486114e-06
6.1485221473e-06
5.86826098384e-06
5.30930048197e-06
4.59000188719e-06
3.84826591902e-06
3.18552544532e-06
2.63623847425e-06
2.17319941848e-06
1.77548634922e-06
1.44954358359e-06
1.1843026879e-06
9.64831650327e-07
7.85683427387e-07
6.74751287329e-07
6.40704314341e-06
6.61990062514e-06
6.26271373665e-06
5.95960929046e-06
5.99550083829e-06
6.17407663139e-06
6.2024204064e-06
5.95050298827e-06
5.43996576011e-06
4.77057499256e-06
4.06248977479e-06
3.41137600027e-06
2.8590553153e-06
2.39315751006e-06
1.99148748873e-06
1.6499396939e-06
1.35987884156e-06
1.11500639329e-06
9.23038950135e-07
7.97744377815e-07
6.2852768839e-06
6.48820674284e-06
6.14673425176e-06
5.85762658386e-06
5.88680122329e-06
6.06760978087e-06
6.12908429254e-06
5.93891411769e-06
5.50360821432e-06
4.90407960764e-06
4.24565552322e-06
3.61881600394e-06
3.07121880611e-06
2.60373292379e-06
2.19881721779e-06
1.84693315754e-06
1.54107659241e-06
1.27861725758e-06
1.06915124131e-06
9.13377548661e-07
6.12898562664e-06
6.30738772317e-06
5.95762996443e-06
5.66495414913e-06
5.6752132289e-06
5.8512392031e-06
5.9491310785e-06
5.82960458586e-06
5.48006548092e-06
4.96179315931e-06
4.36556519494e-06
3.7755891935e-06
3.24292757885e-06
2.77845648676e-06
2.37132542186e-06
2.01114542125e-06
1.6929469039e-06
1.41417480736e-06
1.18068771946e-06
9.90978689208e-07
5.9715329488e-06
6.10580927833e-06
5.72492839808e-06
5.41066276943e-06
5.39243089886e-06
5.55484916556e-06
5.67934760589e-06
5.62357021407e-06
5.35694286106e-06
4.92217563729e-06
4.39522817266e-06
3.85239214143e-06
3.34473250569e-06
2.88955405026e-06
2.4819193533e-06
2.11406587262e-06
1.78391251922e-06
1.48833560695e-06
1.23210012895e-06
1.01559447342e-06
5.82962455529e-06
5.91371899014e-06
5.47623702688e-06
5.10727186375e-06
5.04832054709e-06
5.19394323505e-06
5.33221983458e-06
5.32312245269e-06
5.12608047549e-06
4.76906093593e-06
4.31312381431e-06
3.82434653133e-06
3.35039560808e-06
2.91081651966e-06
2.50563474248e-06
2.13350659717e-06
1.79415270317e-06
1.48584462598e-06
1.22062725949e-06
9.8513397792e-07
5.72573930706e-06
5.74647372848e-06
5.2154419205e-06
4.74997988593e-06
4.64391076811e-06
4.77941016305e-06
4.91873487725e-06
4.93127854662e-06
4.78258511333e-06
4.49106823018e-06
4.10366249313e-06
3.67359018582e-06
3.2410199935e-06
2.82446172838e-06
2.42940486813e-06
2.06065016266e-06
1.71930167272e-06
1.4138465887e-06
1.1546306838e-06
8.98523299908e-07
5.64395344175e-06
5.58537753346e-06
4.90443466589e-06
4.29716083534e-06
4.16117733087e-06
4.31183785143e-06
4.44709239861e-06
4.45623791202e-06
4.33174137121e-06
4.09115362606e-06
3.76705639655e-06
3.39806570946e-06
3.01402508474e-06
2.63008611301e-06
2.25618796301e-06
1.90083886761e-06
1.57481012416e-06
1.29561437553e-06
1.04190510876e-06
7.4441827536e-07
5.55700393025e-06
5.440146927e-06
4.54769012287e-06
3.78005125526e-06
3.63772675747e-06
3.81165976954e-06
3.93065204035e-06
3.91734731577e-06
3.80019855914e-06
3.60120863114e-06
3.33127232417e-06
3.01792104133e-06
2.68562816641e-06
2.34263291133e-06
2.00118640838e-06
1.67772877415e-06
1.39239517675e-06
1.14346140091e-06
8.70100051217e-07
5.24429818985e-07
5.49899551307e-06
5.33350065859e-06
4.2111908242e-06
3.32892564791e-06
3.19275539332e-06
3.35311073948e-06
3.430478205e-06
3.37802714695e-06
3.24515775415e-06
3.06609731769e-06
2.84405493472e-06
2.57585924269e-06
2.2935381501e-06
1.99865565151e-06
1.70373080324e-06
1.43274451947e-06
1.1972331985e-06
9.50939329023e-07
6.299328766e-07
2.94821055238e-07
5.54348909505e-06
5.36029495466e-06
4.09717951124e-06
3.10774712019e-06
2.8989557474e-06
2.98064493007e-06
3.02044893597e-06
2.92948024892e-06
2.76255689767e-06
2.57141278105e-06
2.36138149881e-06
2.13342049905e-06
1.89629427065e-06
1.65147439651e-06
1.41720970185e-06
1.20885080588e-06
9.94299195829e-07
7.05945592397e-07
3.69962028673e-07
1.49736207494e-07
5.64325648431e-06
5.50321980889e-06
4.23632660716e-06
3.12118561512e-06
2.76119160873e-06
2.73416618235e-06
2.71631933296e-06
2.59526944026e-06
2.40496333388e-06
2.18773987677e-06
1.97188885449e-06
1.7640962213e-06
1.56381369577e-06
1.37173310224e-06
1.195603297e-06
1.01823482497e-06
7.67353026213e-07
4.40348962031e-07
1.92914671988e-07
9.59513835221e-08
5.75599083942e-06
5.60003979602e-06
4.3772796669e-06
3.18480784812e-06
2.68161533537e-06
2.56411467502e-06
2.46811556628e-06
2.3370523151e-06
2.15143595134e-06
1.93202491553e-06
1.71323298076e-06
1.51632997319e-06
1.34349828608e-06
1.18891816143e-06
1.03788076431e-06
8.34426928601e-07
5.20387659857e-07
2.42356176734e-07
1.24030340757e-07
7.771153811e-08
5.82393371152e-06
5.6653175698e-06
4.44739871029e-06
3.20555015847e-06
2.59952709068e-06
2.40797334454e-06
2.27598513798e-06
2.14594613914e-06
1.96915246828e-06
1.75887450339e-06
1.55231570356e-06
1.37319477256e-06
1.2202049202e-06
1.0767111639e-06
9.0571779812e-07
6.32450683326e-07
3.12529965515e-07
1.59935370861e-07
9.99468765379e-08
6.62427366139e-08
5.87019910734e-06
5.71995951125e-06
4.43841958976e-06
3.1413451851e-06
2.48694423432e-06
2.25591522687e-06
2.12671721736e-06
2.00395598669e-06
1.83539638674e-06
1.63923432045e-06
1.45506100882e-06
1.29767213473e-06
1.15112132867e-06
9.88759654608e-07
7.6933380257e-07
4.31461657806e-07
2.13956932106e-07
1.30784314835e-07
8.58698002807e-08
5.78904941163e-08
5.92493808874e-06
5.65469448902e-06
4.22105595426e-06
2.93810361058e-06
2.30605943911e-06
2.08164523878e-06
1.98490190772e-06
1.88256715398e-06
1.73134019779e-06
1.55803518295e-06
1.399745454e-06
1.25553199945e-06
1.09534375233e-06
8.98558322572e-07
6.29075325029e-07
3.03352809246e-07
1.78424664922e-07
1.15532486342e-07
7.67718531704e-08
5.232265704e-08
6.07084012392e-06
5.63052469685e-06
4.10851837896e-06
2.76291262121e-06
2.06442471916e-06
1.86616231668e-06
1.82772995502e-06
1.76788636141e-06
1.65002416065e-06
1.50850405777e-06
1.37176405691e-06
1.224042835e-06
1.0373298976e-06
8.039444959e-07
5.00554373053e-07
2.57437411384e-07
1.63165057784e-07
1.0773569466e-07
7.2005816263e-08
4.93744192621e-08
6.28068278732e-06
5.9004466709e-06
4.3859819983e-06
2.8765839051e-06
1.91603661456e-06
1.62951326521e-06
1.645633602e-06
1.65643734925e-06
1.59282059763e-06
1.48828542419e-06
1.3624604773e-06
1.19692386773e-06
9.8187033944e-07
7.17246645428e-07
4.20196930686e-07
2.35885343432e-07
1.56767352124e-07
1.05803918802e-07
7.10036030724e-08
4.91786107564e-08
6.54897922945e-06
6.10341199983e-06
4.78650816484e-06
3.29854225395e-06
2.07660378012e-06
1.50721446787e-06
1.47103446498e-06
1.55419238853e-06
1.56238005075e-06
1.49542516181e-06
1.36803400939e-06
1.1777978602e-06
9.40525936596e-07
6.64621342382e-07
3.9187170286e-07
2.34422088763e-07
1.59650480156e-07
1.09873867581e-07
7.38772583429e-08
5.2983063834e-08
6.72177931785e-06
6.29094054617e-06
5.17565060294e-06
3.77767425431e-06
2.44533921214e-06
1.59422134403e-06
1.39217381393e-06
1.49563092769e-06
1.56831378972e-06
1.52817378519e-06
1.3866211914e-06
1.17367423291e-06
9.25781918971e-07
6.49953452929e-07
4.05076122319e-07
2.56506647021e-07
1.7526718874e-07
1.20887059954e-07
8.07598645065e-08
5.80231495899e-08
6.72684554685e-06
6.39884340082e-06
5.41163455444e-06
4.0824796532e-06
2.73855708709e-06
1.75869642061e-06
1.42932185752e-06
1.52161400092e-06
1.62548177916e-06
1.58410999224e-06
1.41679907517e-06
1.19192298282e-06
9.38377249872e-07
6.7224744369e-07
4.50477762976e-07
2.99392171459e-07
2.02077523759e-07
1.35940914195e-07
8.65371703486e-08
5.78651450863e-08
6.47096316321e-06
6.20835376581e-06
5.34182400785e-06
4.09217537532e-06
2.79866872935e-06
1.85348746425e-06
1.53477264615e-06
1.63396983401e-06
1.72758470777e-06
1.65378354854e-06
1.4629015014e-06
1.23183039235e-06
9.79428499895e-07
7.30319092327e-07
5.22322586459e-07
3.56890308496e-07
2.32504659967e-07
1.4616318703e-07
8.50868611367e-08
4.90928258641e-08
5.91754329617e-08
4.35404967089e-08
3.27627300809e-08
4.13249562589e-08
9.45626617328e-08
1.27481486198e-07
1.4254527554e-07
2.7093870083e-07
5.7364970432e-07
2.05530395606e-07
2.22491833368e-07
2.66865760998e-07
3.1623504128e-07
4.17506989188e-07
2.68380725426e-06
5.45981438996e-06
2.69460828637e-07
1.780722601e-07
1.23836820562e-07
8.96040768361e-08
6.70617764502e-08
4.96086795548e-08
3.68064441377e-08
4.43013635763e-08
9.21162061056e-08
1.24780196733e-07
1.68951798656e-07
3.32469793072e-07
2.81802316533e-07
1.86266944843e-07
2.40512808428e-07
2.90614122582e-07
3.34805522728e-07
4.34743070528e-07
2.15435069936e-06
5.84942502334e-06
3.14902350727e-07
2.06582931335e-07
1.41848331166e-07
1.01223699069e-07
7.57805759353e-08
5.48742381165e-08
3.94719388912e-08
4.46004526322e-08
7.98284115754e-08
1.29583216899e-07
2.1109376868e-07
3.64667242202e-07
1.39397852448e-07
2.04483619289e-07
2.73127830423e-07
3.15208828824e-07
3.54135911908e-07
4.48784400337e-07
1.86143671245e-06
6.11955103885e-06
3.60148990325e-07
2.38058314019e-07
1.61552466514e-07
1.14465640833e-07
8.35781281082e-08
5.77564725674e-08
3.98117914899e-08
4.1286734163e-08
7.02499486106e-08
1.50628347211e-07
2.75038006626e-07
1.34404900092e-07
1.61142734916e-07
2.39101642276e-07
3.09942881796e-07
3.35745832336e-07
3.68933745698e-07
4.51598684025e-07
1.82141986935e-06
6.16534351274e-06
4.00803099726e-07
2.70496122576e-07
1.82594516822e-07
1.28346067763e-07
8.85268943855e-08
5.71719422402e-08
4.33019984634e-08
3.62280120108e-08
7.67777237717e-08
1.88156638304e-07
1.2546080499e-07
1.14520002826e-07
1.9276776541e-07
2.86104110715e-07
3.39189753925e-07
3.4820173026e-07
3.74401079482e-07
4.38181140006e-07
1.70124604837e-06
5.89141646891e-06
4.36108343116e-07
3.01737712729e-07
2.04042092677e-07
1.39924155777e-07
8.99467904999e-08
5.27698028431e-08
4.11690732634e-08
3.74327217569e-08
9.01317605046e-08
1.27488428588e-07
7.73163324277e-08
1.36768595008e-07
2.38894572918e-07
3.26434385217e-07
3.4845819396e-07
3.44297402352e-07
3.60526365058e-07
4.01932807622e-07
1.30431724899e-06
5.39008617606e-06
4.64914287476e-07
3.29848888866e-07
2.2405316809e-07
1.47243198806e-07
8.75370875775e-08
5.4994386014e-08
3.75439990749e-08
3.94389863981e-08
8.15659921701e-08
5.86661879439e-08
8.39542142403e-08
1.65305921241e-07
2.77056785807e-07
3.36166288677e-07
3.29214070506e-07
3.1581724446e-07
3.2051756236e-07
3.44547408052e-07
7.81756055238e-07
4.82943282209e-06
4.86630232976e-07
3.53755019285e-07
2.41376678836e-07
1.51562210377e-07
8.27590769433e-08
5.46957922634e-08
3.87497417715e-08
4.07623265352e-08
4.46540867884e-08
4.94555572053e-08
8.502455569e-08
1.81352609976e-07
2.8083677249e-07
3.13619209876e-07
2.93192855357e-07
2.6936521131e-07
2.62456569631e-07
2.75813732343e-07
5.48064362376e-07
4.3614165557e-06
5.02321680455e-07
3.74346062282e-07
2.57534565474e-07
1.55436809298e-07
1.06680804515e-07
6.06004006197e-08
3.19964066591e-08
2.71489392296e-08
2.90155622713e-08
4.07178045754e-08
7.55808489686e-08
1.61879274148e-07
2.47099123648e-07
2.79928645386e-07
2.59597929748e-07
2.22323932452e-07
2.03808583749e-07
2.1277291995e-07
4.52620922962e-07
3.79320665889e-06
5.14203703891e-07
3.94097726715e-07
2.76020328628e-07
1.6599164448e-07
1.07999606089e-07
5.64192827686e-08
2.47684243768e-08
1.57259142208e-08
2.32591070033e-08
3.03853383509e-08
5.62543931372e-08
1.20176188758e-07
1.98859097457e-07
2.425140331e-07
2.31503719637e-07
1.81691409869e-07
1.59668336055e-07
1.73577080512e-07
3.39993747567e-07
1.93450635422e-06
5.23520923384e-07
4.14694199327e-07
2.98784279984e-07
1.8272471449e-07
1.09637793558e-07
4.81145466301e-08
1.78722431284e-08
1.34212907063e-08
1.77461570276e-08
2.20289515669e-08
3.75731665081e-08
7.94831987636e-08
1.47733703745e-07
1.99720774095e-07
1.99199954479e-07
1.45579931619e-07
1.22468432977e-07
1.46995442746e-07
1.71280372204e-07
6.39990325979e-07
5.27678013251e-07
4.3391913497e-07
3.24919252752e-07
1.8878308881e-07
1.14769135142e-07
4.48021986769e-08
1.82872758656e-08
1.2129771715e-08
1.40386875165e-08
1.68511968158e-08
2.63612671885e-08
5.3926402624e-08
1.09559757907e-07
1.62008308355e-07
1.65004475833e-07
1.49012363247e-07
9.8577721752e-08
1.31753053835e-07
7.05639595989e-08
3.0443897257e-07
5.20058336854e-07
4.46779142323e-07
3.48982262778e-07
2.09189621206e-07
1.00979756733e-07
4.91304010097e-08
1.90519670955e-08
1.19583149252e-08
1.24231143848e-08
1.45880228387e-08
2.15340804677e-08
4.20283951939e-08
8.83376988854e-08
1.35831574137e-07
1.37332257091e-07
1.11435188332e-07
9.08995202303e-08
1.30765558635e-07
5.52009229241e-08
1.26224729089e-07
5.03717449093e-07
4.56096334948e-07
3.67905872104e-07
2.29902848099e-07
1.08078318482e-07
4.81433531144e-08
1.85395042893e-08
1.27654857049e-08
1.26706207682e-08
1.47214151306e-08
2.07367485287e-08
3.74027236975e-08
7.58610479611e-08
1.16557092329e-07
1.33571188594e-07
5.96779458946e-08
9.39564672237e-08
1.4760861684e-07
8.65468228767e-08
4.78026019721e-32
5.02605981338e-07
4.69430595908e-07
3.87131985311e-07
2.49434672244e-07
1.19510509634e-07
4.76850681812e-08
2.04608142998e-08
1.4086105658e-08
1.39270704684e-08
1.61409975496e-08
2.17442177682e-08
3.58927064536e-08
6.68617483743e-08
9.96301239747e-08
1.15810377531e-07
2.55258340315e-08
7.99623463724e-08
1.47573598126e-07
7.56635244445e-08
5.68595649962e-32
5.41542397026e-07
5.03266607083e-07
4.12443774956e-07
2.66807193224e-07
1.27690840051e-07
5.03319149179e-08
2.2413603376e-08
1.53893162027e-08
1.50572420919e-08
1.75332952451e-08
2.33071494277e-08
3.63022434334e-08
6.12306440733e-08
8.37876806391e-08
7.26764354961e-08
1.16937946884e-08
5.53211118061e-08
1.05962756382e-07
4.95116650479e-08
5.38213623334e-32
6.18274802939e-07
5.5526646927e-07
4.41102302125e-07
2.79929207254e-07
1.31621755693e-07
5.02225170704e-08
2.34724877185e-08
1.62167866765e-08
1.57155572923e-08
1.87261297426e-08
2.49246934627e-08
3.69900136271e-08
5.56448842636e-08
6.97532904495e-08
5.31337252722e-08
6.81965643138e-09
3.14643346041e-08
2.73428158863e-08
3.4145852792e-08
5.5708752564e-32
7.08231101039e-07
6.07893996194e-07
4.6158297057e-07
2.80569753957e-07
1.26174045323e-07
4.50148282366e-08
2.29591093706e-08
1.60437574099e-08
1.61856346335e-08
2.03299928084e-08
2.70634116624e-08
3.75073148704e-08
5.07937563218e-08
5.94356759896e-08
5.05990517992e-08
5.97330004727e-09
1.89047800866e-08
5.28441702759e-09
2.69502441566e-08
5.83043795817e-32
7.82837130828e-07
6.40516078243e-07
4.57745246068e-07
2.57605684536e-07
1.07217566025e-07
3.63447621814e-08
2.08306033768e-08
1.47978173062e-08
1.69691990125e-08
2.28246851683e-08
2.97233008649e-08
3.79403259363e-08
4.71368304516e-08
5.26388097915e-08
5.74132554043e-08
4.44173763227e-09
1.15376840346e-08
5.55324570809e-09
6.82308879749e-09
6.12078978569e-32
8.20546278861e-07
6.34514455924e-07
4.13876011538e-07
2.05759414878e-07
7.7897583387e-08
2.79299226957e-08
1.81872677503e-08
1.34716201062e-08
1.78855957484e-08
2.57497393378e-08
3.22043596857e-08
3.79672573046e-08
4.4797632645e-08
5.2359260433e-08
3.91759433277e-08
1.07791693623e-09
8.47237776973e-09
1.5978026695e-08
5.27796942353e-09
5.1904819973e-32
8.08245808543e-07
5.74692197027e-07
3.24466840161e-07
1.3664189171e-07
4.91539234286e-08
2.29815255122e-08
1.66159120988e-08
1.24473527985e-08
1.93628185697e-08
2.83388477159e-08
3.26798876247e-08
3.70227057092e-08
4.34156578421e-08
5.78360076655e-08
1.05558326843e-08
1.62575841123e-09
9.17702397986e-09
1.8018258468e-08
3.10994539649e-09
5.22481437756e-12
7.36446071686e-07
4.55957392933e-07
2.10263912889e-07
7.61310039219e-08
3.29944833357e-08
2.10096260175e-08
1.60659073581e-08
1.2366006384e-08
2.27531365145e-08
2.97655988067e-08
3.16788030398e-08
3.56994984278e-08
5.19804182751e-08
4.45276381582e-08
1.63480809697e-09
5.35066320459e-09
9.80599698649e-09
1.43389717204e-08
2.05761265805e-09
1.26607068006e-32
5.97613972097e-07
2.99838964787e-07
1.10792383581e-07
4.41452773781e-08
2.688879844e-08
1.99280234651e-08
1.42927082998e-08
1.43685725391e-08
2.61631620217e-08
2.89135881641e-08
3.0274498081e-08
3.72232496123e-08
4.9149288184e-08
1.34136858012e-08
1.16230816405e-09
5.55915885488e-09
9.32978026578e-09
1.00739989878e-08
2.75735093747e-09
7.42232444706e-33
4.06872954645e-07
1.58700372323e-07
5.94006822475e-08
3.32373107856e-08
2.49726462238e-08
1.8136825907e-08
1.07848106347e-08
1.81683920465e-08
2.69400314513e-08
2.66468917302e-08
2.85713513993e-08
3.49575053218e-08
2.61223020256e-08
3.14079339008e-09
2.60699145491e-09
6.14467448299e-09
8.74320918958e-09
1.54054421163e-09
1.15480071279e-09
5.33809928914e-33
2.21522260963e-07
8.20414802737e-08
4.31245028595e-08
3.09355535823e-08
2.40371780971e-08
1.71577432004e-08
7.72877670412e-09
2.19673313116e-08
2.52053748387e-08
2.41593053714e-08
2.62238093732e-08
2.61324043363e-08
9.11228712734e-09
3.77159181198e-09
3.93703516124e-09
5.85615228222e-09
6.58488184032e-09
2.17560799177e-09
2.08453116842e-09
4.15059374905e-33
1.11963122511e-07
5.59149232231e-08
3.8463659948e-08
2.91685736116e-08
2.27428471102e-08
1.53072806475e-08
8.16440948113e-09
2.35871064187e-08
2.29229530638e-08
2.23218027728e-08
2.37638266972e-08
1.84061095943e-08
7.56263296177e-09
3.51250401175e-09
4.45568990068e-09
4.88386727123e-09
4.71305399224e-09
3.15214830618e-09
3.69128193553e-09
3.45777190143e-33
7.2716250093e-08
4.75297059236e-08
3.49284160007e-08
2.71752194032e-08
2.07962811485e-08
1.20061275701e-08
8.23006596302e-09
2.14591165005e-08
2.14860356349e-08
2.12966908791e-08
2.23916488151e-08
1.7564478413e-08
7.99449360325e-09
4.01642006925e-09
4.18567080843e-09
4.06467500612e-09
5.29990625121e-09
6.23010365691e-09
4.6911090566e-09
2.99970410039e-33
6.01039361866e-08
4.20061277067e-08
3.17706894093e-08
2.50113496801e-08
1.8648062878e-08
8.96277861812e-09
8.24210303516e-09
1.86459413593e-08
2.09722924853e-08
2.085805736e-08
2.18522167425e-08
1.89420957872e-08
9.99115877925e-09
4.90856797138e-09
3.70074325179e-09
2.6676152369e-09
7.14750621802e-09
2.70862199339e-08
3.28902568866e-09
3.08940773505e-33
5.19942195479e-08
3.73488424699e-08
2.86458202819e-08
2.22004155178e-08
1.55718654659e-08
8.16379802468e-09
9.02161556165e-09
1.66889000791e-08
2.03474442053e-08
2.05188569019e-08
2.11525407866e-08
2.05197532083e-08
1.38538022836e-08
7.0568437208e-09
4.10826824453e-09
2.30944134167e-09
1.39214351525e-08
1.36867121977e-07
2.46792590358e-10
4.14658261813e-33
4.54874700446e-08
3.32083031016e-08
2.53323804656e-08
1.88655444589e-08
1.20064432903e-08
8.24411011974e-09
9.94877522119e-09
1.55301698629e-08
1.90713129363e-08
1.97486265437e-08
1.9508720447e-08
1.91977099633e-08
1.80564654541e-08
1.15636978245e-08
5.98311197074e-09
8.49740108448e-09
3.37873919627e-08
2.29903576779e-07
6.06007798622e-13
5.94747498083e-33
4.0432663163e-08
2.96239094531e-08
2.1897139525e-08
1.53238364791e-08
9.77771256278e-09
9.24057257533e-09
1.11929932485e-08
1.47692985504e-08
1.72727744252e-08
1.81682806112e-08
1.75700816594e-08
1.68553248549e-08
1.74898511104e-08
1.54391335699e-08
9.86844739397e-09
1.15940189968e-08
8.14654807981e-08
2.9643843506e-07
9.09096934482e-12
5.41723012056e-33
3.68154423011e-08
2.64541387951e-08
1.87436519949e-08
1.29477389473e-08
1.02494446686e-08
1.09866796991e-08
1.21702011207e-08
1.37727382052e-08
1.50512840581e-08
1.5899213223e-08
1.55906323367e-08
1.5370860019e-08
1.66265824332e-08
1.5796257706e-08
9.29633032526e-09
6.05383474314e-09
1.01142276288e-07
3.79352561613e-07
4.26938057945e-09
4.48140759083e-33
3.45258749226e-08
2.45133905865e-08
1.78162283045e-08
1.3671618413e-08
1.23541411699e-08
1.21883155813e-08
1.20187933572e-08
1.20722224696e-08
1.2559353551e-08
1.34546846649e-08
1.40395525844e-08
1.47434349983e-08
1.62346962263e-08
1.56187755881e-08
8.91354507889e-09
3.46246582834e-09
7.17338945981e-08
2.97873074791e-07
2.04180918459e-08
3.79944458127e-33
3.51743555928e-08
2.6193027893e-08
2.01189282232e-08
1.57655553433e-08
1.3020106473e-08
1.14202170919e-08
1.03625067719e-08
9.80609431255e-09
1.02280995521e-08
1.15567046066e-08
1.3075767219e-08
1.41718415294e-08
1.51244443956e-08
1.38181401563e-08
7.98124103882e-09
2.64759237961e-09
1.32513821553e-08
1.18414004562e-07
1.1430786615e-08
3.18928582471e-33
3.92697636693e-08
2.92542069184e-08
2.08670025413e-08
1.43640304679e-08
1.06947641113e-08
9.08281588327e-09
8.02745788607e-09
7.76103478822e-09
8.5412977173e-09
9.97363002644e-09
1.17019711327e-08
1.23610395382e-08
1.25854629824e-08
1.0652590073e-08
5.65782296759e-09
1.46592435163e-09
2.40107152512e-09
2.57471217577e-08
4.47304149524e-09
2.44475248851e-33
4.11712391047e-08
2.72632271352e-08
1.61899352113e-08
9.80332541497e-09
7.60968139586e-09
6.84464192712e-09
6.12133503266e-09
6.12368712664e-09
6.8123182884e-09
8.13517437048e-09
9.4940961779e-09
9.70360999563e-09
9.3950852345e-09
7.30209761633e-09
3.94858826011e-09
1.0466020354e-09
1.78267836631e-09
1.14368905172e-08
4.56379500597e-09
2.04640093662e-33
3.59879952924e-08
1.97006690206e-08
9.29051932652e-09
6.07474181284e-09
5.80226201723e-09
5.2087027632e-09
4.45110413012e-09
4.62207705705e-09
5.27246115227e-09
6.02983052017e-09
7.11139891852e-09
7.04578145577e-09
6.48507835129e-09
4.83059347655e-09
3.23571246831e-09
1.53226286461e-09
3.9365391897e-09
7.31582074994e-08
8.73306796322e-08
2.80897152354e-33
2.49463850576e-08
1.06839882136e-08
4.75541712308e-09
4.77674104793e-09
4.77984528988e-09
3.8878626591e-09
3.39735814524e-09
3.66598178595e-09
4.04228919858e-09
4.19841469674e-09
5.16499993768e-09
5.39562291973e-09
5.13267382347e-09
3.88214174104e-09
3.23835885068e-09
8.57448029093e-09
6.56666172389e-07
4.04998895298e-06
5.81534362429e-06
6.93003592975e-06
)
;

boundaryField
{
    emptyPatch
    {
        type            empty;
    }
    minY
    {
        type            calculated;
        value           nonuniform List<scalar> 0();
    }
    maxY
    {
        type            calculated;
        value           nonuniform List<scalar> 
40
(
6.47000505236e-06
6.20750546447e-06
5.34075894384e-06
4.09127593492e-06
2.79805805029e-06
1.85310819012e-06
1.53448068442e-06
1.63367953571e-06
1.7272971432e-06
1.65352146129e-06
1.46268436373e-06
1.23167141539e-06
9.79315857718e-07
7.30233561965e-07
5.22262123426e-07
3.56851097613e-07
2.32480339206e-07
1.46148270908e-07
8.50781090983e-08
4.90875475298e-08
2.49435338273e-08
1.06827216748e-08
4.7548438268e-09
4.77615649685e-09
4.77934449758e-09
3.88761083843e-09
3.39724711946e-09
3.66591409647e-09
4.04221823895e-09
4.19833170715e-09
5.16489730479e-09
5.39551438326e-09
5.13257031484e-09
3.88206359237e-09
3.23829371343e-09
8.57431378069e-09
6.56647466741e-07
4.04984658833e-06
5.81512476812e-06
6.92977488897e-06
)
;
    }
    maxX
    {
        type            nutkWallFunction;
        blending        stepwise;
        value           uniform 0;
    }
    water_to_heater
    {
        type            nutkWallFunction;
        blending        stepwise;
        value           uniform 0;
    }
    procBoundary0to1
    {
        type            processor;
        value           nonuniform List<scalar> 
41
(
1.04555233494e-05
9.73129235519e-06
8.20072847872e-06
6.51778332912e-06
5.01279291834e-06
3.7782357231e-06
2.78700498838e-06
2.01705914953e-06
1.51414576588e-06
1.29173332886e-06
1.23390027267e-06
1.16922688725e-06
1.02090338821e-06
8.35670862786e-07
6.78221168812e-07
5.61783808284e-07
4.67680934954e-07
3.87429925073e-07
3.28981084565e-07
2.94871087683e-07
5.28445054209e-08
3.84582146062e-08
2.85502702765e-08
3.26820494662e-08
6.80530751937e-08
1.29401648898e-07
1.26618742231e-07
2.27085576177e-07
5.12527600961e-07
3.34840150829e-07
2.17637003532e-07
2.50144399411e-07
3.00966286017e-07
4.00858620751e-07
2.88815160851e-06
5.02949035945e-06
2.29676833895e-07
1.53622961424e-07
1.07960077106e-07
7.95181330042e-08
7.95181330042e-08
)
;
    }
}


// ************************************************************************* //
