/*--------------------------------*- C++ -*----------------------------------*\
| =========                 |                                                 |
| \\      /  F ield         | OpenFOAM: The Open Source CFD Toolbox           |
|  \\    /   O peration     | Version:  2312                                  |
|   \\  /    A nd           | Website:  www.openfoam.com                      |
|    \\/     M anipulation  |                                                 |
\*---------------------------------------------------------------------------*/
FoamFile
{
    version     2.0;
    format      ascii;
    arch        "LSB;label=32;scalar=64";
    class       volScalarField;
    location    "0.72/water";
    object      rhom;
}
// * * * * * * * * * * * * * * * * * * * * * * * * * * * * * * * * * * * * * //

dimensions      [1 -3 0 0 0 0 0];

internalField   nonuniform List<scalar> 
1496
(
630.687641778
640.759056619
656.662599315
664.785411456
683.699640209
725.261320558
787.143531835
851.127796544
888.468003298
894.710505273
894.806510963
894.724476138
894.275315614
894.60763112
896.956316206
898.602208732
871.855321114
788.4973456
744.837239408
751.254812518
612.472882751
635.579057722
657.105344784
668.358504287
690.139771438
733.260756384
795.128382092
857.551206571
890.378461164
894.772453565
894.724426312
895.084306292
895.429437193
895.849399012
896.071594362
853.215833859
768.376794468
725.475551285
741.882194668
757.404822963
597.834922116
634.597290059
658.779164632
673.802262692
699.909706981
746.250894393
808.892200413
867.892717042
893.009709144
894.724362047
895.036478439
894.72446018
895.396642845
895.558151746
837.856047438
735.464184108
701.312611385
717.372165689
748.738488095
770.354748478
597.292792843
637.025661515
663.97155263
684.97053915
718.06057983
769.788930672
832.959259471
882.248600004
894.583612125
894.842017645
894.724412302
895.119128862
892.858889185
825.989866113
720.907824524
698.042383644
697.996467054
722.490709772
765.356829466
785.272527095
600.078836731
643.046629426
677.137680696
707.889353232
750.910808544
808.453781666
866.176251342
893.305283057
894.648811097
894.672871702
895.255995679
891.476164412
818.528676435
716.050753189
698.042296945
697.996386131
701.937140446
740.371853763
788.541816682
799.931916255
617.241859516
654.468933764
698.980964499
744.835791486
799.745855234
856.982261553
890.705979809
894.63246158
894.544781302
895.189589219
894.67290862
833.831285563
726.066368651
699.9773091
698.307833674
702.300980393
723.958422369
772.926891665
814.735242076
813.563337104
657.565022132
672.431570133
726.928694466
793.495996673
854.870234247
889.670144857
894.627653636
894.544668194
895.178116732
894.544848053
873.751293755
768.637977632
721.553453219
713.769639262
717.640399142
732.198010229
769.101822526
816.893756613
839.277676905
824.255973178
711.391449269
700.877961341
761.752956391
844.06307164
887.97998691
894.610497106
894.544464357
895.212288421
894.544782858
895.44608747
843.547079946
769.439717377
754.498619254
760.610060268
770.396135258
790.905728017
825.471554565
851.846560274
854.723642618
830.410992953
751.000267651
735.76942972
799.184458723
874.389693809
894.330102249
894.543995735
895.219446694
894.54467297
895.446004254
892.964420174
827.489163493
801.050913081
810.837714952
820.615179303
830.997046052
845.236507183
854.380359361
854.723561918
854.731796544
832.275397554
754.052003859
754.763208504
811.805706036
873.782880882
890.54361634
893.533266624
893.957697285
892.298496557
884.45259502
855.348161503
812.328802485
809.827504494
820.933098982
831.129393462
841.943144663
854.106433792
854.723444458
854.731691347
854.723494263
828.725239724
747.368890474
735.790549683
783.573885641
827.140751395
839.738087644
840.597752754
834.33565868
819.513458965
796.956822747
768.565008494
767.010413121
775.981193784
786.774800152
798.878274599
812.356955564
828.031321318
842.934212049
848.307516153
837.90834764
808.389209107
677.412070867
668.976475139
685.127248788
698.17023004
703.016123107
699.732735979
687.931821383
671.511264158
657.688653386
654.167463921
665.023722362
669.712097922
675.568122823
686.195064199
702.750344901
721.798433553
744.766732787
755.904931728
749.911315752
750.773334436
596.587085039
592.805911179
600.709878549
602.491959916
602.639888967
599.789441912
593.486980807
586.381604616
582.071123376
581.956576015
582.470973332
581.174395292
581.087039284
584.010078953
594.724752497
613.69467138
630.267808425
642.35584123
654.533898245
680.603511561
551.570232399
567.548229175
575.965985478
575.331798405
574.078284034
571.796811308
568.625209514
564.843699128
562.939859761
562.171280925
562.320697626
561.924998445
562.338615071
561.902798037
562.360343286
575.42668673
591.969451113
605.973697571
623.609236032
653.499913758
545.796013471
562.216026765
567.975387692
567.499802453
566.180397859
564.290729074
562.206952037
562.290086839
561.916742304
562.304706355
561.739988253
562.320807205
561.659493856
562.338675041
561.687876761
567.502073295
583.633573602
600.026764322
620.770100506
652.849492363
546.223647603
558.535123831
563.393676632
563.742900673
562.734851194
562.139716698
562.279244485
561.932331427
562.290700443
561.771746953
562.304903667
561.67513648
562.32091325
561.692340703
562.338738866
565.409792805
579.738950831
597.886509684
621.780507341
658.880570358
545.705655962
555.734214101
560.982406364
562.233975754
562.186753236
562.268337734
562.028577416
562.280607246
561.815691633
562.291050886
561.710942982
562.305071659
561.698900239
562.32101712
561.809867315
564.350251984
576.752453579
596.360333982
623.630410874
664.9855811
546.222319548
554.154015767
560.258528829
562.354371075
562.258849486
562.16355051
562.278574038
561.973409107
562.290409922
561.802044654
562.304742976
561.732584088
562.3207947
561.846599526
562.338650608
563.690225451
575.055410884
595.466453268
624.49970498
667.561014503
545.773094481
553.519820271
560.790585479
564.499348199
563.475879546
562.274132354
562.150094807
562.289249025
561.951028862
562.30430152
561.842568387
562.320542968
561.862212681
562.338476443
562.031431792
563.610748499
574.841431375
595.720420385
626.106925288
671.371534675
546.221359119
553.681298691
563.513186333
570.140163658
568.473721477
564.76730926
562.287126389
562.20004313
562.303623334
561.990419741
562.320240713
561.967218354
562.33829058
562.119398651
562.360112106
564.128150253
576.126772334
598.390381178
631.562995485
681.689640257
545.956615715
555.430043524
569.321087338
578.777548747
577.254182313
572.151944466
565.646658252
562.397182475
562.220075768
562.319857068
562.128427515
562.338092234
562.157059658
562.35998291
562.307813185
566.836125537
581.536070035
606.824916845
645.68265745
704.510841871
546.222609914
560.005136189
577.572133066
588.541610022
588.003564657
583.35012506
574.712889871
566.838205165
563.361522142
562.279517558
562.337886382
562.282239227
562.359859719
562.47867742
565.096332995
575.009028403
594.17304902
625.248733653
674.151745321
740.104481174
546.17424128
567.521459367
586.449130142
597.466640772
598.700242202
595.772921619
588.205822776
578.227144466
570.558710937
566.655374545
565.201542655
564.985858292
565.462311824
568.093899333
576.014550404
591.737439509
617.480687633
659.065503371
717.235758422
766.075458602
548.705407798
576.688382439
593.566608573
603.904039017
607.559533767
607.522200622
603.569891876
595.630405518
586.888288826
580.599009197
577.507701673
576.964787466
578.494642576
584.539575291
597.65537599
619.868917904
656.828348772
709.320036896
752.341007669
764.169129975
556.730849136
585.056014366
597.403110792
606.543935269
613.363214313
617.868821746
619.040030696
616.733939129
611.503658819
605.745600465
602.343059756
601.807221667
604.650473608
613.835655938
632.093161912
664.639841424
713.399788679
756.257873545
756.945040588
728.735316039
565.041329202
590.396464818
598.584964984
606.761006305
615.652856042
625.433294615
634.437479224
640.609528914
642.425699141
640.932751603
639.249148284
639.734522185
644.67514746
657.81804412
684.4073982
727.771450899
768.737299297
769.575131752
734.501463687
649.106537572
569.576316767
592.312834743
598.773294402
606.839122059
616.627195394
630.188156052
647.908603439
666.2354211
678.445329412
683.895144846
686.247819424
689.796523737
698.658059778
718.472313166
754.772415906
792.946808583
791.422449978
745.421477793
656.020147324
631.696589206
571.355789086
592.202513278
599.218136623
607.468734418
617.910463025
633.851326423
659.407818873
690.809204082
715.76468806
730.873059599
740.268465548
750.036612284
765.782491037
793.707037486
828.532366786
824.389432845
765.533881081
663.885052496
631.919631628
633.285860771
571.520352741
592.454643946
600.834325868
609.593477536
620.542868526
638.342901967
669.431290169
711.044855487
749.498146965
777.784830315
798.745335251
817.511186094
839.660886169
866.324254241
866.20581225
802.42099134
679.147069742
632.410225827
633.285833629
631.447928838
571.638808182
594.354207428
605.096241428
614.801306592
625.932645781
645.293378923
679.939453354
727.509857131
776.658668603
819.064031721
852.987502505
877.097707521
894.858286422
897.208754279
857.179042643
716.190406815
633.016988814
633.285800343
631.764620598
633.28589171
572.499890141
599.431687774
614.042778108
625.448052689
636.323383447
656.842848763
693.590016273
744.008231342
799.262439769
851.152601707
889.435140184
907.544784989
910.051680574
898.001344741
797.181395679
641.8551788
633.285756674
632.325501011
633.285850205
632.144427969
576.956606798
610.431389756
628.810926177
643.357615534
654.710231432
676.127160234
713.335987255
764.260559887
821.240627162
874.833430308
906.139639886
913.378691013
910.796313444
880.228026533
716.556338926
633.285698849
632.803819486
633.285800239
632.57748546
633.285884169
590.445494066
629.409551622
647.16458835
667.589029549
682.438083176
705.089504572
741.200416881
790.164252595
844.937826324
892.443094034
912.907906178
913.562945236
907.231461344
839.739059696
687.401808146
635.459952002
633.285741728
633.063079764
633.285825818
633.033256867
624.210982297
651.434197202
665.412945492
692.526262689
717.396306524
743.672133286
777.889999047
822.255890821
870.751182184
906.502615487
915.742591193
913.686657677
894.750970425
791.445372596
692.389528496
656.028806684
647.806740372
645.758464894
646.692497872
653.806801088
677.751932899
675.590563461
683.079212808
716.297985105
757.447607551
790.911276678
823.513011914
860.722606919
897.755578288
916.344351971
917.055267373
911.251654978
870.627598227
774.363906514
717.988825426
702.147989843
692.369720792
690.460871486
695.276039411
711.239015204
728.075939038
708.881060564
706.237507578
740.119560863
799.208241617
843.697447917
874.123049345
900.076064573
916.090022707
917.052151075
917.055261546
905.04521782
840.5667129
779.745804292
762.480219334
764.816412261
761.965833611
764.670985832
775.124881612
796.550014805
745.28568805
745.326022586
732.410897499
761.783018229
831.046974635
888.157398248
911.225173917
917.053136874
917.065779264
917.079479687
917.074926737
896.178729954
834.27233815
806.564309098
823.762034139
842.141190336
850.700473301
860.063085733
873.100309621
889.452263422
791.79665197
852.170907353
928.377950223
979.753751172
997.103787563
998.860298462
998.862455418
998.865486134
998.85561713
969.631550813
800.215878283
778.022424535
822.461642939
954.543689165
998.503211624
999.947681002
753.225110403
752.199475207
755.505890928
765.638001613
797.238924207
865.511928501
939.400102722
983.307420955
997.235477634
998.860394894
998.864961342
998.862455314
995.277411103
899.907263479
796.248828827
794.129512214
836.296837457
950.497396218
997.635593524
999.947468246
757.09491376
752.208310386
753.194947666
765.758446603
807.788091337
880.710152399
948.743563425
985.250521949
997.128793437
998.862248153
998.862455196
998.467686753
956.347686928
840.589296974
817.275376846
820.950156522
849.534350855
950.843868708
996.942988499
999.947538329
764.03298408
753.085638593
753.980531477
772.703659198
827.30550706
900.375966382
958.831787859
987.467591513
997.20437071
998.862455066
998.865078103
983.621028505
862.596923373
840.578634985
852.847585553
837.335374261
863.187979168
954.178160574
996.891149591
999.947346388
772.893031013
757.454717173
761.542705271
793.981759049
857.351768525
924.022426616
970.168809569
990.829069661
997.648557606
998.802480094
993.570724339
891.848303273
857.900194698
860.443533127
889.322693152
846.716537353
872.823310145
955.970335989
996.848623183
999.947418546
782.543600853
768.207653171
781.621294347
829.35595431
893.670170191
948.567060492
982.141637624
994.664439173
997.670183828
996.38498435
939.473975173
848.265035652
857.58205504
899.241424618
912.441732144
858.101182712
873.40273722
949.766700115
996.019062631
999.947245317
791.802522984
786.070715632
813.510670196
871.044300069
929.356892547
970.66525228
992.278459036
995.758229071
996.349175275
967.732758088
851.849322593
848.234895358
891.833131089
935.81906446
923.254734926
872.15359744
875.543278807
934.838857133
992.913849377
999.947304783
800.702588832
808.425187592
851.526256036
911.205901444
959.591710851
987.004683772
995.534669411
995.756335262
981.934519475
883.513646986
822.962880053
865.186592497
926.727015367
952.185693182
932.286700545
889.726226561
889.288953231
932.107360867
989.776131396
999.947104323
809.233622512
831.248902676
887.15028474
944.213211259
980.162287986
993.668988549
995.550461601
991.336424385
919.748907697
807.1662035
821.336255579
881.251481993
933.49427635
954.505475423
946.878539764
909.839097518
905.621560887
944.743362923
991.592821033
999.850394431
812.553745493
845.951953349
909.04313909
962.673275364
987.105132745
993.987204046
994.324934731
962.883537361
828.507846098
772.149559167
815.910586982
875.849434914
925.997547139
956.181377823
959.599555096
927.174970109
903.529519262
953.626018002
992.589176469
998.464385264
810.652287228
846.628258493
911.338595906
964.987192546
986.645259959
991.77058204
988.475180703
917.670337649
774.946365751
763.283619488
802.882955524
859.036672756
908.625358026
943.128006459
961.447361214
953.207911301
889.146954042
915.839343364
983.051631717
993.975601772
797.50358052
833.134337069
896.634210352
954.781387098
979.930866658
985.232192813
979.930766281
895.746535298
763.520506002
763.272841143
793.219021051
849.267543986
900.731725907
934.382336113
961.332679169
973.926976879
876.938388815
821.840760491
958.145058302
989.005017957
759.760535693
794.576730974
856.098529695
924.648072393
965.341893395
976.610519762
971.343999267
891.004962984
764.289865739
763.283499523
794.290439815
852.141994744
903.952482724
936.358124553
961.483703876
973.892464232
868.982560884
715.834031745
943.03209127
992.875775447
713.970424821
763.29194657
830.25892283
899.554077558
949.78809526
968.224635053
962.412464343
889.814479029
771.191571399
765.357750202
803.567332447
864.406904582
914.426464789
944.022089759
969.11889416
964.249193888
753.240991917
655.874200407
978.711334953
999.023560447
697.022919716
757.902339762
827.884098684
891.947973482
938.908409514
959.970806895
953.500313817
885.533307854
776.505522055
772.259116745
813.596815795
873.237795839
919.492681803
947.077698246
969.295115912
946.332023985
668.177935704
654.817306542
985.666715073
999.477204467
700.329156098
765.887149721
835.896250341
892.233565449
931.436648908
950.247868879
941.654232856
869.377636701
772.567128381
772.040104594
814.473811161
871.876158883
916.24566046
944.580624389
961.744538681
808.585021914
692.254091094
680.985789361
982.105521573
999.480814309
713.365748408
783.785127142
850.870725979
895.832261775
924.818090156
935.434207879
917.775080674
829.735581463
754.838290877
762.520752543
806.134475489
861.174880999
909.791961377
944.438673307
958.89988748
728.997183271
716.619971436
771.270423975
995.963292207
999.484425296
723.910091049
797.403723278
861.286649433
898.036938054
914.749606421
909.304763752
861.963864014
770.399315317
728.443622995
748.619141015
800.5721964
863.340248916
915.318134481
949.244715431
963.973971106
760.646967345
738.812163483
768.155023319
997.643560397
999.48801402
729.404332672
805.053054435
866.793027902
896.451091548
895.656697481
851.406802072
770.98411297
724.046879606
722.720357009
750.711891378
809.839628646
876.923872888
927.506015893
955.669222356
973.725017658
854.580876918
740.809194848
674.573595285
989.738084978
999.491602635
736.80594888
813.702040519
870.297757614
883.545732572
852.411748058
748.006651602
696.399314367
701.0471767
722.830157765
765.741080664
835.781565644
902.087631883
944.947812164
966.271656054
980.854180175
850.690472031
679.199366548
651.50013908
968.207737413
999.49519127
752.530766075
826.480211265
865.333906896
848.090543314
752.266364488
659.352930889
657.933490021
689.571541687
733.831125027
793.524768594
871.802716624
929.53856632
961.88469775
979.153295782
980.99302966
691.31244052
611.194798486
651.869463331
960.762909949
999.715021463
778.042640099
829.508807879
833.600336811
755.239131753
648.11436626
632.790747612
641.999366306
691.337992386
757.064617368
833.515375678
907.003058945
951.495012991
973.648050766
985.825923278
971.709500727
610.811612205
611.832841383
731.456456577
982.370150746
999.858177575
793.557654887
811.199889827
751.4258799
646.399988615
631.896114555
633.286010445
639.436600024
712.039412186
797.923491723
879.952195185
937.648057474
966.101460667
978.383616012
985.810607419
853.528773841
611.83283733
610.358824874
807.437886746
985.137228121
999.858590225
784.73586021
742.746209289
645.509799883
631.473960031
633.285989927
631.807726383
645.054209808
757.107735449
847.350213728
916.109980867
952.132315569
968.207211225
978.409007265
940.170689117
625.882203583
610.920339344
611.832827673
833.748183942
987.962248679
999.858517265
733.558145661
645.761200228
631.318064433
633.285963987
630.65294085
633.286030656
674.703626815
813.727034608
888.768800637
932.660381636
953.249233857
967.069754363
959.743733704
768.493199007
611.457365689
611.83282447
622.049680205
850.249385353
995.015422367
999.858952591
645.862948052
631.410890721
633.285939243
630.561382528
633.286013308
632.64027818
722.257691896
861.277909139
916.55702261
937.163911696
948.068425536
949.944851102
871.906540331
652.763744956
611.832820524
615.938299664
679.757909691
903.473095579
998.17096205
999.858875782
631.540130391
633.208963172
630.56551205
633.285997893
631.122504629
633.286033228
771.974021506
895.051432851
930.673873435
934.431464918
930.873345383
906.519241092
791.049319745
649.700615393
623.139045958
671.016197879
769.603978167
955.778939991
999.56760261
999.859301296
633.208936635
630.579356825
633.20902935
630.871202368
633.286022031
642.421248666
805.696472109
917.760736754
930.585713928
927.448194525
899.888265832
862.786563014
797.714332649
705.535931011
691.703425527
744.928378519
882.585362305
992.209603527
999.859541551
999.859226862
631.02756003
633.209005487
631.005531144
633.286008095
632.274040833
668.017872801
821.538716485
923.732521814
930.497554009
919.73874538
861.572570313
834.885343071
834.201886006
805.943310842
792.02264418
838.409642082
958.844079656
999.376819442
999.859524086
999.859625619
633.285927065
631.282089855
633.285992109
632.123964805
633.286020917
690.635259512
829.938111799
922.676643027
930.409394615
919.098182018
840.152713936
808.897531576
855.640076635
895.581035479
895.133224874
926.198439448
986.970868206
999.735998583
999.859955429
999.859536088
631.766076755
633.285967655
632.081118363
633.286007861
637.027837029
713.123016041
839.553212501
922.226240623
930.318713925
922.603064611
846.030354007
789.798866499
843.402468915
901.730349141
934.620161269
973.366026096
997.534359618
999.793704492
999.859747997
999.859840503
633.285932223
632.282143093
633.285988208
633.683232523
661.424555587
745.492804623
854.867608474
923.964534396
930.228069372
927.445424911
866.056783541
788.354105865
822.483157484
874.288074552
907.109152117
968.489245497
998.701230052
999.805819047
999.860018504
999.859610739
632.857364646
633.285958347
638.409623616
658.117033965
708.260682717
789.804798543
879.257401714
928.399284287
930.137365976
930.046410759
889.292288744
782.436564681
770.315889483
778.554342718
791.210889827
952.828184806
999.508032532
999.821072131
999.856803699
999.859685489
637.866636104
649.612629756
674.292493463
714.618867085
774.118800305
846.942952043
912.79938999
929.947526018
930.043291611
929.962725823
862.761667631
718.3979539
681.857416367
677.63606519
668.747542474
893.65293786
997.153016857
999.56687282
999.014259589
999.859285479
671.731747145
702.120981508
743.34823189
793.680666261
851.179524124
908.365003873
929.754125425
929.853699545
929.949729974
874.703323818
711.899150337
660.590712906
661.229627369
660.544361499
661.477856678
817.538162667
986.118607211
997.753146501
995.988459106
999.643821295
741.259551644
783.197898323
829.272817458
874.498726962
910.905410655
929.554615992
929.654538419
924.243001815
843.178586288
696.413451848
660.320121307
661.006971378
660.492475233
661.291439564
660.642263917
808.369163152
981.114491485
996.364441852
995.970014328
999.082011551
829.508412387
866.114396176
888.837500203
899.277387623
911.515070761
913.762841786
891.899483722
826.022726214
729.163678064
661.081099408
660.84968826
660.506828018
661.023547109
660.733404428
661.213178029
822.918017549
985.397490707
997.29607142
997.197310168
999.067059752
904.727856993
903.171682827
881.119896451
858.693239917
844.959778727
831.884941959
819.126294668
807.748897351
760.192955185
680.799898362
660.577317563
660.787838924
660.771612605
660.9946964
660.85781193
866.0644228
993.926499287
998.593954954
998.798380913
999.063192764
)
;

boundaryField
{
    emptyPatch
    {
        type            empty;
    }
    minY
    {
        type            calculated;
        value           nonuniform List<scalar> 0();
    }
    maxY
    {
        type            calculated;
        value           nonuniform List<scalar> 
40
(
745.285645271
745.325977596
732.410824453
761.782944401
831.046921883
888.157365296
911.225149555
917.053115602
917.06575933
917.079460708
917.074908956
896.178710594
834.272310606
806.564276356
823.762004651
842.141165264
850.700450723
860.063065085
873.100290746
889.452246232
904.727841243
903.171666223
881.119875719
858.693214902
844.959755231
831.884926212
819.126286124
807.748892224
760.192949111
680.799889268
660.577307855
660.787829123
660.771602833
660.994686729
660.857802324
866.064419174
993.926499046
998.593954886
998.798380851
999.063192716
)
;
    }
    maxX
    {
        type            calculated;
        value           nonuniform List<scalar> 
38
(
999.947681004
999.947468248
999.94753833
999.94734639
999.947418548
999.947245319
999.947304785
999.947104325
999.850394437
998.464385322
993.975601993
989.005018372
992.87577574
999.023560494
999.477204493
999.480814337
999.484425324
999.488014053
999.491602677
999.495191323
999.7150215
999.858177602
999.858590262
999.858517318
999.858952692
999.858875977
999.859301659
999.859227493
999.859626714
999.859537977
999.859843619
999.859615574
999.859692491
999.85929492
999.643848673
999.082086032
999.067133494
999.063263632
)
;
    }
    water_to_heater
    {
        type            calculated;
        value           nonuniform List<scalar> 
59
(
630.511372703
630.511356636
612.304822935
597.684995783
597.15492536
597.154921297
599.936261371
599.936257349
617.097146042
617.097141254
657.418738858
711.252050235
750.867891115
750.867869132
753.913457022
753.913436764
747.224424768
747.224404481
677.245956805
596.463151999
551.490413855
551.490401451
545.728616367
545.728609038
546.158743338
546.158740671
545.641430403
546.158743845
545.710050784
545.710055866
546.158748994
546.158757148
545.893975478
545.893986229
546.158768909
546.107839381
548.634111161
548.634121663
556.651608433
556.651616341
564.955942704
564.955946933
569.489619465
571.267911737
571.432207976
571.432209346
571.550119893
571.550126194
572.405510849
572.405528657
576.851841189
590.329032178
624.068495722
624.068536947
677.59869864
677.598731946
727.92705531
727.927069695
745.136565436
)
;
    }
    procBoundary0to1
    {
        type            processor;
        value           nonuniform List<scalar> 
41
(
640.489823661
646.133996746
656.482626968
661.232530511
677.715094397
718.399908039
780.424142978
845.109279627
886.391418295
894.637703551
894.724437534
888.124595685
877.287090314
877.790225267
888.308003876
899.518380831
899.760745231
876.537369181
780.312196794
751.462735239
789.097676611
836.808274187
911.710196301
970.490938776
995.205669842
998.829257749
998.863112605
998.862455545
998.864632258
993.905989197
835.430695652
778.417715675
802.125979409
954.228464095
998.85717358
999.947617157
752.141896131
753.853417651
760.704697849
769.79718782
769.79718782
)
;
    }
}


// ************************************************************************* //
