/*--------------------------------*- C++ -*----------------------------------*\
| =========                 |                                                 |
| \\      /  F ield         | OpenFOAM: The Open Source CFD Toolbox           |
|  \\    /   O peration     | Version:  2312                                  |
|   \\  /    A nd           | Website:  www.openfoam.com                      |
|    \\/     M anipulation  |                                                 |
\*---------------------------------------------------------------------------*/
FoamFile
{
    version     2.0;
    format      ascii;
    arch        "LSB;label=32;scalar=64";
    class       volScalarField;
    location    "0.74/water";
    object      km;
}
// * * * * * * * * * * * * * * * * * * * * * * * * * * * * * * * * * * * * * //

dimensions      [0 2 -2 0 0 0 0];

internalField   nonuniform List<scalar> 
6000
(
0.0348651363127
0.00817327507125
0.00153842546707
0.00031049516544
0.000148456835196
0.000138519951804
0.00014013135653
0.00014131556908
0.000141804477578
0.000141758530443
0.000141356859841
0.000140780920725
0.000140168412433
0.000139603016911
0.000139124715278
0.000138744013034
0.000138454686205
0.000138243202605
0.0001380947361
0.000137996403725
0.477248192496
0.149765268162
0.0413326940452
0.00953463685811
0.00177260089621
0.000349485409039
0.000155000954468
0.000141030328795
0.000142392108828
0.000143036045202
0.000142954695848
0.00014249445165
0.000141839189781
0.000141110709162
0.000140397922505
0.000139759413116
0.000139225478036
0.000138804279244
0.000138490150849
0.000138271275906
0.676298914059
0.254030501152
0.0910610833111
0.0291961228494
0.00754098108569
0.00149312433158
0.00030768067554
0.00015217130912
0.000142475236283
0.000143467029784
0.000143898206708
0.000143745256718
0.000143268699382
0.000142604112542
0.000141847974024
0.000141082312938
0.000140372369924
0.000139761494706
0.000139271166852
0.000138906085839
0.831394097414
0.331262710655
0.131317387652
0.0500207992562
0.0167661187237
0.00438019270224
0.000868922315712
0.00021926423283
0.000146863095221
0.00014357776841
0.000144285009628
0.00014448902361
0.000144276093353
0.00014379878437
0.000143146400265
0.000142395981637
0.000141623560975
0.000140897088703
0.000140267301351
0.000139764292625
0.908189146685
0.380704396346
0.160230212069
0.0667851588092
0.0260629502859
0.00863734862512
0.00213143500806
0.000435074432512
0.000168827856405
0.000144831489554
0.000144380172916
0.000144847723402
0.000144909552259
0.00014465754838
0.000144174599776
0.000143525258018
0.000142779274662
0.000142012145735
0.000141294258838
0.000140680132827
0.917466354314
0.404999856284
0.179867763178
0.079767796466
0.0342068007928
0.0132802731183
0.00415015390009
0.000948107030546
0.0002421118814
0.000151406489186
0.000144766309339
0.000145040588574
0.000145320335625
0.000145278774907
0.000144969402793
0.000144445830312
0.000143767133485
0.000143005485427
0.000142239622548
0.000141541714409
0.902453958861
0.411260010946
0.190136197016
0.0884982648194
0.0405961798168
0.0175814287855
0.00655924333576
0.00185126342694
0.00042732432638
0.000174308182729
0.000146749705069
0.000145339058955
0.000145656772443
0.000145770341055
0.000145601795476
0.000145188127773
0.000144578934038
0.000143839320915
0.000143048436434
0.000142288099592
0.901139082378
0.411350741071
0.193892730983
0.0934717612149
0.0451910312145
0.0211607931183
0.00896231554264
0.00305656688619
0.000785225858953
0.000235948273465
0.000153615037493
0.000146129045119
0.000146011767932
0.000146177718701
0.000146097763887
0.00014576083501
0.000145205691783
0.000144489621183
0.00014368745023
0.000142883390054
0.896492697909
0.40869087785
0.19422302045
0.0960953121561
0.0484405633809
0.0240364112074
0.0110971317134
0.00438103687624
0.00134297160349
0.000369382249739
0.000173713468505
0.000148307588929
0.000146488987218
0.000146509637361
0.000146446672834
0.000146147721968
0.00014562833443
0.000144935327266
0.000144135307216
0.000143311069078
0.883031474286
0.401584879877
0.192744252448
0.0976352377948
0.0508130307389
0.0261851541915
0.012801554095
0.00562612110561
0.00203034596172
0.000599818040964
0.000222839750502
0.000154143014177
0.000147309547619
0.000146786916813
0.000146640097171
0.00014633878199
0.000145841076885
0.000145175879393
0.000144397981807
0.000143579730872
0.856494341729
0.39269558757
0.192001374066
0.0993037253781
0.0526715068602
0.0276532090281
0.0140293940009
0.00667981581202
0.00278019334967
0.000929490209618
0.000319676638955
0.000169521518913
0.000149086994449
0.000147103943396
0.000146713356758
0.000146367527395
0.000145884864228
0.000145257110313
0.000144519099112
0.000143728386672
0.837800363027
0.391584183903
0.195121017604
0.101935434338
0.0541840860013
0.0285669795008
0.0148773075071
0.00759317487147
0.00355841040489
0.00136588116604
0.000485328717158
0.000211599329785
0.000154021940257
0.000147811154003
0.000146813930088
0.000146352543333
0.000145869009564
0.000145277941592
0.000144584578167
0.000143827878562
0.862913987623
0.409050915741
0.204627029733
0.1057575919
0.0553580400917
0.0291907526352
0.0156492994954
0.00851806186456
0.00439768404424
0.00194518856706
0.000741113657304
0.000308867344691
0.000169952304263
0.000149902721625
0.000147248951304
0.000146497834747
0.00014596246857
0.000145380078002
0.000144708644074
0.000143965549038
0.945910904747
0.448808776634
0.21913380192
0.109504293144
0.0562676162286
0.0299807258544
0.0166407104492
0.00955545919019
0.00537973020022
0.00266571958334
0.00109826975598
0.000480865956288
0.000221399436276
0.000156194934559
0.000148516576543
0.000147040093341
0.000146339777302
0.000145701504195
0.000144996635044
0.00014421692338
1.09482468651
0.4967436013
0.231846174053
0.112810646755
0.0578017136412
0.03132987564
0.0179208144353
0.0107156410404
0.00646139419821
0.00350037802018
0.00154527748917
0.000723083919399
0.000346884190204
0.000176389981471
0.000151492818771
0.000148161721112
0.000147104521702
0.000146321181453
0.000145507090913
0.000144621152651
1.20208841479
0.528303419803
0.24313080937
0.117593059501
0.0603504584781
0.0330598616395
0.0192873149984
0.0118707032446
0.00746966089696
0.00436402119606
0.0020533736023
0.000999026195043
0.000551978692685
0.000236556248913
0.000158419005279
0.000150002190234
0.000148262167444
0.000147239763572
0.000146241516192
0.000145178069378
1.22883302051
0.543816257647
0.251217249708
0.121856220846
0.0627705131251
0.034629947342
0.0204707072483
0.0128686299477
0.00835430450947
0.00510979480701
0.00252733563652
0.00125228137974
0.000781480797593
0.000366529053439
0.000175948732052
0.000152846461516
0.000149758718067
0.000148406047489
0.000147165321604
0.000145866056165
1.23614560218
0.54831997631
0.254739593876
0.124301635411
0.0643601870946
0.0357055022086
0.0213098951995
0.0136276391961
0.00907872469794
0.00572687424761
0.00290423389832
0.00143939131424
0.000963562583738
0.000546071936814
0.000215915280336
0.000157369436429
0.000151542148351
0.000149759628018
0.000148237057844
0.000146662687951
1.24013073893
0.550496222342
0.256032417025
0.125253675283
0.065055406668
0.0362532543057
0.0218266574751
0.0141947797789
0.00968462586717
0.00623572292193
0.00318643840177
0.00156877648239
0.00108263372759
0.000709933776088
0.000282562153373
0.000164944077454
0.000153588789436
0.000151244367679
0.000149417679023
0.000147550181388
1.25013325491
0.553716085733
0.257058449154
0.125512708604
0.0652315789773
0.0365137630597
0.0222129814423
0.0147307789214
0.0102267608419
0.00664608446142
0.00341742629026
0.00166220743276
0.00116671186674
0.0008291063602
0.000367073526627
0.000175705072924
0.0001558520015
0.000152786487069
0.000150655846368
0.000148503843169
1.26695661566
0.560411963359
0.259388436362
0.126273133077
0.0656277931734
0.0369130161294
0.022738571255
0.015313773808
0.0106892041059
0.00700183505473
0.00366881163422
0.00177724934918
0.00125107704859
0.000923934131019
0.000462536583915
0.000192876431485
0.00015863733727
0.00015432400152
0.000151878836688
0.000149477977912
1.29210890855
0.570006873103
0.26328156317
0.128095265857
0.066709470248
0.0377384881547
0.0234752786048
0.015867392717
0.011092269822
0.00738050486937
0.0040128172322
0.0019507414886
0.00136397128217
0.00103276055748
0.000578164513244
0.000228943904504
0.000163001325101
0.000155853691416
0.000152996821633
0.000150400008456
1.32071052091
0.580462110208
0.267913186635
0.130733755545
0.0684148878296
0.0389117226918
0.0242421123449
0.0163336108935
0.0114709536673
0.00779958893055
0.00444433249001
0.00218496937871
0.00151376627512
0.00118265190821
0.000738800201854
0.000307219861332
0.000171817757609
0.000157620334678
0.000153959664407
0.00015119285587
1.34831233779
0.589464928089
0.271883478303
0.133547333125
0.0704619253677
0.0401953195172
0.0249061288909
0.0166951611791
0.0117752852286
0.00815890005561
0.0048222150025
0.0024300863238
0.00164632611231
0.00138269796884
0.000964188793482
0.000454396460588
0.000194121832995
0.000160446821085
0.000154838380937
0.000151818163937
1.3519200682
0.589051670181
0.273993833983
0.136686230265
0.0729367936196
0.0414951119114
0.0253666787136
0.0168300967122
0.0118571985847
0.00823104958602
0.00505139243736
0.0026414335033
0.00174038322989
0.001555916239
0.00122411494305
0.000676607987522
0.000251344619335
0.000165951967938
0.000155833722122
0.00015230075173
1.30131748656
0.578908208121
0.277167493371
0.141714153358
0.0760644408864
0.0424953495879
0.0253304433088
0.0165338901263
0.0115469386172
0.00808487835041
0.00518317115915
0.00278212119419
0.00177911385264
0.00161669786859
0.00143668751959
0.000933494925824
0.000370812552473
0.000177596265159
0.000157282089249
0.000152722068937
1.24014224593
0.575864731648
0.286264944451
0.149048289648
0.0787409995075
0.0423687722071
0.0246707050216
0.0159654354196
0.0111294698779
0.00790062831184
0.00522854044208
0.00285834179203
0.00176484084601
0.00161017185854
0.00149780679745
0.00114690852189
0.00055135097788
0.000203568782397
0.000159727629481
0.000153190980012
1.24350195159
0.596869409788
0.303353855884
0.156827227733
0.0795572186775
0.0420170448055
0.0242481281044
0.0155650482143
0.0108387455558
0.00777645743841
0.00526995592344
0.00291818445694
0.00172106580321
0.00155663191857
0.00147725321289
0.0012617330982
0.000744649614583
0.000257647576246
0.000164082396864
0.000153821131261
1.31261895899
0.645057239311
0.326424883204
0.163358995505
0.0813793467763
0.0426339553103
0.0244400151429
0.0155672663738
0.0108006708021
0.00781874196974
0.00541402979115
0.00302516963364
0.00167891496684
0.00147817151334
0.00143311839747
0.00130414834694
0.000903124017536
0.000351228301896
0.000172150166674
0.000154748368778
1.447126308
0.713515311443
0.351581075175
0.171148353271
0.0847802100573
0.0443718982353
0.0253587159965
0.0160189729364
0.0110557433793
0.00807593112303
0.00571207949355
0.00323750125135
0.00167888778418
0.00140512249027
0.00139419399279
0.0013136830849
0.00101958057228
0.000481543866056
0.0001876802093
0.000156199713253
1.6570843534
0.792133630899
0.376433273381
0.181505668137
0.0896728283081
0.0470274950333
0.0268732829664
0.0168651576442
0.0115851083871
0.00852649921388
0.00614591729565
0.00357435070991
0.00175657555295
0.0013640505916
0.00137704185189
0.00133044721949
0.00111508875027
0.000632241619542
0.000218472607343
0.000158706060739
1.91546205866
0.866803587567
0.399262945183
0.192086748582
0.0956599704996
0.050420980297
0.0288453600954
0.0180302998204
0.012343661829
0.00912106515037
0.00666609419768
0.00400027917368
0.001923222896
0.00136958710591
0.00138966241185
0.00137603866442
0.00120952929639
0.000785967994734
0.000277345633406
0.000163404230553
2.15202767267
0.927755339124
0.418930308102
0.200687953725
0.100677436523
0.0536610364136
0.0309341457384
0.0193581190412
0.0132404618435
0.00978532226191
0.00719320070249
0.00444644908278
0.00215705419756
0.00142413849986
0.00143274310929
0.00143846231843
0.00128781832226
0.000927797818142
0.000375212065463
0.000172313591007
2.31236749165
0.987241064292
0.440464945723
0.208583088612
0.104383749698
0.0560316748036
0.0325882240522
0.0205211338625
0.0140938770728
0.0104201486549
0.0076571859913
0.00481390914448
0.00239313605255
0.00151718246099
0.00149460837096
0.00150134573351
0.00134852299053
0.00104945697581
0.000505880347803
0.000188725293728
2.42808956
1.03064990433
0.455271740739
0.212514564672
0.105868770132
0.0572329171969
0.0336411545779
0.0214016591939
0.0148228239162
0.0109694312719
0.0080272823809
0.00507519796631
0.00257747005825
0.00162015228225
0.00156451183464
0.00156425117069
0.00141027862936
0.00114723444717
0.000643333167146
0.000217127652593
2.53164624278
1.06303644458
0.463265844859
0.213311125456
0.106047234807
0.0577457325851
0.0342916736997
0.0220641138247
0.0154251931327
0.0114044672886
0.00828083854916
0.0052283621294
0.0027058138077
0.00172023653233
0.00163561014999
0.00162748674739
0.00147604926168
0.00122890186483
0.0007657395445
0.000262417224361
2.64427601519
1.09055434979
0.468854478179
0.214203675954
0.106525486575
0.058292541638
0.0348450800395
0.0226256111083
0.0159205570031
0.0117093082087
0.00841387421522
0.00529253684334
0.00279657419802
0.00181619834443
0.00170421219493
0.00169206896287
0.0015512157358
0.00130971198088
0.000873318102717
0.000329172483814
2.74404690849
1.11383141337
0.473242513332
0.215804125179
0.107692226235
0.0591005805153
0.035435297632
0.0231524536747
0.0162959951928
0.0118686162554
0.00843791969688
0.00529707143025
0.00287378726434
0.00191076201446
0.00177022969654
0.00176193543264
0.00164286589981
0.00140469063236
0.000981954904806
0.000418449539708
2.81182912121
1.13481319808
0.480651180418
0.219567264539
0.109950860116
0.0603640756723
0.0362105436431
0.0236909142941
0.0165336157767
0.0118878682585
0.00837714306127
0.00527404949297
0.002955269696
0.00200256200372
0.0018363498761
0.00184154528746
0.00175711556116
0.00152815642467
0.00110826708803
0.000526296669606
2.80443375276
1.13666520463
0.484121164603
0.223076531399
0.11244396285
0.0618527757692
0.0371320072405
0.0241213756696
0.0165674367401
0.0117727563243
0.00825093860076
0.00524151586211
0.00304152198744
0.00208642518077
0.00190538473677
0.00193282826288
0.00189466362244
0.00168355829917
0.0012613768876
0.000649172332098
2.73157731364
1.11062049556
0.478803071568
0.223835949968
0.114032604679
0.0631533804646
0.0378699529169
0.0241963440418
0.0163381416898
0.0115233458452
0.00807120638998
0.00520170349546
0.00311797587828
0.00216034894249
0.00197539707236
0.00203292063727
0.00204469672181
0.00185957958436
0.00143304705343
0.000785571805672
2.60549016369
1.06030508147
0.463305641351
0.220355601125
0.113992938849
0.0637958549922
0.0379050370109
0.023714309426
0.0158292601637
0.0111499122286
0.00785298247157
0.00515722674562
0.00317917788786
0.00222764246113
0.00204309639683
0.0021344391013
0.00219048660661
0.00203292841921
0.00160675814927
0.000932371677952
2.45603889978
0.994836384572
0.441028940591
0.213800861971
0.112817920405
0.0633400110055
0.036903721486
0.0226648732298
0.0150723917475
0.0106871119443
0.00761966695439
0.00511976442359
0.00324370490967
0.00230043817668
0.00210514265503
0.00222375362593
0.00231886615849
0.00219110947915
0.00175086266151
0.00108561368042
2.26565262493
0.919859279112
0.414828293893
0.207069545854
0.111370272855
0.0617863353554
0.0350467760573
0.0212199392416
0.0141949733846
0.0102063964898
0.00739618202999
0.00509591077912
0.00333279187877
0.00238726592634
0.00215034896836
0.00227597512804
0.00241377054625
0.00232737685527
0.00188862861007
0.00123997639065
1.99791743295
0.825593461864
0.392946693828
0.205030712815
0.110644555604
0.0594866050873
0.0326877268166
0.0197198372206
0.013391982353
0.00978073846048
0.00720213944711
0.00508743872177
0.00343071522836
0.00246055145204
0.0021557493726
0.00225905433919
0.00244257412752
0.00242086294425
0.00202883795846
0.00139002786742
1.66989028589
0.777568145938
0.403319154603
0.214332648609
0.111504866083
0.0574562498602
0.0310515234327
0.0188397937678
0.0128895890959
0.00945838118246
0.00703279559707
0.0050639396167
0.00348588125451
0.00247196185158
0.0020967778009
0.00215026556579
0.00235999264952
0.00243172341732
0.00212048991925
0.00153203664938
1.60779890361
0.860590876098
0.458380938131
0.23672823179
0.117766877456
0.0588439863377
0.0314332536022
0.0188867576341
0.0127370755102
0.00925066607408
0.00688769048973
0.00502454747399
0.00349643542659
0.00242610176903
0.00194976662461
0.00195048153346
0.00214609835647
0.00231742639902
0.0021156109161
0.00160947183571
2.04761815615
1.09931578589
0.557173144799
0.271690700021
0.132127175164
0.0664777798994
0.0354616520099
0.0206564131153
0.0133404249394
0.00937999109086
0.0068968445238
0.00504401004089
0.00350689796007
0.00235384661804
0.00176169710148
0.00167144147484
0.0018415552542
0.00207540611348
0.00200800213201
0.00162154532369
2.98004751049
1.44015389692
0.655896214847
0.311822518835
0.15646573222
0.0827135275882
0.045014009033
0.0252746834923
0.0153163420643
0.0101696522348
0.00724454333765
0.00524862985399
0.00361478389712
0.00232078649767
0.00159494162466
0.00139765447925
0.00152069539337
0.00176678617622
0.00183144626064
0.00158476335328
3.93323663243
1.6101386091
0.738529275395
0.362409246416
0.188580250918
0.104605416433
0.0586304654752
0.0321948325893
0.0186331747645
0.0117195724828
0.00802642350819
0.00573259866193
0.00391424181972
0.00240833933279
0.00150480856856
0.00120612794912
0.00124940919177
0.00148697818652
0.00164302754625
0.00152445164615
4.11375134187
1.64426053068
0.755409935948
0.379352797829
0.210042493007
0.125567271448
0.0736090013615
0.0394802965928
0.0223407560527
0.0136930704608
0.00915366296844
0.00647278528832
0.00441382324846
0.00265411780941
0.00153117063036
0.00111402397642
0.00109316887295
0.00129618491188
0.00149355282202
0.00147551000221
3.96115007941
1.60820829175
0.737777783207
0.373362264721
0.214215922772
0.135797673874
0.0861819331403
0.0461694732599
0.0258345940286
0.0157104919262
0.0104189274
0.00734419805688
0.00502512484874
0.00301635513277
0.00166651444813
0.00111266168169
0.00102720566958
0.00118531573896
0.00140492109863
0.00145822085013
3.79902804212
1.54894383351
0.708972093676
0.359750955653
0.210651556502
0.138013904575
0.0908709149481
0.0504351363783
0.0287533154633
0.017605987273
0.0116860524912
0.00822732463175
0.00564175752355
0.00341922373503
0.00187124420345
0.00117773887639
0.00101967495663
0.00113368415745
0.00137139442049
0.00147412151978
3.67716834407
1.4985106277
0.680865935807
0.34386594135
0.202564907385
0.134160096612
0.0886891511351
0.0512194727577
0.0303450208719
0.0190096221786
0.0127640755032
0.00899443217113
0.00616659987579
0.00378628394678
0.00209867546935
0.00128388423974
0.0010514757637
0.00112459885491
0.00137457995258
0.00151444890283
3.62204386309
1.46530022068
0.657727040913
0.32891524376
0.193281885287
0.127720940195
0.0826959834467
0.0501852316132
0.0310090830912
0.0199567469786
0.0136027709675
0.00959102386079
0.0065550748764
0.00405942004289
0.00229097181308
0.00139674685936
0.00110645556989
0.00114434809987
0.0013974610997
0.00156746210421
3.62382516631
1.45659594939
0.644667765506
0.319933975818
0.186955959448
0.121998456811
0.077788969966
0.0490275644348
0.0312822791898
0.0206080349066
0.0142187776774
0.00999940627086
0.00680287713361
0.00423600770435
0.00243389094594
0.00149835461831
0.00116992381023
0.0011817303598
0.00143191987104
0.00162783602788
3.6799448799
1.46072602162
0.636644464999
0.314600228554
0.182403245397
0.116055634293
0.0747727571541
0.048234597639
0.0313961585358
0.0210371178251
0.0146027435213
0.0102126759773
0.00691589287221
0.00432667285107
0.00253188580542
0.0015857406592
0.00123669177727
0.00122919572831
0.00147498107202
0.00169214958716
3.80210161371
1.47096127737
0.634345132322
0.312437000371
0.179678878903
0.113171883617
0.0733480876471
0.0477197821449
0.031364594555
0.0212237714312
0.0147245561789
0.0102308609383
0.0069061273344
0.00434767368194
0.00259529169108
0.00166160475877
0.00130504855553
0.0012832509044
0.00152252063004
0.00176113353615
3.99767237633
1.48248766327
0.630982285692
0.312014727301
0.180189734709
0.113196147312
0.072727749558
0.0471546530076
0.0311147493642
0.0211109711198
0.014555575382
0.010063314541
0.00679328153178
0.00431867563859
0.00263623718549
0.00172975255438
0.00137437161297
0.00134095214495
0.00157239298942
0.00183511212606
4.3320127698
1.51573160413
0.6397161429
0.321418147016
0.184802892701
0.113443308185
0.0717709712488
0.0462248304271
0.0305244324673
0.0206035172865
0.0140938134641
0.00973721480432
0.00660735810349
0.00426260917803
0.00266647954531
0.00179402020275
0.00144341079883
0.00139931234402
0.00162042195275
0.00190983281807
4.88132481973
1.62826744482
0.684678455042
0.338055140637
0.187637516424
0.112291453937
0.0699596932156
0.0448444417795
0.029445220207
0.0196436597804
0.0133921731023
0.00930512313569
0.00638902973367
0.00420367790551
0.00269786325379
0.00185746792609
0.00151056378227
0.00145354153064
0.00165949743628
0.00197967285465
5.45700409142
1.77619848189
0.74354121187
0.351822347604
0.187769132992
0.109521943109
0.067425452026
0.0428663554122
0.0277315909058
0.018330838171
0.0125629092912
0.0088436330359
0.00618465923162
0.0041659531867
0.00274152702833
0.00192373447054
0.00157301748208
0.00149935682744
0.00168310308341
0.00203679551707
5.48638947935
1.83107390881
0.768884800215
0.354834543737
0.183953548953
0.10536157706
0.0640812747427
0.0400601112319
0.0255678285901
0.016938940986
0.0117609645452
0.00843794378343
0.00603686817005
0.00416956045541
0.00280926486532
0.00199632429645
0.00162885158688
0.00153193570338
0.00169034902631
0.00206857528186
5.13652290358
1.7641522294
0.742609912825
0.340981602507
0.175482777027
0.0996627924458
0.0598402619677
0.0369966834849
0.0236226420262
0.0157989262169
0.0111441739563
0.00815938877245
0.00597217962641
0.00422845885652
0.00291010066588
0.00208070147605
0.00167751583476
0.00154809312064
0.00167476584195
0.00205923847634
4.35625068449
1.5300617718
0.655440823541
0.309957981128
0.16293234649
0.0934023194899
0.0562526132282
0.0349392364765
0.0224704192339
0.0151604411026
0.0108168208521
0.0080383028303
0.00599695908341
0.00434467332506
0.00304689627233
0.00217612665732
0.00171471025621
0.00154206089552
0.00161733538956
0.00199421615431
3.20434330796
1.22325815645
0.557295655197
0.280356820268
0.154009764562
0.0904077015068
0.0551706453199
0.034704849048
0.0225570403091
0.0152290800557
0.0108304320476
0.00806163968516
0.00608115818155
0.00448752400099
0.00319298529349
0.00226836994422
0.00173241028955
0.0015105109724
0.00152976544484
0.00187183305105
2.39801284807
1.04107735452
0.513151404831
0.27379856252
0.155416602888
0.0932486938028
0.0582889954085
0.0374028233219
0.0243192860946
0.0161180051046
0.0111898103807
0.00820185507496
0.00619051573278
0.00462489677917
0.00332539499937
0.00233284927582
0.00172239639732
0.0014520624976
0.00141937993584
0.00168664269953
2.16407799702
1.04946647566
0.543493824374
0.297594712899
0.172358285491
0.105399851714
0.0674979388372
0.0441537618875
0.0286067355729
0.0183860174956
0.0121880990489
0.0085888714196
0.00637080434145
0.00476958480431
0.00343784998048
0.00237403171147
0.00168295882273
0.00136215077499
0.00129087682827
0.00145924649466
2.38262860545
1.20600678286
0.633432777679
0.344066374404
0.199828428819
0.12484907455
0.0827237983727
0.0558694508306
0.0367685968043
0.0232733987117
0.0146199920706
0.00962595302957
0.00681057794755
0.00501342244097
0.00360147498992
0.00243045840521
0.00163393076427
0.00125017719296
0.00114472850346
0.00125229041381
2.70140671824
1.35782210598
0.698843703489
0.379401281658
0.222885286277
0.142334725117
0.0973575472285
0.0687935172824
0.0476234969402
0.0310795759832
0.019111037364
0.0118212189235
0.00778940972763
0.00552986300523
0.00393892949397
0.00259714393324
0.00163268458562
0.00115363334099
0.00100650769616
0.00107206066817
2.68278828464
1.25096797156
0.636526875903
0.355312529693
0.217899298137
0.146140057015
0.105366271825
0.0789032411298
0.0586397132805
0.0405280633678
0.0250169726907
0.0151368500329
0.00945548329991
0.0064252114758
0.00453742861309
0.00296908422641
0.00176141449968
0.00112767599385
0.000913586317845
0.000935093751213
2.39512011998
1.09122329293
0.557067395996
0.317073524831
0.201408935196
0.14115878791
0.106678265391
0.0839015949913
0.0657109563086
0.0486241805134
0.0318369067408
0.0191545120897
0.0116346912922
0.0076626776503
0.00536609962835
0.00355748728693
0.00207444008578
0.00121908474592
0.000895121232042
0.000858409085228
2.14095602384
0.97439805696
0.498219026149
0.287181261293
0.186440846844
0.134340535736
0.104656407287
0.0849753316402
0.0687514511495
0.0526844820051
0.036134729544
0.0224730027469
0.0138166610644
0.00903334422236
0.00630270608463
0.00427071886805
0.00254667090553
0.00144305610125
0.000964065324442
0.000850110500993
1.96163276736
0.889036126747
0.456496399301
0.265732557766
0.174453847963
0.127180798564
0.100458245281
0.0829203859335
0.0683402894811
0.0533479764807
0.0376693530683
0.0242381641388
0.0153147415068
0.0101567086034
0.00716504487315
0.00496964700968
0.00306417093305
0.00174263256985
0.00109909308671
0.000895007872331
1.83095059071
0.826354353357
0.428002970267
0.2507585153
0.164851726717
0.119967806911
0.0947558095504
0.0784982955562
0.065061230591
0.0511173156264
0.0367337440963
0.0244435821794
0.0159861362091
0.010897090411
0.00785782016281
0.00558328141855
0.00355355573044
0.00206263760099
0.0012713609503
0.000973241426099
1.74996814912
0.785528266613
0.409928298608
0.239659932073
0.155796141251
0.111865841918
0.0875415996364
0.0721719608096
0.0595836194702
0.0467873321725
0.0340267885249
0.0234393057443
0.0159476768057
0.0112777473807
0.00837409597932
0.00609656573042
0.0039897979352
0.00237821747015
0.00146562367309
0.00107545890819
1.72878864666
0.768931718078
0.398431078807
0.228697336578
0.145158314978
0.102009910904
0.0787785513367
0.0644245050044
0.0527993319567
0.0413491163493
0.0305440306694
0.0217734344295
0.0154622827304
0.0114198463687
0.00877081410391
0.00653452418866
0.00438588047035
0.00269525411506
0.00168526418429
0.0012034791933
1.82616752363
0.753380095978
0.38041696243
0.213692237819
0.132736326953
0.091221166165
0.0694514669098
0.0562635855092
0.0457203229058
0.0358585246284
0.027076180944
0.0199782004122
0.0148510722648
0.0115006335711
0.00913811601249
0.00694962946496
0.00478811280562
0.00304967699787
0.00195276217405
0.00136868011235
2.01064657129
0.776840678565
0.374873296802
0.204934691406
0.12504703553
0.083809920746
0.0621596699501
0.0493659141867
0.0396520950557
0.0312473181807
0.0241241001869
0.0184624264468
0.014408297532
0.0116860090085
0.00955905318382
0.00741531271498
0.00527474073952
0.00350218605475
0.0023018962117
0.00158380053005
2.03086094436
0.83338464814
0.394147781109
0.210138701077
0.12461755016
0.0810525659372
0.0580830041055
0.0446696568442
0.0353190171047
0.0279494218314
0.0220468701538
0.0175276923273
0.0143403984249
0.0120727645863
0.0100922226042
0.00803062684486
0.00594495012738
0.00411827603498
0.00274850356327
0.00182600055174
1.91554812355
0.852439982972
0.412970957053
0.220522732959
0.128694771509
0.0821019725251
0.0573183822707
0.0427416030365
0.0331296818601
0.0261990727472
0.0210514594752
0.0173127377716
0.0146704077775
0.0126540073225
0.0108053804027
0.00889430150668
0.00686933869432
0.00488719826536
0.00319758224936
0.00202183893978
1.84329203209
0.856936501087
0.427169530486
0.231560464428
0.135253734531
0.086006998742
0.059443801643
0.0434859408327
0.0330840386084
0.0259946694332
0.021079040332
0.0176910395996
0.015281229446
0.013409796785
0.0117570325656
0.0100040570049
0.00787616415844
0.00547015092948
0.00345112976404
0.00217497760855
1.88796213426
0.891854846034
0.45162841129
0.247640933602
0.145382923468
0.0928030448993
0.0639824695307
0.0463474383503
0.0347640394169
0.0270015285162
0.0218362061236
0.0184169003992
0.0160492373458
0.0143334042273
0.012825192126
0.0108624609855
0.00818970637271
0.00554289651618
0.0035696987182
0.00229532794658
1.98863572448
0.965813470209
0.487532854901
0.26758214506
0.1605203705
0.102114776544
0.0697405822807
0.0501322905208
0.0372490794577
0.0286022693403
0.022904625839
0.0192460854947
0.016864527211
0.0151748804695
0.0132821978069
0.0106364242092
0.00782887346584
0.0054371296329
0.00362352476207
0.00236441793724
2.13986355962
0.971013644153
0.481991549452
0.268004443923
0.164198265455
0.106942584421
0.0730123932376
0.0522895965371
0.0387870224635
0.0296610433006
0.023639674055
0.019806843867
0.0173121674061
0.0152264251004
0.0126918878456
0.00994331744522
0.00744635514396
0.00528852103263
0.00357769790445
0.00234700634246
2.18522525952
0.914991618129
0.447854958109
0.248801076037
0.153167765172
0.101354027508
0.0704597885346
0.0508082958244
0.0378832853426
0.029109359035
0.0232825470294
0.0195011689351
0.0168659188637
0.0144271432456
0.0118032356957
0.00933411433954
0.00704978836626
0.00500432266735
0.00338604963968
0.0022260044701
2.03450092583
0.849744119622
0.409503474516
0.222687337249
0.135291496305
0.0899525078766
0.0635959568321
0.0464865935917
0.034930682677
0.0270691538811
0.0218060740403
0.0183108705954
0.0157582566492
0.0133560430249
0.0109490299254
0.00867728125914
0.00648246659944
0.00455314281483
0.00307113815249
0.00203028495969
1.93333154517
0.79985695532
0.378789863453
0.199766450675
0.118430266361
0.0783151463309
0.0558325095635
0.0410371518462
0.0311648362622
0.0243769584595
0.0198147149558
0.0167572636766
0.0144592226186
0.0122440993507
0.0100174234243
0.00784584909566
0.00576150659362
0.00401238899971
0.00270599422636
0.0018077125513
1.92287501444
0.785080261379
0.363153940019
0.184419321547
0.105542278074
0.0684754349926
0.048490807348
0.0357140993577
0.0273630453289
0.0216285541273
0.0177865697922
0.0151903928486
0.0131546697382
0.0110943661161
0.00898284396603
0.00691527502133
0.0050177090012
0.00348317892261
0.00235280820101
0.00158953304793
2.01591145975
0.803288680901
0.360741617757
0.177012780605
0.0974822961276
0.0611500709908
0.0421984668239
0.0311471091874
0.0239831779034
0.019154312749