/*--------------------------------*- C++ -*----------------------------------*\
| =========                 |                                                 |
| \\      /  F ield         | OpenFOAM: The Open Source CFD Toolbox           |
|  \\    /   O peration     | Version:  2312                                  |
|   \\  /    A nd           | Website:  www.openfoam.com                      |
|    \\/     M anipulation  |                                                 |
\*---------------------------------------------------------------------------*/
FoamFile
{
    version     2.0;
    format      ascii;
    arch        "LSB;label=32;scalar=64";
    class       volScalarField;
    location    "17";
    object      alpha.air_0;
}
// * * * * * * * * * * * * * * * * * * * * * * * * * * * * * * * * * * * * * //

dimensions      [0 0 0 0 0 0 0];

internalField   nonuniform List<scalar> 
1875
(
0.124938
0.12246
0.129478
0.145572
0.168361
0.193677
0.219829
0.229213
0.243155
0.243143
0.138527
0.212691
0.272122
0.270244
0.245422
0.224828
0.206502
0.191486
0.178287
0.166065
0.15029
0.13415
0.123743
0.119895
0.120209
0.12246
0.14329
0.169155
0.17327
0.187803
0.238068
0.343996
0.302277
0.206265
0.114961
0.0964558
0.168868
0.249432
0.254754
0.19895
0.172174
0.159342
0.154471
0.151667
0.147401
0.143524
0.138914
0.132027
0.120234
0.119895
0.151028
0.214188
0.258418
0.205454
0.213026
0.346125
0.355333
0.332236
0.164286
0.0953037
0.0972507
0.181998
0.244582
0.224585
0.176338
0.164449
0.161095
0.160536
0.161119
0.158975
0.157857
0.159407
0.159334
0.151463
0.123551
0.172979
0.224336
0.306728
0.287387
0.312633
0.354847
0.346125
0.31359
0.138359
0.0923788
0.10649
0.200904
0.253913
0.236341
0.198419
0.195417
0.2074
0.225116
0.235829
0.237597
0.221603
0.201267
0.178404
0.161442
0.142226
0.17908
0.211609
0.309835
0.315366
0.347645
0.346125
0.347408
0.279524
0.125889
0.0953037
0.110517
0.216412
0.302776
0.329566
0.269913
0.246291
0.244259
0.275955
0.307202
0.309585
0.291949
0.257827
0.194782
0.1589
0.1419
0.185476
0.202754
0.312256
0.314831
0.346125
0.34846
0.345021
0.251645
0.118162
0.0923077
0.107342
0.223585
0.342505
0.333372
0.344611
0.333372
0.300622
0.276366
0.302086
0.318516
0.318039
0.302782
0.217778
0.158126
0.140626
0.192378
0.203584
0.308743
0.305008
0.33962
0.346125
0.337355
0.243666
0.122134
0.0953037
0.0962482
0.205039
0.333372
0.344691
0.333372
0.342958
0.334689
0.299687
0.31092
0.327636
0.319184
0.308458
0.233362
0.162733
0.139399
0.19884
0.208157
0.30602
0.294293
0.331342
0.346399
0.32797
0.242774
0.129613
0.0924042
0.0953037
0.160343
0.306066
0.333372
0.342954
0.334689
0.344083
0.334689
0.345499
0.333827
0.325883
0.301279
0.235056
0.16832
0.138943
0.203159
0.214408
0.295444
0.293892
0.311918
0.344665
0.321762
0.24536
0.139147
0.0953037
0.0925561
0.117148
0.218726
0.306087
0.334689
0.341712
0.335085
0.344083
0.334689
0.34102
0.330809
0.297565
0.233099
0.171553
0.138375
0.206509
0.222703
0.285359
0.297808
0.292608
0.336478
0.320157
0.246091
0.151067
0.0927992
0.0953037
0.0942348
0.133834
0.220388
0.28292
0.325022
0.339055
0.334689
0.335704
0.333132
0.31988
0.296641
0.238126
0.176402
0.137897
0.20755
0.241757
0.285902
0.301543
0.2863
0.320988
0.318027
0.240894
0.149824
0.0953037
0.0916223
0.0953037
0.098062
0.137734
0.19722
0.26053
0.305624
0.318207
0.317361
0.312704
0.303881
0.289855
0.238313
0.178483
0.137349
0.207873
0.256982
0.284327
0.301427
0.283856
0.304985
0.308273
0.226999
0.143604
0.093233
0.0953037
0.0929798
0.0953037
0.100462
0.131259
0.187338
0.248024
0.287798
0.286831
0.283159
0.280953
0.270731
0.221349
0.176367
0.136532
0.201539
0.262076
0.282491
0.300989
0.279783
0.287083
0.286373
0.205656
0.13487
0.0985215
0.091619
0.0953037
0.0938713
0.102834
0.136598
0.18849
0.226507
0.248215
0.246067
0.254112
0.259622
0.245954
0.203766
0.173985
0.136223
0.186652
0.262987
0.290789
0.300985
0.272981
0.268007
0.253163
0.179715
0.123503
0.0987084
0.0953037
0.0919615
0.0962059
0.127198
0.166194
0.192063
0.199763
0.204709
0.222023
0.242317
0.236037
0.218684
0.199453
0.182599
0.133057
0.173753
0.254715
0.298664
0.299021
0.265018
0.247521
0.218542
0.155971
0.115671
0.0974398
0.091657
0.0953037
0.120839
0.167338
0.192883
0.194301
0.199357
0.211176
0.217711
0.214597
0.206661
0.202498
0.22383
0.195467
0.128998
0.170955
0.228476
0.292126
0.298417
0.267543
0.235564
0.199757
0.153278
0.115331
0.0976895
0.0953037
0.102551
0.155872
0.195532
0.198481
0.197996
0.200199
0.202591
0.195288
0.183651
0.191909
0.203167
0.236537
0.199097
0.125374
0.169725
0.209731
0.273317
0.298238
0.278983
0.239071
0.20239
0.158909
0.12098
0.100479
0.0927175
0.12502
0.172663
0.19455
0.198466
0.196232
0.193111
0.177925
0.171167
0.174141
0.223365
0.257495
0.236255
0.172867
0.124445
0.170955
0.208832
0.250929
0.28606
0.282079
0.249925
0.2122
0.173476
0.136831
0.113385
0.103854
0.140458
0.169672
0.185693
0.189692
0.182133
0.176898
0.161049
0.171521
0.249044
0.281467
0.270394
0.197536
0.13703
0.124487
0.16957
0.209034
0.233536
0.25924
0.279141
0.258459
0.222994
0.187402
0.153899
0.133774
0.126806
0.139613
0.15811
0.167619
0.169859
0.159615
0.148564
0.161696
0.247493
0.301387
0.296608
0.243266
0.162807
0.128875
0.124706
0.170955
0.206508
0.222041
0.23332
0.26845
0.257327
0.222764
0.187731
0.155413
0.140744
0.135825
0.138158
0.143806
0.148476
0.147675
0.144574
0.144238
0.203443
0.296331
0.301251
0.285701
0.21535
0.161153
0.152759
0.13321
0.169325
0.201279
0.220555
0.22046
0.250883
0.251812
0.218363
0.184753
0.153379
0.1423
0.13501
0.135251
0.135297
0.137647
0.140808
0.142214
0.146191
0.248265
0.296198
0.29022
0.26664
0.206268
0.188285
0.197499
0.1505
0.170955
0.196281
0.225025
0.217665
0.233199
0.239864
0.208262
0.179264
0.153755
0.141493
0.134599
0.134565
0.13533
0.138585
0.143311
0.144986
0.167091
0.272305
0.291226
0.265399
0.239543
0.208267
0.229121
0.230412
0.160771
0.169258
0.197401
0.248865
0.215771
0.21608
0.221392
0.196741
0.170165
0.154864
0.141929
0.134565
0.134398
0.137397
0.147615
0.152773
0.157633
0.206569
0.27321
0.274511
0.23991
0.213
0.203557
0.243158
0.240332
0.164881
0.170955
0.203694
0.251567
0.215445
0.202187
0.202998
0.186565
0.168156
0.157267
0.145099
0.134803
0.13924
0.153032
0.164256
0.168088
0.186996
0.243117
0.271478
0.253274
0.222975
0.19774
0.201833
0.247203
0.236935
0.16533
0.16921
0.211467
0.250785
0.223741
0.201301
0.197143
0.184093
0.171682
0.163889
0.156136
0.15001
0.156418
0.170949
0.180186
0.189033
0.214582
0.245133
0.257723
0.238215
0.211795
0.194277
0.222486
0.243158
0.229037
0.164638
0.170955
0.209155
0.25039
0.249242
0.209768
0.201496
0.188713
0.179869
0.176494
0.178439
0.17389
0.175922
0.177009
0.179137
0.189706
0.211609
0.237857
0.240533
0.229648
0.200682
0.190552
0.243158
0.248448
0.22543
0.161868
0.169135
0.209242
0.241335
0.251426
0.226862
0.213345
0.213597
0.205671
0.205771
0.258551
0.246312
0.191701
0.177741
0.177868
0.187417
0.204757
0.225128
0.228629
0.218018
0.193615
0.190505
0.246655
0.243158
0.223266
0.155108
0.170955
0.214709
0.233738
0.251853
0.249585
0.239503
0.253234
0.257461
0.264751
0.302701
0.301411
0.269921
0.185667
0.177869
0.178653
0.189724
0.206279
0.216182
0.206431
0.191601
0.206614
0.243158
0.248556
0.220149
0.147141
0.173197
0.215694
0.239433
0.250673
0.25237
0.253806
0.265298
0.284846
0.300454
0.301405
0.302718
0.301408
0.265029
0.185241
0.17736
0.177031
0.182986
0.196816
0.194954
0.191055
0.222568
0.246162
0.243158
0.212681
0.138924
0.173265
0.191959
0.210909
0.226539
0.236693
0.244647
0.255699
0.272397
0.287989
0.298908
0.301389
0.302675
0.298185
0.25049
0.190075
0.177246
0.177031
0.178951
0.182518
0.187078
0.218905
0.243158
0.24475
0.201075
0.130934
0.160609
0.154391
0.160745
0.171793
0.190657
0.210586
0.227071
0.241928
0.25791
0.274187
0.287212
0.296767
0.292791
0.272245
0.226148
0.190803
0.177196
0.173778
0.174661
0.180935
0.209406
0.24267
0.240477
0.187604
0.124931
0.139713
0.127646
0.128272
0.133492
0.14586
0.168754
0.192528
0.208508
0.222865
0.240617
0.260699
0.277673
0.278161
0.267473
0.240423
0.210517
0.186782
0.173997
0.172681
0.178333
0.204507
0.23677
0.219305
0.180294
0.122681
0.125877
0.124943
0.125877
0.125338
0.131284
0.147453
0.170104
0.189468
0.20385
0.218837
0.239306
0.258372
0.261419
0.25438
0.235091
0.210729
0.190966
0.176247
0.172819
0.1779
0.205042
0.226278
0.197804
0.190185
0.120838
0.123699
0.125877
0.123585
0.125877
0.132545
0.146006
0.16543
0.183639
0.196364
0.208863
0.225883
0.242936
0.242913
0.233924
0.220063
0.204026
0.188708
0.177389
0.172801
0.178491
0.204255
0.205038
0.185408
0.20661
0.117099
0.125877
0.121916
0.126334
0.133605
0.139862
0.146933
0.160983
0.175556
0.187409
0.198447
0.21386
0.226735
0.222424
0.208288
0.196476
0.188961
0.183236
0.177519
0.173459
0.184442
0.203861
0.184956
0.185069
0.226498
0.115664
0.121655
0.127222
0.153058
0.164053
0.15867
0.152853
0.156237
0.162958
0.171546
0.180287
0.201433
0.212623
0.19824
0.177383
0.170194
0.173418
0.180513
0.179272
0.179854
0.201665
0.202379
0.185041
0.19225
0.238913
0.115625
0.125877
0.156207
0.196329
0.188689
0.171766
0.158996
0.160092
0.172717
0.179854
0.180842
0.188348
0.198384
0.176642
0.155053
0.157071
0.168933
0.180646
0.186306
0.192523
0.207103
0.19593
0.183944
0.209859
0.24756
0.115664
0.121527
0.191337
0.234135
0.202221
0.176572
0.170489
0.204696
0.240189
0.247566
0.222923
0.190129
0.194801
0.173326
0.155135
0.154746
0.163711
0.181128
0.194104
0.202928
0.206914
0.186723
0.185041
0.231071
0.24948
0.117916
0.125877
0.221203
0.264511
0.211551
0.177974
0.199208
0.240189
0.250153
0.240189
0.250441
0.20858
0.194548
0.171601
0.15228
0.155135
0.160795
0.17955
0.19409
0.202549
0.204484
0.18505
0.19137
0.244387
0.249505
0.123852
0.122352
0.246589
0.283164
0.216114
0.185186
0.227103
0.248608
0.240189
0.250153
0.240189
0.239658
0.19136
0.165024
0.15513
0.152823
0.158812
0.173962
0.189777
0.197196
0.195815
0.185074
0.212872
0.245289
0.24694
0.130389
0.126573
0.265763
0.296899
0.220281
0.196403
0.229787
0.240122
0.243721
0.240189
0.246468
0.233006
0.183908
0.155167
0.149115
0.15513
0.155485
0.164982
0.179181
0.185403
0.18562
0.189429
0.229959
0.243385
0.230534
0.137543
0.130766
0.276291
0.320838
0.234739
0.201517
0.224721
0.241198
0.240122
0.24188
0.240122
0.215625
0.170927
0.151575
0.155107
0.151888
0.15513
0.159126
0.172548
0.180388
0.185858
0.205702
0.235031
0.236506
0.190867
0.145428
0.12903
0.284598
0.360363
0.2622
0.204318
0.212128
0.234943
0.238508
0.238515
0.229738
0.208767
0.170371
0.155107
0.147927
0.155107
0.154707
0.161205
0.175931
0.185872
0.199036
0.221958
0.234597
0.222658
0.161323
0.153647
0.123681
0.288591
0.393523
0.319328
0.214985
0.200091
0.21928
0.229796
0.229904
0.224461
0.215225
0.179898
0.150767
0.155083
0.150439
0.156124
0.170645
0.179911
0.1879
0.20454
0.228803
0.236709
0.224478
0.172043
0.1601
0.119106
0.286559
0.389645
0.393698
0.2687
0.196927
0.197381
0.2102
0.216324
0.218841
0.217368
0.202223
0.170977
0.148848
0.155107
0.171695
0.185012
0.186492
0.187117
0.198892
0.222157
0.241262
0.256699
0.216351
0.165446
0.114878
0.283451
0.400433
0.389645
0.389702
0.244989
0.188443
0.186639
0.197709
0.209186
0.21491
0.211917
0.207272
0.184732
0.175172
0.203073
0.218866
0.21538
0.186644
0.176457
0.196557
0.240415
0.276204
0.251658
0.173999
0.110806
0.278053
0.389645
0.40327
0.389645
0.3756
0.226961
0.182084
0.180892
0.188703
0.202292
0.209912
0.22414
0.237995
0.240502
0.255355
0.277119
0.236893
0.182377
0.164355
0.167817
0.22478
0.275542
0.265383
0.183364
0.106457
0.269097
0.4025
0.389645
0.404565
0.389551
0.356997
0.215194
0.180898
0.180892
0.180935
0.195851
0.217806
0.238203
0.259314
0.285942
0.286023
0.272435
0.194722
0.160803
0.15454
0.196405
0.272668
0.273672
0.190946
0.103508
0.250207
0.389645
0.407186
0.389645
0.403279
0.389421
0.324157
0.213162
0.180898
0.180892
0.195233
0.22506
0.245382
0.264824
0.285717
0.283854
0.257764
0.190835
0.159211
0.15463
0.184156
0.265276
0.275868
0.194544
0.102158
0.225739
0.401149
0.389645
0.406411
0.389645
0.398974
0.387015
0.3052
0.217546
0.207116
0.251576
0.280127
0.272094
0.272899
0.279446
0.271827
0.231117
0.172835
0.162232
0.15219
0.177974
0.278318
0.275841
0.193563
0.103224
0.191836
0.389645
0.406411
0.389645
0.403207
0.389345
0.392482
0.363131
0.338563
0.334482
0.320371
0.289282
0.270446
0.264558
0.257706
0.233577
0.187696
0.149524
0.149242
0.152232
0.192916
0.2808
0.270628
0.186462
0.099331
0.159386
0.340115
0.389645
0.401082
0.389345
0.393437
0.388318
0.378313
0.342972
0.317562
0.287651
0.260126
0.241175
0.224222
0.203527
0.171501
0.148927
0.147202
0.148927
0.168666
0.246633
0.281475
0.257463
0.182305
0.103179
0.154068
0.301402
0.378359
0.389345
0.390525
0.385636
0.357376
0.326959
0.289089
0.255352
0.225135
0.199679
0.180621
0.161399
0.148825
0.148927
0.144682
0.148927
0.150419
0.226921
0.277301
0.278335
0.236714
0.180675
0.0991038
0.167942
0.307947
0.378463
0.38969
0.377021
0.338279
0.293994
0.254144
0.215234
0.185858
0.165918
0.154437
0.148927
0.148331
0.148927
0.14556
0.148927
0.14678
0.185805
0.217544
0.228292
0.224961
0.202288
0.180713
0.103224
0.167684
0.304192
0.372285
0.386415
0.349283
0.281502
0.229599
0.192718
0.168165
0.154773
0.149967
0.148927
0.148305
0.148927
0.147237
0.148927
0.154617
0.171896
0.181073
0.179645
0.176441
0.175163
0.174638
0.179175
0.0993202
0.156115
0.282863
0.364886
0.382127
0.326069
0.255012
0.217751
0.193239
0.170901
0.158765
0.153289
0.150218
0.148927
0.14816
0.164935
0.189754
0.202222
0.197747
0.175168
0.165105
0.16445
0.165105
0.166444
0.172325
0.103508
0.139075
0.244318
0.344143
0.377052
0.331399
0.261336
0.223502
0.203
0.187907
0.178534
0.173427
0.170854
0.172094
0.181811
0.20328
0.220511
0.220759
0.218185
0.205629
0.187044
0.165105
0.163939
0.165105
0.166362
0.100228
0.13436
0.206478
0.307267
0.362732
0.342592
0.28332
0.238019
0.217509
0.210623
0.210689
0.212934
0.21922
0.223489
0.222548
0.21998
0.220148
0.220831
0.221048
0.22271
0.217093
0.186641
0.165105
0.163875
0.165105
0.103818
0.144248
0.188952
0.268969
0.343225
0.338365
0.310309
0.265404
0.23595
0.224524
0.225808
0.228944
0.232213
0.23243
0.231519
0.23007
0.226823
0.225658
0.223886
0.222882
0.222645
0.207572
0.16499
0.165105
0.163845
0.130674
0.16442
0.194974
0.241825
0.318807
0.327741
0.312413
0.287612
0.257662
0.236869
0.229403
0.229529
0.23129
0.23353
0.235453
0.23686
0.236474
0.235038
0.230071
0.225002
0.220675
0.21277
0.175855
0.162643
0.165105
0.150736
0.180193
0.20577
0.231727
0.286915
0.308408
0.302291
0.285775
0.266829
0.248077
0.235519
0.233191
0.23484
0.240049
0.243958
0.246559
0.245903
0.241814
0.232638
0.222076
0.213411
0.205548
0.180727
0.165105
0.162599
0.158501
0.198759
0.222925
0.236317
0.261967
0.281659
0.281026
0.275316
0.26461
0.256338
0.250182
0.250187
0.252763
0.255285
0.255991
0.253411
0.248289
0.24164
0.232154
0.219302
0.209002
0.202684
0.185431
0.161885
0.165105
0.158738
0.213801
0.240863
0.243365
0.246777
0.253581
0.25502
0.254129
0.25202
0.248969
0.246977
0.248318
0.250223
0.253435
0.261242
0.256638
0.249007
0.240089
0.228944
0.215976
0.211176
0.208697
0.193828
0.165105
0.160981
0.167025
0.236408
0.252347
0.252341
0.249585
0.247738
0.239674
0.230891
0.229387
0.23046
0.232239
0.235934
0.245177
0.264083
0.263858
0.258609
0.249118
0.24337
0.235797
0.223477
0.221314
0.221121
0.207341
0.162262
0.165105
0.160083
0.228212
0.245989
0.246749
0.243614
0.231731
0.213608
0.196573
0.197514
0.200527
0.200044
0.201645
0.213078
0.252062
0.264241
0.258773
0.243676
0.234872
0.231041
0.226289
0.221135
0.218487
0.202562
0.165105
0.160538
0.160056
0.212566
0.226173
0.227498
0.223758
0.213441
0.190949
0.177375
0.177778
0.17669
0.177778
0.199301
0.231075
0.244506
0.243419
0.237672
0.224559
0.22108
0.220731
0.21891
0.211313
0.201343
0.176803
0.16172
0.165105
0.160083
0.160056
0.160083
0.160056
0.160083
0.160759
0.172677
0.187294
0.190726
0.187565
0.193426
0.224954
0.25065
0.25513
0.255508
0.252819
0.249893
0.255943
0.258549
0.255614
0.24819
0.239271
0.212104
0.166228
0.169276
0.491839
0.498904
0.491547
0.505262
0.494704
0.542535
0.599401
0.625457
0.648636
0.641061
0.617851
0.6081
0.605563
0.608977
0.6198
0.62627
0.631935
0.643581
0.662644
0.691821
0.734664
0.78121
0.78886
0.668628
0.716577
0.978666
0.971447
0.976722
0.96787
0.976043
0.974551
0.972526
0.970578
0.972962
0.975405
0.974932
0.972783
0.971292
0.970781
0.971344
0.972256
0.973404
0.975239
0.978888
0.984322
0.990205
0.994925
0.99794
0.998884
0.999363
0.999795
0.999831
0.999812
0.999809
0.999772
0.999752
0.999699
0.999664
0.999655
0.999697
0.99972
0.999712
0.999704
0.999709
0.999728
0.999759
0.999802
0.999847
0.999892
0.999925
0.999943
0.999968
0.999993
0.999999
1
0.999997
0.999999
1
1
1
1
1
1
0.999999
0.999999
0.999999
0.999999
1
1
1
1
1
1
1
1
1
1
1
1
1
1
1
1
1
1
1
1
1
1
1
1
1
1
1
1
1
1
1
1
1
1
1
1
1
1
1
1
1
1
1
1
1
1
1
1
1
1
1
1
1
1
1
1
1
1
1
1
1
1
1
1
1
1
1
1
1
1
1
1
1
1
1
1
1
1
1
1
1
1
1
1
1
1
1
1
1
1
1
1
1
1
1
1
1
1
1
1
1
1
1
1
1
1
1
1
1
1
1
1
1
)
;

boundaryField
{
    inlet
    {
        type            fixedValue;
        value           uniform 0.5;
    }
    outlet
    {
        type            inletOutlet;
        phi             phi.air;
        inletValue      uniform 1;
        value           nonuniform List<scalar> 
25
(
1
1
1
1
1
1
1
1
1
1
1
1
1
1
1
1
1
1
1
1
1
1
1
1
1
)
;
    }
    walls
    {
        type            zeroGradient;
    }
    defaultFaces
    {
        type            empty;
    }
}


// ************************************************************************* //
