/*--------------------------------*- C++ -*----------------------------------*\
| =========                 |                                                 |
| \\      /  F ield         | OpenFOAM: The Open Source CFD Toolbox           |
|  \\    /   O peration     | Version:  2312                                  |
|   \\  /    A nd           | Website:  www.openfoam.com                      |
|    \\/     M anipulation  |                                                 |
\*---------------------------------------------------------------------------*/
FoamFile
{
    version     2.0;
    format      ascii;
    arch        "LSB;label=32;scalar=64";
    class       volScalarField;
    location    "0.24/cooler";
    object      T;
}
// * * * * * * * * * * * * * * * * * * * * * * * * * * * * * * * * * * * * * //

dimensions      [0 0 0 1 0 0 0];

internalField   nonuniform List<scalar> 
188
(
300.000000212
300.000000112
300.000000054
300.000000222
300.000000121
300.000000058
300.000000027
300.000000014
300.000000255
300.000000145
300.000000071
300.000000031
300.000000016
300.000000301
300.000000175
300.000000085
300.000000036
300.000000017
300.000000329
300.000000189
300.000000088
300.000000036
300.000000016
300.00000023
300.000000122
300.000000056
300.000000024
300.000000012
300.000000244
300.000000128
300.000000057
300.000000024
300.000000012
300.000000228
300.000000116
300.000000051
300.000000022
300.000000011
300.00000026
300.000000132
300.000000056
300.000000022
300.000000011
300.000000332
300.000000167
300.000000067
300.000000025
300.000000011
300.000000225
300.00000011
300.000000047
300.000000019
300.00000001
300.000000196
300.000000094
300.000000042
300.000000018
300.00000001
300.000000238
300.000000117
300.000000052
300.000000022
300.000000011
300.000000228
300.000000117
300.000000056
300.000000026
300.000000014
300.000000314
300.000000156
300.000000066
300.000000027
300.000000013
300.000000492
300.000000236
300.000000091
300.000000034
300.000000016
300.000000323
300.000000168
300.000000078
300.000000035
300.000000018
300.000000331
300.000000171
300.00000008
300.000000036
300.000000019
300.000000371
300.000000193
300.000000092
300.000000043
300.000000023
300.000000412
300.000000211
300.0000001
300.000000047
300.000000026
300.000000486
300.000000246
300.000000117
300.000000055
300.00000003
300.000000649
300.000000307
300.000000143
300.000000067
300.000000037
300.000001152
300.000000434
300.000000179
300.000000078
300.000000042
300.000003156
300.000000873
300.000000274
300.000000099
300.000000047
300.00001084
300.000002615
300.00000067
300.000000191
300.000000074
300.000036515
300.000008709
300.000002097
300.000000526
300.000000168
300.000114446
300.000028428
300.000006986
300.000001725
300.000000513
300.000340202
300.000089745
300.000023269
300.00000599
300.000001823
300.000977197
300.000275263
300.000075858
300.000020614
300.000006583
300.002736423
300.000824086
300.000241348
300.000069267
300.000023283
300.007450421
300.002396216
300.000743431
300.000224628
300.000079336
300.019535304
300.006699754
300.002195765
300.000697041
300.000258585
300.048723668
300.017826344
300.0061736
300.002062774
300.000806701
300.114084271
300.044711818
300.016445528
300.005824129
300.002421107
300.248386611
300.105067209
300.041456418
300.015753275
300.007046512
300.503978473
300.23224142
300.099642946
300.041263638
300.020107376
300.967687341
300.487850878
300.229426029
300.104322436
300.055420402
301.764353636
300.931864885
300.460383449
300.221787555
300.124560913
)
;

boundaryField
{
    emptyPatch
    {
        type            empty;
    }
    minY
    {
        type            zeroGradient;
    }
    maxY
    {
        type            zeroGradient;
    }
    maxX
    {
        type            zeroGradient;
    }
    cooler_to_water
    {
        type            compressible::turbulentTemperatureTwoPhaseRadCoupledMixed;
        refValue        nonuniform List<scalar> 
38
(
300.000004325
300.000004264
300.000004225
300.000004199
300.000004209
300.000004258
300.000004362
300.000004454
300.000004521
300.000004522
300.000004491
300.000004498
300.000004505
300.000004547
300.000004646
300.000004849
300.000005391
300.000005922
300.000006635
300.000007683
300.00001007
300.000019933
300.000068061
300.000279972
300.001067562
300.003540799
300.010429849
300.028573205
300.074966724
300.190398301
300.467183278
301.096745133
302.428488091
304.983603529
309.363508087
316.128841479
326.19022057
340.543038329
)
;
        refGradient     uniform 0;
        valueFraction   nonuniform List<scalar> 
38
(
0.0191076847292
0.0180287006402
0.0173040318209
0.0168672760319
0.0166401922655
0.0165447381565
0.0165266986721
0.0165389058592
0.0165619392533
0.0165880162691
0.0166049327564
0.0166287393954
0.016668645211
0.0167234873529
0.0168264584238
0.0170189626142
0.0172308115134
0.0176120584913
0.0181390561807
0.0188100100717
0.0193852805287
0.0188509100886
0.0175436219761
0.0168237156733
0.0165518728785
0.0164450949442
0.0163989529086
0.0163795651253
0.0163721443267
0.0163696112458
0.0163694671012
0.0163695451324
0.0163695499327
0.0163695498046
0.0163691111823
0.0163579504717
0.0162084878746
0.0164213657265
)
;
        source          uniform 0;
        value           nonuniform List<scalar> 
38
(
300.00000029
300.000000295
300.000000324
300.000000367
300.000000393
300.000000296
300.000000312
300.000000297
300.000000331
300.000000402
300.000000296
300.000000267
300.000000309
300.0000003
300.000000387
300.000000568
300.00000041
300.000000429
300.000000484
300.000000548
300.000000671
300.000001008
300.000002308
300.000007736
300.00002804
300.000093199
300.000280886
300.000795357
300.002169897
300.005762293
300.014866774
300.03692313
300.087164269
300.19280985
300.39589208
300.756923865
301.372737627
302.39736777
)
;
        kappaMethod     solidThermo;
        Tnbr            T.liquid;
        region          solid;
        otherPhase      gas;
    }
    procBoundary3to2
    {
        type            processor;
        value           nonuniform List<scalar> 6(300.000000241 300.000000131 300.000000064 300.000000025 300.000000025 300.000000013);
    }
}


// ************************************************************************* //
