/*--------------------------------*- C++ -*----------------------------------*\
| =========                 |                                                 |
| \\      /  F ield         | OpenFOAM: The Open Source CFD Toolbox           |
|  \\    /   O peration     | Version:  2312                                  |
|   \\  /    A nd           | Website:  www.openfoam.com                      |
|    \\/     M anipulation  |                                                 |
\*---------------------------------------------------------------------------*/
FoamFile
{
    version     2.0;
    format      ascii;
    arch        "LSB;label=32;scalar=64";
    class       volScalarField;
    location    "0.825/water";
    object      alpha.gas_0;
}
// * * * * * * * * * * * * * * * * * * * * * * * * * * * * * * * * * * * * * //

dimensions      [0 0 0 0 0 0 0];

internalField   nonuniform List<scalar> 
1503
(
0.16848526764
0.101603015288
0.0287259445709
0.00724171697363
0.00140118466933
0.000228775227287
3.07605630675e-05
2.51776955055e-06
5.82358412179e-08
5.18593557765e-10
2.55010574803e-12
9.83223645984e-15
1e-15
1e-15
1e-15
1e-15
1e-15
1e-15
1e-15
1e-15
0.606444092733
0.254137476632
0.10520009525
0.0359473049006
0.011589014213
0.00320770093672
0.000756754267266
0.000139139837723
1.44101219409e-05
3.30717085611e-07
1.0422446499e-09
1.65322276957e-12
2.87599914749e-15
1e-15
1e-15
1e-15
1e-15
1e-15
1e-15
1e-15
0.613295062351
0.339800838107
0.166487530409
0.0708917250089
0.0275742371615
0.00945716338888
0.00275374153595
0.000641867857188
9.73844528642e-05
5.28613331527e-06
2.51236367482e-08
2.9263285103e-11
2.98321674224e-14
1e-15
1e-15
1e-15
1e-15
1e-15
1e-15
1e-15
0.613294019074
0.420044477323
0.244061362805
0.123904222484
0.0557083255963
0.0217541576288
0.00717293488809
0.00191174228241
0.000361951396763
3.3888214291e-05
5.16202535031e-07
5.41503101837e-10
3.70699736071e-13
1.17268707999e-15
1e-15
1e-15
1e-15
1e-15
1e-15
1e-15
0.6001555718
0.469150483038
0.324519635373
0.196915598625
0.10409486112
0.0466351379637
0.0171949689231
0.00502180991386
0.00107597252432
0.000135034319541
5.14858672022e-06
9.32338713192e-09
5.55835026607e-12
3.5474321806e-15
1e-15
1e-15
1e-15
1e-15
1e-15
1e-15
0.575736436178
0.48637720068
0.38449883351
0.273802155038
0.171420369228
0.0910520015012
0.0392833105334
0.0130225210372
0.00309197672957
0.000456978685058
2.85565151098e-05
2.08536123387e-07
1.12394177284e-10
4.37281805771e-14
1.00919802644e-15
1e-15
1e-15
1e-15
1e-15
1e-15
0.552764473204
0.483468866599
0.415697707018
0.333993959113
0.241829386008
0.151571156966
0.0784923487755
0.0313310819171
0.00875826573029
0.00150632619011
0.000123988509038
2.37192916992e-06
1.61443754431e-09
4.97814802314e-13
1.11463869293e-15
1.000841051e-15
1.00049150032e-15
1.00017244351e-15
1e-15
1e-15
0.539478086972
0.476108347525
0.426413929035
0.37032703548
0.297185880459
0.212308203415
0.12961807354
0.0633182821475
0.0221213315367
0.0047162307203
0.000492008534455
1.63856620707e-05
3.36538230142e-08
5.35603941682e-12
1.72811627077e-15
1.0018732501e-15
1.00110987032e-15
1.00058453927e-15
1.00019485619e-15
1e-15
0.525406683179
0.468828111689
0.436749188849
0.396667285335
0.337781792418
0.2626371745
0.181527496282
0.105950165219
0.0467391066308
0.013006533452
0.0018040246552
9.04924495552e-05
7.07167887514e-07
4.71816359319e-11
4.38119815554e-15
1.00165687235e-15
1.00070946921e-15
1.0002880776e-15
1e-15
1e-15
0.514574369416
0.470708526204
0.452021021511
0.421579993682
0.370312770798
0.30266827369
0.228318991235
0.153011102371
0.0829573154122
0.0304279875997
0.00587574796069
0.000448594393165
8.7487842435e-06
3.80711390311e-10
5.29296307731e-14
1.00690482123e-15
1e-15
1e-15
1e-15
1e-15
0.525506412756
0.489045895629
0.473770188285
0.446718667699
0.399744270662
0.338297663892
0.271073987695
0.200672435428
0.128283055037
0.0607809366265
0.0167106463444
0.00201796593415
7.79256089702e-05
3.97864969593e-07
3.93287534048e-12
1.4501366603e-15
1e-15
1e-15
1e-15
1e-15
0.58108232539
0.521892976419
0.494287267227
0.468808629237
0.428810486679
0.374317589823
0.312606768818
0.247693511099
0.178603514185
0.105175382461
0.0408839077194
0.00789615938864
0.000565418322866
9.99885901928e-06
8.1255947583e-10
9.40223828007e-14
1.01104252805e-15
1e-15
1e-15
1e-15
0.59479668723
0.534217600854
0.502978562642
0.481296808878
0.450160716015
0.404691543447
0.349424756146
0.289605465415
0.226889316085
0.157868690777
0.0828967213635
0.0250139240127
0.00314549300362
0.000117143084434
6.49377409385e-07
1.07068573354e-11
3.39410570315e-15
1e-15
1e-15
1e-15
0.598613432029
0.534217740778
0.509664382026
0.487243633817
0.456873984084
0.41583818825
0.369383410738
0.318283968349
0.265620118672
0.208498774673
0.137527656024
0.060215553628
0.0124751949629
0.000860416635006
1.34568800697e-05
4.25102725106e-09
2.73229438391e-13
1.06181564517e-15
1e-15
1e-15
0.595241022369
0.531412049136
0.513676506597
0.489879123223
0.456739863277
0.414586140417
0.369669243563
0.329601865734
0.290267069801
0.248744679015
0.191596773299
0.109760014895
0.0342082932584
0.00397103586707
0.000118136045262
4.87443905678e-07
4.85922794897e-11
1.55170319154e-14
1.00496176968e-15
1.00083321538e-15
0.599039649156
0.523853787667
0.512263315425
0.488479692643
0.452647177001
0.407838112944
0.364047107398
0.327853035134
0.301600728373
0.275646125026
0.233466401445
0.158369528272
0.0666159902651
0.0118813768296
0.00059177298716
5.51075255051e-06
2.86286525722e-09
7.79385181462e-13
1.26351527192e-15
1.0091240257e-15
0.595241022369
0.51195118453
0.502786732174
0.478309329883
0.438993903513
0.391560529593
0.349562937729
0.321202356079
0.305826808403
0.291128464543
0.259357747863
0.193226187377
0.099020363211
0.0244844732698
0.0018451491085
2.82045939879e-05
4.90895084893e-08
2.1122856233e-11
8.63762054048e-15
1.01709983522e-15
0.598293609693
0.497109531283
0.48102391567
0.452923144833
0.41212176677
0.365542806495
0.32919592321
0.312341766357
0.307571893565
0.299870183747
0.274053426253
0.214747819377
0.123852838664
0.0382725092753
0.00395247433219
8.67833115994e-05
2.66385165173e-07
1.58360544973e-10
6.5148247983e-14
1.03656468235e-15
0.59483375959
0.483092559085
0.457796443741
0.422226225146
0.380778093708
0.339617333681
0.314280762441
0.310147494342
0.309981673824
0.307064124313
0.285574965239
0.231656548346
0.14378543745
0.0517062891858
0.00682678743723
0.000203318187652
9.44322069927e-07
6.70120175344e-10
2.89448514526e-13
1.0834206108e-15
0.595442177331
0.472905940419
0.444103021881
0.406173110165
0.36594813483
0.330755239214
0.312971423467
0.312246572997
0.316746807639
0.317321175879
0.30105596612
0.253437371741
0.168357888073
0.0691600438251
0.0115634537581
0.000486709060196
3.61260425429e-06
1.97744276735e-09
3.42531004575e-13
1.04118094332e-15
0.589455492118
0.464337889028
0.44022969882
0.406329650398
0.367348298677
0.33389598295
0.319327934175
0.323071133842
0.331436618233
0.334618944848
0.324106818189
0.287461279345
0.210649720369
0.102486278802
0.0228149285072
0.00148680466994
1.97539912136e-05
9.65715584827e-09
1.50184905611e-13
1.03413946269e-15
0.566765224999
0.460559554885
0.444880838865
0.418942102276
0.383355923495
0.351927356977
0.340491450738
0.344749596467
0.350555698649
0.349211323314
0.341931710494
0.327216006986
0.277137837029
0.168898161764
0.0529969905008
0.00560389978316
0.000139797238324
4.77961668352e-07
4.99108631518e-12
2.19553531528e-15
0.549039449428
0.474414751865
0.473707700245
0.460136171962
0.425661151614
0.39017746775
0.373261634319
0.368186544545
0.361766780209
0.349436836279
0.342217191358
0.341990404819
0.333298055146
0.256851413939
0.117699924408
0.0208428535674
0.000978792773334
9.32533740834e-06
1.98043343087e-09
2.82111824792e-14
0.553283043911
0.523932624121
0.536469298988
0.526638910429
0.485843605287
0.437672826843
0.405967554273
0.385114272908
0.362427224909
0.34324986394
0.336174044215
0.340484855105
0.34032888001
0.319390013206
0.205811296322
0.0600141364581
0.0052061806838
0.00010363956911
2.18197275282e-07
1.93180274199e-12
0.585376374959
0.586237528219
0.598324573803
0.586553593145
0.542351559501
0.482637588804
0.433876220972
0.396368103646
0.359901740789
0.328155440659
0.318385430419
0.329887372059
0.339870643293
0.339112021715
0.270817588014
0.119443749008
0.0184653306053
0.000719427051642
5.29893941476e-06
8.98143183728e-11
0.638112103425
0.62069554666
0.625472979842
0.617635811405
0.581887814409
0.519036684701
0.456617353401
0.403302712096
0.353600314419
0.309229761575
0.298101014621
0.310899159039
0.33261999657
0.338036556595
0.2988438159
0.173398203924
0.0430858546074
0.00297408533429
4.26322123486e-05
1.2031540642e-08
0.650342591054
0.627256696918
0.627699210325
0.626656425495
0.601175082061
0.541362970248
0.471079092159
0.405044118835
0.344096637102
0.296843958928
0.294899964854
0.29593938072
0.314524779854
0.329292371144
0.305218239956
0.209179610965
0.0729154294497
0.00799091067194
0.000188334056145
5.35158510023e-07
0.653832952641
0.628004907646
0.627846134191
0.627658118535
0.605623579177
0.548520973865
0.474790401501
0.40198178226
0.331014540976
0.294928553986
0.294977549779
0.294721468646
0.296798146201
0.312354291302
0.303696782123
0.234725878586
0.102727807928
0.0159762089679
0.000567340936884
3.43676827099e-06
0.650513107168
0.627100124462
0.627658118535
0.627519854209
0.605932792496
0.548470713951
0.472515563838
0.391116228902
0.314621125279
0.294977549779
0.294492330709
0.294977549779
0.294577212033
0.295947496413
0.303369241566
0.258231823976
0.133623624724
0.0272856096283
0.00139116706493
1.35414293808e-05
0.655099973329
0.622857790219
0.627519854209
0.627313885302
0.602847302834
0.542196346783
0.461001257813
0.372341032868
0.30067944152
0.294668755866
0.294977549779
0.294062971425
0.294977549779
0.294504686573
0.309802216412
0.28646048594
0.169388039881
0.0436674524135
0.00313607007961
4.53359508523e-05
0.650938873665
0.615620965265
0.627087816687
0.623101460725
0.591356582033
0.524866586975
0.438133493866
0.347824347729
0.295055985448
0.294977549779
0.29409954117
0.294977549779
0.293749747785
0.294977549779
0.326465780749
0.318507172453
0.210449463916
0.067972491084
0.0068690029059
0.000143339690636
0.655645337854
0.605760919046
0.619010903351
0.610117280167
0.571043862233
0.498437887055
0.408382246761
0.321570622223
0.294977549779
0.294357606388
0.294977549779
0.293548420977
0.294977549779
0.293742146902
0.343422392759
0.343915952429
0.250918403314
0.100442157371
0.0139859583748
0.000417367030959
0.650938873665
0.59325151369
0.602389242023
0.588962676401
0.543553158947
0.466141907377
0.376164293902
0.301337062881
0.294642146427
0.294977549779
0.293642625856
0.294977549779
0.293103448581
0.294977549779
0.358009269934
0.359457278308
0.283667663332
0.134792307545
0.0249665823665
0.00107030919878
0.65554349303
0.578624541506
0.584559069225
0.564022506899
0.511086961913
0.429966713272
0.34314956018
0.294947153059
0.294977549779
0.293912019063
0.294977549779
0.293081218394
0.294977549779
0.315607853949
0.359481812637
0.35918541907
0.303062729582
0.163826816814
0.0389535691601
0.00238886621595
0.650564500965
0.563750705993
0.566116732765
0.536518731019
0.474874065733
0.392049792204
0.312148508129
0.294977549779
0.294140250529
0.294977549779
0.293195515851
0.294977549779
0.292992150742
0.339546225465
0.35918541907
0.35940630385
0.312239847438
0.186372466584
0.0552198130882
0.00472588667693
0.65484524689
0.549209655841
0.544036389513
0.505111240557
0.436822629978
0.356515182714
0.295630055929
0.294475321887
0.294977549779
0.293346285773
0.294977549779
0.292992150742
0.298829815613
0.357461262397
0.359414793119
0.35918541907
0.318694133263
0.208682326667
0.074830480429
0.0085068102689
0.650513107168
0.533347496761
0.516026609004
0.470065686214
0.400767124033
0.328235773652
0.294757753833
0.294977549779
0.293490617968
0.294977549779
0.293007656467
0.294977549779
0.328870041385
0.35902767352
0.35918541907
0.357782688462
0.328665683668
0.238310044269
0.100220836757
0.014282416691
0.653062258824
0.514511992819
0.481891160645
0.432032757692
0.369268620073
0.311100396862
0.294977549779
0.293664814926
0.294977549779
0.293089473096
0.294977549779
0.307007225213
0.338062059359
0.348818038018
0.351050090992
0.355319126495
0.346321666942
0.276857990412
0.132561705881
0.0230312983989
1e-15
1e-15
1e-15
1e-15
1e-15
1e-15
1e-15
1e-15
1e-15
1e-15
1e-15
1e-15
1e-15
1e-15
1e-15
1e-15
1e-15
1e-15
1e-15
1e-15
1e-15
1e-15
1e-15
1e-15
1e-15
1e-15
1e-15
1e-15
1e-15
1e-15
1e-15
1e-15
1e-15
1e-15
1e-15
1e-15
1e-15
1e-15
1e-15
1e-15
1e-15
1e-15
1e-15
1e-15
1e-15
1e-15
1e-15
1e-15
1e-15
1e-15
1e-15
1e-15
1e-15
1e-15
1e-15
1e-15
1e-15
1e-15
1e-15
1e-15
1e-15
1e-15
1e-15
1e-15
1e-15
1e-15
1e-15
1e-15
1e-15
1e-15
1e-15
1e-15
1e-15
1e-15
1e-15
1e-15
1e-15
1e-15
1e-15
1e-15
1e-15
1e-15
1e-15
1e-15
1e-15
1e-15
1e-15
1e-15
1e-15
1e-15
1e-15
1e-15
1e-15
1e-15
1e-15
1e-15
1.00272627844e-15
1e-15
1e-15
1e-15
1e-15
1e-15
1e-15
1e-15
1e-15
1e-15
1e-15
1e-15
1e-15
1e-15
1e-15
1e-15
1e-15
1e-15
1e-15
1e-15
1.00282731947e-15
1e-15
1e-15
1.03031555594e-15
1e-15
1e-15
1e-15
1e-15
1e-15
1e-15
1e-15
1.00034402299e-15
1.00073587625e-15
1.00065118152e-15
1.00041315629e-15
1.00004048198e-15
1e-15
1e-15
1e-15
1.00291222038e-15
1.00281497826e-15
1e-15
1e-15
1.07575032664e-15
1e-15
1e-15
1e-15
1e-15
1e-15
1.00013474581e-15
1.00053764492e-15
1.00229615386e-15
1.00360004135e-15
1.00276198081e-15
1.00122631455e-15
1.00036347118e-15
1e-15
1e-15
1.00301666314e-15
1.00880087133e-15
1e-15
1e-15
1e-15
1.11675721813e-15
1e-15
1e-15
1e-15
1e-15
1.00027370779e-15
1.0006864686e-15
1.0013846558e-15
1.00477321769e-15
1.00570439671e-15
1.00516491701e-15
1.00213960105e-15
1.00074736546e-15
1e-15
1e-15
1.00935532657e-15
1.00935891178e-15
1e-15
1e-15
1e-15
1.15234570367e-15
1e-15
1e-15
1e-15
1.0001774311e-15
1.00065861677e-15
1.00129312436e-15
1.00275028431e-15
1.00558266636e-15
1.00571714861e-15
1.00567235988e-15
1.00304562632e-15
1.00099067196e-15
1e-15
1e-15
1.00942836425e-15
1.00834936538e-15
1e-15
1e-15
1e-15
1.18226044986e-15
1e-15
1e-15
1e-15
1.00039766614e-15
1.00105606501e-15
1.00192261084e-15
1.00425998654e-15
1.00555790006e-15
1.00570093413e-15
1.00557236242e-15
1.00365002488e-15
1.00105470814e-15
1e-15
1.00527824893e-15
1.00942144354e-15
1.00580790114e-15
1e-15
1e-15
1e-15
1.20905461463e-15
1e-15
1e-15
1e-15
1.00085920175e-15
1.00164635287e-15
1.00269026127e-15
1.00508675616e-15
1.00555604708e-15
1.00567265089e-15
1.00546275573e-15
1.00389642313e-15
1.00121449988e-15
1e-15
1.00941100347e-15
1.00927878845e-15
1.00142108679e-15
1e-15
1e-15
1e-15
1.23372461068e-15
1e-15
1e-15
1.00096514183e-15
1.00179981007e-15
1.00260479475e-15
1.00386507083e-15
1.00552733484e-15
1.00570124255e-15
1.00575529389e-15
1.00550101746e-15
1.00409301006e-15
1.00163891096e-15
1.00156047866e-15
1.00942625694e-15
1.00867338008e-15
1e-15
1e-15
1.00684958747e-15
1e-15
1.25641725551e-15
1e-15
1.00134566963e-15
1.00279234794e-15
1.00333738157e-15
1.00403059086e-15
1.00528361454e-15
1.00600581413e-15
1.00608268724e-15
1.00603485599e-15
1.00571561437e-15
1.00445526054e-15
1.00238123801e-15
1.00399914265e-15
1.00942144354e-15
1.00745958575e-15
1e-15
1e-15
1.01907482189e-15
1e-15
1.27659720203e-15
1.00198222219e-15
1.00509370646e-15
1.00525177664e-15
1.00542095323e-15
1.00584530857e-15
1.0065524189e-15
1.00666423414e-15
1.00665671859e-15
1.00649578522e-15
1.00612274336e-15
1.00504749952e-15
1.00359156253e-15
1.00924741153e-15
1.00942047489e-15
1.00568882684e-15
1e-15
1e-15
1.02082465344e-15
1e-15
1.29421821024e-15
1.00855919947e-15
1.008666547e-15
1.00804215849e-15
1.00764722804e-15
1.00759680959e-15
1.00762696548e-15
1.0074279221e-15
1.0072682528e-15
1.00699921887e-15
1.00660352513e-15
1.00573642298e-15
1.00499749021e-15
1.00944633407e-15
1.009266919e-15
1.00323486179e-15
1e-15
1e-15
1.02083188846e-15
1e-15
1.31010692225e-15
1.0127071438e-15
1.01121594711e-15
1.0098932866e-15
1.00892352115e-15
1.00838849847e-15
1.00812270645e-15
1.00787711537e-15
1.00757492014e-15
1.0072500066e-15
1.00688825105e-15
1.0061391143e-15
1.0063651175e-15
1.00942144354e-15
1.0087185691e-15
1e-15
1e-15
1e-15
1.02083121273e-15
1e-15
1.32540608048e-15
1.01361000581e-15
1.01165566508e-15
1.01010658354e-15
1.00895845736e-15
1.00827260736e-15
1.00796195534e-15
1.00761262706e-15
1.00735146891e-15
1.0072056279e-15
1.00687025473e-15
1.00610674363e-15
1.00735384402e-15
1.00942901302e-15
1.0074834278e-15
1e-15
1e-15
1e-15
1.02081331895e-15
1e-15
1.34092362027e-15
1.01275316584e-15
1.01070210977e-15
1.00913786803e-15
1.00789266262e-15
1.00700374868e-15
1.00663777095e-15
1.01121790588e-15
1.01233074653e-15
1.00636574024e-15
1.00635733946e-15
1.00560878787e-15
1.0077271226e-15
1.00941793099e-15
1.00523827574e-15
1e-15
1e-15
1e-15
1.02074108017e-15
1e-15
1.35691853286e-15
1.00871142507e-15
1.00696609493e-15
1.00574555016e-15
1.00468667953e-15
1.00375175741e-15
1.00399526293e-15
1.0215278062e-15
1.02191764151e-15
1.00611546288e-15
1.00442464632e-15
1.00459854322e-15
1.00763739501e-15
1.00901666325e-15
1.00099502088e-15
1e-15
1e-15
1e-15
1.02059678177e-15
1e-15
1.37317550723e-15
1.00255528527e-15
1.00184291458e-15
1.00135338126e-15
1.00088478116e-15
1.0011883636e-15
1.01129349121e-15
1.02222995344e-15
1.02223405159e-15
1.01666811069e-15
1.00354558303e-15
1.00355327188e-15
1.00734274458e-15
1.00791675775e-15
1e-15
1e-15
1e-15
1e-15
1.02036793822e-15
1e-15
1.38920698272e-15
1e-15
1e-15
1e-15
1e-15
1.00030401895e-15
1.02033298589e-15
1.02218939493e-15
1.0221917186e-15
1.02197241594e-15
1.00406736049e-15
1.00354558303e-15
1.00728264661e-15
1.00585552693e-15
1e-15
1e-15
1e-15
1e-15
1.02008904238e-15
1e-15
1.40453314701e-15
1e-15
1e-15
1e-15
1e-15
1.00418419749e-15
1.0219125823e-15
1.02212177456e-15
1.02216767798e-15
1.02213116319e-15
1.01538513027e-15
1.00366137447e-15
1.00803722131e-15
1.00304609992e-15
1e-15
1e-15
1e-15
1e-15
1.0198144987e-15
1e-15
1.41902277498e-15
1.00692940227e-15
1e-15
1e-15
1e-15
1.01554485951e-15
1.02187252529e-15
1.0221236304e-15
1.02217440299e-15
1.02212201092e-15
1.02165758864e-15
1.00841309531e-15
1.00945881723e-15
1.00045509909e-15
1e-15
1e-15
1e-15
1e-15
1.01966792117e-15
1e-15
1.43303596797e-15
1.77358930771e-15
1e-15
1e-15
1e-15
1.02030573701e-15
1.02190172573e-15
1.02220646832e-15
1.02225299885e-15
1.02215296498e-15
1.02198639626e-15
1.01796638709e-15
1.0105018429e-15
1e-15
1e-15
1e-15
1e-15
1e-15
1.01972646672e-15
1e-15
1.44723530307e-15
2.23360146541e-14
1e-15
1e-15
1.0020126581e-15
1.02145040294e-15
1.02204799245e-15
1.02235258507e-15
1.0222800912e-15
1.02225970735e-15
1.02200632148e-15
1.02098116183e-15
1.01123565869e-15
1e-15
1e-15
1e-15
1e-15
1.00129037031e-15
1.02002134925e-15
1e-15
1.46223023222e-15
5.31301769509e-13
1e-15
1e-15
1.01310312475e-15
1.02172926679e-15
1.02232239157e-15
1.0222800912e-15
1.02247147112e-15
1.0222800912e-15
1.02207282343e-15
1.0211146767e-15
1.01165707806e-15
1e-15
1e-15
1e-15
1e-15
1.00554052692e-15
1.02055586685e-15
1e-15
1.47836984204e-15
1.97838843476e-11
1e-15
1e-15
1.01859195485e-15
1.0220905014e-15
1.02225542425e-15
1.02265590121e-15
1.0222800912e-15
1.02243676698e-15
1.02213347708e-15
1.02119612694e-15
1.01194841815e-15
1e-15
1e-15
1e-15
1e-15
1.00852766117e-15
1.02132065924e-15
1.00313553504e-15
1.49563778996e-15
7.6037809266e-10
1e-15
1e-15
1.01826698173e-15
1.02225088932e-15
1.022737269e-15
1.0222800912e-15
1.02268093327e-15
1.0222800912e-15
1.02220203147e-15
1.02131161918e-15
1.01211091193e-15
1e-15
1e-15
1e-15
1e-15
1.01099737129e-15
1.02211925559e-15
1.01279610566e-15
1.51372343188e-15
2.32706595813e-08
1e-15
1e-15
1.01300554392e-15
1.02254718383e-15
1.0222800912e-15
1.02289433094e-15
1.0222800912e-15
1.02254970012e-15
1.02226718568e-15
1.02145566547e-15
1.01170513279e-15
1e-15
1e-15
1e-15
1.00270935916e-15
1.01300804157e-15
1.02293007567e-15
1.01645208607e-15
1.53217825261e-15
2.07168421196e-07
1e-15
1e-15
1.00514615705e-15
1.0222770427e-15
1.02297938881e-15
1.0222800912e-15
1.02276929649e-15
1.0222800912e-15
1.0223233188e-15
1.02171815391e-15
1.01011535603e-15
1.0018669532e-15
1e-15
1.00092466462e-15
1.00664803649e-15
1.0144379266e-15
1.02378484521e-15
1.01852436508e-15
1.55065143548e-15
1.17240841904e-06
1e-15
1.00004651383e-15
1.00122493092e-15
1.02271434674e-15
1.0222800912e-15
1.02292961174e-15
1.0222800904e-15
1.02256458488e-15
1.0222800882e-15
1.02170405282e-15
1.0082567124e-15
1.00379643801e-15
1.00241405054e-15
1.00544197895e-15
1.00803151932e-15
1.01521529697e-15
1.02466600463e-15
1.01984289076e-15
1.56902107938e-15
5.07468639686e-06
1e-15
1e-15
1.00065983481e-15
1.0222800912e-15
1.02301770414e-15
1.0222800912e-15
1.02278861896e-15
1.0222800912e-15
1.02234948648e-15
1.02025604637e-15
1.00722198887e-15
1.00511672409e-15
1.00563592798e-15
1.0067875387e-15
1.00892938265e-15
1.01540991836e-15
1.02557859142e-15
1.02043391118e-15
1.5873543583e-15
1.82371137545e-05
1e-15
1e-15
1e-15
1.02271511531e-15
1.0222800912e-15
1.02299212262e-15
1.0222800912e-15
1.02255209931e-15
1.0222800912e-15
1.01662393746e-15
1.00671712928e-15
1.0058017669e-15
1.00626713843e-15
1.00731996538e-15
1.00942866024e-15
1.01515165132e-15
1.0262435165e-15
1.02041949424e-15
1.60569534803e-15
5.49912266194e-05
1e-15
1e-15
1e-15
1.0222800912e-15
1.02299348883e-15
1.0222800912e-15
1.02273994938e-15
1.0222800912e-15
1.02230395623e-15
1.01251979959e-15
1.00632884028e-15
1.00595329151e-15
1.00637252772e-15
1.00741600034e-15
1.0094991789e-15
1.01447315388e-15
1.02667766153e-15
1.01956154514e-15
1.6237616985e-15
0.000138783565464
1e-15
1e-15
1e-15
1.02249530421e-15
1.0222800912e-15
1.02289738576e-15
1.0222800912e-15
1.02243411134e-15
1.02079302421e-15
1.00906513676e-15
1.00582371746e-15
1.00570959798e-15
1.00609039457e-15
1.00708548831e-15
1.00913306572e-15
1.01359815282e-15
1.02701612845e-15
1.01827189618e-15
1.64126690564e-15
0.000305998917083
1e-15
1e-15
1e-15
1.02209116806e-15
1.02272111801e-15
1.0222800912e-15
1.0225297064e-15
1.0222800912e-15
1.01497664404e-15
1.00655424519e-15
1.00509141889e-15
1.00501321166e-15
1.00537264842e-15
1.00629627032e-15
1.00826096715e-15
1.01254514896e-15
1.02725640929e-15
1.01817026429e-15
1.65785938214e-15
0.000652898509332
9.51943691527e-08
1e-15
)
;

boundaryField
{
    emptyPatch
    {
        type            empty;
    }
    minY
    {
        type            fixedValue;
        value           uniform 1e-15;
    }
    maxY
    {
        type            inletOutlet;
        phi             phi.gas;
        inletValue      nonuniform List<scalar> 0();
        value           nonuniform List<scalar> 0();
    }
    maxX
    {
        type            zeroGradient;
    }
    water_to_heater
    {
        type            zeroGradient;
    }
    procBoundary2to3
    {
        type            processor;
        value           nonuniform List<scalar> 
41
(
0.650342591054
0.494777266424
0.453342284278
0.402049820696
0.349844529596
0.307981039965
0.2944609586
0.294977549779
0.308391521835
0.317695810727
0.314443558078
0.311816384004
0.317471370966
0.321017034064
0.332868836941
0.35618658591
0.369704117939
0.314490586894
0.170333154011
0.0366491092586
1e-15
1.00371557134e-15
1.0222800912e-15
1.02259806548e-15
1.0222800912e-15
1.01923011524e-15
1.00887741668e-15
1.00488492151e-15
1.00415869046e-15
1.00411158035e-15
1.00444266679e-15
1.00525840328e-15
1.00707064128e-15
1.01124867314e-15
1.0274368386e-15
1.01857944113e-15
1.67265493037e-15
0.00145453906478
1.41850643125e-06
1e-15
1e-15
)
;
    }
}


// ************************************************************************* //
