/*--------------------------------*- C++ -*----------------------------------*\
| =========                 |                                                 |
| \\      /  F ield         | OpenFOAM: The Open Source CFD Toolbox           |
|  \\    /   O peration     | Version:  2312                                  |
|   \\  /    A nd           | Website:  www.openfoam.com                      |
|    \\/     M anipulation  |                                                 |
\*---------------------------------------------------------------------------*/
FoamFile
{
    version     2.0;
    format      ascii;
    arch        "LSB;label=32;scalar=64";
    class       volScalarField;
    location    "0.66/water";
    object      d.gas;
}
// * * * * * * * * * * * * * * * * * * * * * * * * * * * * * * * * * * * * * //

dimensions      [0 1 0 0 0 0 0];

internalField   nonuniform List<scalar> 
1504
(
0.00498822950628
0.0049882107478
0.0049881425631
0.0049881014066
0.00498806058051
0.00498799962954
0.00498791701125
0.00498783506477
0.00498776301425
0.00498769919304
0.00498764160785
0.00498758840606
0.00498753882787
0.00498749432274
0.00498745727139
0.00498742866621
0.00498740509918
0.00498738575737
0.00498736553564
0.00498733864485
0.00498848045318
0.00498848106874
0.00498848130091
0.0049884757108
0.00498846276065
0.0049884417485
0.00498839557941
0.00498831862033
0.0049882307199
0.00498814306869
0.00498805984189
0.00498798279461
0.00498791121478
0.00498784556788
0.00498778757277
0.00498773996508
0.00498770463175
0.00498767458972
0.00498764755927
0.00498761787047
0.00498851242274
0.0049885129598
0.00498851361296
0.00498851455847
0.00498851538836
0.00498851577986
0.00498851236754
0.00498849012579
0.00498844318211
0.00498837946114
0.00498830772091
0.00498823626694
0.00498816718884
0.00498810147714
0.00498804132248
0.00498798829591
0.00498794721939
0.00498791325193
0.0049878836771
0.00498785280081
0.0049885360362
0.00498853643722
0.00498853674784
0.00498853702188
0.0049885373395
0.00498853774729
0.00498853897856
0.00498853477859
0.00498851510219
0.00498847948944
0.00498843217376
0.00498837953228
0.00498832562515
0.00498827193836
0.00498822151764
0.00498817485446
0.00498813644315
0.00498810451466
0.00498807499362
0.00498804498346
0.00498855713885
0.0049885574675
0.00498855766997
0.00498855783856
0.00498855801797
0.00498855819462
0.00498855844062
0.00498855717291
0.00498854642134
0.00498852449275
0.004988494341
0.00498845993933
0.00498842204636
0.00498838328003
0.00498834418679
0.00498830992941
0.00498828229078
0.004988255534
0.00498822829238
0.00498820126286
0.00498857716176
0.00498857747439
0.00498857765985
0.0049885777906
0.00498857791556
0.00498857804169
0.00498857764901
0.00498857739139
0.00498857080084
0.00498855601255
0.00498853632585
0.00498851391898
0.00498848907439
0.00498846104598
0.00498843392803
0.00498841334145
0.0049883970275
0.0049883774783
0.00498835381785
0.00498833058066
0.00498859675679
0.00498859700164
0.00498859708292
0.00498859705989
0.00498859694926
0.00498859671082
0.00498859593808
0.00498859610333
0.00498859095318
0.0049885799288
0.00498856879659
0.0049885581571
0.00498854128663
0.00498852436537
0.00498850694656
0.00498849307231
0.0049884898384
0.00498847956767
0.00498845989898
0.0049884403018
0.00498861661917
0.00498861690483
0.004988617058
0.00498861712895
0.00498861717679
0.00498861637478
0.00498861544258
0.00498861488101
0.00498860997206
0.00498860364989
0.00498860328997
0.00498859864255
0.00498859000625
0.00498857883479
0.00498856951383
0.00498856636782
0.00498857243868
0.00498856948495
0.00498855349358
0.00498853703515
0.00498863687821
0.00498863709782
0.0049886371315
0.00498863701679
0.0049886367571
0.00498863566003
0.00498863711243
0.00498863717538
0.00498863469979
0.00498863841861
0.0049886446009
0.00498864461614
0.00498863903801
0.00498863563755
0.00498863197907
0.00498863615325
0.0049886550273
0.00498865319398
0.00498864079751
0.00498862726297
0.00498865797108
0.00498865826164
0.00498865843136
0.00498865855289
0.00498865769871
0.00498865833217
0.00498866196059
0.00498866374964
0.00498866809012
0.00498868194938
0.0049886922545
0.00498869203412
0.00498869399606
0.0049886952701
0.00498869872302
0.00498871559925
0.00498873291773
0.00498873518902
0.00498872734053
0.00498871750324
0.00498867961226
0.00498867981215
0.00498867978888
0.004988679598
0.00498867801726
0.00498868250858
0.00498868827495
0.00498869425376
0.00498871168964
0.00498873255011
0.00498873887794
0.00498874679573
0.00498875308885
0.00498876177096
0.00498877281685
0.00498879029825
0.00498881639384
0.00498882190472
0.00498881918682
0.00498881379283
0.00498870324435
0.00498870346402
0.00498870342341
0.00498869902624
0.00498870002776
0.00498870721989
0.00498871596092
0.00498873340535
0.00498876260423
0.00498877878226
0.00498879324819
0.00498880447951
0.00498881907775
0.0049888348632
0.00498885138053
0.00498888349352
0.00498890788803
0.00498891806782
0.0049889220222
0.00498892193244
0.00498872971262
0.00498872987427
0.00498871831685
0.00498871002858
0.00498871458628
0.00498872667669
0.00498874607569
0.00498878297113
0.00498881322422
0.00498883601088
0.00498885291342
0.0049888750904
0.00498889774137
0.00498892060278
0.00498894969851
0.0049889806156
0.00498901342655
0.00498902966703
0.00498904156612
0.00498904696319
0.00498875905388
0.004988767969
0.00498873962828
0.00498872954894
0.00498873886038
0.00498876126205
0.00498880407342
0.00498884792271
0.00498888028611
0.00498890276863
0.0049889322193
0.00498896113877
0.00498899107772
0.00498902463156
0.00498905595659
0.00498910516883
0.00498913837935
0.00498916308226
0.00498918432626
0.00498919593814
0.00498878711516
0.00498882753239
0.00498878897305
0.00498877944715
0.00498879896294
0.00498884518628
0.00498889913741
0.00498894072007
0.00498896756234
0.00498900270953
0.00498903639197
0.00498907312238
0.0049891134302
0.00498915078688
0.00498920514563
0.00498925229416
0.0049892906517
0.0049893267972
0.00498935791253
0.00498937482892
0.00498881584654
0.00498890359188
0.00498885316376
0.00498885606986
0.00498890867954
0.00498897192676
0.004989022688
0.00498905410293
0.00498909463218
0.00498913226989
0.00498917523781
0.00498922273318
0.00498926788739
0.0049893220374
0.00498937258227
0.00498942820811
0.00498947635556
0.00498952526574
0.00498956428746
0.0049895857206
0.00498884532637
0.00498897605123
0.00498895155366
0.00498899167453
0.00498906247595
0.00498912110672
0.00498915903736
0.00498920695089
0.00498925039874
0.00498929964098
0.00498935465947
0.00498940619335
0.0049894674621
0.00498952170483
0.00498958804455
0.0049896447523
0.00498970432252
0.0049897624179
0.00498980617729
0.00498983084773
0.00498888258884
0.00498904825266
0.00498908835018
0.0049891404567
0.00498921164415
0.00498926901716
0.00498933460745
0.00498939532898
0.00498945832917
0.00498952609586
0.00498958926833
0.00498966256955
0.00498972466919
0.00498979552826
0.00498985740272
0.00498991904559
0.0049899830609
0.00499004349476
0.00499008897771
0.00499011623788
0.00498904270423
0.00498928683945
0.004989340568
0.00498938985151
0.00498946704564
0.00498955809171
0.00498964916556
0.00498973309985
0.00498981586032
0.00498988894226
0.00498997080864
0.00499003794007
0.00499010896997
0.00499016908777
0.00499022504905
0.00499027628708
0.00499032769134
0.00499037568343
0.00499041298096
0.00499043836253
0.00499037181458
0.00499066105362
0.00499063866548
0.00499057765786
0.00499053104778
0.00499051591821
0.00499050653567
0.00499051346659
0.00499052851802
0.00499056590204
0.00499060036272
0.00499063931316
0.00499066983467
0.00499069618064
0.00499071604286
0.00499073388361
0.00499075007576
0.0049907643584
0.00499077608895
0.00499078712562
0.00499238708801
0.0049925022561
0.00499240980536
0.00499233888607
0.00499226490254
0.00499216278146
0.00499202674679
0.00499185475208
0.00499169454313
0.00499157159519
0.00499148973017
0.00499142749954
0.00499137657423
0.00499133187611
0.00499129231169
0.0049912566662
0.00499122367255
0.00499119287405
0.00499116482967
0.00499114795565
0.00499279314764
0.00499279422276
0.00499279475865
0.00499279518219
0.0049927953953
0.0049927914928
0.00499277246694
0.00499272753241
0.00499262061922
0.00499244731504
0.00499227154495
0.00499212819631
0.00499200965724
0.00499190745206
0.00499181829199
0.00499173930426
0.004991668178
0.00499160334048
0.00499154361116
0.00499149639968
0.00499281554943
0.00499281581095
0.00499281603554
0.00499281638509
0.00499281692399
0.00499281762579
0.00499281822452
0.0049928185213
0.0049928147612
0.00499277452729
0.00499266809391
0.00499253579895
0.00499241152374
0.00499229901918
0.00499219685949
0.00499210406001
0.00499201935827
0.0049919411649
0.00499186931134
0.00499180462779
0.00499283218982
0.00499283242172
0.0049928325753
0.00499283272633
0.00499283291583
0.00499283316357
0.00499283346874
0.00499283386652
0.00499283429115
0.00499283119233
0.0049927953915
0.00499271909962
0.00499262430058
0.0049925295632
0.00499243880352
0.00499235289723
0.00499227255927
0.00499219712501
0.00499212678347
0.00499206101415
0.00499284781672
0.004992847986
0.00499284806556
0.00499284812924
0.00499284821649
0.00499284832461
0.00499284845053
0.00499284857704
0.00499284869501
0.00499285042056
0.00499283739927
0.00499279681616
0.00499273475222
0.00499266441066
0.00499259273546
0.0049925214802
0.00499245291236
0.00499238756851
0.00499232536409
0.00499226780526
0.00499286265672
0.00499286282157
0.00499286291226
0.00499286298598
0.00499286307207
0.00499286316379
0.00499286326486
0.00499286338519
0.00499286352783
0.0049928645005
0.00499285788383
0.00499283281384
0.00499279227253
0.00499274362369
0.00499269111711
0.00499263664015
0.00499258216181
0.00499252895831
0.00499247763991
0.00499243086282
0.00499287677814
0.0049928769309
0.00499287701251
0.00499287707956
0.00499287715674
0.00499287724253
0.00499287733848
0.00499287744585
0.00499287756887
0.00499287802269
0.00499287368349
0.00499285643835
0.0049928290994
0.00499279591944
0.00499275833662
0.00499271796145
0.00499267664058
0.00499263559527
0.00499259560818
0.00499255934396
0.00499288992636
0.00499289007519
0.00499289016142
0.00499289022703
0.0049928902977
0.0049928903738
0.0049928904548
0.00499289053322
0.00499289062948
0.00499289012391
0.00499288657962
0.00499287421266
0.0049928562448
0.00499283572346
0.00499280923182
0.00499278027637
0.00499275071548
0.00499272070509
0.00499269095217
0.00499266467523
0.00499290220786
0.00499290234542
0.00499290242428
0.00499290247954
0.00499290253639
0.00499290259469
0.00499290264629
0.00499290269004
0.00499290276124
0.00499290072166
0.00499289682293
0.00499288752326
0.0049928786474
0.00499286850018
0.00499285238312
0.0049928331481
0.00499281355285
0.00499279391916
0.00499277390751
0.00499275687759
0.00499291359268
0.00499291372346
0.00499291380227
0.00499291385736
0.0049929139074
0.00499291394078
0.00499291395463
0.00499291392965
0.00499291390917
0.00499291058372
0.00499290719878
0.00499290212619
0.00499290322153
0.004992903061
0.00499289303312
0.00499288289794
0.00499287356706
0.00499286301819
0.0049928530952
0.00499284476781
0.00499292425867
0.00499292438086
0.00499292445399
0.00499292451628
0.00499292458324
0.00499292464647
0.00499292469828
0.00499292477337
0.00499292443337
0.00499292181395
0.00499291977006
0.00499292141886
0.00499293270124
0.00499293753856
0.00499293682656
0.00499293518295
0.00499293444537
0.00499293536777
0.00499293435464
0.00499293581798
0.00499293422047
0.00499293432449
0.00499293437831
0.00499293440254
0.00499293442765
0.00499293443315
0.00499293441461
0.00499293440908
0.00499293272985
0.00499293177032
0.00499293272388
0.00499294379813
0.00499296390307
0.00499297728701
0.00499298291132
0.0049929916296
0.00499300255342
0.00499301221983
0.00499302380412
0.00499303575979
0.00499294419002
0.00499294433075
0.00499294431921
0.0049929442822
0.00499294425925
0.00499294424304
0.00499294424215
0.00499294449486
0.00499294357832
0.00499294419871
0.0049929499357
0.00499297406441
0.00499300534891
0.00499302096777
0.00499303832043
0.00499305747452
0.00499307777102
0.00499310130858
0.00499312298989
0.00499314744661
0.00499295363437
0.00499295981211
0.00499295493894
0.0049929548423
0.00499295478478
0.0049929548162
0.00499295605348
0.00499295853055
0.00499296086969
0.0049929655972
0.00499298254423
0.00499302314119
0.00499305645535
0.00499308260251
0.0049931067026
0.00499313540815
0.00499316848871
0.00499320191455
0.00499323695013
0.00499326859961
0.00499296938001
0.00499299746749
0.00499298339881
0.00499298276882
0.00499298743383
0.00499299323076
0.00499299794222
0.00499300181095
0.00499300587363
0.00499301628345
0.004993052372
0.00499309918541
0.00499313536506
0.00499316235539
0.00499319641514
0.00499323468674
0.0049932776698
0.00499332485634
0.00499335515268
0.00499339430338
0.00499299276691
0.00499304296014
0.00499302194002
0.00499302419211
0.00499303620185
0.004993048004
0.0049930581478
0.00499306719217
0.00499307958527
0.00499311113182
0.00499316358462
0.00499321001329
0.00499323882425
0.00499327451758
0.00499331331379
0.00499335952094
0.00499342077106
0.00499345032209
0.00499347781115
0.00499352012807
0.00499308058025
0.00499317073024
0.00499314440898
0.0049931521109
0.00499317045784
0.00499318391087
0.0049931948543
0.00499320985607
0.00499323998979
0.00499328884499
0.00499333484743
0.00499335924538
0.00499338928961
0.00499342088751
0.00499346447216
0.00499353963616
0.00499357267671
0.00499358555751
0.00499361086472
0.00499364906749
0.00499337016061
0.00499347397608
0.00499343748749
0.00499344211208
0.00499345703172
0.00499346608647
0.00499347251439
0.00498696231572
0.00498695216722
0.00498694345495
0.00498693585898
0.00498692922075
0.00498692346996
0.00498691857537
0.00498691449891
0.00498691117473
0.00498690852291
0.00498690646308
0.0049869049194
0.00498690382108
0.00498690309624
0.00498690266174
0.00498690242877
0.00498690252609
0.00498730380224
0.00498727278012
0.00498724715529
0.00498722634705
0.00498720931666
0.00498719508157
0.00498718302753
0.00498717278216
0.00498716410824
0.00498715683758
0.0049871508207
0.00498714590904
0.00498714196318
0.00498713885753
0.00498713648088
0.00498713473393
0.00498713352221
0.00498713274316
0.00498713228797
0.00498713225983
0.00498757638122
0.00498753568521
0.00498750188767
0.00498747445687
0.00498745208285
0.00498743353819
0.00498741800407
0.00498740494569
0.00498739399272
0.00498738486622
0.00498737732839
0.00498737116728
0.00498736619806
0.00498736226095
0.00498735921769
0.00498735694735
0.00498735533862
0.004987354276
0.00498735363639
0.00498735349098
0.00498781242321
0.00498776862494
0.00498773092592
0.00498770006011
0.0049876747789
0.00498765383767
0.00498763634938
0.00498762170374
0.00498760945937
0.00498759927385
0.00498759085918
0.00498758396917
0.00498757839529
0.00498757395997
0.00498757051084
0.00498756791553
0.00498756605465
0.00498756480785
0.00498756404621
0.00498756380513
0.00498800943694
0.00498796840092
0.00498793121087
0.00498790026452
0.00498787470843
0.00498785346988
0.00498783571999
0.00498782085867
0.00498780843753
0.00498779810044
0.004987789549
0.00498778253298
0.00498777684272
0.00498777230046
0.00498776875363
0.00498776606977
0.00498776413071
0.00498776282021
0.00498776201261
0.00498776170831
0.00498817166879
0.00498813694768
0.00498810377128
0.00498807557244
0.00498805204396
0.00498803239155
0.00498801592958
0.00498800212983
0.00498799058554
0.00498798096651
0.00498797299629
0.00498796644525
0.00498796112161
0.00498795686253
0.00498795352765
0.00498795099461
0.00498794915516
0.00498794790487
0.00498794712982
0.00498794680022
0.00498830652467
0.0049882792702
0.00498825222846
0.0049882288217
0.00498820907509
0.00498819249091
0.00498817856766
0.00498816688244
0.00498815709917
0.00498814893957
0.00498814217112
0.00498813660184
0.00498813207142
0.00498812844319
0.00498812559847
0.00498812343322
0.0049881218559
0.00498812078022
0.00498812011045
0.00498811979444
0.0049884209646
0.0049884011106
0.00498838132772
0.00498836409547
0.00498834938804
0.00498833695705
0.00498832650517
0.00498831773288
0.00498831039121
0.00498830426986
0.00498829919387
0.00498829501954
0.00498829162679
0.00498828891262
0.00498828678672
0.00498828516921
0.0049882839904
0.00498828318628
0.00498828268383
0.00498828241831
0.00498852170774
0.00498850862324
0.00498849649759
0.00498848626675
0.00498847742554
0.00498846987414
0.00498846352627
0.00498845821584
0.0049884537901
0.00498845011607
0.00498844708374
0.00498844460348
0.00498844260033
0.00498844100943
0.00498843977299
0.00498843883905
0.00498843816295
0.00498843770574
0.00498843741945
0.00498843723731
0.00498861558827
0.00498860846623
0.00498860377968
0.00498860082264
0.0049885982451
0.00498859595108
0.00498859404924
0.0049885925065
0.00498859126812
0.00498859028125
0.00498858950289
0.00498858889902
0.00498858844151
0.00498858810549
0.00498858786761
0.00498858770568
0.00498858760162
0.00498858754262
0.00498858750679
0.00498858743541
0.00498870933654
0.00498870726455
0.00498870937037
0.00498871348083
0.00498871717118
0.00498872019415
0.00498872281472
0.00498872512171
0.00498872715334
0.00498872893411
0.00498873048562
0.00498873182789
0.00498873297878
0.00498873395309
0.00498873476193
0.0049887354131
0.00498873591502
0.00498873628092
0.00498873651499
0.00498873657432
0.00498880898957
0.00498881095007
0.00498881899584
0.00498882967283
0.00498883937086
0.00498884753765
0.00498885455246
0.00498886061144
0.00498886583864
0.00498887033085
0.00498887417021
0.00498887742778
0.00498888016523
0.00498888243548
0.00498888428292
0.00498888574417
0.00498888685281
0.00498888764668
0.00498888815565
0.0049888883596
0.00498892013374
0.00498892481501
0.00498893776312
0.00498895434186
0.00498896965062
0.00498898264315
0.00498899378172
0.00498900335889
0.00498901158059
0.00498901861271
0.00498902459503
0.00498902964719
0.00498903387249
0.00498903736001
0.00498904018553
0.0049890424125
0.00498904409719
0.00498904529951
0.00498904607424
0.00498904643067
0.00498904771535
0.0049890536973
0.00498907042497
0.00498909219724
0.00498911264025
0.00498913000992
0.00498914485619
0.00498915757144
0.00498916844755
0.00498917772055
0.00498918558711
0.00498919221377
0.00498919774332
0.0049892022985
0.00498920598382
0.00498920888659
0.00498921108206
0.00498921264812
0.00498921366315
0.00498921417129
0.00498919886055
0.00498920481887
0.00498922320462
0.00498924875707
0.00498927336819
0.00498929428255
0.00498931210613
0.00498932731608
0.00498934028336
0.00498935130891
0.00498936064097
0.00498936848777
0.0049893750264
0.00498938040825
0.00498938476169
0.0049893881929
0.00498939079052
0.00498939264398
0.00498939385271
0.00498939450134
0.00498938095493
0.00498938583413
0.00498940263453
0.00498942949162
0.00498945663931
0.00498947975969
0.00498949942289
0.00498951615322
0.00498953037367
0.00498954243425
0.00498955262223
0.00498956117657
0.00498956829899
0.00498957416079
0.00498957890621
0.00498958265278
0.00498958549451
0.00498958752314
0.00498958885403
0.00498958961881
0.00498959502373
0.00498959876094
0.00498961258433
0.0049896382013
0.00498966590134
0.00498968958264
0.00498970963477
0.00498972662609
0.00498974100761
0.00498975316442
0.00498976340959
0.00498977199978
0.0049897791488
0.00498978503613
0.0049897898111
0.00498979359258
0.00498979646984
0.00498979852488
0.00498979988017
0.00498980072187
0.00498984190959
0.00498984776012
0.00498985876703
0.00498987940691
0.00498990439001
0.00498992624459
0.00498994466344
0.00498996021381
0.00498997331582
0.00498998435239
0.00498999363416
0.00499000141127
0.0049900078885
0.00499001323515
0.00499001758973
0.00499002105843
0.00499002371284
0.00499002561028
0.00499002686595
0.00499002772872
0.00499012906276
0.00499013845089
0.00499014469199
0.00499015667476
0.00499017408775
0.0049901906376
0.00499020465976
0.00499021655643
0.00499022658296
0.00499023502857
0.0049902421417
0.00499024812123
0.0049902531279
0.00499025729287
0.00499026072109
0.00499026348757
0.00499026563049
0.00499026716582
0.00499026818063
0.00499026899367
0.0049904516088
0.00499045972609
0.00499046058366
0.0049904646379
0.00499047106282
0.0049904788668
0.00499048576309
0.00499049183413
0.00499049705213
0.00499050150435
0.00499050530995
0.00499050856858
0.00499051136015
0.00499051374868
0.00499051578239
0.0049905174866
0.00499051885136
0.00499051983691
0.00499052047654
0.004990521163
0.00499079374105
0.004990793221
0.00499079080575
0.00499078893383
0.00499078520973
0.00499078221168
0.00499078011358
0.00499077880588
0.00499077798658
0.00499077745836
0.00499077715744
0.0049907770489
0.00499077710519
0.0049907773022
0.00499077761458
0.00499077800458
0.00499077840436
0.00499077871009
0.00499077887471
0.00499077936403
0.00499114104324
0.00499112994152
0.00499112265545
0.00499111370183
0.0049911026366
0.0049910892795
0.00499107752139
0.0049910681044
0.00499106070686
0.00499105480589
0.00499105010138
0.00499104639543
0.00499104353624
0.00499104140036
0.00499103988103
0.00499103887182
0.00499103824397
0.00499103782906
0.00499103747551
0.00499103771587
0.00499147128928
0.00499145152477
0.00499143683482
0.00499142127021
0.00499140523455
0.00499138531199
0.00499136555359
0.0049913488414
0.00499133540481
0.00499132458496
0.00499131585434
0.00499130885856
0.00499130333078
0.00499129905791
0.00499129586037
0.00499129357075
0.00499129200718
0.0049912909461
0.00499129010827
0.00499129004513
0.00499176282728
0.00499173753528
0.00499171738027
0.00499169795381
0.00499167867783
0.0049916565587
0.00499163269078
0.00499161110417
0.00499159324113
0.00499157873424
0.00499156695633
0.00499155744716
0.00499154986157
0.00499154392625
0.00499153941293
0.00499153611309
0.00499153380885
0.00499153224164
0.00499153104585
0.00499153069553
0.00499201128571
0.00499198289011
0.00499195958229
0.00499193860243
0.00499191794273
0.00499189620914
0.00499187204975
0.00499184861627
0.00499182845188
0.00499181183218
0.00499179824297
0.0049917872002
0.00499177832766
0.00499177132619
0.00499176594681
0.00499176196296
0.00499175914006
0.00499175720775
0.00499175584749
0.00499175536481
0.00499221995048
0.00499219007085
0.00499216576583
0.00499214498542
0.00499212478515
0.00499210444056
0.00499208214264
0.0049920593632
0.00499203882797
0.00499202157002
0.00499200732629
0.0049919956788
0.00499198626918
0.00499197880259
0.004991973034
0.00499196874147
0.00499196569474
0.00499196362753
0.00499196227002
0.00499196182362
0.00499239160193
0.004992363788
0.00499234109272
0.00499232215895
0.00499230342982
0.00499228446368
0.00499226458561
0.00499224390958
0.00499222453505
0.00499220787914
0.00499219395976
0.00499218248424
0.00499217316832
0.0049921657501
0.00499216000654
0.00499215573717
0.00499215273141
0.00499215076203
0.00499214956566
0.00499214920422
0.00499253132865
0.00499251032969
0.00499249201525
0.00499247450742
0.00499245712268
0.00499243926251
0.00499242173683
0.00499240399318
0.00499238704954
0.00499237211165
0.00499235945867
0.00499234889609
0.00499234026167
0.00499233337915
0.0049923280728
0.00499232419085
0.00499232158762
0.00499232001477
0.0049923191685
0.00499231897933
0.00499264738595
0.00499263672508
0.00499262341139
0.00499260636902
0.00499258954846
0.00499257265232
0.00499255744373
0.00499254313665
0.00499252965328
0.00499251760102
0.0049925072194
0.00499249841124
0.00499249115894
0.00499248542091
0.00499248112692
0.00499247817934
0.00499247633889
0.00499247529343
0.0049924748609
0.00499247496973
0.00499274915277
0.00499274989995
0.00499274177036
0.0049927228869
0.00499270669634
0.00499269168272
0.00499267895864
0.0049926684153
0.00499265911394
0.00499265090276
0.00499264371159
0.00499263751334
0.00499263235386
0.00499262832886
0.00499262546037
0.0049926235363
0.00499262229318
0.00499262162688
0.00499262160195
0.00499262216341
0.00499284674433
0.0049928589468
0.00499285309672
0.00499283836348
0.0049928245664
0.00499280926039
0.00499279814465
0.00499279073895
0.00499278530483
0.00499278092698
0.00499277711032
0.00499277370496
0.00499277082345
0.00499276876256
0.00499276749501
0.00499276673342
0.00499276628369
0.00499276615094
0.00499276653096
0.00499276774349
0.00499294761492
0.00499297063009
0.00499297328318
0.00499296041042
0.00499294610696
0.00499293338885
0.00499292529847
0.00499292147973
0.00499291998143
0.00499291956571
0.00499291945946
0.00499291934982
0.00499291928818
0.00499291938978
0.00499291958653
0.00499291974922
0.00499291976854
0.00499291981146
0.00499292012185
0.00499292198796
0.00499305862858
0.00499309315205
0.00499310061502
0.0049930937713
0.00499308565143
0.00499307619553
0.00499307186741
0.00499307226207
0.00499307525654
0.00499307942771
0.00499308372854
0.00499308743508
0.00499308986819
0.00499309095102
0.00499309135142
0.00499309151952
0.00499309065066
0.00499308939888
0.00499308892682
0.00499309129525
0.0049931818895
0.00499322650455
0.0049932437756
0.00499324337732
0.004993239321
0.00499323692121
0.00499323865247
0.00499324449816
0.00499325255612
0.00499326152786
0.00499327042037
0.00499327775525
0.00499328305845
0.00499328751865
0.00499329399135
0.00499330344158
0.0049933074212
0.00499330228879
0.00499329609385
0.00499329671062
0.00499331481394
0.00499336744372
0.00499339040574
0.00499339792039
0.00499340280123
0.00499340700587
0.00499341388438
0.00499342316837
0.00499343325037
0.00499344336868
0.00499345330422
0.00499346279535
0.00499347406244
0.00499349231648
0.0049935167749
0.00499353584385
0.00499354352259
0.00499354978526
0.00499354266653
0.00499353584045
0.00499344913616
0.00499350364923
0.00499353321899
0.0049935488661
0.00499355821951
0.00499356740295
0.0049935772814
0.00499358688435
0.00499359492687
0.00499360132695
0.00499360725296
0.00499361703051
0.00499363889406
0.00499367182729
0.00499368419296
0.00499367610308
0.00499367795119
0.00499368208203
0.00499368767549
0.00499368711783
0.00499357317497
0.00499362374312
0.00499365717569
0.00499367697727
0.00499369095439
0.00499370267672
0.00499371136151
0.00499371796229
0.00499372278225
0.00499372506006
0.00499372840356
0.00499374197345
0.00499376471018
0.00499376251583
0.00499374024281
0.00499373533961
0.00499373401832
0.00499373604499
0.00499374126472
0.00499374867413
0.00499369059252
0.00499372873301
0.00499375901667
0.00499377899025
0.00499379207227
0.00499380128191
0.00499380684293
0.00499380983223
0.00499381159037
0.00499381407707
0.00499382049158
0.00499382770627
0.00499381913976
0.00499379843443
0.00499378842413
0.00499378383125
0.00499378054753
0.00499377980464
0.00499378321744
0.00499379135272
)
;

boundaryField
{
    emptyPatch
    {
        type            empty;
    }
    minY
    {
        type            calculated;
        value           nonuniform List<scalar> 0();
    }
    maxY
    {
        type            calculated;
        value           nonuniform List<scalar> 0();
    }
    maxX
    {
        type            calculated;
        value           nonuniform List<scalar> 
38
(
0.00498690252609
0.00498713225983
0.00498735349098
0.00498756380513
0.00498776170831
0.00498794680022
0.00498811979444
0.00498828241831
0.00498843723731
0.00498858743541
0.00498873657432
0.0049888883596
0.00498904643067
0.00498921417129
0.00498939450134
0.00498958961881
0.00498980072187
0.00499002772872
0.00499026899367
0.004990521163
0.00499077936403
0.00499103771587
0.00499129004513
0.00499153069553
0.00499175536481
0.00499196182362
0.00499214920422
0.00499231897933
0.00499247496973
0.00499262216341
0.00499276774349
0.00499292198796
0.00499309129525
0.00499329671062
0.00499353584045
0.00499368711783
0.00499374867413
0.00499379135272
)
;
    }
    water_to_heater
    {
        type            calculated;
        value           nonuniform List<scalar> 
60
(
0.0049882171331
0.00498826102203
0.00498847893335
0.00498851094468
0.00498851513679
0.00498854105116
0.00498854254152
0.00498856879341
0.00498856919843
0.00498859503655
0.00498859522124
0.00498861503746
0.00498861567279
0.0049886417825
0.00498864338266
0.00498866920296
0.00498867133946
0.00498869754606
0.00498870147635
0.00498872791952
0.00498873773827
0.00498876372934
0.00498877207656
0.00498879847311
0.00498880739621
0.00498883369856
0.00498884335495
0.00498888056188
0.00498900168013
0.00498905396992
0.0049903416787
0.00499039838373
0.00499237299847
0.00499242130707
0.00499279099684
0.00499281370192
0.00499281454627
0.00499283579645
0.00499283540241
0.00499285687638
0.00499285567863
0.00499287684494
0.00499287508008
0.00499288820962
0.00499288440948
0.00499290583008
0.00499290121677
0.004992922456
0.00499291710195
0.00499293858012
0.00499293238213
0.00499294226777
0.00499293441508
0.00499295714123
0.00499295349166
0.00499298027381
0.00499298179064
0.00499301497494
0.0049930778875
0.00499336753121
)
;
    }
    procBoundary3to1
    {
        type            processor;
        value           nonuniform List<scalar> 
41
(
0.00499348727635
0.00499351497372
0.0049935437975
0.00499355540514
0.00499357009392
0.00499359442447
0.00499364017551
0.00499372645962
0.00499375560251
0.00499375020436
0.00499375445662
0.00499377162751
0.00499379385258
0.00499380269143
0.00499388895973
0.00499385492405
0.00499384821471
0.00499385419128
0.00499385543639
0.00499348727635
0.00499384697483
0.00499381433117
0.00499383228905
0.00499384799892
0.00499386020515
0.00499386782503
0.00499387070281
0.00499387121988
0.00499387130996
0.00499387093321
0.00499387015736
0.00499386675373
0.00499385766266
0.00499384449991
0.00499383259182
0.00499382473403
0.00499381816215
0.00499381296998
0.00499381124846
0.00499381342962
0.00499382321364
)
;
    }
    procBoundary3to2
    {
        type            processor;
        value           nonuniform List<scalar> 
41
(
0.00498732802698
0.00498744790631
0.0049873766984
0.00498732387364
0.00498727896329
0.00498723878865
0.00498720307581
0.0049871733102
0.00498714990793
0.00498713240331
0.00498711903072
0.00498710641372
0.00498709331865
0.00498708191144
0.00498707488651
0.00498707083395
0.00498706308573
0.00498705481153
0.00498704384912
0.00498702542626
0.00498669140372
0.00498668827653
0.00498668524713
0.00498668228191
0.00498667942255
0.00498667675307
0.00498667437079
0.00498667234767
0.00498667070313
0.0049866694193
0.00498666846294
0.00498666779561
0.00498666737653