/*--------------------------------*- C++ -*----------------------------------*\
| =========                 |                                                 |
| \\      /  F ield         | OpenFOAM: The Open Source CFD Toolbox           |
|  \\    /   O peration     | Version:  2312                                  |
|   \\  /    A nd           | Website:  www.openfoam.com                      |
|    \\/     M anipulation  |                                                 |
\*---------------------------------------------------------------------------*/
FoamFile
{
    version     2.0;
    format      ascii;
    arch        "LSB;label=32;scalar=64";
    class       volScalarField;
    location    "0.275/water";
    object      alphat.gas;
}
// * * * * * * * * * * * * * * * * * * * * * * * * * * * * * * * * * * * * * //

dimensions      [1 -1 -1 0 0 0 0];

internalField   nonuniform List<scalar> 
6000
(
1.98875134673e-07
8.37469853018e-08
3.59505925992e-08
2.48726609389e-08
9.55796377238e-08
7.03801625694e-07
2.9696401714e-06
6.68655652622e-06
1.00969081049e-05
1.22694891376e-05
1.34102072054e-05
1.39416799031e-05
1.41640819613e-05
1.42438614477e-05
1.42634634185e-05
1.42606768691e-05
1.425158011e-05
1.42423714823e-05
1.42350466253e-05
1.42299728165e-05
9.07545097087e-07
6.51677698955e-07
3.37427967565e-07
1.79067282079e-07
7.5287106049e-08
5.71399798411e-08
1.22291723249e-07
7.10141080681e-07
3.05828429924e-06
6.9784764599e-06
1.03878497296e-05
1.24719028042e-05
1.35331188058e-05
1.40109667374e-05
1.4199954174e-05
1.42593248953e-05
1.42663929356e-05
1.42558604961e-05
1.42420935897e-05
1.42304004601e-05
1.24639133998e-06
1.08396047692e-06
7.23734405401e-07
4.00076896117e-07
2.20712358189e-07
1.06182942832e-07
7.70366897316e-08
1.7887944952e-07
9.51289172138e-07
3.41852168948e-06
7.08524462095e-06
1.02867774467e-05
1.23548609082e-05
1.34749721961e-05
1.40075404938e-05
1.42281067503e-05
1.43005332084e-05
1.43103515615e-05
1.42982520191e-05
1.4281982316e-05
1.47626862604e-06
1.34121280648e-06
9.89248145736e-07
6.23235845148e-07
4.02634017625e-07
1.92309497543e-07
1.04586908729e-07
9.95334009093e-08
3.62338595961e-07
1.68057687193e-06
4.60927623087e-06
8.07715872708e-06
1.08589437611e-05
1.26366113617e-05
1.36132612929e-05
1.40854549689e-05
1.42821800539e-05
1.43448343212e-05
1.43501161395e-05
1.43357582639e-05
1.64306600411e-06
1.52794627861e-06
1.17927074178e-06
8.07817833265e-07
4.88813757036e-07
3.24960769648e-07
1.41710506295e-07
9.30555607871e-08
1.75491017551e-07
8.56475808657e-07
2.9754953316e-06
6.21099582464e-06
9.33145652685e-06
1.16286785196e-05
1.30530095342e-05
1.38271045767e-05
1.41973607419e-05
1.43470382038e-05
1.43895616992e-05
1.43871316112e-05
1.73994554803e-06
1.65466949211e-06
1.32131137173e-06
9.51627608952e-07
6.2568141009e-07
3.5883014986e-07
2.21023712562e-07
9.47911527692e-08
1.06667250961e-07
4.45636927036e-07
1.91228578833e-06
4.73406208597e-06
7.92320983156e-06
1.05683337758e-05
1.23824750189e-05
1.34664050237e-05
1.40398666368e-05
1.43049508799e-05
1.44046027452e-05
1.44257102497e-05
1.77841089648e-06
1.72868856813e-06
1.422269812e-06
1.06263387845e-06
7.34472526355e-07
4.60032749876e-07
2.42127223294e-07
1.27983219797e-07
7.17270369022e-08
2.27839292694e-07
1.20537458637e-06
3.5801337986e-06
6.67935721198e-06
9.52837236935e-06
1.16545493451e-05
1.30283406485e-05
1.38158034929e-05
1.4215966585e-05
1.43901395867e-05
1.44465316401e-05
1.79289185947e-06
1.77381790225e-06
1.49166978076e-06
1.14272737006e-06
8.15498173581e-07
5.40035051207e-07
3.15532746925e-07
1.57749517279e-07
6.86808389957e-08
1.04873321377e-07
7.04870695589e-07
2.65231704182e-06
5.58047845905e-06
8.53539325666e-06
1.09043278024e-05
1.25372779769e-05
1.35365568299e-05
1.40830483905e-05
1.43454249111e-05
1.44476376166e-05
1.82794913732e-06
1.82613449313e-06
1.5494953293e-06
1.20007821303e-06
8.73249189152e-07
6.01932712058e-07
3.80436094818e-07
1.97033626219e-07
9.56165192892e-08
5.30249246974e-08
3.28347010533e-07
1.83474456122e-06
4.55725121866e-06
7.57189552217e-06
1.01435938387e-05
1.20109305442e-05
1.32151688423e-05
1.39129613462e-05
1.4272695095e-05
1.44294082304e-05
1.89461221704e-06
1.89426036419e-06
1.60116977286e-06
1.23818302242e-06
9.12291822893e-07
6.49835985605e-07
4.36122251402e-07
2.51929528339e-07
1.05685172623e-07
4.9090636708e-08
1.079887826e-07
1.03989903535e-06
3.48761360513e-06
6.56538557619e-06
9.35101145766e-06
1.1451852887e-05
1.28592128478e-05
1.37118382209e-05
1.41760516085e-05
1.43938914957e-05
1.96681231313e-06
1.93234829349e-06
1.60880826292e-06
1.2459461744e-06
9.35476619801e-07
6.87664353454e-07
4.84765096444e-07
3.05396102463e-07
1.47637567624e-07
5.45963735996e-08
4.21382995414e-08
3.73013296697e-07
2.29516222846e-06
5.42722285333e-06
8.48499160332e-06
1.08522856875e-05
1.24739744222e-05
1.34866854563e-05
1.40600784961e-05
1.43432108594e-05
1.9280338669e-06
1.88279749823e-06
1.58335829923e-06
1.24473673976e-06
9.52931712477e-07
7.18719432552e-07
5.27287962539e-07
3.56538602125e-07
1.95051618082e-07
7.02858892106e-08
3.5674548647e-08
8.50378556363e-08
1.1052380883e-06
4.09908776217e-06
7.48854246776e-06
1.01894541998e-05
1.20548288582e-05
1.32387017435e-05
1.39264874333e-05
1.42781216767e-05
1.92573453219e-06
1.87816496941e-06
1.57948055401e-06
1.24930313451e-06
9.68407892938e-07
7.44520947769e-07
5.63560573266e-07
4.02715524747e-07
2.42257301814e-07
9.69028765483e-08
3.05867629315e-08
3.53011362238e-08
2.91653740147e-07
2.5923102482e-06
6.29945906752e-06
9.42363977316e-06
1.15838238136e-05
1.29607242995e-05
1.37725919145e-05
1.41972733394e-05
1.91619602204e-06
1.87204648609e-06
1.57520177028e-06
1.25087409507e-06
9.78435822818e-07
7.64173350108e-07
5.93445824314e-07
4.42220402257e-07
2.84344411923e-07
1.23238111058e-07
3.63153926113e-08
2.39159974056e-08
7.01439241348e-08
1.18052029672e-06
4.92103590487e-06
8.51741267045e-06
1.10331886254e-05
1.26375911055e-05
1.35915636574e-05
1.40975310695e-05
1.90841755197e-06
1.86690192621e-06
1.57098676549e-06
1.24924314063e-06
9.82977126765e-07
7.77717986119e-07
6.17244849121e-07
4.74843473496e-07
3.18927144729e-07
1.45326772761e-07
4.1303625539e-08
2.04835484987e-08
3.97053426107e-08
3.50854175973e-07
3.45919285523e-06
7.46042435338e-06
1.03673514928e-05
1.22479487917e-05
1.3373560784e-05
1.3974687608e-05
1.89652949413e-06
1.86351161748e-06
1.56851137163e-06
1.24607958727e-06
9.84012594377e-07
7.87468704342e-07
6.37032336085e-07
5.01917759434e-07
3.4588098477e-07
1.61736066175e-07
4.49691674877e-08
1.96911524366e-08
2.45253877976e-08
1.15815316865e-07
2.11028357386e-06
6.26480097054e-06
9.55208779694e-06
1.17663675794e-05
1.31063090255e-05
1.38236819642e-05
1.89363709022e-06
1.86647291284e-06
1.56959204075e-06
1.24511197816e-06
9.86372987091e-07
7.97667616326e-07
6.55943655769e-07
5.25511858409e-07
3.66408221814e-07
1.73620439158e-07
4.81562026516e-08
1.92213776259e-08
1.91227269947e-08
6.13299006121e-08
1.04367376692e-06
4.90637242624e-06
8.54188975234e-06
1.11634861226e-05
1.27746619533e-05
1.36381527518e-05
1.89692861231e-06
1.87716865814e-06
1.57704410682e-06
1.25134204882e-06
9.95716787023e-07
8.12839692339e-07
6.76547768735e-07
5.46845118018e-07
3.82241822301e-07
1.83822266837e-07
5.26028083375e-08
1.95244833849e-08
1.69856413846e-08
3.76799241621e-08
4.41068450821e-07
3.46547928333e-06
7.32473599733e-06
1.04113966134e-05
1.23608354349e-05
1.34099194774e-05
1.91834786499e-06
1.8921507254e-06
1.5894201951e-06
1.26654520057e-06
1.01484095544e-06
8.34825005774e-07
6.99286010995e-07
5.66496405216e-07
3.96067693202e-07
1.96392759078e-07
6.04465920889e-08
2.10763727064e-08
1.6195111356e-08
2.66469742406e-08
1.70925978352e-07
2.12412803004e-06
5.91311238825e-06
9.48276795535e-06
1.18445911028e-05
1.31286098987e-05
1.93630242725e-06
1.90091897493e-06
1.6100378638e-06
1.29833202916e-06
1.04849565345e-06
8.64079555099e-07
7.23194117227e-07
5.84038840487e-07
4.09846862457e-07
2.14750965638e-07
7.36469869951e-08
2.38450751251e-08
1.63061632058e-08
1.89806768342e-08
6.76799387318e-08
1.10419989221e-06
4.40581937323e-06
8.36886565908e-06
1.12074328918e-05
1.27823618292e-05
1.95610053467e-06
1.93608629037e-06
1.67303890571e-06
1.36766292725e-06
1.10260745581e-06
8.99243926925e-07
7.4502563242e-07
5.96412408502e-07
4.23644851844e-07
2.40680186625e-07
9.21865639111e-08
2.77687711623e-08
1.68634670309e-08
1.77699054406e-08
3.69171711275e-08
4.70273348446e-07
2.96867320587e-06
7.08779937289e-06
1.04366059018e-05
1.23595642032e-05
2.0368515145e-06
2.05709301774e-06
1.80446453899e-06
1.47181124704e-06
1.16576229758e-06
9.31472469261e-07
7.58331536289e-07
6.0287014071e-07
4.40763504834e-07
2.715298233e-07
1.15498485354e-07
3.28747367064e-08
1.7464736394e-08
1.80552059377e-08
2.62052730795e-08
1.38659080779e-07
1.74490486727e-06
5.69396435686e-06
9.52883758507e-06
1.18508585446e-05
2.17896521642e-06
2.23297199497e-06
1.95408750902e-06
1.56550837926e-06
1.21318794974e-06
9.51558357937e-07
7.64546358675e-07
6.099774798e-07
4.6232309883e-07
3.06463861166e-07
1.43094398455e-07
3.93085868605e-08
1.78556747491e-08
1.8090102038e-08
2.25969963376e-08
5.64731650982e-08
7.9122728141e-07
4.29272772467e-06
8.49742545307e-06
1.12515132464e-05
2.36299032228e-06
2.40183159532e-06
2.04832339135e-06
1.60988746216e-06
1.23854836776e-06
9.65284494602e-07
7.70495414176e-07
6.20298016621e-07
4.87517153705e-07
3.44732691529e-07
1.7521453111e-07
4.74514312694e-08
1.8263222883e-08
1.76601788976e-08
2.17765733578e-08
3.42103511021e-08
2.2714227385e-07
2.9458745455e-06
7.37286895628e-06
1.05622659094e-05
2.45461536221e-06
2.44185750818e-06
2.0480551286e-06
1.60979151624e-06
1.24884751284e-06
9.75680842314e-07
7.77340686404e-07
6.31866100123e-07
5.12681041449e-07
3.83253122772e-07
2.10138445786e-07
5.762922079e-08
1.89077429304e-08
1.71297458902e-08
2.05152585021e-08
2.85975580776e-08
9.23604192026e-08
1.63685473319e-06
6.18437884585e-06
9.78500486846e-06
2.4235789067e-06
2.39348575754e-06
2.01825621392e-06
1.60140151578e-06
1.25219604181e-06
9.81502486645e-07
7.82766904409e-07
6.41811144722e-07
5.3455123559e-07
4.18210754365e-07
2.44851037818e-07
7.01527936614e-08
2.00484197525e-08
1.68314736612e-08
1.93338879732e-08
2.48587939644e-08
6.24023693489e-08
6.57953921513e-07
4.93142827778e-06
8.91763046556e-06
2.41407936678e-06
2.37630642536e-06
2.00793786766e-06
1.60087956403e-06
1.25702708387e-06
9.87103027213e-07
7.87961171296e-07
6.50516155785e-07
5.53119167569e-07
4.46992043555e-07
2.74450502408e-07
8.48945210264e-08
2.21299688751e-08
1.68558569663e-08
1.85868133811e-08
2.2120726304e-08
3.57814435848e-08
2.4829177778e-07
3.63859756871e-06
7.96087456235e-06
2.40773802972e-06
2.36959657223e-06
2.00496637114e-06
1.60306188732e-06
1.26234361138e-06
9.92954856493e-07
7.93770473137e-07
6.59652202786e-07
5.70104100732e-07
4.69950201178e-07
2.97709732824e-07
9.91101253761e-08
2.50753541956e-08
1.71889175834e-08
1.83466680657e-08
2.05004083172e-08
2.76907986065e-08
1.20441580811e-07
2.40352953311e-06
6.91411419004e-06
2.40018448608e-06
2.3635807619e-06
1.99970822082e-06
1.60077859445e-06
1.26377462209e-06
9.96842195652e-07
7.99537967458e-07
6.69897153463e-07
5.86121755246e-07
4.87621069444e-07
3.14086386154e-07
1.10498793487e-07
2.80535882567e-08
1.77256085281e-08
1.84660544497e-08
1.97633811331e-08
2.34766628942e-08
7.27774339224e-08
1.35383518645e-06
5.77706873771e-06
2.39969200114e-06
2.36195334209e-06
1.99537484008e-06
1.59542073124e-06
1.26148159958e-06
9.98267937384e-07
8.04890269176e-07
6.80781954865e-07
6.00307413658e-07
4.9944230869e-07
3.2212689609e-07
1.16681951689e-07
3.0147129722e-08
1.82592521986e-08
1.87145643476e-08
1.95575242747e-08
2.14262957046e-08
4.96859513632e-08
6.31071408772e-07
4.59342969377e-06
2.38977828839e-06
2.35825412996e-06
1.99070758372e-06
1.58858640626e-06
1.2565789721e-06
9.97263803521e-07
8.08980002186e-07
6.90764261424e-07
6.11003240824e-07
5.04010479222e-07
3.20070789303e-07
1.16177899853e-07
3.06936847313e-08
1.85595529215e-08
1.88997580368e-08
1.96178062271e-08
2.05116710803e-08
3.08952231081e-08
2.60995350261e-07
3.43555748157e-06
2.38238633307e-06
2.35156001819e-06
1.98250713107e-06
1.57902322123e-06
1.24868837368e-06
9.9331616679e-07
8.10864030705e-07
6.98251864108e-07
6.16575742363e-07
4.99703895472e-07
3.07283931716e-07
1.09661631262e-07
2.98922392081e-08
1.86000185757e-08
1.89818157536e-08
1.9693097119e-08
2.00682338e-08
2.39497236141e-08
1.18157125767e-07
2.35123792888e-06
2.36192854886e-06
2.33655300533e-06
1.96643622805e-06
1.5635452247e-06
1.23705565378e-06
9.86689404741e-07
8.10743620133e-07
7.02421081304e-07
6.15669780579e-07
4.85047198399e-07
2.85174936288e-07
9.97369226575e-08
2.85352743538e-08
1.85097035258e-08
1.89929961698e-08
1.96993599948e-08
1.97782774072e-08
2.15129816715e-08
6.61260717061e-08
1.4356806454e-06
2.34693824494e-06
2.30737337395e-06
1.93469341691e-06
1.53925066227e-06
1.22277253413e-06
9.79907398007e-07
8.1023752055e-07
7.03334884228e-07
6.07347496118e-07
4.60033773695e-07
2.57895037727e-07
8.98443545438e-08
2.74868994799e-08
1.84382254743e-08
1.89701974077e-08
1.96507291733e-08
1.95657992469e-08
2.01476232171e-08
4.4462258409e-08
7.96687163025e-07
2.31065695214e-06
2.25169950036e-06
1.88721113816e-06
1.51409849037e-06
1.21637556138e-06
9.80896250545e-07
8.12746141797e-07
7.0181509116e-07
5.91111269215e-07
4.27815303785e-07
2.31604770504e-07
8.29938301368e-08
2.74222469938e-08
1.85399196621e-08
1.89432587369e-08
1.96050735403e-08
1.94627561156e-08
1.94511253251e-08
3.43604115525e-08
4.10335287097e-07
2.23055406518e-06
2.14952742055e-06
1.83252418618e-06
1.51342626273e-06
1.23863840791e-06
9.99791360008e-07
8.21795599018e-07
6.98381231412e-07
5.67842656282e-07
3.95222716115e-07
2.12229356358e-07
8.0891591481e-08
2.88777071914e-08
1.89783781456e-08
1.893457668e-08
1.95874544319e-08
1.94247119525e-08
1.91628943414e-08
2.55533991432e-08
1.92264930271e-07
2.10945662354e-06
2.06160064242e-06
1.84361508339e-06
1.58489682129e-06
1.309033402e-06
1.04140806633e-06
8.37787149663e-07
6.91198844946e-07
5.41647401955e-07
3.70596663995e-07
2.04074205292e-07
8.50537306901e-08
3.25813658237e-08
1.98574177909e-08
1.89706062373e-08
1.9549251974e-08
1.92898877374e-08
1.90853506289e-08
2.06640398813e-08
8.48011071483e-08
2.09263638221e-06
2.13812831712e-06
1.99806274461e-06
1.74704805018e-06
1.42039898368e-06
1.09591803381e-06
8.52020219735e-07
6.78865740737e-07
5.2278935292e-07
3.63516275661e-07
2.11768996267e-07
9.73614802554e-08
3.89376125015e-08
2.13417000566e-08
1.9082722553e-08
1.93842857799e-08
1.89828934537e-08
1.89824433199e-08
2.0193228904e-08
4.5201233237e-08
2.26826426815e-06
2.41340898387e-06
2.28639392157e-06
1.95818207328e-06
1.53557248365e-06
1.14666704254e-06
8.64951005951e-07
6.73605285039e-07
5.2210514576e-07
3.78902807723e-07
2.38342444747e-07
1.20380899582e-07
4.92980050848e-08
2.37977643611e-08
1.93114939526e-08
1.91022898438e-08
1.85702601771e-08
1.85341436097e-08
1.97581156757e-08
3.420600447e-08
2.59140077652e-06
2.79103220143e-06
2.59927184368e-06
2.157039159e-06
1.64945120032e-06
1.2112032517e-06
8.9614487112e-07
6.88992751123e-07
5.43457940138e-07
4.16706150331e-07
2.8558832086e-07
1.58536052774e-07
6.66878125197e-08
2.79848620719e-08
1.98102443748e-08
1.88072598316e-08
1.81230242696e-08
1.78340566402e-08
1.90207830484e-08
2.36340814538e-08
2.94626484388e-06
3.09384672909e-06
2.78257694357e-06
2.29683672306e-06
1.77271010959e-06
1.31114225609e-06
9.65593454507e-07
7.34729908525e-07
5.83891639699e-07
4.68243360468e-07
3.48499602058e-07
2.14304283884e-07
9.56461942922e-08
3.55150325002e-08
2.09336736799e-08
1.86844664009e-08
1.77575698661e-08
1.70984152034e-08
1.79221747787e-08
2.16091620996e-08
2.88103465098e-06
2.99421060219e-06
2.75422704942e-06
2.36625972795e-06
1.89452770437e-06
1.43675324319e-06
1.06877068866e-06
8.0681606834e-07
6.34945068683e-07
5.19714860573e-07
4.13100115737e-07
2.81099858977e-07
1.3788182266e-07
4.83331477262e-08
2.31953642844e-08
1.89219954039e-08
1.75409705701e-08
1.64618684906e-08
1.67179303633e-08
1.95320711226e-08
2.89019935358e-06
2.98477475397e-06
2.70385796148e-06
2.35491274467e-06
1.96347913819e-06
1.55149174534e-06
1.17672353246e-06
8.86133641203e-07
6.86329223437e-07
5.61627843563e-07
4.65174999417e-07
3.44173681598e-07
1.87580118108e-07
6.69653142189e-08
2.70276882383e-08
1.95358683822e-08
1.75085238865e-08
1.60006246332e-08
1.56233044249e-08
1.74890939104e-08
2.90742102477e-06
2.98960856002e-06
2.67644254109e-06
2.32781765538e-06
1.98194126226e-06
1.61473880265e-06
1.25874467008e-06
9.52985524102e-07
7.2967566367e-07
5.92413168297e-07
5.00689324221e-07
3.92638763498e-07
2.34529293391e-07
8.94344919529e-08
3.24206059602e-08
2.04817287237e-08
1.76342463297e-08
1.57003422545e-08
1.47144028169e-08
1.56930333442e-08
2.92608927583e-06
2.99185869676e-06
2.65584952012e-06
2.29849991979e-06
1.97725201029e-06
1.64357538516e-06
1.30254196189e-06
9.93179354213e-07
7.59930232404e-07
6.14229961872e-07
5.23413021185e-07
4.24859198129e-07
2.71673553636e-07
1.12455927268e-07
3.91402768755e-08
2.17710131801e-08
1.78219961013e-08
1.54982362996e-08
1.39553302897e-08
1.41345640472e-08
2.91237344297e-06
2.97886520415e-06
2.63337841492e-06
2.26846963233e-06
1.96000684474e-06
1.64773281819e-06
1.31851259531e-06
1.01140802658e-06
7.77975842731e-07
6.30590154869e-07
5.39882006411e-07
4.45510134396e-07
2.961583857e-07
1.31246281324e-07
4.61401132182e-08
2.32692790617e-08
1.79955569236e-08
1.52806445415e-08
1.32567162784e-08
1.27814531843e-08
2.89907379816e-06
2.96174257895e-06
2.61069665044e-06
2.24041305083e-06
1.93654754556e-06
1.63446058408e-06
1.31207881183e-06
1.01198033038e-06
7.86390889561e-07
6.43472958506e-07
5.54027353964e-07
4.59977214117e-07
3.10689457008e-07
1.43145937819e-07
5.13525014586e-08
2.44745759971e-08
1.80390089802e-08
1.49634939314e-08
1.25688864349e-08
1.15705548824e-08
2.86736212331e-06
2.93850959394e-06
2.58713019465e-06
2.21421873067e-06
1.91006912664e-06
1.60865217117e-06
1.28871419899e-06
1.00037599467e-06
7.8877762863e-07
6.54511393499e-07
5.67144820477e-07
4.70128759684e-07
3.17149025822e-07
1.48323170703e-07
5.41142196134e-08
2.51062756436e-08
1.785696381e-08
1.44801665443e-08
1.18583661239e-08
1.04502887604e-08
2.8567909035e-06
2.92214803493e-06
2.56481373783e-06
2.18790591306e-06
1.87959929937e-06
1.57358006051e-06
1.25570776981e-06
9.83976171843e-07
7.89529230211e-07
6.65302954961e-07
5.79314966497e-07
4.76074395303e-07
3.16728304638e-07
1.47777379391e-07
5.45107774172e-08
2.508756318e-08
1.74342674451e-08
1.38445887556e-08
1.10862044403e-08
9.39096294816e-09
2.85186467713e-06
2.91997221299e-06
2.5533312016e-06
2.16554066463e-06
1.84548226617e-06
1.53056248763e-06
1.21985120625e-06
9.6819491753e-07
7.90927276621e-07
6.76168917333e-07
5.89596540104e-07
4.77295403415e-07
3.10398102399e-07
1.42800192814e-07
5.29957395645e-08
2.44700065234e-08
1.67780457147e-08
1.3077894296e-08
1.02318724475e-08
8.36081415833e-09
2.86831405032e-06
2.93418139081e-06
2.5493007648e-06
2.14385917166e-06
1.80624976873e-06
1.48201889068e-06
1.18541321244e-06
9.54595077285e-07
7.92983717997e-07
6.86402981639e-07
5.96707799978e-07
4.73396289347e-07
2.99004545254e-07
1.34625976461e-07
5.01038758804e-08
2.33602904585e-08
1.59075012896e-08
1.21954431489e-08
9.29738930031e-09
7.3370581265e-09
2.89942690405e-06
2.95853102661e-06
2.54067564588e-06
2.11322992585e-06
1.7590681081e-06
1.43260491244e-06
1.1543284183e-06
9.42595395837e-07
7.95274751945e-07
6.95110268825e-07
5.99631071783e-07
4.64224707648e-07
2.83325118405e-07
1.24343217104e-07
4.63346880072e-08
2.18811857273e-08
1.4852051774e-08
1.12145274864e-08
8.29879486372e-09
6.32490752414e-09
2.94772896261e-06
2.98381685771e-06
2.51733926668e-06
2.06700243702e-06
1.70247066239e-06
1.38498987021e-06
1.12615068246e-06
9.31551593902e-07
7.98019800827e-07
7.01740060571e-07
5.97784524866e-07
4.4960951628e-07
2.64178883264e-07
1.12925217252e-07
4.2120557039e-08
2.01537221273e-08
1.36446047831e-08
1.01483597032e-08
7.25457006852e-09
5.31951117801e-09
3.01168365339e-06
2.99584965241e-06
2.47339783637e-06
1.99717049254e-06
1.63535126588e-06
1.33781682821e-06
1.09901386888e-06
9.2206099649e-07
8.01943394048e-07
7.06003017819e-07
5.90903533071e-07
4.29694260709e-07
2.42882275445e-07
1.01423495551e-07
3.78821470359e-08
1.83093910214e-08
1.23259657238e-08
9.01291779314e-09
6.19329366077e-09
4.33414795478e-09
3.1080142428e-06
3.01728862431e-06
2.4318687844e-06
1.92169410767e-06
1.56656141219e-06
1.2908976468e-06
1.07315115415e-06
9.16620340355e-07
8.07952331421e-07
7.07949213085e-07
5.78888557691e-07
4.05607973724e-07
2.21514408045e-07
9.1010903403e-08
3.40441065795e-08
1.64970335283e-08
1.09509606153e-08
7.83999426059e-09
5.15717488255e-09
3.4096401068e-09
3.20950051988e-06
3.04837492841e-06
2.40670998926e-06
1.86178420729e-06
1.50583293396e-06
1.24747952368e-06
1.05307212295e-06
9.18646106518e-07
8.17109217079e-07
7.07914837801e-07
5.61908901626e-07
3.79875517849e-07
2.02579537036e-07
8.27514161507e-08
3.09608561583e-08
1.4849478046e-08
9.57707347649e-09
6.66583755973e-09
4.18019997377e-09
2.57501294035e-09
3.26039069544e-06
3.04180282274e-06
2.37214168342e-06
1.81110999294e-06
1.45447277141e-06
1.21304740256e-06
1.04568907754e-06
9.31410914081e-07
8.30744701172e-07
7.05424775155e-07
5.41109874795e-07
3.56107194139e-07
1.8830140744e-07
7.73854547669e-08
2.88692728878e-08
1.34601295897e-08
8.25708301818e-09
5.51880937633e-09
3.27661789458e-09
1.84395370383e-09
3.2399229994e-06
2.98498279439e-06
2.32000619909e-06
1.76315734481e-06
1.4140426955e-06
1.19525197839e-06
1.05714231549e-06
9.58150534802e-07
8.4925861734e-07
6.98751272434e-07
5.19144016963e-07
3.37846473491e-07
1.8012649494e-07
7.53376180851e-08
2.79360029205e-08
1.2401280832e-08
7.04384539169e-09
4.42484782543e-09
2.45709525514e-09
1.2336366045e-09
3.1503662472e-06
2.86948958044e-06
2.24334737849e-06
1.72015701319e-06
1.39394657425e-06
1.20445307331e-06
1.09368298506e-06
1.00119143773e-06
8.69280758956e-07
6.87253506667e-07
4.99931627611e-07
3.27576669462e-07
1.78595267864e-07
7.6980030111e-08
2.84444160688e-08
1.17739668108e-08
5.99317485701e-09
3.41655930532e-09
1.74876043667e-09
7.56143228937e-10
2.98821871048e-06
2.72335891791e-06
2.18029668026e-06
1.71500764724e-06
1.41961167475e-06
1.25513520429e-06
1.16122008553e-06
1.0580734528e-06
8.85559318873e-07
6.73626267815e-07
4.869985173e-07
3.25530178697e-07
1.84467718744e-07
8.34084525225e-08
3.08195928725e-08
1.1665728857e-08
5.15404282589e-09
2.53824210883e-09
1.16412286405e-09
4.17957381691e-10
2.84285288432e-06
2.64868802285e-06
2.20189293056e-06
1.78848299861e-06
1.50958523163e-06
1.35268301534e-06
1.25637114254e-06
1.119026995e-06
8.97451532559e-07
6.65692353415e-07
4.83234210037e-07
3.33673465553e-07
2.00274416999e-07
9.54747204915e-08
3.51613855002e-08
1.20619739338e-08
4.53708260406e-09
1.82592951051e-09
7.18635443198e-10
2.11123941704e-10
2.8260044232e-06
2.73075900373e-06
2.34437564307e-06
1.93948411687e-06
1.64537803969e-06
1.47762984784e-06
1.35996869646e-06
1.1775045546e-06
9.19151451439e-07
6.71591390004e-07
4.89317375212e-07
3.5415491369e-07
2.27964665026e-07
1.14747091158e-07
4.2271256477e-08
1.31531792492e-08
4.18730282887e-09
1.30821538337e-09
4.15839108491e-10
1.05575144229e-10
2.94976239868e-06
2.92987053042e-06
2.54259850377e-06
2.09594082039e-06
1.77329054252e-06
1.59130770423e-06
1.45296978586e-06
1.24176508027e-06
9.58333171257e-07
6.95146201917e-07
5.11865932193e-07
3.87741907067e-07
2.67849165371e-07
1.43925697229e-07
5.38400860269e-08
1.5345715908e-08
4.15762478817e-09
9.7982837364e-10
2.34572927294e-10
6.02703660003e-11
3.1713166789e-06
3.15205759869e-06
2.67991626913e-06
2.1837045394e-06
1.84734816274e-06
1.66207455292e-06
1.52425541397e-06
1.31212370609e-06
1.02201843769e-06
7.48368311252e-07
5.5465655743e-07
4.28986097946e-07
3.1591814765e-07
1.84584619547e-07
7.220065394e-08
1.93561353741e-08
4.51075336561e-09
8.17555709542e-10
1.38225670652e-10
4.33232439776e-11
3.25817181177e-06
3.20326450982e-06
2.69415829943e-06
2.19816186853e-06
1.86408862788e-06
1.68086114751e-06
1.56191546445e-06
1.38339702789e-06
1.11081155245e-06
8.296139067e-07
6.13312815707e-07
4.72012563745e-07
3.63464030491e-07
2.33323243185e-07
9.91056443841e-08
2.63003476249e-08
5.4313843248e-09
7.93926303151e-10
9.47066581361e-11
3.80292680666e-11
3.15942195364e-06
3.11480477198e-06
2.64944387109e-06
2.17906961198e-06
1.85045040513e-06
1.67088749907e-06
1.57193577873e-06
1.43472877595e-06
1.19882751386e-06
9.22211419875e-07
6.81379179005e-07
5.14585659494e-07
4.03483639416e-07
2.81698872225e-07
1.33951761046e-07
3.77159631702e-08
7.38593822561e-09
9.19942287185e-10
8.41218077218e-11
3.72837945225e-11
3.06527306545e-06
3.03462835604e-06
2.59982226577e-06
2.14856105682e-06
1.8269757768e-06
1.65211653386e-06
1.5688372764e-06
1.46299994178e-06
1.2582280436e-06
9.9479607713e-07
7.44135116934e-07
5.55801273387e-07
4.34750108384e-07
3.21644227293e-07
1.72712283555e-07
5.52046896953e-08
1.12899547255e-08
1.33708333018e-09
1.06056809513e-10
3.8839032856e-11
2.97072612405e-06
2.95691546845e-06
2.54311578816e-06
2.10954275788e-06
1.79861514535e-06
1.62986971237e-06
1.55710508222e-06
1.46943444979e-06
1.28518846301e-06
1.03791565249e-06
7.90485118044e-07
5.92255925002e-07
4.61717862095e-07
3.52299788206e-07
2.08565513953e-07
7.66371734849e-08
1.74163102465e-08
2.27131264115e-09
1.84762721654e-10
4.41818310548e-11
2.88568649024e-06
2.88289908631e-06
2.48475105346e-06
2.06607393148e-06
1.76587533668e-06
1.60360077253e-06
1.53754226205e-06
1.45736986034e-06
1.28484175486e-06
1.05358019425e-06
8.16919162444e-07
6.2022529492e-07
4.86374222757e-07
3.77665053654e-07
2.38204031225e-07
9.76941951278e-08
2.48396947033e-08
3.73840306779e-09
3.39998026175e-10
5.68035279963e-11
2.81998738063e-06
2.83530251892e-06
2.4466428914e-06
2.03063573235e-06
1.73388011618e-06
1.57588559264e-06
1.51276214016e-06
1.43170548556e-06
1.26421721628e-06
1.04641260775e-06
8.24219760977e-07
6.38504716952e-07
5.08222973883e-07
3.99591057339e-07
2.60905030151e-07
1.1480024679e-07
3.19043051878e-08
5.47496020614e-09
5.74966619319e-10
7.87657583164e-11
2.79491080348e-06
2.82770266815e-06
2.43612296293e-06
2.00824197162e-06
1.70750771037e-06
1.55192481838e-06
1.48809996105e-06
1.39903108371e-06
1.230281627e-06
1.02291875539e-06
8.18554004933e-07
6.50141167435e-07
5.27807324866e-07
4.18429909769e-07
2.76368822472e-07
1.25599760497e-07
3.68301497013e-08
6.9426092943e-09
8.35152058273e-10
1.0815954152e-10
2.80598989845e-06
2.85297286836e-06
2.44490482842e-06
1.99674065519e-06
1.6905846667e-06
1.53787173101e-06
1.47096431131e-06
1.3699966951e-06
1.1962873366e-06
9.97144979519e-07
8.11626220453e-07
6.61851219212e-07
5.47404570916e-07
4.34286206904e-07
2.84309010432e-07
1.29072673801e-07
3.85726219858e-08
7.69298982524e-09
1.03502050422e-09
1.3851442237e-10
2.84490316094e-06
2.89102763955e-06
2.4572508955e-06
1.99090832593e-06
1.68461186089e-06
1.53727464586e-06
1.46750297168e-06
1.35668802849e-06
1.17892153381e-06
9.86627859501e-07
8.16848038916e-07
6.81244365204e-07
5.69685620633e-07
4.47339815404e-07
2.85109633967e-07
1.26042819891e-07
3.74411241068e-08
7.70851725716e-09
1.1381412473e-09
1.64213432149e-10
2.88736013993e-06
2.90752737942e-06
2.4580333386e-06
1.98602607135e-06
1.68706481961e-06
1.54877702117e-06
1.47969281764e-06
1.36606517849e-06
1.18872414614e-06
1.00182304487e-06
8.41328262073e-07
7.1167209801e-07
5.95170352185e-07
4.57546839022e-07
2.80533934476e-07
1.19256726043e-07
3.48550174602e-08
7.34992435188e-09
1.17936510439e-09
1.85432551385e-10
2.93059394423e-06
2.92655481681e-06
2.47246327632e-06
2.00084521399e-06
1.70834284266e-06
1.57670858985e-06
1.50824022588e-06
1.39634180396e-06
1.22365701893e-06
1.04103624879e-06
8.83366725163e-07
7.51070837516e-07
6.22210071527e-07
4.65601441878e-07
2.74283719567e-07
1.12512392978e-07
3.24997284819e-08
7.04450945827e-09
1.21617647496e-09
2.06083439066e-10
2.99229391392e-06
2.98269149117e-06
2.52938657066e-06
2.05803944342e-06
1.76509295646e-06
1.62985650274e-06
1.55247658439e-06
1.438840233e-06
1.27375750975e-06
1.09534743008e-06
9.36253189318e-07
7.94935484082e-07
6.49574573128e-07
4.7430439186e-07
2.71775279818e-07
1.09467805803e-07
3.16719962352e-08
7.07861947584e-09
1.29034757085e-09
2.29315368492e-10
3.09955922829e-06
3.09534303316e-06
2.63606929987e-06
2.15856275004e-06
1.85815808871e-06
1.70392139544e-06
1.60236691382e-06
1.48129377927e-06
1.32469050555e-06
1.15504614061e-06
9.92214627382e-07
8.39413071818e-07
6.78458707255e-07
4.88988053252e-07
2.78630632349e-07
1.12846861317e-07
3.31286400627e-08
7.59456325562e-09
1.42260905667e-09
2.56341182447e-10
3.22036661807e-06
3.21422617976e-06
2.74523734191e-06
2.27325005926e-06
1.96749929293e-06
1.78405730211e-06
1.65078513831e-06
1.51722690091e-06
1.3661825322e-06
1.20511961627e-06
1.04341717331e-06
8.82175063159e-07
7.11605871296e-07
5.14614404768e-07
2.98213895529e-07
1.24006422836e-07
3.72151298764e-08
8.65337407961e-09
1.62197904373e-09
2.87079491658e-10
3.24375371281e-06
3.21165907163e-06
2.77342841136e-06
2.34186134716e-06
2.05217893196e-06
1.84975218182e-06
1.68807196954e-06
1.53991583692e-06
1.39068466338e-06
1.23732702603e-06
1.08051511081e-06
9.20729294578e-07
7.49392530506e-07
5.50909961499e-07
3.29044034966e-07
1.42079710962e-07
4.37158598873e-08
1.02181529489e-08
1.88595009175e-09
3.22342445179e-10
2.95603835815e-06
3.05051283329e-06
2.69480111748e-06
2.34037544605e-06
2.08845306778e-06
1.88122250062e-06
1.69793132372e-06
1.53626902553e-06
1.38758796454e-06
1.24402667992e-06
1.09995307468e-06
9.50896213812e-07
7.86871399456e-07
5.912222105e-07
3.64288510046e-07
1.6316727806e-07
5.14310742787e-08
1.20539358487e-08
2.18616448366e-09
3.6134972774e-10
2.53341606295e-06
2.93320791694e-06
2.67157476163e-06
2.36159818541e-06
2.13552831833e-06
1.91587989569e-06
1.69910267486e-06
1.51297148751e-06
1.35963386544e-06
1.22692785111e-06
1.10063071832e-06
9.6882084096e-07
8.1724424299e-07
6.26230136635e-07
3.94465225264e-07
1.81178532329e-07
5.81732875315e-08
1.3686208838e-08
2.45836720533e-09
3.99378885983e-10
2.4716592626e-06
2.99289805386e-06
2.66578153533e-06
2.36704122361e-06
2.16649467934e-06