/*--------------------------------*- C++ -*----------------------------------*\
| =========                 |                                                 |
| \\      /  F ield         | OpenFOAM: The Open Source CFD Toolbox           |
|  \\    /   O peration     | Version:  2312                                  |
|   \\  /    A nd           | Website:  www.openfoam.com                      |
|    \\/     M anipulation  |                                                 |
\*---------------------------------------------------------------------------*/
FoamFile
{
    version     2.0;
    format      ascii;
    arch        "LSB;label=32;scalar=64";
    class       surfaceScalarField;
    location    "0.585/water";
    object      phi;
}
// * * * * * * * * * * * * * * * * * * * * * * * * * * * * * * * * * * * * * //

dimensions      [0 3 -1 0 0 0 0];

oriented        oriented;

internalField   nonuniform List<scalar> 
2929
(
1.58795219926e-07
5.21072639111e-07
1.44039705672e-07
5.42852392311e-07
1.39292384819e-07
5.74661670355e-07
1.38497077208e-07
6.12785331744e-07
1.39541893759e-07
6.47144720067e-07
1.44550505246e-07
6.34035658285e-07
1.4681285431e-07
5.75756607107e-07
1.44862940641e-07
5.26396394895e-07
1.40009314754e-07
4.95751973963e-07
1.32252409528e-07
4.80200261557e-07
1.21417702157e-07
4.78336000077e-07
1.1006914608e-07
4.77742285784e-07
9.79639216075e-08
4.71568621716e-07
8.44581792141e-08
4.6371370345e-07
7.00921176257e-08
4.58086087233e-07
5.6287516696e-08
4.66709665627e-07
3.99368707899e-08
4.6251149611e-07
2.26566318438e-08
4.38377387187e-07
5.09079564504e-09
3.89034712187e-07
3.39099815613e-07
-8.93160471479e-09
1.58312140697e-07
5.20571225844e-07
1.42365558061e-07
5.41203057088e-07
1.36647330919e-07
5.73816242817e-07
1.35328902089e-07
6.11691460658e-07
1.3839951713e-07
6.43361479668e-07
1.51067684229e-07
6.21248233114e-07
1.59484292423e-07
5.67415447814e-07
1.61067775274e-07
5.24937765169e-07
1.5752153625e-07
4.99419039614e-07
1.49106593936e-07
4.88719859755e-07
1.3749566304e-07
4.90053236407e-07
1.25631781639e-07
4.8971428687e-07
1.13106530457e-07
4.84212444281e-07
9.92269946106e-08
4.7771844949e-07
8.34988975775e-08
4.73944019257e-07
6.7500551428e-08
4.82879168609e-07
4.9444828659e-08
4.80760631681e-07
3.05087371751e-08
4.57513902736e-07
1.12559588899e-08
4.08447536359e-07
3.54974825755e-07
-4.53940104437e-09
1.54474647362e-07
5.22633943906e-07
1.39801518348e-07
5.38764724046e-07
1.33530902935e-07
5.73432860857e-07
1.32194978439e-07
6.10792773456e-07
1.40950723109e-07
6.33939224852e-07
1.59414374528e-07
6.02671411563e-07
1.71134266843e-07
5.55766868241e-07
1.74387954578e-07
5.21800745139e-07
1.71028727563e-07
5.02889075998e-07
1.61160964266e-07
4.98686671763e-07
1.49265533796e-07
5.02050102607e-07
1.37247786812e-07
5.01843234219e-07
1.24722142989e-07
4.96855396969e-07
1.10854818383e-07
4.91710869919e-07
9.46343458797e-08
4.90305846938e-07
7.71837281995e-08
5.00504735865e-07
5.80439538775e-08
5.00102464901e-07
3.73835051293e-08
4.78378873799e-07
1.55006083609e-08
4.30502260039e-07
3.73053470086e-07
-2.48142376584e-09
1.50737094594e-07
5.30249253503e-07
1.38106424842e-07
5.34453445332e-07
1.31274880654e-07
5.73797384918e-07
1.32345779111e-07
6.07471771594e-07
1.49743683854e-07
6.15857928603e-07
1.702852239e-07
5.8199418719e-07
1.81853328627e-07
5.44253523878e-07
1.84660013263e-07
5.1909533294e-07
1.79905886203e-07
5.07740815943e-07
1.68535994327e-07
5.10152161104e-07
1.56567444357e-07
5.14125882188e-07
1.44686368913e-07
5.13835063233e-07
1.32426783943e-07
5.09238187219e-07
1.18977074532e-07
5.052927496e-07
1.02704470561e-07
5.06713213434e-07
8.50227818733e-08
5.18365307478e-07
6.57563161166e-08
5.19572456839e-07
4.34060755155e-08
5.00939067136e-07
1.84880208742e-08
4.55605991197e-07
3.93676830103e-07
-2.01950592908e-09
1.39898026629e-07
5.48500557472e-07
1.26570444394e-07
5.32405771329e-07
1.25076480662e-07
5.69577646237e-07
1.35211001219e-07
5.95296671427e-07
1.58921582963e-07
5.91493513927e-07
1.78660747832e-07
5.62123145391e-07
1.88522915601e-07
5.34440302618e-07
1.89735783169e-07
5.179722954e-07
1.81964732481e-07
5.15601240965e-07
1.7012959333e-07
5.22087447947e-07
1.58418369687e-07
5.25939404026e-07
1.46967025968e-07
5.25400484005e-07
1.35288281032e-07
5.21037803878e-07
1.22572795837e-07
5.1813592056e-07
1.06907044224e-07
5.22532201246e-07
9.04563275767e-08
5.34997318476e-07
7.21148537584e-08
5.38120512721e-07
4.79711193263e-08
5.25299960669e-07
2.01212353175e-08
4.83659012113e-07
4.16508479611e-07
-2.5725679854e-09
1.36868006937e-07
5.70652082244e-07
1.22256072505e-07
5.32284201031e-07
1.25385900476e-07
5.61191596548e-07
1.42208673734e-07
5.76602289206e-07
1.65386048738e-07
5.67706757079e-07
1.81996451422e-07
5.45390457389e-07
1.89354588215e-07
5.27123170982e-07
1.87446616963e-07
5.19956578708e-07
1.76833245349e-07
5.26301844542e-07
1.65208854469e-07
5.3380559419e-07
1.53980350745e-07
5.37276195328e-07
1.4321641426e-07
5.36278367395e-07
1.32246811512e-07
5.3213267452e-07
1.20509960258e-07
5.30012046587e-07
1.06114232268e-07
5.37072267717e-07
9.22001372653e-08
5.49096062498e-07
7.52812148514e-08
5.55248349629e-07
4.97700690982e-08
5.51039771253e-07
2.03092426271e-08
5.1334314759e-07
4.40852337922e-07
-3.87359104945e-09
1.36783384578e-07
5.92029017963e-07
1.22220416203e-07
5.31904185443e-07
1.27863465743e-07
5.50297971307e-07
1.45659532559e-07
5.57005552799e-07
1.65361553401e-07
5.47447371666e-07
1.78288989625e-07
5.32358385213e-07
1.8254202239e-07
5.22905903585e-07
1.75957494979e-07
5.26609848704e-07
1.64650765248e-07
5.37692622757e-07
1.53470537016e-07
5.45088610659e-07
1.43011229346e-07
5.47841572791e-07
1.33011862607e-07
5.46394518901e-07
1.22841076394e-07
5.42430958434e-07
1.1199478982e-07
5.40986212653e-07
9.96665567573e-08
5.49566551733e-07
8.85293375889e-08
5.60419094178e-07
7.27970519363e-08
5.71192495042e-07
4.78943843178e-08
5.76185482435e-07
1.86921664285e-08
5.42788172775e-07
4.66219023461e-07
-6.49136977189e-09
1.40191197112e-07
6.10097012741e-07
1.26956955401e-07
5.2946908618e-07
1.32573681642e-07
5.39043476298e-07
1.46937439173e-07
5.4076322473e-07
1.61136968088e-07
5.32704208588e-07
1.69126991179e-07
5.24271819278e-07
1.68231633283e-07
5.23831523215e-07
1.58039801609e-07
5.36871088454e-07
1.46762689493e-07
5.49067044513e-07
1.36083936687e-07
5.5586871672e-07
1.26307606006e-07
5.57731590242e-07
1.17148937747e-07
5.55676316893e-07
1.07817424873e-07
5.51890883332e-07
9.78437211567e-08
5.51114911105e-07
8.82957472394e-08
5.59278873404e-07
7.93487547604e-08
5.69550861789e-07
6.47263040658e-08
5.86031141535e-07
4.28581801237e-08
5.98309539644e-07
1.49042231987e-08
5.71001202114e-07
4.92684782957e-07
-1.13572051592e-08
1.4399218964e-07
6.23481741473e-07
1.31854297679e-07
5.25042316365e-07
1.35905956428e-07
5.28893812367e-07
1.45145181018e-07
5.29523775887e-07
1.52766358285e-07
5.24530744257e-07
1.5484310896e-07
5.22101928797e-07
1.47408252299e-07
5.31299814138e-07
1.35784086361e-07
5.48580593119e-07
1.24332570744e-07
5.60614621076e-07
1.13790695277e-07
5.66522664723e-07
1.04562869386e-07
5.67079922023e-07
9.61040372388e-08
5.64262214734e-07
8.7756310616e-08
5.6038348269e-07
7.92189887475e-08
5.5979271805e-07
7.28130888904e-08
5.6585243294e-07
6.59611827404e-08
5.76587254917e-07
5.35511463691e-08
5.9866418927e-07
3.57667258206e-08
6.16360266327e-07
1.06575452203e-08
5.96390246716e-07
5.20229364588e-07
-1.66573054168e-08
1.50217366158e-07
6.29508273498e-07
1.36449612528e-07
5.2237291875e-07
1.33754398107e-07
5.25704722694e-07
1.34780742851e-07
5.26624225721e-07
1.35217499305e-07
5.23600464435e-07
1.31697395566e-07
5.25551084626e-07
1.20269189874e-07
5.427818646e-07
1.0803567755e-07
5.60901458834e-07
9.61728687342e-08
5.72587921831e-07
8.55913558311e-08
5.77222963625e-07
7.65627562264e-08
5.76234155433e-07
6.86497298903e-08
5.72314118797e-07
6.13590721779e-08
5.67804675561e-07
5.53723642976e-08
5.65941807598e-07
5.20506237628e-08
5.69341832726e-07
4.78348406427e-08
5.80989670445e-07
3.92955497059e-08
6.07434948904e-07
2.56616568394e-08
6.30273186255e-07
7.0007379289e-09
6.15341489207e-07
5.48305380088e-07
-2.08238009759e-08
1.65821281978e-07
6.18549524665e-07
1.43598315012e-07
5.27705427903e-07
1.2781433189e-07
5.35625897156e-07
1.1670971337e-07
5.35998242378e-07
1.08672948836e-07
5.31226466555e-07
9.96779451051e-08
5.34505773924e-07
8.71701875922e-08
5.55353480063e-07
7.43619232348e-08
5.73816450545e-07
6.19824861227e-08
5.8508597911e-07
5.09256266406e-08
5.88405611674e-07
3.98147757342e-08
5.8748716357e-07
3.20394807365e-08
5.80216615497e-07
2.73940819969e-08
5.72609281122e-07
2.53617751783e-08
5.68133132964e-07
2.50493795997e-08
5.69820183657e-07
2.44575674774e-08
5.81770574515e-07
2.1583113753e-08
6.10548502669e-07
1.37808875932e-08
6.38360188566e-07
3.04488939727e-09
6.26382005791e-07
5.75587108233e-07
-2.39512270714e-08
1.67008178175e-07
6.05492349125e-07
1.3510139661e-07
5.43197017107e-07
1.08285374434e-07
5.5681836342e-07
8.79519005558e-08
5.54792381654e-07
7.36806269603e-08
5.45189478814e-07
6.10980548676e-08
5.47087061812e-07
4.91649908267e-08
5.67378523741e-07
3.63894653341e-08
5.86705568716e-07
2.14069817577e-08
6.0018725707e-07
4.88463784641e-09
6.05071279857e-07
-6.92028158952e-09
5.9943252477e-07
-1.12900613577e-08
5.84749297489e-07
-1.13246495789e-08
5.72799086407e-07
-9.66476662786e-09
5.66626975643e-07
-7.04391994061e-09
5.67360744352e-07
-3.29067757425e-09
5.78206068794e-07
1.08505857497e-09
6.06415710033e-07
7.0951564624e-10
6.39035614691e-07
-4.26947971689e-09
6.31674158343e-07
5.94857886968e-07
-2.32164366374e-08
1.54646546937e-07
6.04788500692e-07
1.13820946894e-07
5.68033789554e-07
8.25089293638e-08
5.82682619081e-07
5.88600585121e-08
5.76999167017e-07
4.11548966531e-08
5.62638775094e-07
2.53053423179e-08
5.62962427573e-07
1.14989276324e-08
5.81273987152e-07
-5.7101011367e-09
6.04023874838e-07
-2.82656309067e-08
6.22891488391e-07
-4.88184230078e-08
6.2579052017e-07
-5.52084483546e-08
6.06005630856e-07
-5.24545232077e-08
5.82159203971e-07
-4.77249636082e-08
5.68217510511e-07
-4.32048550009e-08
5.62253300667e-07
-3.81387916638e-08
5.62450678693e-07
-3.10233960198e-08
5.71273961686e-07
-2.03154176254e-08
5.95946443672e-07
-1.29757416131e-08
6.31993526727e-07
-1.45845978201e-08
6.33604196051e-07
6.03014198186e-07
-2.24098433195e-08
1.36997179762e-07
6.25751069572e-07
9.44738105141e-08
5.95432659381e-07
7.65044345277e-08
5.95074791734e-07
6.21149734602e-08
5.89646114016e-07
4.38268207061e-08
5.80523271346e-07
2.1233338246e-08
5.85545381824e-07
-3.76171825283e-09
6.06369924865e-07
-3.44097400162e-08
6.34835553598e-07
-6.52975309654e-08
6.5398268969e-07
-8.10061273224e-08
6.41722049546e-07
-8.06707937037e-08
6.0587038756e-07
-7.40414250678e-08
5.75696938135e-07
-6.71402667251e-08
5.61463004913e-07
-6.12079336587e-08
5.56465447223e-07
-5.55594125577e-08
5.56955447888e-07
-4.81728086177e-08
5.64064439141e-07
-3.49269621251e-08
5.82929090441e-07
-1.99849435389e-08
6.17349773568e-07
-1.80586347546e-08
6.32009287218e-07
6.06840446472e-07
-2.15442165436e-08
1.08791741862e-07
6.79198212808e-07
8.38318680934e-08
6.06527058792e-07
8.99481036452e-08
5.83452549605e-07
9.55213908403e-08
5.81942716801e-07
8.50512638207e-08
5.90313398396e-07
5.97244188115e-08
6.10773784179e-07
2.35138378541e-08
6.42711656738e-07
-1.6532075513e-08
6.75112923559e-07
-4.7514498267e-08
6.85238004887e-07
-6.18075198448e-08
6.56278708956e-07
-6.48106786535e-08
6.09096431422e-07
-6.16599208157e-08
5.72724931417e-07
-5.6449071162e-08
5.56403992895e-07
-5.2378530524e-08
5.52541264483e-07
-4.92491661154e-08
5.53981025889e-07
-4.52167285339e-08
5.6020875421e-07
-3.48637223207e-08
5.72792993883e-07
-1.76867716804e-08
6.00456724855e-07
-1.28559435004e-08
6.27519552402e-07
6.10277499082e-07
-1.59366867074e-08
1.14073590009e-07
7.23331614971e-07
1.06789854311e-07
5.97403742182e-07
1.19583733929e-07
5.63743117856e-07
1.33657703877e-07
5.65013464875e-07
1.34855637115e-07
5.8805737684e-07
1.1821156186e-07
6.27154663237e-07
8.63359474823e-08
6.74680491392e-07
4.95829820533e-08
7.12115600602e-07
2.05311296603e-08
7.14592117793e-07
1.51785233772e-09
6.75587030729e-07
-9.78931306441e-09
6.2065768162e-07
-1.48345304105e-08
5.7797085224e-07
-1.59221983107e-08
5.57650605078e-07
-1.72891442261e-08
5.54057660249e-07
-1.96008755926e-08
5.56451469553e-07
-2.1171460174e-08
5.61960421774e-07
-1.75487316792e-08
5.69378538862e-07
-5.17206262912e-09
5.88341321712e-07
1.47360448203e-09
6.21208296062e-07
6.15835702228e-07
-3.72747993896e-09
1.53284648077e-07
7.22170944539e-07
1.49038696561e-07
5.81295682633e-07
1.58213924156e-07
5.45941307875e-07
1.69394774796e-07
5.50303167685e-07
1.74124447413e-07
5.81985313712e-07
1.65857264373e-07
6.35028550471e-07
1.44353468472e-07
6.9622240542e-07
1.18853522224e-07
7.37849315092e-07
9.46829031081e-08
7.39069838218e-07
7.51274649769e-08
6.9545628842e-07
6.02142455236e-08
6.35850680364e-07
4.90422608446e-08
5.89365269924e-07
4.05489215571e-08
5.6631166806e-07
3.24057610661e-08
5.62352141654e-07
2.35271114992e-08
5.65492484238e-07
1.56394114011e-08
5.70034357271e-07
1.20239999223e-08
5.73198200863e-07
1.57905676626e-08
5.84812581135e-07
2.0501930892e-08
6.16820312296e-07
6.24958383352e-07
1.17487939483e-08
1.64390558681e-07
7.10199546899e-07
1.6772628137e-07
5.56115693761e-07
1.78096249565e-07
5.26390581515e-07
1.8776977988e-07
5.36976296043e-07
1.91596874131e-07
5.76793768929e-07
1.85833900528e-07
6.40387224624e-07
1.72129390821e-07
7.09955479893e-07
1.58700970982e-07
7.51501001331e-07
1.44948845613e-07
7.53126076897e-07
1.32419289184e-07
7.08302834437e-07
1.20147221021e-07
6.48407987777e-07
1.07532463277e-07
6.0220780121e-07
9.47397653689e-08
5.79275005212e-07
8.12066697741e-08
5.76037587226e-07
6.71136375909e-08
5.79752742568e-07
5.45589785192e-08
5.82781316836e-07
4.52598248958e-08
5.8269900869e-07
4.04542992799e-08
5.89838265861e-07
3.89559452359e-08
6.18616957905e-07
6.38479511297e-07
2.58125286035e-08
1.55089794742e-07
7.06467398456e-07
1.62005026499e-07
5.28172637247e-07
1.73063576857e-07
5.06941987224e-07
1.81594832722e-07
5.25294456554e-07
1.84474639212e-07
5.72803399846e-07
1.80399253781e-07
6.44167643595e-07
1.74681679724e-07
7.15741990309e-07
1.71177663722e-07
7.55237138521e-07
1.71011867607e-07
7.53593857385e-07
1.69177524022e-07
7.10449210199e-07
1.62489242566e-07
6.55376217191e-07
1.51350530567e-07
6.13569981868e-07
1.36796770637e-07
5.93997228607e-07
1.19592298218e-07
5.93398149719e-07
1.02005361172e-07
5.97515007032e-07
8.67995715778e-08
5.98182197393e-07
7.40545807333e-08
5.95641001686e-07
6.34244699494e-08
6.00675501479e-07
5.48055412054e-08
6.27515871034e-07
6.55066942563e-07
3.85872969561e-08
1.39058021837e-07
7.22730670491e-07
1.40996514517e-07
5.09012257628e-07
1.47493561173e-07
4.94203902198e-07
1.52662657385e-07
5.17946189385e-07
1.54297118784e-07
5.70464120576e-07
1.53702137555e-07
6.44633170327e-07
1.57522887376e-07
7.12052585847e-07
1.6666207901e-07
7.46348760924e-07
1.79647818087e-07
7.40909192628e-07
1.87946082119e-07
7.02453440717e-07
1.87506800096e-07
6.56082048491e-07
1.78910852876e-07
6.22375650369e-07
1.62968348777e-07
6.10101933012e-07
1.4359292551e-07
6.12936056193e-07
1.24481112985e-07
6.16811694285e-07
1.07318068296e-07
6.15540274799e-07
9.26979473221e-08
6.10450576629e-07
7.89107277152e-08
6.14658484924e-07
6.44405318051e-08
6.42253362735e-07
6.74286749158e-07
4.56021939313e-08
1.42221552564e-07
7.33877911279e-07
1.32376311637e-07
5.03043685845e-07
1.27345991083e-07
4.94340374836e-07
1.24166453788e-07
5.19651300426e-07
1.21794892509e-07
5.72441723682e-07
1.24090801172e-07
6.42338697492e-07
1.35338616881e-07
7.00983563019e-07
1.54188982303e-07
7.27757875927e-07
1.75131965179e-07
7.20254547977e-07
1.89651669945e-07
6.88210705218e-07
1.93320248908e-07
6.52648796488e-07
1.85794451155e-07
6.30083076033e-07
1.68770982721e-07
6.27281515486e-07
1.49180564652e-07
6.32695490602e-07
1.30667362363e-07
6.35513223612e-07
1.13385520945e-07
6.33016175165e-07
9.80683148862e-08
6.25946764851e-07
8.30028289589e-08
6.29909971107e-07
6.56669850695e-08
6.59852413645e-07
6.95038915825e-07
4.52756599538e-08
1.52644838625e-07
7.35843571564e-07
1.34451281306e-07
5.04827175982e-07
1.18498389785e-07
5.05369993938e-07
1.04845594564e-07
5.31993474556e-07
9.65159425146e-08
5.80495834841e-07
9.90960472904e-08
6.398173819e-07
1.13308660519e-07
6.86962082509e-07
1.35550786213e-07
7.05760831377e-07
1.58699225041e-07
6.97363176242e-07
1.74175307309e-07
6.72969474246e-07
1.77557874238e-07
6.49458189868e-07
1.6844614462e-07
6.39347953538e-07
1.52356381573e-07
6.43525069824e-07
1.35014937711e-07
6.5020930067e-07
1.18680201126e-07
6.52034566314e-07
1.04053147516e-07
6.47830294907e-07
8.91251476796e-08
6.41042598202e-07
7.44602970813e-08
6.4475288169e-07
5.74494464683e-08
6.77121364531e-07
7.15232467383e-07
3.76262510816e-08
1.69956284629e-07
7.15632975105e-07
1.44416771524e-07
5.12122759875e-07
1.1957034808e-07
5.24576822016e-07
9.53455833187e-08
5.54746877087e-07
7.86072448256e-08
5.96956044984e-07
7.62323890745e-08
6.42259468305e-07
8.73244527294e-08
6.76051262628e-07
1.0674948825e-07
6.86552934436e-07
1.26708815044e-07
6.77619126145e-07
1.38437120536e-07
6.61429209568e-07
1.38340089572e-07
6.49709354924e-07
1.28294823054e-07
6.4953412681e-07
1.15402187871e-07
6.56570580728e-07
1.02380036557e-07
6.63402831837e-07
9.0526983404e-08
6.64069450279e-07
8.04524289935e-08
6.58078197769e-07
6.72222833023e-08
6.54432715185e-07
5.48212589855e-08
6.57326823206e-07
4.07724381311e-08
6.91426411481e-07
7.3265154451e-07
2.37048486547e-08
1.80448554835e-07
6.89048191806e-07
1.45434083041e-07
5.30516506673e-07
1.12851552254e-07
5.51555420808e-07
8.09022858016e-08
5.85189821199e-07
5.55626203718e-08
6.22044769239e-07
4.37290752659e-08
6.54175339922e-07
4.74889016322e-08
6.72460230649e-07
6.0469739258e-08
6.73758790219e-07
7.3662158402e-08
6.64601936297e-07
7.97738148013e-08
6.55469498848e-07
7.73078242827e-08
6.52310485906e-07
7.00589882946e-08
6.56920025214e-07
6.24143342061e-08
6.6436530397e-07
5.57965163353e-08
6.70186991315e-07
5.06514267664e-08
6.69384177033e-07
4.47098169367e-08
6.64175401861e-07
3.51350283102e-08
6.64164232804e-07
2.6813063764e-08
6.65815736252e-07
1.85395615549e-08
6.99948398597e-07
7.43808246502e-07
7.73699829687e-09
1.72027868656e-07
6.74816336303e-07
1.20625470392e-07
5.68596308605e-07
7.4071577552e-08
5.93730753084e-07
3.18469777658e-08
6.26384929907e-07
-3.44245159423e-10
6.54198158363e-07
-1.81015778761e-08
6.72088030055e-07
-1.98197851107e-08
6.74356344736e-07
-1.24474429649e-08
6.66555174133e-07
-4.3525732824e-09
6.56656827599e-07
-1.4720050162e-10
6.51396800326e-07
1.88640522224e-10
6.5210032773e-07
-5.14245398771e-10
6.57753049216e-07
-2.46114104056e-10
6.64237516011e-07
1.99106745544e-09
6.6809996536e-07
4.16252441708e-09
6.67360993072e-07
2.21625982858e-09
6.66264097278e-07
-1.98517730333e-09
6.68511953235e-07
-5.8168498812e-09
6.69802368592e-07
-5.81327585191e-09
7.00180401029e-07
7.45590362893e-07
-7.26791195112e-09
1.46051293866e-07
6.83600232497e-07
5.85890394483e-08
6.43548523996e-07
-1.86295993472e-08
6.68038866663e-07
-7.91635455661e-08
6.86949447828e-07
-1.13347962069e-07
6.88596043623e-07
-1.24115926996e-07
6.83053461447e-07
-1.20626887673e-07
6.71043511041e-07
-1.10394904474e-07
6.56476565296e-07
-9.88874467644e-08
6.45282170777e-07
-8.84240168159e-08
6.41051576717e-07
-7.89848257275e-08
6.42774122265e-07
-6.9834085918e-08
6.48717827415e-07
-5.99449112726e-08
6.5446950317e-07
-4.9441119271e-08
6.57721988558e-07
-4.12699081168e-08
6.59316988403e-07
-3.72373344298e-08
6.62362147552e-07
-3.54251247361e-08
6.66838629125e-07
-3.5220898534e-08
6.69744306439e-07
-2.72687553247e-08
6.92441126455e-07
7.36028697553e-07
-1.7394861903e-08
1.1623247859e-07
7.27610121329e-07
-1.68385496236e-08
7.67689625014e-07
-1.20522379168e-07
7.74205138818e-07
-1.91719367504e-07
7.59550753784e-07
-2.24911986156e-07
7.2228534728e-07
-2.29022273679e-07
6.87394032204e-07
-2.16689738763e-07
6.58874729937e-07
-1.97494447506e-07
6.37414141701e-07
-1.76151338576e-07
6.24051688741e-07
-1.54749371467e-07
6.19750189889e-07
-1.34445297171e-07
6.22566518822e-07
-1.15877347678e-07
6.30249307593e-07
-9.86702223397e-08
6.37366912397e-07
-8.31331602743e-08
6.42295021669e-07
-7.05271244692e-08
6.46827439713e-07
-6.10503789128e-08
6.53009940573e-07
-5.46334985579e-08
6.60553119918e-07
-5.1390384484e-08
6.66643287705e-07
-3.90677180233e-08
6.80307487957e-07
7.17624935838e-07
-2.03813240031e-08
1.32479031795e-07
7.54526984353e-07
-9.96447370136e-09
9.01069271573e-07
-1.12515724237e-07
8.80287101524e-07
-1.84179768688e-07
8.34965924876e-07
-2.25174193639e-07
7.64620843664e-07
-2.37997594753e-07
7.00618762929e-07
-2.28751938873e-07
6.49837261559e-07
-2.0879894853e-07
6.17611787138e-07
-1.85441462531e-07
6.00815322256e-07
-1.6073802808e-07
5.9514992784e-07
-1.37042039022e-07
5.989662162e-07
-1.16256134625e-07
6.09561177094e-07
-9.80292063234e-08
6.19242703375e-07
-8.21656032762e-08
6.26539404438e-07
-6.88456482013e-08
6.33621918295e-07
-5.82390800986e-08
6.4252470196e-07
-5.04997027968e-08
6.52943640647e-07
-4.61577334146e-08
6.6243930888e-07
-3.67577290195e-08
6.71064655246e-07
6.97476488237e-07
-1.6364071182e-08
2.14633319064e-07
6.84861378277e-07
2.06365513911e-07
8.87420264231e-07
1.37442345768e-07
9.42730694855e-07
1.42303164581e-08
9.57635219903e-07
-8.14530482581e-08
8.60684389717e-07
-1.20393822671e-07
7.40145634341e-07
-1.3002758325e-07
6.59791727303e-07
-1.23379050417e-07
6.11175907169e-07
-1.1055994238e-07
5.88155804497e-07
-9.55004413615e-08
5.80213249904e-07
-7.99039317051e-08
5.83471982088e-07
-6.61666504591e-08
5.9592672146e-07
-5.42326265221e-08
6.07414998897e-07
-4.39992263829e-08
6.16417018884e-07
-3.52686438951e-08
6.25008070578e-07
-2.80262726378e-08
6.35406062543e-07
-2.23940332499e-08
6.47441288668e-07
-1.89903951547e-08
6.59172717082e-07
-1.5995118169e-08
6.68216257324e-07
6.83108271828e-07
-1.4203101404e-09
2.06502927271e-07
6.2353941496e-07
2.23070876631e-07
8.4617602658e-07
2.26129687077e-07
9.2895962144e-07
2.11517328808e-07
9.68692216433e-07
1.07875893099e-07
9.63828271377e-07
4.71557453924e-08
8.01071418511e-07
1.7120103504e-08
6.90072320477e-07
6.21968965233e-09
6.22286727193e-07
4.30068778342e-09
5.90245974103e-07
5.84573727977e-09
5.78800351334e-07
8.68438352127e-09
5.80735669904e-07
1.15209812847e-08
5.93191667149e-07
1.40129456946e-08
6.05030239851e-07
1.61297613485e-08
6.14412432185e-07
1.80097910018e-08
6.23247275642e-07
1.97739835356e-08
6.33767766215e-07
2.12885597596e-08
6.46060787758e-07
2.20180093328e-08
6.58584017551e-07
2.13444575488e-08
6.6903979401e-07
6.77435367816e-07
2.72000263971e-08
1.92124314516e-07
5.77494850093e-07
2.16636714721e-07
7.96954388824e-07
2.36015347802e-07
8.97418102313e-07
2.44618372073e-07
9.55137831401e-07
2.2999597782e-07
9.77000440442e-07
1.69025350328e-07
8.61829909e-07
1.38412929884e-07
7.20782601092e-07
1.20209131211e-07
6.40654598361e-07
1.09537705454e-07
6.01076042609e-07
1.0234103109e-07
5.86125099401e-07
9.61030487381e-08
5.87072985628e-07
9.0466313056e-08
5.98928629485e-07
8.54460204453e-08
6.10156089386e-07
8.0853807808e-08
6.19117684487e-07
7.68359572089e-08
6.2738555364e-07
7.35644942841e-08
6.37167502965e-07
7.10272509784e-08
6.48733216441e-07
6.89679104471e-08
6.60787749716e-07
6.6784989183e-08
6.71375837911e-07
6.77960520228e-07
6.64196069514e-08
1.84238297257e-07
5.43050823078e-07
2.07518520908e-07
7.49685099273e-07
2.32769704348e-07
8.59691234692e-07
2.54813689023e-07
9.274310501e-07
2.6547342718e-07
9.64308827502e-07
2.43178948032e-07
8.83571487009e-07
2.22133851232e-07
7.41766679091e-07
2.04225267465e-07
6.58661048744e-07
1.90452415515e-07
6.14980021369e-07
1.79137301371e-07
5.9755508208e-07
1.68100613012e-07
5.98202656817e-07
1.57502113571e-07
6.09621949636e-07
1.47892023868e-07
6.1987053155e-07
1.39132883637e-07
6.27988628593e-07
1.31286423291e-07
6.35351632388e-07
1.24698339937e-07
6.43884235407e-07
1.19460445182e-07
6.54107389536e-07
1.15560313656e-07
6.64830059582e-07
1.12784632335e-07
6.74301802541e-07
6.80448429485e-07
1.10456454533e-07
1.6429796882e-07
5.29717248458e-07
1.85279265817e-07
7.07928257355e-07
2.11229675279e-07
8.22553899056e-07
2.33529901013e-07
8.99874551993e-07
2.56335163267e-07
9.39409016456e-07
2.84979923696e-07
8.54166704626e-07
2.77130789716e-07
7.49421699014e-07
2.6337807757e-07
6.72446152134e-07
2.49687022333e-07
6.2877227562e-07
2.36614286958e-07
6.10726781923e-07
2.2292518917e-07
6.11976792659e-07
2.09728132791e-07
6.22913314129e-07
1.97650403004e-07
6.32049010858e-07
1.86557241927e-07
6.39192236036e-07
1.76589627061e-07
6.4543945392e-07
1.68058798313e-07
6.52542349359e-07
1.61307063026e-07
6.60996022242e-07
1.56447877759e-07
6.69833754798e-07
1.53522118652e-07
6.77378539774e-07
6.82026093594e-07
1.52103316082e-07
1.18731232623e-07
5.68547131131e-07
1.40255122137e-07
6.71842115223e-07
1.84640520712e-07
7.70452874294e-07
2.20460174012e-07
8.59949066496e-07
2.74510271394e-07
8.83446892352e-07
3.06619922212e-07
8.21163214306e-07
3.10665970071e-07
7.4506422121e-07
3.02742656337e-07
6.80338388633e-07
2.90655931531e-07
6.40928508504e-07
2.76817571574e-07
6.24646760493e-07
2.61563889611e-07
6.27309465732e-07
2.47076956044e-07
6.37487936488e-07
2.33743005555e-07
6.45483571815e-07
2.21423752536e-07
6.5162039755e-07
2.10250422577e-07
6.56730264253e-07
2.0068274317e-07
6.62238837721e-07
1.931116341e-07
6.68701383394e-07
1.87900687758e-07
6.75188544141e-07
1.8529978484e-07
6.80131971363e-07
6.82034452811e-07
1.85451665445e-07
6.47561222176e-08
6.63647124451e-07
7.92156014551e-08
6.43930184918e-07
1.28650254283e-07
7.13884520823e-07
2.01567831131e-07
7.83114398819e-07
2.77191113887e-07
8.05699465555e-07
3.13090859998e-07
7.8424959102e-07
3.2569511031e-07
7.32078772587e-07
3.23291251158e-07
6.82671629213e-07
3.13346416082e-07
6.5091903501e-07
2.99556530289e-07
6.38503719642e-07
2.8348835476e-07
6.43450688307e-07
2.68530338752e-07
6.5253600637e-07
2.54662801436e-07
6.59447882739e-07
2.41746413481e-07
6.6464486517e-07
2.29936984328e-07
6.68657989775e-07
2.19716319946e-07
6.72584311917e-07
2.11688177066e-07
6.76866361109e-07
2.06290598201e-07
6.80728398005e-07
2.03958529098e-07
6.82613744995e-07
6.80968266828e-07
2.0518106504e-07
8.07728581613e-08
7.40605742383e-07
1.0321856334e-07
6.07621300098e-07
1.46436323112e-07
6.63070206411e-07
2.05890782989e-07
7.19669316676e-07
2.61469625515e-07
7.48061215572e-07
3.02144809226e-07
7.42604998484e-07
3.21284083984e-07
7.12573697315e-07
3.23914919041e-07
6.79967713083e-07
3.16689401473e-07
6.58180211591e-07
3.03186041839e-07
6.52065539593e-07
2.8698184223e-07
6.59729573627e-07
2.72079516844e-07
6.67523242322e-07
2.58185081499e-07
6.73441474627e-07
2.45122826423e-07
6.77814919589e-07
2.33007912755e-07
6.80889320687e-07
2.22405115659e-07
6.83316080148e-07
2.13947874791e-07
6.85457536112e-07
2.08233197215e-07
6.86588365024e-07
2.05709486549e-07
6.85288897375e-07
6.79956591064e-07
2.06881577699e-07
7.61834885303e-08
8.21691849665e-07
9.54238821533e-08
5.78742324657e-07
1.36528340872e-07
6.16308726599e-07
1.89715655972e-07
6.6338621491e-07
2.40830656444e-07
6.95352966188e-07
2.79709615627e-07
7.02996325592e-07
3.00756804466e-07
6.91267877219e-07
3.06136619658e-07
3.00165996255e-07
2.8542008109e-07
2.69810701105e-07
2.5550864911e-07
2.4219942171e-07
2.29577527364e-07
2.1770096555e-07
2.07058215199e-07
1.98358780504e-07
1.9206213862e-07
1.8886018867e-07
1.88941559831e-07
9.0026431066e-08
8.88584916813e-08
1.21329574165e-07
1.6627454143e-07
2.10425169492e-07
2.44859969951e-07
-2.29797561322e-08
2.5704760591e-07
-2.33920766481e-08
2.44911121153e-07
-2.34320790039e-08
2.32655532686e-07
-2.2959416204e-08
2.19848288213e-07
-2.18107854855e-08
2.0588047064e-07
-1.99324217151e-08
1.90242698612e-07
-1.75032529997e-08
1.73025267703e-07
-1.48413760688e-08
1.55022676485e-07
-1.22030065602e-08
1.37157281166e-07
-9.73232667494e-09
1.20024400765e-07
-7.50139082036e-09
1.03892666703e-07
-5.54500196791e-09
8.88239610068e-08
-3.87894664897e-09
7.47564681535e-08
-2.51108774232e-09
6.1545121926e-08
-1.44309951209e-09
4.8981806136e-08
-6.43273585003e-10
3.69435074569e-08
2.59989222042e-08
-1.46022352585e-08
3.04169102833e-07
-1.69162378954e-08
2.84261017501e-07
-1.85870337486e-08
2.70985864452e-07
-1.98548561066e-08
2.58315431584e-07
-2.0712795223e-08
2.45769085377e-07
-2.10777536068e-08
2.33020492156e-07
-2.08066417334e-08
2.19577203892e-07
-1.97663672285e-08
2.04840196605e-07
-1.79764898607e-08
1.88452850083e-07
-1.56804986677e-08
1.70729277216e-07
-1.31981334477e-08
1.52540340814e-07
-1.07595214102e-08
1.34718671559e-07
-8.4913479667e-09
1.17756257039e-07
-6.45845774982e-09
1.01859784397e-07
-4.69310504241e-09
8.7058639692e-08
-3.21066110865e-09
7.32740154411e-08
-2.01837403346e-09
6.03529081481e-08
-1.1192351679e-09
4.80827090429e-08
-4.86590969217e-10
3.63109111484e-08
2.55123338659e-08
-1.16954482473e-08
3.1134053177e-07
-1.45560617649e-08
2.87122229702e-07
-1.6579668701e-08
2.73009497002e-07
-1.81368229426e-08
2.59872590805e-07
-1.9209516992e-08
2.46841803795e-07
-1.96972952181e-08
2.33508274432e-07
-1.94557512972e-08
2.1933568526e-07
-1.83912897917e-08
2.03775739601e-07
-1.65973002949e-08
1.86658885147e-07
-1.43617123663e-08
1.6849369699e-07
-1.19906184418e-08
1.50169269591e-07
-9.68679947e-09
1.32414864899e-07
-7.56085626725e-09
1.15630335193e-07
-5.67039028691e-09
9.99693395209e-08
-4.0449633186e-09
8.54332289982e-08
-2.69880693093e-09
7.1927911474e-08
-1.63838040029e-09
5.9292490889e-08
-8.66351109107e-10
4.7310756471e-08
-3.61048454312e-10
3.58056873236e-08
2.51512874513e-08
-1.09483322681e-08
3.19830910203e-07
-1.40779055158e-08
2.90253105788e-07
-1.61867492667e-08
2.75118373967e-07
-1.77984066502e-08
2.61484260353e-07
-1.88770239906e-08
2.47920450451e-07
-1.93012169943e-08
2.33932477716e-07
-1.89313135953e-08
2.18965812594e-07
-1.77231548569e-08
2.025675901e-07
-1.58386999981e-08
1.84774461308e-07
-1.35895622042e-08
1.66244567644e-07
-1.12579974578e-08
1.47837734297e-07
-9.02027911971e-09
1.30177155194e-07
-6.97212828101e-09
1.13582212407e-07
-5.16415305399e-09
9.81613773963e-08