/*--------------------------------*- C++ -*----------------------------------*\
| =========                 |                                                 |
| \\      /  F ield         | OpenFOAM: The Open Source CFD Toolbox           |
|  \\    /   O peration     | Version:  2312                                  |
|   \\  /    A nd           | Website:  www.openfoam.com                      |
|    \\/     M anipulation  |                                                 |
\*---------------------------------------------------------------------------*/
FoamFile
{
    version     2.0;
    format      ascii;
    arch        "LSB;label=32;scalar=64";
    class       volScalarField;
    location    "0.23/water";
    object      k.gas;
}
// * * * * * * * * * * * * * * * * * * * * * * * * * * * * * * * * * * * * * //

dimensions      [0 2 -2 0 0 0 0];

internalField   nonuniform List<scalar> 
6000
(
0.0371049816863
0.00867757410797
0.00231379380821
0.000903467651903
0.000988111481853
0.00118111462353
0.00124824349743
0.00126624712541
0.00127141417433
0.00127101368401
0.00126754377608
0.001262485918
0.00125706949549
0.00125205082788
0.00124780078431
0.00124442155848
0.00124186085077
0.00123999773635
0.001238698195
0.0012378450809
0.492663725217
0.153363787848
0.0421051464824
0.0136189593162
0.00375149503289
0.00171789486292
0.00118711590021
0.00122748767307
0.0012732432176
0.00128234388311
0.00128124863908
0.00127678065945
0.0012706615303
0.00126394364257
0.00125740273379
0.00125155738577
0.00124667711952
0.00124283265978
0.00123996948135
0.00123797689154
0.68690181842
0.258224567188
0.0925044471927
0.0308480425106
0.0111550664034
0.00364691828734
0.00164490988552
0.0011945794739
0.00125150127961
0.00128587670002
0.00129101315902
0.00128926845114
0.00128462156418
0.00127834133841
0.00127128942184
0.00126419732219
0.00125764916289
0.0012520316901
0.00124753293111
0.00124418836653
0.840608172688
0.335273054152
0.132930091068
0.0507534345898
0.0210353056749
0.00685072647374
0.0025793164619
0.00135027791938
0.00121843439007
0.00127911817828
0.00129517675808
0.00129682457281
0.00129440386024
0.00128961292807
0.00128330949683
0.00127619794004
0.00126896271806
0.00126221056282
0.00125638974668
0.0012517607306
0.920053388373
0.384857168224
0.161804903534
0.0675618480155
0.0265073920301
0.0118840653478
0.00364354249805
0.00162924015279
0.00120310650343
0.00126104083704
0.00129534676687
0.00130088379844
0.00130083224292
0.00129785257556
0.00129285337514
0.00128646946378
0.0012793397159
0.00127213583563
0.00126547516612
0.00125982969766
0.929650116753
0.407922639677
0.180914140321
0.0805117961445
0.0347041727421
0.0135320394256
0.00587848244101
0.00182095007336
0.00115840806353
0.00121993709227
0.00129164361693
0.00130292256507
0.00130477366139
0.00130343469105
0.00129976278975
0.00129435026695
0.00128774771505
0.00128058344699
0.00127352957395
0.00126719751061
0.903324216343
0.410969763841
0.190805347187
0.0894237775549
0.0410947171104
0.0176815456178
0.00657408107098
0.00257994407214
0.000994097643236
0.00109058261859
0.00127586842453
0.0013040436314
0.00130694770329
0.00130680109761
0.00130425981287
0.00129982063372
0.00129393665047
0.00128713817121
0.00128006204232
0.00127337090947
0.880440580798
0.408705671304
0.195902274452
0.0952177608066
0.0456163036776
0.0208886245245
0.00867856689355
0.00321554443646
0.00110497201158
0.000809268677049
0.00120575827838
0.0013035753324
0.00130792565897
0.00130822893447
0.00130657069261
0.00130306273491
0.00129801158933
0.00129181559999
0.0012850165862
0.00127827094955
0.868425649394
0.41063305702
0.200448350247
0.0992063730588
0.0486108993398
0.0232330484081
0.0105121035693
0.0041471028249
0.00167904537775
0.000633432047393
0.00098860294397
0.001292165475
0.00130904349993
0.00130848030735
0.00130732768577
0.00130466820246
0.00130049946346
0.00129504759015
0.00128872973191
0.00128213836091
0.879882860211
0.421955803522
0.206582496645
0.102125683681
0.0504847986922
0.024925313071
0.0120838635876
0.00541034071568
0.00198935662082
0.000825402529258
0.000664249006325
0.00122067791961
0.00131223465942
0.00130932468023
0.00130781519503
0.00130574506066
0.00130235926174
0.00129762144911
0.00129180060519
0.0012854040221
0.940601835072
0.446576363478
0.214097565257
0.104242498357
0.0519548353115
0.0265025761317
0.013640434191
0.00673985041522
0.00291396644412
0.00112548158259
0.000554006472861
0.00096650647278
0.00130976665692
0.00131381013607
0.0013098943312
0.00130773577244
0.00130476035462
0.0013004545577
0.00129490621529
0.00128853138872
1.05249452499
0.472593596724
0.219973952235
0.106879769954
0.0542086346884
0.0285110474379
0.0153414887065
0.00818753775627
0.0040255351847
0.00162016980649
0.000791883023887
0.000596859192657
0.00121592382552
0.00132384245248
0.00131552944378
0.00131193149988
0.00130868255753
0.00130427907472
0.00129855635751
0.00129184156375
1.09891700348
0.486869024169
0.226251175245
0.110568152457
0.0568701864806
0.0306169110089
0.0170555987182
0.00963976159615
0.00520690032098
0.00239270617847
0.000930173901984
0.000567655739169
0.000828229828393
0.00131597268724
0.00132597210007
0.00131890890943
0.00131450557001
0.00130935876715
0.00130291065917
0.00129540611865
1.10895174158
0.492854831072
0.229573394008
0.112807155967
0.058712497641
0.0322638163861
0.0185238837877
0.0109290949047
0.00632615608281
0.00318856015731
0.00134149782929
0.000694829471508
0.000490658640397
0.00114450504847
0.0013382545031
0.00132857620889
0.00132203302805
0.00131552607341
0.00130782858825
0.00129910735455
1.10902866378
0.493990751104
0.230644560517
0.113766902597
0.0597187489289
0.0333424354414
0.0196341767972
0.011995696569
0.0072761179717
0.00390444855414
0.00172870975997
0.000853510856197
0.000575168589647
0.000704107374733
0.00132335853853
0.00134038617893
0.00133087041624
0.00132248303286
0.00131310350806
0.00130281911913
1.10426540327
0.493790754614
0.231164901504
0.114189837931
0.0601943037695
0.0340028134403
0.0204444411716
0.012846857297
0.00804465468571
0.00449749602561
0.00204740977348
0.00104568685572
0.00060752424254
0.000440661780526
0.00119237033543
0.00135232369681
0.00134071483841
0.00133003163703
0.00131864874768
0.00130655013982
1.10486142986
0.494727145914
0.231955204908
0.114551155116
0.0605119195233
0.0344882111732
0.0210915509891
0.0135466943324
0.00866739659979
0.00496512981997
0.0023103004271
0.00118842246368
0.000731639328115
0.000457495763225
0.000918393061078
0.00135848430304
0.00135131550801
0.00133808108421
0.00132452351258
0.00131046647774
1.11635482667
0.499135146915
0.233884901134
0.115498222089
0.0611218963731
0.0350511405365
0.0216842783639
0.0141256911002
0.00917326133387
0.00536948861458
0.00256754243354
0.00131233416918
0.00084882240451
0.000572374270714
0.000675028110679
0.00135446578575
0.00136266924952
0.00134658330693
0.00133084731909
0.00131480919736
1.14299675541
0.508961700399
0.237873540255
0.117572284629
0.062356833944
0.0358662140315
0.0222813364775
0.0146073751193
0.0096121299994
0.0057845868524
0.0028747560096
0.00146565980687
0.000962817321769
0.000649006173816
0.000564961674573
0.00134177365355
0.00137529404148
0.00135545413247
0.00133765178764
0.00131974298143
1.17143212299
0.520419265015
0.243387157608
0.120830404363
0.0643184245228
0.0369514059341
0.0228739937587
0.0150199424126
0.0100227290249
0.00623597397749
0.00328352435083
0.00168096560871
0.00110079665607
0.0006919103702
0.000557493448256
0.00131115300516
0.00139186841763
0.00136485389362
0.00134480665896
0.00132521756112
1.17975688047
0.526214491052
0.249572933767
0.12573445869
0.0672229521779
0.0382555916355
0.0233723822718
0.0152857776925
0.0103228430927
0.00668732838388
0.00376011858902
0.00193122352143
0.00127932707583
0.00088045819074
0.000654116857733
0.00119105326304
0.00141795436679
0.0013758469948
0.00135215383171
0.00133097104313
1.15635488471
0.530910529046
0.259644387092
0.133077369766
0.0706483596592
0.039211539227
0.0234272589232
0.0152264786584
0.0104355498022
0.00704707295178
0.00419852169004
0.00214316710055
0.00145083375026
0.00111994282068
0.000832173771718
0.000839261397528
0.00143928156243
0.00139053002286
0.00135970920808
0.00133670011228
1.15730184045
0.552051879476
0.276768297386
0.141527565459
0.0730977635875
0.0391893930895
0.0230937725569
0.0150602472402
0.0104547026538
0.00727533281658
0.00453422611941
0.00230197806476
0.00149531539686
0.00130694744175
0.000950195289798
0.000662168781579
0.00129698784768
0.00141035152309
0.00136787235454
0.0013423053263
1.21858800343
0.596597613305
0.298599717521
0.148665971371
0.0742676787476
0.0393068232927
0.0231404238483
0.0150494571393
0.0104957566139
0.00745675856695
0.00481312267118
0.00242594967209
0.0014877899466
0.00134090197649
0.00115515906584
0.000757113474158
0.000773740558501
0.00141401575935
0.00137727000852
0.00134786065498
1.32950193714
0.652964210347
0.318680183922
0.154052427378
0.0763091617068
0.0405017788679
0.0237836543687
0.0153386346615
0.0106760239538
0.00770279089981
0.00511883091504
0.00256555086362
0.00146896214953
0.00131891438108
0.00124529946659
0.00087616757984
0.000518821606152
0.00126659544688
0.00138696450507
0.00135342155901
1.46682530385
0.703345758179
0.333899987519
0.159530995009
0.0797894668785
0.0429018806354
0.0250567436881
0.015970373021
0.0110658248898
0.0080922871924
0.00550260432084
0.00276211176751
0.00146943845422
0.00129742539616
0.00125300120715
0.00100998399687
0.000632845670918
0.000850948941717
0.00138673204273
0.00135883131454
1.59556594392
0.741142132655
0.345467214031
0.165142436345
0.083603653416
0.0454974828742
0.0266362158168
0.0168657533929
0.011664933008
0.00861627699346
0.00596092167026
0.0030471458131
0.00151764100968
0.00129895326281
0.00126435685926
0.0010926376501
0.000620237825289
0.000511547716344
0.0013459879865
0.00136359441824
1.6949235863
0.765143878837
0.35291330485
0.169440372608
0.0867138702673
0.047674785025
0.0280554303027
0.0177802393012
0.0123565481278
0.00917862906265
0.00642002283797
0.00341262775142
0.00163581394934
0.00133252081301
0.00130820582459
0.00117178018447
0.000751852240208
0.000424270957169
0.00122545947944
0.00136682504066
1.76312482098
0.781607683939
0.358719807817
0.172809627218
0.0889837600015
0.0492989391152
0.0292046102456
0.0186380494825
0.0130771745276
0.00973694303331
0.00685764434627
0.00378390524857
0.00181181105836
0.00140294977395
0.00139077236301
0.00127209251377
0.000888500852977
0.000491657298079
0.00100801935129
0.00136658164204
1.80206281491
0.792500917346
0.363272192329
0.174949956188
0.090280753615
0.0503335371616
0.0300798622868
0.0194313809287
0.0137798174404
0.0102532574061
0.00724900953773
0.00411607293457
0.00199896784524
0.00150217717078
0.00149879467821
0.00138576795776
0.00103282631524
0.000615284330091
0.000728844660785
0.00135742020676
1.83113786181
0.800102765348
0.366978990188
0.176342020229
0.0910354056265
0.0510083788293
0.0307668954083
0.0201483677691
0.0144022435693
0.0106826091742
0.00756143881442
0.0043729316662
0.00216113355143
0.00160696303533
0.0016052806332
0.00148447091605
0.0011764702175
0.000636686067061
0.000501016318939
0.00132133231858
1.84926297693
0.806979428645
0.370191589844
0.17772079185
0.091778154993
0.0515753212305
0.0313403668967
0.0207681501944
0.0148939392651
0.0109954851094
0.00777207026613
0.00454045472394
0.00228225650453
0.00170089282696
0.00169177418669
0.00156828433189
0.00130105404419
0.000790394270921
0.0004310646372
0.00122095817614
1.87326005608
0.812409104845
0.372338619347
0.178898220947
0.0924664734605
0.0520419318425
0.0318068929897
0.0212605281866
0.0152207840082
0.0111769953824
0.00787513405748
0.0046289580368
0.00236905639752
0.00178030545135
0.00175320312462
0.00163327454551
0.00138539557315
0.00092248537382
0.000502966360405
0.00102823034435
1.90686999241
0.821419826924
0.375464228696
0.18036045981
0.093207485943
0.0524696874903
0.032218005222
0.0216098151204
0.0153792823115
0.0112328345946
0.00788399092093
0.00466531760544
0.00244012167896
0.00184444178243
0.00179181454814
0.00168190329196
0.00143016566669
0.0010231532984
0.00062607566887
0.000787860478954
1.9322555598
0.830436374411
0.378754758944
0.181839689069
0.093897440763
0.0528538014657
0.0325724512569
0.0217834756754
0.0153824821579
0.0111743703902
0.00781630025606
0.00467470134665
0.00250717673272
0.00188982721839
0.00181411536136
0.00171639041717
0.0014680740276
0.00110454554456
0.000645214612305
0.000589529517337
1.95073603969
0.836070617142
0.381398358546
0.183204956886
0.0945413300665
0.0532505967047
0.0328330795167
0.0217654642284
0.0152507796038
0.0110167755667
0.00769073379027
0.00467172989612
0.00256874946494
0.00191378307832
0.00182360684479
0.00174340510464
0.00151998139255
0.00118469421544
0.000694509025731
0.000485915491974
1.95409738096
0.836302300982
0.381939217162
0.183882049085
0.0950168007088
0.0536240343257
0.0329298177061
0.0215821663592
0.0150025099103
0.010773713441
0.00752283652269
0.00465994389939
0.00261747090031
0.0019178606031
0.00182212589313
0.00177362348972
0.00159747391731
0.0012773502234
0.000800939836269
0.000476181153162
1.95353277458
0.82970562865
0.379295863181
0.183417114467
0.0952822813037
0.0539114240271
0.0328140169989
0.0212304202544
0.0146248628203
0.0104446048341
0.00732120807651
0.00463752960691
0.00265378935235
0.00191188403986
0.00181613262366
0.00181498501485
0.001686871309
0.001378392867
0.000900063847791
0.000533951394533
1.94020393115
0.819077735047
0.374038551325
0.18217768745
0.0956317772293
0.054155985139
0.0324899734688
0.0206871787536
0.0140968873861
0.01003475681
0.00711177248504
0.0046270869668
0.00270512201863
0.00191269800764
0.00181090744609
0.00185514118843
0.00174863254262
0.00143816721385
0.000982607435004
0.000625521859246
1.90147643345
0.796819252037
0.36475147977
0.180144822773
0.0960551581536
0.0542265851275
0.0318041259541
0.0198157984311
0.0133888647588
0.00960264897302
0.0069510152309
0.00465565178361
0.00278468475109
0.00192611184863
0.00179758067927
0.00187208368953
0.00177399409063
0.00148333976657
0.00103989167166
0.000629317135612
1.81822802051
0.75878505918
0.352015707905
0.178608109925
0.096820644175
0.0536461375257
0.0303517534101
0.0186213759462
0.0126787523561
0.00926878208293
0.00685045001029
0.00468541014407
0.00284825262286
0.00192729108567
0.00176308856669
0.00185668467851
0.00176178335336
0.00149202893199
0.00106401504712
0.000595331349794
1.68936783565
0.711730364421
0.342795328136
0.180307215518
0.0972855533318
0.0515204809664
0.0283696051859
0.0175437200033
0.0121415747949
0.00902630720166
0.00674770097978
0.00468501692511
0.00288281014763
0.00191081435574
0.00170244927873
0.00181310526433
0.00171498404627
0.00146655130665
0.00104777149551
0.000636408962185
1.51409176372
0.682493242756
0.347895268213
0.185549443982
0.0947384985138
0.0481760416122
0.0265837815089
0.0166677816872
0.0117051299557
0.00877451038162
0.0066068365868
0.00462086485548
0.0028707733453
0.00187194998081
0.00161867023111
0.00173672081206
0.00163972948267
0.00140538436977
0.00101558680436
0.000649023548681
1.38707091806
0.708486714876
0.376987420867
0.188660840427
0.0896370084112
0.0446485854693
0.0249457926583
0.0159019684508
0.0112769560697
0.00848481231895
0.00639810493454
0.00448631948655
0.00280859719743
0.00180368134238
0.00150959201833
0.0016113831587
0.00152847211229
0.00130230003646
0.000967949417348
0.000638447339674
1.50249065246
0.839554682016
0.427914125717
0.192048702599
0.0841888751574
0.0416497590877
0.0237654591061
0.0153566977198
0.0108872537942
0.00817225163011
0.0061423565693
0.00431155098333
0.00270995781709
0.00170595558777
0.0013732552947
0.00142991396155
0.0013739198665
0.00115499889048
0.000883359870004
0.000609559905556
2.01802397871
1.10060849723
0.503716875323
0.199969544187
0.0830813930634
0.041393765208
0.0239163045404
0.0153406382065
0.0107183243999
0.00794038453961
0.00592424842743
0.00416057867029
0.00261003583725
0.00159186836395
0.00121373421891
0.001203893366
0.00117959905606
0.000978087731922
0.000761680886377
0.000541149561145
3.19752990131
1.52778992427
0.611738789588
0.234040756666
0.0973907165554
0.0480061488764
0.0269817463156
0.0166301521543
0.0111468609637
0.00800643652572
0.00588807342127
0.00412665116708
0.00256916734066
0.0014924715575
0.00104333345647
0.000965894402849
0.000959988059786
0.000789689368586
0.000616529621808
0.000450240424563
5.12421461523
2.06520572882
0.827145603203
0.334816515542
0.141621280204
0.0666796033005
0.0350135265253
0.0201166473707
0.0126161945675
0.00861356142137
0.00617417042837
0.00429316955875
0.00265117385463
0.00145214277654
0.000898450329775
0.000757327203572
0.000742493049199
0.000612865301311
0.000473248434092
0.000354621377868
6.35273533
2.56096830026
1.14814981575
0.51184079738
0.218637345284
0.0980132908622
0.0483093751068
0.0260723657582
0.0152972928177
0.0098396921427
0.00680869978431
0.00469239844519
0.00288514681931
0.00150432399407
0.000813996490264
0.000602135239976
0.000559140949987
0.00046461414523
0.000349471118211
0.00026310505946
6.40327063448
2.79506884737
1.32796887539
0.647950047351
0.311173268143
0.137531589127
0.0652593804255
0.0338688700987
0.0190169514299
0.0116272521239
0.00774403267816
0.00527472478192
0.00325154596613
0.0016515128327
0.000794119912964
0.000497177531339
0.0004246149653
0.000346785659601
0.000248958479564
0.000185937144919
6.07679251056
2.78198307141
1.36998363298
0.702351446894
0.362891710218
0.177614159852
0.0848136217648
0.0427490269492
0.023367563844
0.0138222017318
0.0089022602069
0.00596970027843
0.00370481245961
0.0018692603999
0.00082856129538
0.000441471337954
0.000333704041619
0.000254917787185
0.000171692097362
0.000128222907738
5.67867151992
2.66406835265
1.34719080406
0.716410406728
0.389991599977
0.205319639722
0.101186439785
0.0515328748846
0.0279102832524
0.0162217444887
0.0101883577931
0.00671578672652
0.0041799531025
0.0021219528238
0.000900910466912
0.000419023735081
0.000271728027101
0.000184408193457
0.000117561930102
9.10475942441e-05
5.31697759662
2.50971696754
1.28069264582
0.693773845215
0.387883930178
0.21201459609
0.109563567631
0.0574818955448
0.031546065835
0.0183479484756
0.0114131915696
0.0074255079836
0.00460911131905
0.00236912858668
0.00099177247827
0.000415418192609
0.000227455160618
0.000132786182196
8.52026925743e-05
7.15949886471e-05
5.07553970368
2.3675280825
1.20149066176
0.65334352357
0.369253508959
0.204303532778
0.110340180334
0.0600762551781
0.0337219487437
0.0198281143304
0.012359358675
0.00798371466218
0.00491915499513
0.00254154500897
0.00106241834049
0.000417185167943
0.000195101011305
9.87383560136e-05
6.99388263599e-05
6.42024667977e-05
4.97951485986
2.26491902556
1.12845430502
0.607463035406
0.341281662427
0.190332328773
0.106322604773
0.0599223889247
0.0344702964281
0.0206067240191
0.0129550829147
0.0083354313765
0.00508202498816
0.00261370243858
0.00108898484648
0.000408986652136
0.000169052528842
8.0451721249e-05
6.52012426594e-05
6.36156414454e-05
5.05168702608
2.2060734538
1.07388503874
0.564682008967
0.31039303998
0.176166104722
0.100771728563
0.0582268245366
0.0342116839995
0.0208312563301
0.0132258798415
0.0084657731338
0.00508803070968
0.00258486536668
0.00107081560076
0.000389637211582
0.000147744977493
7.38453351157e-05
6.58933026482e-05
6.62813095133e-05
5.29296052646
2.23158854089
1.06996397048
0.550452136216
0.299391337191
0.167975794355
0.0963572947581
0.0562306181789
0.0335363196536
0.0207514779252
0.0132377044228
0.00839100125274
0.00495107764957
0.00246956061571
0.00101370951088
0.000362273526051
0.000130988880649
7.41921740339e-05
6.90482541789e-05
7.02522973762e-05
5.64103704651
2.34453919448
1.12712816446
0.579646201491
0.306806794783
0.167146753273
0.0941352174901
0.0546753660161
0.0328752328546
0.0205169206962
0.0130281213089
0.00815635175196
0.00472332551959
0.00231444336824
0.000938611119248
0.000332399038078
0.00012237671832
7.86497165731e-05
7.3388538028e-05
7.44520722791e-05
5.75075301083
2.50018642033
1.2366917961
0.634573793947
0.328283512332
0.172640661949
0.0941333687358
0.0538237071101
0.0323448043366
0.0201204489165
0.0126486345173
0.00783600976002
0.00446822954931
0.00216425117811
0.000875079303681
0.000312735034444
0.000123581938932
8.61428027693e-05
7.84330477359e-05
7.83641869281e-05
5.41687617399
2.5361094095
1.30996173173
0.684577688308
0.352797739963
0.180840933439
0.0953283841338
0.0533596902356
0.0317163919106
0.0195176861456
0.0122019302261
0.00751677108792
0.00425205763284
0.00206171172412
0.000843612573482
0.000311488689446
0.000134577127186
9.6211928182e-05
8.44593840061e-05
8.19701416635e-05
4.86405179946
2.47602158191
1.32428621271
0.708793352632
0.368985730601
0.187011632899
0.0960555522164
0.0524787175297
0.0306780630303
0.01880362503
0.0117943529992
0.00727250810399
0.00412958560478
0.00204076672623
0.000862482848906
0.00033475261673
0.000154645904566
0.000109088326494
9.18138360044e-05
8.58870977957e-05
4.29970984554
2.29881837475
1.26594111244
0.693206313931
0.366361687251
0.185728053762
0.0938607974292
0.0502278347894
0.0292286003031
0.0181251662844
0.0114915900138
0.00714429406278
0.00412956865172
0.00211881408534
0.00093999520015
0.000383228015068
0.00018343552548
0.000125017509071
0.000100864875762
9.06012859165e-05
3.83701043317
2.08256731253
1.16148436626
0.643831551483
0.343792469122
0.174635718311
0.0873261992602
0.0466540167949
0.0277442940301
0.0176049558251
0.0113231044224
0.00714605022619
0.00425818585416
0.00229817088689
0.00107963558532
0.000455412399522
0.000220843011394
0.000144010180565
0.000111400883282
9.63227935942e-05
3.40652234811
1.84861780512
1.03030509148
0.571432395407
0.305878031095
0.155201620653
0.0779562388514
0.0430897004556
0.0266819860933
0.0173345906987
0.011306286798
0.00727909908526
0.00450337974525
0.00256979308449
0.00128082307273
0.000554592127541
0.000266367890037
0.00016455211495
0.000122808305555
0.000102803627749
2.93705219186
1.59110432364
0.882735972084
0.487004725057
0.259617746662
0.132168661633
0.0690176514485
0.0406224749633
0.0261780004407
0.017294291121
0.0114229728011
0.00751623181206
0.00482934897916
0.00290519478795
0.00153686971788
0.000687494504699
0.000320209592962
0.000185022045172
0.000133782882308
0.000109767446473
2.46910436014
1.35413319996
0.752361867457
0.411663179758
0.217641371718
0.113271940866
0.0633077688804
0.0395961634416
0.0261792627188
0.0174664619104
0.0116694484473
0.00783214560099
0.00519340241602
0.00326739764009
0.00183023578571
0.000859717417093
0.000378391619915
0.00020500947835
0.000142446963739
0.000116572364192
2.18275171323
1.22957253597
0.683457811614
0.367643639757
0.193577329251
0.10512205359
0.0626819425577
0.0405304977505
0.0269289372561
0.0179596602427
0.0120701975346
0.00820600482742
0.00556038055295
0.00361633463706
0.00212330990627
0.00104936110168
0.00044377968198
0.000221278684592
0.000145717409852
0.000122140872443
2.26273950648
1.28417076753
0.706662296531
0.374795936149
0.195915725351
0.108717065721
0.0666936230014
0.0432893781204
0.028480378042
0.0188903585327
0.0127085473957
0.0086799687221
0.00593940941661
0.00393354192218
0.00237593218108
0.00122277211537
0.000522832219563
0.000222657803169
0.000141251869572
0.000124382684419
2.76102415382
1.52907522559
0.800068336438
0.399919399239
0.202264872141
0.114554113366
0.0723828980418
0.0472998814777
0.0309026507276
0.0204461405061
0.0137395731671
0.00934480241687
0.0063758717314
0.00423321907943
0.0025739112705
0.00133836570627
0.000582865796701
0.000227438463866
0.000128494729885
0.000121997505465
3.56169047294
1.80301091347
0.854901302686
0.390739416789
0.197387235332
0.117918194644
0.0780808856692
0.0519377862658
0.0337175213032
0.0222743816125
0.0149805728726
0.0101728569726
0.00689734096536
0.00455174894565
0.00273506660569
0.00138588830148
0.000592197389443
0.000227014617095
0.000111016578454
0.000116102882999
4.16796832755
1.80014872736
0.793387339123
0.366889206972
0.194554867922
0.123327844758
0.0849972712485
0.0567409963624
0.0362907485243
0.0238672298089
0.0160804255597
0.0109610332854
0.00745979684015
0.00490736442076
0.00289078062821
0.00139607724978
0.000565030805461
0.000209998201091
0.000102053581739
0.000110109493074
4.46840812995
1.79089194076
0.771568657342
0.360312453301
0.198422306968
0.130839585293
0.0921836972405
0.060191765048
0.0381022777459
0.025071544562
0.0169495574988
0.0116252013734
0.00799455908908
0.00528103262553
0.00305155248423
0.00140163963835
0.000530814099935
0.000188512541816
9.67957752225e-05
0.0001076490831
4.65771175211
1.83874201265
0.788258652211
0.370747780165
0.208094312185
0.138522818561
0.0952510073584
0.0608927037939
0.0391787221383
0.0260911784851
0.0177418099548
0.0122461180364
0.00850370164143
0.00564340320289
0.00320845958741
0.00142063171879
0.000509822836923
0.000173330636396
9.57112436379e-05
0.000109040691453
4.84791927266
1.9256241776
0.841023246903
0.402949921231
0.227133493439
0.148389265623
0.0955802380056
0.0614943827911
0.0404415731585
0.0272248215477
0.0186103698285
0.0129198902798
0.00901677575443
0.00596946209538
0.00335633124264
0.00147011904667
0.000515804299532
0.00017048113185
9.91009026862e-05
0.000115223099116
4.93231197651
2.00255232846
0.907217882206
0.448585652352
0.252727269755
0.159038541449
0.0992701353632
0.0637613966435
0.0422824124634
0.0286254484483
0.01964793878
0.013693097567
0.00953781251378
0.00623677972287
0.00347345420782
0.00153074766038
0.00054455644239
0.00018237039618
0.000106614705423
0.000123696489427
4.81859521031
2.0350321822
0.959688026812
0.49045261567
0.276871707115
0.168572434992
0.104342854358
0.0669632042473
0.0445155801316
0.0302477185618
0.0208664343188
0.0145758306747
0.0100662992624
0.00648178660896
0.00359269850667
0.00160730331645
0.000588850308865
0.000203803177319
0.000115613358927
0.000130521213734
4.58076214035
2.01270159932
0.98171058583
0.514462255415
0.291084055494
0.174102469341
0.107876689705
0.0694936118141
0.0463857543283
0.0317041464529
0.0220386776391
0.0154308648297
0.0105567976098
0.00672687278685
0.00373407331065
0.00170700204698
0.000650025752038
0.000234409782364
0.000126920970672
0.000134120730719
4.35120660079
1.95115006186
0.969755262025
0.512957758161
0.289223747297
0.172523907018
0.10762639403
0.0699584468764
0.0470960581647
0.0325148030325
0.0228463410395
0.0160677877382
0.010941485973
0.00694706436234
0.00388370868258
0.00182076940284
0.000723477488058
0.000273166653613
0.000141947931841
0.000137353641832
4.2080799976
1.88047837381
0.933842676443
0.491081863622
0.274952564218
0.16430607666
0.103232691338
0.0678644794695
0.0462735871421
0.0324128528958
0.0230926953417
0.0163531988105
0.0111385193237
0.00708797640988
0.00400624598562
0.00192771320391
0.000799499215712
0.000317262267271
0.000161493537834
0.000142508262575
4.19268417403
1.84964966224
0.917231768952
0.4788051802
0.262108600954
0.153086834288
0.0959524848771
0.0637416038232
0.044153766882
0.0314957664349
0.0227898580867
0.0162490764046
0.0111002382952
0.00711020212316
0.00407423847068
0.00201221856743
0.000871146419949
0.000365567700609
0.000186562807762
0.000152108434154
4.1928995986
1.89835360142
0.94903310363
0.482347739302
0.252010949363
0.14190527554
0.0879081159842
0.0588276726312
0.0414422781624
0.0301454954653
0.0220936850578
0.0157991481849
0.0108465352852
0.00702116910312
0.00409177207282
0.00207857072988
0.000942831572633
0.00042190068968
0.000220426251856
0.000168624688082
4.13951896363
1.92472510318
0.964528320835
0.483536342002
0.244953115463
0.133223363723
0.0810776147644
0.0544325137708
0.038954758638
0.02875656675
0.0211414425138
0.0151134717558
0.0104708992278
0.00688183871387
0.0040994840654
0.00215486023053
0.00103151099098
0.000495552758483
0.000268079938501
0.000194392944534
4.15619701443
1.92404049858
0.962802626462
0.483238658304
0.242637227988
0.128822748786
0.0768468997269
0.0515111932264
0.0371395626728
0.0274331856201
0.0200571649909
0.0144049680889
0.0101255711105
0.0067897097529
0.00416269625661
0.00228455863315
0.00116247097867
0.000598331509182
0.000335921591759
0.000232870422906
4.15362874559
1.91169509125
0.95522494064
0.483498601316
0.24415680106
0.128355532067
0.075331162042
0.0500304423301
0.0358145328077
0.0262408640965
0.0191973333506
0.0139430243037
0.00997302400725
0.00684443059551
0.00434584461057
0.00251110086075
0.00136124536972
0.000742711570203
0.000430869476579
0.000290442837807
3.97681101751
1.82674132409
0.911409723709
0.465435854176
0.239042743198
0.127049086007
0.0743970818768
0.0490986455304
0.0350128457247
0.0256903652428
0.0189345325201
0.0139221412793
0.0101175711545
0.00710387441349
0.00468175736067
0.00285522382897
0.00164349639269
0.000939778437145
0.000561290323518
0.00037463206328
3.53721564492
1.62647578746
0.813013134332
0.421467769392
0.222774785388
0.122028227239
0.0732161588279
0.0491678483901
0.0354271088293
0.0261734427612
0.0194216431999
0.0143946495495
0.0105736800145
0.00756316568373
0.00515182825998
0.00329814890276
0.0019994293509
0.00118791456253
0.000728320302604
0.000493662808798
2.93982540501
1.38073434669
0.701611064285
0.372784477801
0.204479834116
0.117601544469
0.0739931433817
0.0512127737548
0.0374041209631
0.0277778360892
0.0206471785481
0.0153227689471
0.0112990293094
0.0081721649464
0.00569991900206
0.00378096248921
0.00238111031018
0.00146029973848
0.000921526201571
0.000642817368715
2.47854217258
1.21572059408
0.635867279906
0.347409952748
0.197650140519
0.119558137535
0.0790160098239
0.0562254731712
0.0413716357186
0.0305812703639
0.0225550855216
0.0166272837588
0.0122124621323
0.00884938095999
0.00624176134535
0.00422976054555
0.00273004874352
0.00171102084514
0.00110746034074
0.000793395733654
2.36348969355
1.21122585217
0.650335328749
0.361676217685
0.21095416302
0.131840933091
0.0895787446808
0.0645704913884
0.0473651231235
0.0345647178465
0.0251435858031
0.0183188649996
0.0133245779288
0.0095963402428
0.00677642991164
0.00463068136746
0.00302279089229
0.00191520257082
0.00126148848367
0.000923903106971
2.58232795181
1.35142138751
0.732717362831
0.405491710269
0.234009318956
0.146939142902
0.101120693074
0.073612898096
0.0541830685487
0.0394320280594
0.0284827385953
0.0205695325922