/*--------------------------------*- C++ -*----------------------------------*\
| =========                 |                                                 |
| \\      /  F ield         | OpenFOAM: The Open Source CFD Toolbox           |
|  \\    /   O peration     | Version:  2312                                  |
|   \\  /    A nd           | Website:  www.openfoam.com                      |
|    \\/     M anipulation  |                                                 |
\*---------------------------------------------------------------------------*/
FoamFile
{
    version     2.0;
    format      ascii;
    arch        "LSB;label=32;scalar=64";
    class       volScalarField;
    location    "0.275/water";
    object      epsilonm;
}
// * * * * * * * * * * * * * * * * * * * * * * * * * * * * * * * * * * * * * //

dimensions      [0 2 -3 0 0 0 0];

internalField   nonuniform List<scalar> 
1496
(
5811.05685821
2020.20307736
694.462516294
237.604522316
83.0472356976
31.6988734856
13.9104028325
6.92040035607
3.64854950108
1.99656540624
1.17287119473
0.754414008977
0.537976817624
0.422988912672
0.356446112461
0.310801935503
0.273719641469
0.243090465787
0.220586809716
0.206756785207
7319.67824659
2452.93875169
764.966132494
231.26099651
77.8198683975
31.0012203415
14.7727216181
7.94358978028
4.30430776553
2.28289384628
1.27972402208
0.784463055462
0.536692437514
0.411803409822
0.344257777491
0.299447578331
0.261604177982
0.22827411957
0.202391735677
0.185225197228
8037.27867179
2166.26950408
631.109399808
194.879509212
69.0956281621
29.7675670565
15.577197305
9.10521460996
5.12873130932
2.64855967385
1.43990385501
0.852068355507
0.565608858885
0.425467811602
0.35336205377
0.307311808159
0.267261277484
0.230079349493
0.199758620426
0.178295192616
7545.66964252
1953.88374311
552.786587955
174.563111966
65.039488986
29.9154852915
16.7849810164
10.4014276136
6.02900580749
3.033250917
1.62506000243
0.945344779753
0.615892956968
0.458657759563
0.379878103893
0.330503170292
0.286711490305
0.244796355
0.20949946588
0.183354143856
7186.01487927
1858.32849715
519.741621448
166.767282981
64.4821168889
30.8984806171
17.994281836
11.4479269483
6.70598613075
3.40155666938
1.82973162844
1.06086978405
0.684786391111
0.506353629755
0.418479740546
0.363654931228
0.31486855161
0.267928679173
0.227596075172
0.196627659236
7059.85253426
1817.93923291
506.306141323
164.741939781
65.5404168501
32.2173972453
19.0117659456
12.1158707855
6.99029979787
3.70380011509
2.03358645709
1.18943505278
0.768263248278
0.565597837505
0.46529607377
0.402357236053
0.347551429597
0.295797242485
0.250594375159
0.214797234007
6995.24433579
1800.56873493
501.729210037
166.934254728
68.31525082
34.0945767665
20.0357135931
12.5631122632
7.1627186295
3.92600765301
2.20989189984
1.31322384114
0.856082116332
0.631092484809
0.516729741573
0.443383962212
0.381860960367
0.325432437575
0.275342442232
0.234883853582
6977.46612752
1784.95621576
503.156992188
173.31426965
72.8452892912
36.5617681684
21.1430172999
12.8695021596
7.33441786933
4.12799483079
2.37665049611
1.43604431449
0.947171976714
0.70078086883
0.570134378278
0.484746579776
0.416339612951
0.354977400926
0.299294007671
0.254411149115
6975.171679
1770.00554415
511.190553915
182.377904079
78.0147816541
39.0839917325
22.1610499619
13.038556689
7.50974619932
4.32542212378
2.53852020459
1.55743976313
1.03870181248
0.770924607841
0.622266356329
0.524873879139
0.449776742546
0.382346487972
0.319801608265
0.272391042013
7030.21810696
1758.18730658
520.57328713
189.692442889
81.5934073209
40.6954602753
22.7179241418
13.1245983531
7.66658484856
4.49820100227
2.68012426676
1.66668462091
1.1234197856
0.835521725605
0.669931814945
0.562198927203
0.480192464209
0.404093279845
0.334889877402
0.289633448605
7214.44247541
1765.37073795
522.768026074
189.551107148
81.0633519517
40.4213065735
22.4585023959
13.1339437245
7.77386009077
4.6183632532
2.78110238187
1.750004201
1.19213412456
0.888800225782
0.710170288075
0.594415438859
0.50352108873
0.416221628496
0.345460775154
0.307903256346
7812.88349258
1806.66442723
525.974955147
184.907132992
77.8136404104
39.3102120195
22.225048696
13.0985230994
7.80113923883
4.65917121596
2.82539033518
1.79710591172
1.23781727143
0.926014383462
0.740086780809
0.617653281423
0.513866411842
0.418051126156
0.354838387635
0.328444469052
9442.29977647
1988.16202883
559.552016749
190.611091258
79.1359737755
39.7484417933
22.1638440635
12.9631675396
7.69932230966
4.59946468169
2.80557310404
1.80453329536
1.25583192026
0.943711723065
0.756762505532
0.625755616561
0.508094144209
0.414177208285
0.365436600122
0.352369576908
12549.1251389
2464.4374053
672.097949006
219.769713627
86.1712050155
40.7526346584
21.9518717292
12.6197631279
7.4351018388
4.43638504347
2.72311165566
1.7714139844
1.24261921092
0.940357837256
0.756262863335
0.613282834741
0.4898994271
0.409988551305
0.379641732995
0.380088196044
16139.8716796
3140.12428714
856.823516091
263.508738478
94.469430634
41.4030702512
21.3242618942
11.9962083498
7.00685895189
4.1819631906
2.58428956877
1.6944344987
1.19780661672
0.916831649753
0.733881157693
0.582038052701
0.468369995907
0.409364030323
0.400021870724
0.410222659777
18018.775636
3656.05976204
1028.27129409
304.37621401
100.71914729
40.8712111403
20.12682535
11.1079491199
6.45168915946
3.85399222535
2.38958552696
1.57530457105
1.13013969891
0.874845849337
0.69050710879
0.542374666112
0.450287887351
0.416248399981
0.426375253368
0.440118852936
17699.7069643
3823.12738506
1089.97243217
317.684539472
99.6220825963
38.2608902624
18.3194433559
10.0229482271
5.80718532754
3.45926464401
2.1466306557
1.43592167629
1.05312044192
0.817057420593
0.634999791284
0.505525147337
0.440631871957
0.432076546448
0.454614544243
0.463625265349
16373.2691131
3621.43080517
1036.97928725
298.005126417
90.4611009933
33.9555695511
16.1784134257
8.84326957583
5.09308579551
3.02358269361
1.90054296477
1.30549502043
0.975015060765
0.75015431708
0.579837969867
0.477455145456
0.44164088518
0.452818303353
0.479878984152
0.470131171621
14549.1587068
3235.9342386
918.830545888
261.40828691
78.7007894087
29.5479378231
14.0924949389
7.65811686526
4.38738019406
2.63119950956
1.69896381406
1.19852370208
0.899322497845
0.682407496225
0.533000971004
0.460793642748
0.45014677265
0.472621799261
0.491754255972
0.46502865689
12605.9082276
2801.14382078
792.778116916
227.359620785
68.9718851967
25.9053418582
12.2890716645
6.64070857799
3.82603208462
2.3476733178
1.55962295643
1.11529100692
0.828212659828
0.621855630874
0.497906025547
0.452913318974
0.459075390214
0.48289363003
0.486462472318
0.454839402244
10521.6583647
2365.60466946
676.154058064
198.317823213
61.1563295203
23.2169839224
11.0149018956
5.95644505636
3.4811234449
2.18990506049
1.47961203519
1.05200658762
0.765045628929
0.573599456698
0.473628057539
0.446849474511
0.461273933864
0.475449991374
0.475113960601
0.438148282199
8337.40671019
1928.52248927
568.129314169
171.63126422
55.184596368
21.6356429189
10.3766089753
5.66669225283
3.37817629114
2.15684372514
1.45144956047
1.00641595427
0.712428785652
0.536109948808
0.452827908534
0.435143962682
0.449151865262
0.457838743672
0.457959687592
0.403880350397
6321.64117437
1583.59391707
482.494216134
151.45809202
51.9447816809
21.3945774931
10.5828522538
5.87918618676
3.52628460923
2.23321051491
1.46113122401
0.971449747108
0.669659976696
0.504453311728
0.427760127873
0.411894586485
0.422663846847
0.431967899341
0.430608706809
0.350507048797
5389.82364914
1421.26492625
440.499248411
145.139798895
53.6844228676
23.5157680666
11.8982187161
6.64145154281
3.94370306009
2.41988281243
1.50248872619
0.949780600266
0.640078647754
0.475891767767
0.397220985635
0.376088045825
0.382376061226
0.391651908737
0.38559421607
0.288434379791
4962.27298246
1412.26557024
454.520729792
158.140643959
62.2044318055
28.2249530533
14.5213343014
8.10823055635
4.69182953633
2.73150884567
1.59813197258
0.967792861851
0.630071494702
0.452705782557
0.364476282081
0.330580475371
0.326961626751
0.331820510599
0.322338524072
0.230095943854
4807.67638645
1516.7424758
505.71405383
181.613494674
74.0643348378
34.8598840462
18.431522104
10.3282485378
5.82548275209
3.25797402513
1.83290722297
1.05969628203
0.65277797683
0.443132829092
0.336565147348
0.284222360053
0.26470283722
0.260614198969
0.250567780198
0.180528314518
5012.24604858
1606.3372825
545.700372389
200.456746897
83.2701790223
40.6559988876
22.4516782321
13.0826067352
7.52314476768
4.14722416321
2.24895673603
1.23522570077
0.71786799368
0.456531778793
0.322134932627
0.250463013243
0.211974630965
0.194779014702
0.182532056284
0.138295824727
4817.48787091
1545.33679952
537.428839696
206.209846884
90.3991106707
46.1823794535
26.8307937923
16.7257112449
10.1083877559
5.50969485095
2.85929431013
1.47834133139
0.809665716304
0.490235932863
0.326852599445
0.235424310563
0.180035106679
0.147518739093
0.129041988977
0.10266495715
3758.92256411
1224.80827007
445.685333288
183.740072035
87.8179559584
48.8905393302
30.9207709609
20.8705940495
13.6225743345
7.55353188002
3.70734304397
1.80231406122
0.930523895054
0.535885405002
0.344814022225
0.237316624817
0.167953016535
0.121828514996
0.0947889309055
0.0748781405474
2944.81455976
964.323437901
359.860804215
156.83641391
80.8002124164
48.6004142819
32.8889989964
23.5237788034
16.4220537611
9.8735124204
4.73093166094
2.19306996674
1.08180573391
0.596629446809
0.370606194073
0.248690443376
0.168400238181
0.112211076274
0.0770997884703
0.056464220994
2553.74705924
819.50311504
306.6702317
137.287640127
73.7868831528
46.5797228824
32.8920799822
24.3786497363
17.6091085745
11.0874151119
5.43346122835
2.53323077299
1.23382651611
0.66459792531
0.402016177291
0.263435996871
0.173930305399
0.110667933755
0.0698556893024
0.0468624749579
2223.94868734
742.893431488
284.885107111
126.854401128
68.2865754968
43.8607257338
31.5996268321
23.7485287664
17.2405357568
10.7976156197
5.45260196866
2.62395863006
1.30391628453
0.707354369753
0.425933021609
0.275181784004
0.178190882474
0.110642861181
0.0671557462057
0.0430385880528
2029.62055203
696.542460148
263.965562897
115.11449456
62.0147454671
40.5484887573
29.4866252331
21.9133672095
15.4306669337
9.3924399619
4.92139361013
2.46718517764
1.27183893688
0.709520210277
0.433047532
0.278509219589
0.177199407784
0.107934758804
0.0646285300563
0.0417673861181
2614.77841901
781.044897399
258.283447154
103.333936103
56.0383056144
37.486051217
26.9453748919
19.2126169043
12.9329950488
7.73838542617
4.17217388518
2.176740006
1.17197384169
0.679303728156
0.423501516618
0.271259613171
0.169218164492
0.101065183655
0.060530873712
0.0419384562972
4026.40545429
1023.6828372
286.984279101
99.6133864528
53.044058924
35.4657824392
24.5679147305
16.5884620305
10.6499477118
6.286638772
3.45369130512
1.86716093029
1.05043029283
0.632995518118
0.40159394772
0.254253953006
0.154387160118
0.0901643356109
0.0547050094081
0.044437613713
5069.0385572
1343.32051562
353.410386075
108.592142544
53.5941284365
34.4927607603
22.7867657013
14.5945493305
8.94662395594
5.17345952116
2.86771818633
1.59738296263
0.935272157478
0.581858511734
0.371019624654
0.230176961981
0.134686951567
0.0767484515018
0.0481450446782
0.0531359422092
5263.8927505
1545.4053023
436.050128563
131.122617746
58.3446575053
35.1579979365
22.1998454569
13.5740127288
7.95743625231
4.47681316857
2.4747892573
1.40298683309
0.842102284092
0.529842135452
0.33522781135
0.200894270843
0.111546076995
0.0615299486133
0.0415206980255
0.0723006083455
0.258955196242
0.182987166334
0.0842944006762
0.064409825995
0.137480567449
1.03521024277
3.20508030886
13.2901634814
24.6760691148
25.2836358169
20.1612105129
8.83702708701
1.82056181282
0.434455604617
0.150889569861
0.221327593664
0.204665505473
0.229070062612
0.265328137951
0.269048247318
0.247546724312
0.216414401144
0.116956702539
0.0550256391867
0.0848791644031
0.431972144105
2.55449377282
14.3144648874
27.6339944243
27.6117437814
21.5324210956
6.94224543815
1.3503205434
0.346974009098
0.13072832188
0.190142645737
0.178636571848
0.196869065563
0.233965476695
0.241880493819
0.227981670469
0.207496392296
0.136872232969
0.0528908036749
0.0806881327651
0.446820603803
2.81609383439
16.413597446
29.1489164233
27.6701959183
20.0504557192
4.67524448539
0.933190566833
0.271651192961
0.111461062346
0.161221699396
0.166409026494
0.176528549634
0.207029720756
0.215137879514
0.206705713102
0.189258065047
0.132789848442
0.0510762556997
0.0953296246286
0.589880960331
3.36005021911
19.0892839799
29.2348080434
26.1812400236
15.7792742453
2.90863942067
0.649526458746
0.218561971124
0.0949800777423
0.135635279506
0.166156866017
0.168804825493
0.188661405919
0.193999252601
0.187962736775
0.17194790392
0.121357742678
0.0481796939162
0.122152652193
0.80404805885
3.98262850387
21.2078398143
28.3756020671
23.6457533911
10.7089576563
1.84231180016
0.479552192289
0.1814728032
0.0821653313585
0.115247707327
0.174663980895
0.171219597109
0.17975777618
0.180668474862
0.174256833583
0.157800333849
0.110270396636
0.0460337911508
0.152244366383
1.0151496652
4.50761547119
22.3570624601
26.8262251431
19.7482382786
6.61086993352
1.27899602922
0.384566353943
0.15600445969
0.0731085007366
0.0994202855989
0.188679156438
0.180194435466
0.179368055633
0.175198357391
0.166530649685
0.148848927259
0.101941965004
0.0461069170566
0.177332973411
1.19710763734
4.93992100301
22.7638832685
25.2576102369
15.1506727222
4.20427236576
0.99837523693
0.335519994083
0.141301538921
0.06690398116
0.0869726067051
0.205642202289
0.193376717584
0.186070560684
0.176670777617
0.16476068642
0.144655720083
0.0976724717197
0.0481774699819
0.190036794703
1.34828620584
5.36118284537
22.5796331915
23.3114156646
11.3200024303
3.15011823796
0.879603247272
0.316773317153
0.134681121098
0.0632169134249
0.0781224499377
0.223960810476
0.209982210733
0.198391257101
0.183855321133
0.168485243161
0.143945599672
0.096223306682
0.052179380037
0.187987917131
1.45085937269
5.703336101
21.8138432374
20.654323506
9.09820973766
2.79854074271
0.85893642333
0.320734179479
0.136632519693
0.0629133973425
0.0731550118039
0.243695298717
0.230202709904
0.215067748998
0.19537451872
0.17670558909
0.145381224556
0.0965322611377
0.0592814303078
0.183650313076
1.47325512222
5.84998089739
20.8954541215
18.3811096146
8.18452065304
2.77289021758
0.89841685918
0.339244214413
0.144389084368
0.0648884508318
0.0703229624303
0.265558187267
0.254124177705
0.235073358366
0.209986120414
0.18753437201
0.147868645647
0.0978395083534
0.0675780820921
0.20012366482
1.40105248999
5.93353429314
20.3299746721
17.2031797241
8.05198867922
2.93259098994
0.975592669138
0.364489590258
0.154401029679
0.0676942667266
0.0681548749775
0.290146418765
0.281029740495
0.257056085193
0.226476325011
0.196499693577
0.150201511749
0.0993779389436
0.07644792423
0.220924407355
1.31274518785
6.19469121975
20.5916080837
17.1962893622
8.42754990322
3.18707010954
1.05761753952
0.385468403135
0.163552021204
0.0703145640614
0.0658320450428
0.317675167702
0.308725501655
0.279307280629
0.243876023684
0.203329378349
0.150815600819
0.100245407331
0.0864998134706
0.249740509103
1.39658280699
6.79734096714
21.9377905344
18.3401253989
9.08743384854
3.40747255311
1.09800255416
0.389239414335
0.166892879266
0.071493917882
0.0618845253168
0.347857575737
0.334817465389
0.299920684028
0.2608580035
0.20645868304
0.147843511445
0.100192726654
0.0997360325167
0.301863786819
1.66956403934
7.94104713067
24.774693934
20.5259877748
9.72340182326
3.45784809165
1.06767281443
0.370413145355
0.160560697321
0.0695733145065
0.0552224740123
0.379189814226
0.356724141103
0.317319466186
0.270284106116
0.203764799238
0.14002343437
0.101226390831
0.119874197375
0.410159736118
2.27726172665
10.2298872154
29.0324794058
23.6300530393
9.9183104533
3.24962987705
0.956331947591
0.330044771719
0.144713117269
0.0639624603754
0.0464354376124
0.406977276076
0.372286350683
0.33062527195
0.267400564923
0.192934170405
0.127674460749
0.107855328054
0.156734407215
0.659739448082
3.58018011857
14.5155427867
33.8499462769
26.8507107852
9.38822650775
2.76689059533
0.784405249973
0.277262049945
0.123636846221
0.0552464728148
0.0367009335866
0.422331443855
0.381106729303
0.333891038762
0.253123023786
0.171154268152
0.11685951475
0.125664303008
0.239046889523
1.2804391168
6.08850015767
21.5045098009
37.8737946735
28.7327281585
8.16399224017
2.12725085528
0.59777257415
0.22539770068
0.104118117929
0.0467080840637
0.0275119898305
0.426303402028
0.383208563179
0.317457613898
0.225695048018
0.141079301399
0.119554964395
0.16154113268
0.460760599804
2.83826856239
10.4024856865
29.2847425161
39.2348659452
27.4701276269
6.40520509848
1.4960535125
0.436865486123
0.181362321223
0.0908017321201
0.0447456510253
0.023202357032
0.422958660704
0.371346358681
0.285543507025
0.184104014849
0.122160392702
0.137641553507
0.244077341539
1.13685606345
5.66278707112
16.9342036823
34.4214165418
37.4460965441
22.7192949463
4.4351587093
0.987519436643
0.31705466022
0.144191073683
0.0797903395052
0.0483488156543
0.0319246033039
0.413212218934
0.335576941677
0.236218680696
0.138716528071
0.125916770738
0.171167315783
0.486554963253
2.87802841802
9.94435244557
24.1289251738
35.8576093534
33.2788047806
16.3042548259
2.72719964135
0.634390686298
0.23389745638
0.115318398966
0.0698310670712
0.0513860871561
0.0460304378164
0.386513056288
0.280337368352
0.170711758676
0.118860433901
0.140429907964
0.252481796855
1.2559077158
5.52375035419
15.8751214986
28.664275802
34.17757795
26.6753856169
10.2484043109
1.55003634765
0.413969476347
0.174418364698
0.0930858406103
0.0614098243037
0.054460557736
0.0625728261126
0.335309827635
0.212661175312
0.120483322151
0.120873343416
0.17183355927
0.530273185921
2.63348955516
9.65933764373
21.0486122768
29.9563770207
29.9914508471
18.8875177066
5.54466091075
0.867564817566
0.28270826146
0.132386200993
0.0759931947341
0.0546784035341
0.0581908843858
0.0803855441471
0.267922797567
0.149412461066
0.10704292532
0.132088911526
0.267158632754
1.13148664573
4.56561630446
14.8529419974
24.1713695285
28.2590665202
23.4061144733
11.9875433209
2.59910826683
0.507790588604
0.199113135868
0.103163852852
0.0631937060439
0.049916727095
0.0628052336804
0.0963529590306
0.197512063581
0.106401439839
0.105548891065
0.16255843239
0.470455929781
1.93865340742
7.17663807445
19.132031742
24.9422000567
23.6046809135
15.9735087014
6.80526231329
1.17479498411
0.320207330259
0.145947856914
0.083718291255
0.0557805951052
0.0489785085267
0.0669225644461
0.10254564873
0.142768432762
0.0892901365916
0.108026290959
0.21394711075
0.731816649077
2.68425274413
9.92304994409
21.7546732716
23.4469437743
17.4816865368
9.83397861276
3.34846591479
0.599022483355
0.215148380649
0.115321732805
0.0740380417304
0.0551876616313
0.0525201871453
0.0659749222833
0.0854536935292
0.109079242218
0.0790353839632
0.113385541901
0.271542119718
0.892982040808
3.0257331088
11.6403733547
22.7637358916
21.3943636287
12.4944663291
5.74938679141
1.54010119724
0.35480765426
0.163420922671
0.10471620798
0.0767922902295
0.0619135774089
0.0556616817049
0.0532938815114
0.0459572379881
0.0872783550116
0.0690526796298
0.115451500123
0.299577011951
0.826995495389
2.67127818461
10.7048714239
21.8986117643
19.5130005239
9.36906396263
3.5753989055
0.911905191622
0.282149552411
0.151184175335
0.114465983104
0.103490272012
0.0956370104852
0.0845227752152
0.0702990180574
0.0548624566684
0.0705865116738
0.0588854397089
0.112960876027
0.296312833409
0.647968549603
1.83124125472
7.04381882377
18.3369940008
16.6003653199
7.52327182537
2.9082087662
0.976014054712
0.38103298677
0.18697903205
0.130914841352
0.137509106676
0.171592799042
0.191852820123
0.177511498085
0.162436574404
0.0582457321612
0.0493368801293
0.111616562128
0.286402148606
0.474415268046
1.08008554653
3.54553759803
11.9950671654
11.7023996404
6.07733632499
2.86506095661
1.29661674916
0.650706015807
0.340956840107
0.194110335893
0.168342945914
0.252362812581
0.41270462413
0.442136795806
0.363705862072
0.0483450461865
0.0416868716579
0.115452047182
0.299509918577
0.364997325731
0.621589155909
1.67339797396
5.99323333735
6.74948458244
4.26938302626
2.45251363327
1.35705482849
0.762897542432
0.456960248468
0.293146797783
0.248924007775
0.436947081396
0.746634005897
0.623677491636
0.614591889977
0.040212852774
0.0388502629253
0.127509639838
0.35228455758
0.32495912945
0.386320010081
0.819558641668
2.62683603132
3.41255687912
2.61862308571
1.80881317177
1.15467842014
0.71558966787
0.462271329341
0.351111449333
0.428176399298
0.789046519889
0.817461735105
0.669308775976
0.796643954891
0.0351087752318
0.0413785992151
0.16459117797
0.431202382291
0.336885073412
0.288652430664
0.437064140363
1.15278201984
1.66265900462
1.51094961438
1.20864489466
0.876563901813
0.620404162762
0.479989703877
0.493932683222
0.758493296933
0.909849467449
0.871097059947
0.78792403696
0.804804747896
0.0337950666883
0.0527300628007
0.277637442453
0.530129224356
0.376504464666
0.266301676473
0.277946806611
0.533701286216
0.815699846258
0.864446953213
0.785135278774
0.657082341492
0.579544897545
0.603338029788
0.764391430039
0.924139351475
0.975969232643
1.03982970881
0.933743588564
0.849740455553
0.0379419536617
0.0887516466141
0.543948877135
0.630114628013
0.427043682016
0.277110608274
0.231195060524
0.30896906364
0.426200171776
0.520404229874
0.540718278014
0.564406982587
0.701374725666
0.857477098146
0.919124665019
0.949462728709
1.09880655185
1.21643066211
1.0538893702
1.03542242117
0.0507925106465
0.207185503815
0.727156887313
0.736834266717
0.47735064688
0.297674889137
0.223031239223
0.236186434199
0.276370068708
0.328544998204
0.414474619153
0.685440412869
0.962245799868
1.01913037934
0.944086731168
0.966916575659
1.17559649398
1.32650477843
1.08454444089
1.39797374036
0.0837095186777
0.552613242325
0.872570358644
0.816296495638
0.51120080576
0.317487396379
0.225566447395
0.220439729918
0.252155979827
0.33410962546
0.583440426512
0.988278174993
1.1644215727
1.17446274876
0.98313938695
0.953432066984
1.14057578789
1.3272085646
1.0164064349
1.89939828988
0.186098795199
0.825791899022
1.02760653299
0.846564385315
0.526333902584
0.332778507225
0.238387531332
0.248537556382
0.308327984973
0.500522384566
0.951877075165
1.23703655871
1.49078973811
1.43045766236
1.04469522219
0.904135760378
1.0174516755
1.18831174252
0.885405158052
2.00470786003
0.472986953077
0.892640517938
1.12200428602
0.882793374362
0.543646194373
0.327536698917
0.277172089517
0.316375538314
0.421352465167
0.771859855356
1.13361737353
1.56691158599
1.87627313195
1.71048513409
1.12513391388
0.854368185153
0.897411976704
1.04775090504
0.746362626723
1.50409383273
)
;

boundaryField
{
    emptyPatch
    {
        type            empty;
    }
    minY
    {
        type            fixedValue;
        value           nonuniform List<scalar> 0();
    }
    maxY
    {
        type            inletOutlet;
        inletValue      uniform 0.0001;
        value           nonuniform List<scalar> 
40
(
5263.8927505
1545.4053023
436.050128563
131.122617746
58.3446575053
35.1579979365
22.1998454569
13.5740127288
7.95743625231
4.47681316857
2.4747892573
1.40298683309
0.842102284092
0.529842135452
0.33522781135
0.200894270843
0.111546076995
0.0615299486133
0.0415206980255
0.0723006083455
0.472986953077
0.892640517938
1.12200428602
0.882793374362
0.543646194373
0.327536698917
0.277172089517
0.316375538314
0.421352465167
0.771859855356
1.13361737353
1.56691158599
1.87627313195
1.71048513409
1.12513391388
0.854368185153
0.897411976704
1.04775090504
0.746362626723
1.50409383273
)
;
    }
    water_to_cooler
    {
        type            fixedValue;
        value           nonuniform List<scalar> 
38
(
0.642365658929
0.577219789904
0.51667884251
0.46431991445
0.423282222071
0.39246764177
0.369678381553
0.355572942232
0.351967304575
0.35425219979
0.358994564872
0.363547261284
0.36478419337
0.360057601876
0.350298756504
0.337254138295
0.319799792285
0.306294274652
0.3148620884
0.339053173974
0.374483034457
0.419380683801
0.468556428207
0.505336712001
0.509259106471
0.529218566214
0.734989764212
1.21496795959
1.90956604731
2.36501932247
2.60625662693
2.6887794654
2.86968734305
3.22568952748
3.71597317308
4.26143794985
4.16596586133
3.23288845872
)
;
    }
    water_to_heater
    {
        type            fixedValue;
        value           nonuniform List<scalar> 
59
(
20394.8150825
20394.8150825
29593.3324355
36854.939634
37567.4535742
37567.4535742
36865.8038284
36865.8038284
36405.9138792
36405.9138792
36219.3829551
36045.5898
35757.3061565
35757.3061565
35395.5300477
35395.5300477
35253.4379352
35253.4379352
36196.7279789
40591.397752
49612.0693946
49612.0693946
61458.6002329
61458.6002329
67999.3766758
67999.3766758
68005.3341983
62945.4487728
55197.3894571
55197.3894571
45967.9669985
45967.9669985
36417.4703531
36417.4703531
26804.8139493
19039.2669778
15232.4995213
15232.4995213
13776.7684095
13776.7684095
14380.7331735
14380.7331735
16137.6931825
15953.4452082
12931.0008588
12931.0008588
10557.1314106
10557.1314106
9088.42468188
9088.42468188
8060.00221729
7829.58163986
9855.36068999
9855.36068999
13756.6928906
13756.6928906
16566.4866633
16566.4866633
17485.9070946
)
;
    }
    procBoundary0to1
    {
        type            processor;
        value           nonuniform List<scalar> 
41
(
5045.74394476
1672.33921558
581.176090947
210.244424009
77.2284584933
29.4854033757
12.3894637588
5.94344725762
3.18332297581
1.84196864277
1.14788947288
0.775619478672
0.572329782433
0.458101019475
0.388984746987
0.341234093501
0.304168069418
0.275258330945
0.254543375058
0.242028344546
0.255302458362
0.12084806874
0.0715528321922
0.0953860757091
0.412040458305
4.23362903243
6.21125949732
14.0573180119
21.3783157483
21.3263985381
16.8195188328
9.03308993471
2.11601740824
0.497574819591
0.168949406172
0.256720175049
0.24236743276
0.268916073018
0.294147373333
0.28960775656
0.28960775656
)
;
    }
}


// ************************************************************************* //
