/*--------------------------------*- C++ -*----------------------------------*\
| =========                 |                                                 |
| \\      /  F ield         | OpenFOAM: The Open Source CFD Toolbox           |
|  \\    /   O peration     | Version:  2312                                  |
|   \\  /    A nd           | Website:  www.openfoam.com                      |
|    \\/     M anipulation  |                                                 |
\*---------------------------------------------------------------------------*/
FoamFile
{
    version     2.0;
    format      ascii;
    arch        "LSB;label=32;scalar=64";
    class       volVectorField;
    location    "0.47/water";
    object      U.gas;
}
// * * * * * * * * * * * * * * * * * * * * * * * * * * * * * * * * * * * * * //

dimensions      [0 1 -1 0 0 0 0];

internalField   nonuniform List<vector> 
1503
(
(0.0636024162311 0.324801091719 0)
(0.107738040346 0.205381927413 0)
(0.102448126295 0.179568781282 0)
(0.112362706855 0.161621355849 0)
(0.110551584257 0.155904274545 0)
(0.111389924857 0.151880937138 0)
(0.100202706511 0.149655927101 0)
(0.0836433160875 0.157521430261 0)
(0.0796041466492 0.244825217447 0)
(0.0766827506543 0.281063870498 0)
(0.0674241494983 0.283864787358 0)
(0.060596506269 0.284895819561 0)
(0.0539548297422 0.285939293947 0)
(0.0476995486337 0.286939312667 0)
(0.041729745812 0.28789658436 0)
(0.0359888557497 0.28879453502 0)
(0.0304191153135 0.289614898116 0)
(0.0249677508874 0.290338539329 0)
(0.0196082500851 0.290944129216 0)
(0.0143643084464 0.291410607436 0)
(0.0260360352833 0.669483913785 0)
(0.0713368047497 0.463017867483 0)
(0.0900133007151 0.404420214865 0)
(0.0958262142993 0.369745337486 0)
(0.102489677728 0.354893686044 0)
(0.103516773836 0.346454029416 0)
(0.101783315315 0.34205730435 0)
(0.093047498627 0.351188681721 0)
(0.0645115848496 0.467789957892 0)
(0.0313010929391 0.521776766017 0)
(0.0188832784055 0.522391802475 0)
(0.0162372545504 0.522325936295 0)
(0.0140875858642 0.522408631674 0)
(0.0121553296338 0.522548800946 0)
(0.0103717989615 0.522741976557 0)
(0.00870486647013 0.522975921637 0)
(0.00714396221931 0.523234618745 0)
(0.00568332190308 0.523497568958 0)
(0.00431585542545 0.523739912891 0)
(0.00303875187471 0.523937240217 0)
(0.0298499996263 0.762953453426 0)
(0.0681930770225 0.571764817539 0)
(0.0789042807437 0.492476559879 0)
(0.0843959117467 0.452537541321 0)
(0.0890659371298 0.430707952106 0)
(0.0909536702159 0.418632284455 0)
(0.0908863235023 0.411804486594 0)
(0.0873512090586 0.411472563748 0)
(0.0729619455815 0.453064835732 0)
(0.0394392054573 0.48603078072 0)
(0.0151576447397 0.486403418162 0)
(0.0124177784086 0.484632045617 0)
(0.0112710870952 0.483061219939 0)
(0.0101337170715 0.481644513471 0)
(0.0090149731692 0.480354006707 0)
(0.00787883666118 0.479196211382 0)
(0.00670566070724 0.478184460764 0)
(0.00549466425203 0.477329006005 0)
(0.00425775546595 0.476635380469 0)
(0.00302727268186 0.476107193042 0)
(0.0409704536393 0.870879912492 0)
(0.0851823693324 0.675004343239 0)
(0.0890850151554 0.568424188576 0)
(0.09036154501 0.515228388099 0)
(0.0903609356048 0.485700033381 0)
(0.0886180111583 0.467686765955 0)
(0.0859581351088 0.456184815829 0)
(0.081961230004 0.450490224921 0)
(0.0743391164281 0.466067816658 0)
(0.0497561014961 0.488582762196 0)
(0.019140372865 0.49469315284 0)
(0.00767873437953 0.493481636386 0)
(0.0071220663034 0.492329169346 0)
(0.00652765912127 0.491285184516 0)
(0.00590258695822 0.490293760038 0)
(0.00524923900837 0.489348867392 0)
(0.00454410718288 0.488468516589 0)
(0.00377135172568 0.48767798283 0)
(0.00293177619241 0.487001458294 0)
(0.00205703534521 0.486460137802 0)
(0.0482724062977 0.924282675797 0)
(0.0994884096096 0.756044381083 0)
(0.101401976836 0.631957267059 0)
(0.0997910308422 0.563701089489 0)
(0.0974367106081 0.525770749485 0)
(0.0931872837398 0.502204359181 0)
(0.0877293437726 0.486397314482 0)
(0.08147289713 0.476185518325 0)
(0.073907593659 0.478006200471 0)
(0.0597358864815 0.487737378867 0)
(0.0285025512613 0.493588724234 0)
(0.00583368398793 0.493156999224 0)
(0.00436491468529 0.492124593409 0)
(0.00401748190313 0.49122503063 0)
(0.00361891735951 0.490379330959 0)
(0.00320273587231 0.489560321334 0)
(0.00275674822127 0.488773313161 0)
(0.00226020555125 0.488040638038 0)
(0.001703624489 0.487390950675 0)
(0.00111009614849 0.486853235143 0)
(0.0530478287062 0.950662748073 0)
(0.10860252509 0.812037810684 0)
(0.109211020315 0.688869936866 0)
(0.106135767696 0.605863356771 0)
(0.103277372131 0.558709687139 0)
(0.0990058138989 0.52930273543 0)
(0.0927973438475 0.509273788546 0)
(0.0849205791587 0.49523569741 0)
(0.0760026508196 0.489371171979 0)
(0.0650908390322 0.490812088784 0)
(0.0387677621264 0.493610095769 0)
(0.0105622111871 0.493990853009 0)
(0.00236731136109 0.492958012503 0)
(0.00220535213259 0.492182271258 0)
(0.00197964289245 0.491484002088 0)
(0.00172117356648 0.490816859539 0)
(0.00143690082444 0.490170730824 0)
(0.00111367200927 0.489557677173 0)
(0.00074117540702 0.489001423573 0)
(0.000339164959799 0.48852964014 0)
(0.0539232833647 0.960903390704 0)
(0.110128732319 0.845999874996 0)
(0.110877514168 0.734572778808 0)
(0.107631390167 0.64541238199 0)
(0.104639773474 0.587668150461 0)
(0.101606576057 0.552082750671 0)
(0.0967992707213 0.527773148946 0)
(0.0893759903686 0.510179196241 0)
(0.0799702178525 0.499237404751 0)
(0.0691936086728 0.494842905324 0)
(0.0519816400158 0.494163632614 0)
(0.0210841434241 0.493695052323 0)
(0.00128728037485 0.493192278784 0)
(0.000922468970624 0.492538648272 0)
(0.000883839139121 0.491981426566 0)
(0.00076966430717 0.491461602716 0)
(0.000607640137793 0.490958496011 0)
(0.000398382810649 0.490475128803 0)
(0.000137734382109 0.490028782426 0)
(-0.00015255460876 0.489643946962 0)
(0.0525552170728 0.967909069942 0)
(0.107234912453 0.866640934416 0)
(0.108403744879 0.76763292421 0)
(0.105708014991 0.681675672832 0)
(0.102941414534 0.615566692616 0)
(0.101057191993 0.572761250486 0)
(0.0983226172286 0.544098822792 0)
(0.0928211362219 0.522969165207 0)
(0.0842315336966 0.507998501189 0)
(0.0737204997478 0.499257784716 0)
(0.0608844205272 0.495364481944 0)
(0.0323224777105 0.493451972518 0)
(0.00566584025053 0.493230798725 0)
(0.000369070960708 0.492669463994 0)
(0.000469426138511 0.492279075819 0)
(0.000448078616265 0.491931173853 0)
(0.000347082982529 0.49159195964 0)
(0.000180479812135 0.491256425744 0)
(-4.58197863706e-05 0.490936069549 0)
(-0.000307907109425 0.490651555112 0)
(0.0528355787739 0.972548054847 0)
(0.108488642652 0.878973522088 0)
(0.109282344846 0.791390766657 0)
(0.105446095006 0.712175368002 0)
(0.102318991961 0.644293338881 0)
(0.100587209789 0.593846800022 0)
(0.0993208183892 0.560298231804 0)
(0.0958671303739 0.535412851708 0)
(0.0887793155266 0.516656019732 0)
(0.0789162680065 0.504131647775 0)
(0.067391787855 0.49729122085 0)
(0.0493445961305 0.494216712628 0)
(0.0193399338116 0.492232589172 0)
(0.00112295747136 0.492586445139 0)
(0.00101755802191 0.492447656837 0)
(0.000967506325807 0.492320118227 0)
(0.000803357546536 0.492175451551 0)
(0.000557869256318 0.492005349764 0)
(0.000248566521957 0.491818775735 0)
(-9.8919956578e-05 0.491633054816 0)
(0.0526295353849 0.972436166854 0)
(0.108770292886 0.884325063909 0)
(0.109871542245 0.807519710064 0)
(0.105962843609 0.736501837028 0)
(0.103426125352 0.672283559669 0)
(0.102058515811 0.617773253417 0)
(0.10132915368 0.578279020386 0)
(0.0991836232912 0.549326138035 0)
(0.0936195481629 0.526648237033 0)
(0.0846286738251 0.510328539854 0)
(0.0740100385663 0.500588374779 0)
(0.0611019634695 0.495798219868 0)
(0.0330095006642 0.492607409787 0)
(0.00775772194837 0.492691162233 0)
(0.00296955679619 0.492868431214 0)
(0.0025786484794 0.492967338889 0)
(0.00209783463258 0.493006215517 0)
(0.00156304869911 0.492977494989 0)
(0.0009922228248 0.492890267039 0)
(0.000411749490089 0.492764284656 0)
(0.0510986008113 0.970967129153 0)
(0.106669604479 0.885792854499 0)
(0.109265859033 0.817603427478 0)
(0.106681835969 0.755367405719 0)
(0.105528247673 0.697803187627 0)
(0.104738425313 0.644719479291 0)
(0.10394567867 0.599972264888 0)
(0.102247220171 0.566287158416 0)
(0.0978701483414 0.539347603263 0)
(0.0900079544783 0.518988256303 0)
(0.0801028970591 0.506051023311 0)
(0.0689813132997 0.499174151018 0)
(0.0506977464248 0.495867796306 0)
(0.0226455494646 0.493284381783 0)
(0.00625928323266 0.494156269603 0)
(0.00504346576062 0.494369491714 0)
(0.00395769380904 0.494475100761 0)
(0.00290489574565 0.494471724621 0)
(0.00189717767313 0.49437405838 0)
(0.000957317461314 0.494208192203 0)
(0.0483863684524 0.97263759031 0)
(0.102479566113 0.887024534283 0)
(0.107265587452 0.824791473923 0)
(0.106704841657 0.77125911492 0)
(0.107202377835 0.722010299125 0)
(0.107078975199 0.673608218027 0)
(0.106023893371 0.626591600711 0)
(0.103995906367 0.587107623163 0)
(0.100316986404 0.555709988921 0)
(0.0937445824232 0.531131200684 0)
(0.0846401191589 0.514441250055 0)
(0.0745424714562 0.50495579103 0)
(0.0614771663965 0.500277915963 0)
(0.033726236658 0.496163059282 0)
(0.0111806827308 0.496908491929 0)
(0.00743554718893 0.497013329264 0)
(0.00553367905368 0.496921934686 0)
(0.00383891280766 0.49671312671 0)
(0.0023320052261 0.496408403914 0)
(0.00100987127432 0.496037439982 0)
(0.0447139401857 0.985421458219 0)
(0.096064242092 0.893362144933 0)
(0.102724015313 0.833638087722 0)
(0.103856094506 0.78753676142 0)
(0.105471897415 0.746599157476 0)
(0.105803641255 0.703757013523 0)
(0.104618853065 0.656817769986 0)
(0.102417159276 0.611482869879 0)
(0.099386334737 0.575584397615 0)
(0.0940670409055 0.546792291671 0)
(0.0858729581878 0.525824406448 0)
(0.076244455212 0.512897748248 0)
(0.0649489462452 0.505862342606 0)
(0.0426581543356 0.501914684972 0)
(0.0179843328693 0.501505792086 0)
(0.00784414083381 0.501036368657 0)
(0.00530764670295 0.500352132612 0)
(0.00316696346675 0.49962792293 0)
(0.00135880024129 0.498870435689 0)
(-0.000153505248305 0.498103726656 0)
(0.0446944815336 1.00823143059 0)
(0.096937673302 0.908082918505 0)
(0.102757506315 0.848959051453 0)
(0.101215776378 0.807773544218 0)
(0.101391758748 0.773232751318 0)
(0.101048756899 0.734674602166 0)
(0.0998293167008 0.687942450835 0)
(0.0978986944475 0.638010136004 0)
(0.0952622017148 0.597223569247 0)
(0.090545465864 0.564335939384 0)
(0.0828631018033 0.538855438711 0)
(0.0731894204507 0.521771563139 0)
(0.0621960987824 0.51165194099 0)
(0.0464919205732 0.506692236234 0)
(0.021154811637 0.506883541568 0)
(0.00418513291087 0.505666598744 0)
(0.00163542397878 0.504097631028 0)
(-0.000333215265543 0.502607857725 0)
(-0.00191112805894 0.501220743072 0)
(-0.00316151233286 0.499941647083 0)
(0.0472078978106 1.0364488061 0)
(0.101053015854 0.932748818043 0)
(0.103787260707 0.873612861293 0)
(0.0980288972982 0.834603935788 0)
(0.0949528706751 0.802736878502 0)
(0.0931449676533 0.765038471695 0)
(0.092072286988 0.717079608937 0)
(0.0906862607318 0.663970646403 0)
(0.0881756965129 0.617715013616 0)
(0.0835714233749 0.580548634637 0)
(0.0760277469209 0.550622490721 0)
(0.0661027745382 0.529166012489 0)
(0.0551145067549 0.515471118857 0)
(0.0421066190339 0.50783460123 0)
(0.016636386984 0.507854503598 0)
(-0.00366467108853 0.50951789949 0)
(-0.00638799248808 0.506752222418 0)
(-0.00722201118946 0.504489426659 0)
(-0.00778231403503 0.5025235022 0)
(-0.00813864752014 0.500813162263 0)
(0.0505641522152 1.07008464452 0)
(0.103480581163 0.96523810616 0)
(0.099826334554 0.904475536237 0)
(0.0897604240942 0.86504394136 0)
(0.083665548846 0.831307666088 0)
(0.0815038398557 0.790233576181 0)
(0.0817170618361 0.739500388674 0)
(0.0816111374126 0.684435945188 0)
(0.0796356495936 0.633568065816 0)
(0.0753260994948 0.591503249335 0)
(0.0682594293295 0.557493895255 0)
(0.0583809100898 0.532133712966 0)
(0.0468181563818 0.51513778126 0)
(0.0345015615014 0.504939045125 0)
(0.0167592697649 0.50217390745 0)
(-0.00671709107683 0.508781037924 0)
(-0.01809402094 0.506307880922 0)
(-0.0167322159685 0.503836920573 0)
(-0.0154785763863 0.501722241283 0)
(-0.0143486631193 0.499956381247 0)
(0.0501262782239 1.1016234171 0)
(0.0968036024702 0.995975425959 0)
(0.086906665087 0.932137087936 0)
(0.0762393500356 0.890228086917 0)
(0.0707615375263 0.851466397293 0)
(0.0704936934021 0.80479161864 0)
(0.0728137200769 0.751058262655 0)
(0.0745550189115 0.695212468688 0)
(0.0741467133187 0.642508243547 0)
(0.0711960158113 0.596543622425 0)
(0.0653765570495 0.558863585865 0)
(0.0561936386445 0.530296242037 0)
(0.0440920058475 0.510591604155 0)
(0.031508569188 0.49850424514 0)
(0.0185227480587 0.4934335688 0)
(-0.00845258094012 0.498450684313 0)
(-0.0282201523234 0.502028407452 0)
(-0.0262039984845 0.499751741714 0)
(-0.0228669101605 0.498270885518 0)
(-0.0200850180782 0.497057099651 0)
(0.0465176477626 1.12697510848 0)
(0.0881822667002 1.02068084191 0)
(0.0779579021303 0.952980493442 0)
(0.0694348400105 0.907021640815 0)
(0.0659748810643 0.862512392474 0)
(0.0673436545363 0.810676182346 0)
(0.0710483959113 0.754703662091 0)
(0.074445170605 0.698880856169 0)
(0.0760625365652 0.646465694953 0)
(0.0750825125815 0.599585855004 0)
(0.0706005971704 0.559673116823 0)
(0.0621573447113 0.527960889965 0)
(0.0501976599282 0.50534418149 0)
(0.0367338067314 0.491323151537 0)
(0.0242106106041 0.484934639679 0)
(0.00784455344108 0.485398028011 0)
(-0.0185961367438 0.492361447042 0)
(-0.0318613010713 0.492996121096 0)
(-0.0270904638496 0.492815124353 0)
(-0.0232180015123 0.492680358811 0)
(0.0478874123615 1.14467352911 0)
(0.0921575725449 1.04042259412 0)
(0.0828116464957 0.972150020906 0)
(0.0739585897674 0.922053062489 0)
(0.0705067097461 0.871839488617 0)
(0.0719834497123 0.815586916288 0)
(0.0762180564564 0.757837552924 0)
(0.0806742217591 0.702071966862 0)
(0.0838189020216 0.650252609572 0)
(0.0843490560934 0.604246108098 0)
(0.0805478875105 0.564586340087 0)
(0.0722313502591 0.530468590564 0)
(0.0609629709814 0.504111185925 0)
(0.0480705270395 0.487218616546 0)
(0.0361698900026 0.479288796647 0)
(0.0247581798508 0.477845731908 0)
(-0.00356727145524 0.481424294221 0)
(-0.0269493102692 0.485960954338 0)
(-0.026132399831 0.487074794419 0)
(-0.0222906237228 0.488144366446 0)
(0.0486647265201 1.15375570601 0)
(0.0947087282577 1.05353033002 0)
(0.0867923237729 0.989160648105 0)
(0.0786408859858 0.937451315226 0)
(0.0756251395772 0.88247175249 0)
(0.0774791448113 0.822477240182 0)
(0.0821825107618 0.76323844854 0)
(0.0874013953518 0.707446741606 0)
(0.0918483010414 0.656471285742 0)
(0.0938356986827 0.612280895386 0)
(0.0908750499664 0.574115451253 0)
(0.0824940174506 0.539492216476 0)
(0.0713994128976 0.509469086411 0)
(0.0599101046044 0.488865584723 0)
(0.049159256146 0.47835154411 0)
(0.0394697747807 0.475433715253 0)
(0.0223239911362 0.476775655185 0)
(-0.00562631080309 0.480723248239 0)
(-0.0197788309377 0.482924945978 0)
(-0.0172555126056 0.484863633691 0)
(0.0478094798049 1.15726736856 0)
(0.093847775803 1.05980099833 0)
(0.0872483690406 1.000194733 0)
(0.080176436305 0.949355110238 0)
(0.0781687531103 0.891824534679 0)
(0.0806742216312 0.829526520525 0)
(0.0861386795775 0.769595247402 0)
(0.0929062894561 0.714494702969 0)
(0.0993731323581 0.6658922701 0)
(0.102422532013 0.624647893993 0)
(0.0996358858609 0.587718024016 0)
(0.0911348901354 0.553568548804 0)
(0.0797550774603 0.521263606403 0)
(0.0690784844535 0.496796791472 0)
(0.0598794735873 0.482796798175 0)
(0.0519929076542 0.477874702401 0)
(0.0414442794589 0.477870023783 0)
(0.0133650029362 0.47736501807 0)
(-0.00875779238629 0.481453255527 0)
(-0.00951190482603 0.483706063808 0)
(0.0459321685458 1.16034967139 0)
(0.0908077394237 1.06297251706 0)
(0.0852971233543 1.00682564361 0)
(0.0794394976224 0.956985970671 0)
(0.0789483287138 0.898607966216 0)
(0.0828520680409 0.835690395256 0)
(0.0901488033188 0.776340828119 0)
(0.0991466450494 0.723537221991 0)
(0.106563086816 0.67920879091 0)
(0.109237401901 0.641118654607 0)
(0.106363848894 0.605118526535 0)
(0.097818433888 0.571317034946 0)
(0.0861086054139 0.538284496533 0)
(0.0755761046148 0.510266721758 0)
(0.0673452958348 0.49218731534 0)
(0.0609470461131 0.484333901026 0)
(0.053226509116 0.482482258975 0)
(0.0292639144297 0.477488524334 0)
(0.0048788586657 0.482707613348 0)
(-0.00122112942806 0.484795956302 0)
(0.0421315319491 1.17468817638 0)
(0.0834568812811 1.06947499451 0)
(0.07929204396 1.01172568718 0)
(0.0759778382026 0.960931012859 0)
(0.0783664545028 0.902597780993 0)
(0.085128159482 0.840882763641 0)
(0.0951417067422 0.783798485863 0)
(0.105165742163 0.735349941456 0)
(0.111486438239 0.695981536047 0)
(0.113537081037 0.660902719606 0)
(0.111212984322 0.626095696072 0)
(0.103195235045 0.592740674913 0)
(0.0911392213119 0.559950335789 0)
(0.079842429874 0.528399892821 0)
(0.0717447919233 0.505617094085 0)
(0.0656876637237 0.493936942288 0)
(0.0585618844898 0.489735289609 0)
(0.0394357865052 0.483097854761 0)
(0.0158119120077 0.486168091779 0)
(0.00548647638422 0.487717743757 0)
(0.0412678746159 1.20150058095 0)
(0.0827013834066 1.08187557777 0)
(0.0789913921229 1.01780670621 0)
(0.075827308448 0.963184812163 0)
(0.079967608353 0.90498920235 0)
(0.0889679470733 0.845952431583 0)
(0.100243291491 0.792788760565 0)
(0.109355336638 0.750230264599 0)
(0.114487696978 0.715227032207 0)
(0.116629435222 0.68292605881 0)
(0.115086662959 0.649794509731 0)
(0.107868354852 0.618029585987 0)
(0.0950475431583 0.586647900354 0)
(0.0819671108455 0.549947202907 0)
(0.0731851174091 0.521905284978 0)
(0.0667872461962 0.505400677367 0)
(0.0590689452531 0.498034730282 0)
(0.0432917624419 0.492587949136 0)
(0.021505587707 0.491094784798 0)
(0.00907034363856 0.491749039187 0)
(0.0412971866047 1.23144196552 0)
(0.0837613739728 1.09721123664 0)
(0.0810438907217 1.02558076315 0)
(0.078336176884 0.965953227862 0)
(0.0835570256696 0.907924981427 0)
(0.0935719211785 0.852316353542 0)
(0.104206873986 0.804068775932 0)
(0.111613480693 0.767159386287 0)
(0.116378335268 0.735630222543 0)
(0.11933705131 0.705576872843 0)
(0.119170353169 0.674592934407 0)
(0.112353453434 0.645873548652 0)
(0.0969659412232 0.616154033885 0)
(0.0812897584836 0.573841732944 0)
(0.071899251242 0.539300295374 0)
(0.064766588282 0.516892151821 0)
(0.0558652205536 0.505485514341 0)
(0.0420716744138 0.500920116451 0)
(0.0221040488242 0.49632979998 0)
(0.008939397143 0.49585343407 0)
(0.0416049164018 1.25907866929 0)
(0.085947188101 1.11196210454 0)
(0.0854202964148 1.03322821962 0)
(0.0836912172003 0.970351523013 0)
(0.0892493393166 0.913576296071 0)
(0.0984890529594 0.861560410501 0)
(0.107259145476 0.818059810797 0)
(0.113453658711 0.78503487223 0)
(0.118506899675 0.755973468963 0)
(0.122371156008 0.727543284798 0)
(0.122916237743 0.699089929525 0)
(0.113208421785 0.672746019236 0)
(0.0949639781665 0.642754504078 0)
(0.0796739131424 0.599517943401 0)
(0.0696937155535 0.555972970272 0)
(0.0610663537743 0.527029145405 0)
(0.0508532995975 0.510885025029 0)
(0.0374400864674 0.504901087936 0)
(0.0189883978648 0.499730056434 0)
(0.00633586633471 0.499043646906 0)
(0.041157290063 1.28354186062 0)
(0.0869609037429 1.12468564321 0)
(0.0895051940496 1.04149774562 0)
(0.0892849245536 0.978996052458 0)
(0.0948214598173 0.925126103588 0)
(0.102616819582 0.876204251272 0)
(0.109653695748 0.835787386352 0)
(0.115246535269 0.804669316389 0)
(0.120274842389 0.776700146121 0)
(0.124205109426 0.749361197867 0)
(0.120867210856 0.722591894595 0)
(0.10655031261 0.695501163144 0)
(0.0904000647308 0.664154042624 0)
(0.0774710989187 0.624222514161 0)
(0.0666223861523 0.57344669932 0)
(0.0568088593095 0.536298305912 0)
(0.0456738562672 0.514761866433 0)
(0.032025965516 0.506052197973 0)
(0.0150231118257 0.50192644622 0)
(0.00307475411005 0.501287512166 0)
(0.0395573258425 1.30835763726 0)
(0.085708282805 1.13820804188 0)
(0.0910711424136 1.05419502928 0)
(0.0917587394167 0.995430095389 0)
(0.0969212012916 0.945538638887 0)
(0.10373133034 0.898520172184 0)
(0.110006789411 0.858690400321 0)
(0.114994525264 0.827577618506 0)
(0.119121339042 0.799240992544 0)
(0.118622880163 0.771412169721 0)
(0.108847533246 0.743642044788 0)
(0.0955186500951 0.713513573107 0)
(0.0840666489011 0.681155170005 0)
(0.0733403793476 0.644078857724 0)
(0.0624561507541 0.593089439168 0)
(0.0513404137566 0.545044590913 0)
(0.0398287977001 0.518112413539 0)
(0.0261993069153 0.506129421746 0)
(0.00995366804816 0.503212803407 0)
(-0.00172551196919 0.503064346055 0)
(0.0426287448046 1.33014706251 0)
(0.0938591599515 1.15886337302 0)
(0.0986603753203 1.07967487648 0)
(0.0949735807759 1.02683562047 0)
(0.0971760603151 0.979158148325 0)
(0.102184262081 0.930400074169 0)
(0.106840150615 0.887770936811 0)
(0.109289461988 0.853951845207 0)
(0.107908008974 0.822206751461 0)
(0.100116594054 0.790289316406 0)
(0.08978844758 0.758279135056 0)
(0.0816665355719 0.725383556109 0)
(0.0740689723864 0.692694699897 0)
(0.0651051367344 0.657455267434 0)
(0.0549637050889 0.610868407459 0)
(0.0449572338524 0.553332642253 0)
(0.0342340520036 0.521418497001 0)
(0.021059458493 0.505838591437 0)
(0.00581649027475 0.501645368832 0)
(-0.00690914924653 0.505153425038 0)
(0.0481214757734 1.34803920921 0)
(0.104243746303 1.19208765116 0)
(0.104969049872 1.12649930752 0)
(0.0941612261285 1.08229933581 0)
(0.0901290127588 1.02951962254 0)
(0.090334358121 0.970606033853 0)
(0.0901260118672 0.920522881151 0)
(0.0862895691753 0.880393936934 0)
(0.079243807898 0.8413119298 0)
(0.0721165847117 0.801755412354 0)
(0.0677334494334 0.76381489477 0)
(0.0648177695139 0.729199900171 0)
(0.0606750262304 0.697463313727 0)
(0.0543346295922 0.664355991976 0)
(0.0468273906827 0.622352309606 0)
(0.0391683539373 0.561639920176 0)
(0.0294440261293 0.524413377304 0)
(0.0168011596542 0.504942408126 0)
(0.00252257964498 0.497805052163 0)
(-0.0130704995569 0.50446231407 0)
(0.0536249362221 1.36120539094 0)
(0.109673427546 1.23430339652 0)
(0.0994465068922 1.19666412947 0)
(0.0767181301285 1.16546074072 0)
(0.0620149537205 1.09410790311 0)
(0.0553981994461 1.01270850851 0)
(0.0509677912617 0.950145928361 0)
(0.0462323679435 0.900665051795 0)
(0.0430256671402 0.851858056613 0)
(0.0427296545952 0.803585680027 0)
(0.0444925446241 0.760909472735 0)
(0.0460373344746 0.724929792584 0)
(0.0456516409527 0.694147061703 0)
(0.0430775176886 0.663554105478 0)
(0.0393191707718 0.62550825314 0)
(0.0344802898499 0.568665439432 0)
(0.026177043967 0.526078312275 0)
(0.0136178503631 0.502706390488 0)
(-0.000603651308381 0.492468982155 0)
(-0.0186458672136 0.496259283793 0)
(0.0560006546052 1.35500880624 0)
(0.104452301394 1.27274349709 0)
(0.0787840062639 1.28244920884 0)
(0.0453168405048 1.26768666308 0)
(0.0220425422429 1.1644257476 0)
(0.0113241722975 1.04968271117 0)
(0.00821309467471 0.968727434215 0)
(0.00913343624441 0.907612314481 0)
(0.0127634833946 0.849273506816 0)
(0.0183069523248 0.794478329319 0)
(0.0243629135968 0.750673280382 0)
(0.0291411216916 0.714011045215 0)
(0.0320722373605 0.682515645703 0)
(0.033608112773 0.653692421463 0)
(0.0342060593009 0.620101744701 0)
(0.0323659884165 0.572267745888 0)
(0.025481221602 0.526122249958 0)
(0.0130228671215 0.4987346606 0)
(-0.00141670534326 0.485508081264 0)
(-0.0165205149232 0.484351936481 0)
(0.0511713272304 1.33699447551 0)
(0.0867056055697 1.30797165695 0)
(0.056710337974 1.3667416361 0)
(0.0303726239158 1.36605140738 0)
(0.0081441102147 1.23397153828 0)
(-0.00641224885935 1.08326344032 0)
(-0.0100261521401 0.97666519608 0)
(-0.00636845947805 0.901169405036 0)
(0.000428658340793 0.835116915549 0)
(0.00813795448901 0.777271332579 0)
(0.0156461438182 0.735165431732 0)
(0.0221076494397 0.699247858067 0)
(0.0271049148829 0.666312090625 0)
(0.0313140172111 0.637518758269 0)
(0.0347633110385 0.608325631547 0)
(0.0345383810685 0.571746275561 0)
(0.0281304678157 0.526273093207 0)
(0.0157933750897 0.493238009407 0)
(0.0013502511597 0.476901753376 0)
(-0.0122651635577 0.472885366734 0)
(0.0465729478936 1.33185004954 0)
(0.0786923096708 1.35346482338 0)
(0.0602185868599 1.42084272422 0)
(0.0510958921728 1.43201731067 0)
(0.0337267121592 1.31292440854 0)
(0.0139013136745 1.12731103147 0)
(0.00479677708791 0.988427003979 0)
(0.0050837447088 0.894266802021 0)
(0.00996845462951 0.820361967392 0)
(0.0162734692032 0.760620906905 0)
(0.023097471008 0.71987111581 0)
(0.0296729720935 0.685182323784 0)
(0.0349104779534 0.651320313095 0)
(0.0392130620848 0.621139275303 0)
(0.0425876270019 0.594427317067 0)
(0.0418253570811 0.568215063748 0)
(0.0345048182428 0.528264294421 0)
(0.0222546450077 0.487257983623 0)
(0.00791122412449 0.467539625206 0)
(-0.00567778565298 0.461801276008 0)
(0.0457288399577 1.34361691887 0)
(0.0840228393703 1.39176501048 0)
(0.0735924100299 1.44397385589 0)
(0.0676844752464 1.46334561999 0)
(0.0576174720091 1.38682651714 0)
(0.0424375898476 1.18415309404 0)
(0.0313534216898 1.01291580753 0)
(0.0287477380603 0.897657529175 0)
(0.0312029723059 0.814461345025 0)
(0.03573502572 0.751924062163 0)
(0.0412857003516 0.710798612416 0)
(0.0469803174815 0.676509157287 0)
(0.0514228613641 0.64207350288 0)
(0.0544117912502 0.610140029606 0)
(0.0557273708546 0.5835711162 0)
(0.0522243291238 0.564597734271 0)
(0.0434744966074 0.531638994488 0)
(0.0322092996373 0.48444910866 0)
(0.018735010897 0.459961257204 0)
(0.00511586101455 0.452530444256 0)
(0.0462341924226 1.36083509748 0)
(0.0862912711984 1.40750724906 0)
(0.0779176284273 1.45296007102 0)
(0.0736038720348 1.47506547686 0)
(0.06784835943 1.42929173522 0)
(0.0588618011954 1.23544780083 0)
(0.0514304873138 1.04176607563 0)
(0.0500091776627 0.909050530855 0)
(0.0526265961611 0.817420050464 0)
(0.0568652267658 0.752004645193 0)
(0.0616976606505 0.709732749248 0)
(0.0664727416473 0.675062517381 0)
(0.0699994880206 0.640218306345 0)
(0.071633877953 0.606935137897 0)
(0.0705103944955 0.57936678643 0)
(0.0646498239846 0.564363589579 0)
(0.0551196725613 0.536387272103 0)
(0.0440430934548 0.48797961131 0)
(0.0313623238288 0.456750839225 0)
(0.0188836691679 0.446569102869 0)
(0.0449046330322 1.37779720852 0)
(0.0849657227292 1.41256418084 0)
(0.0779925183012 1.45148889782 0)
(0.0741529605254 1.47429731706 0)
(0.0701852516697 1.44615406619 0)
(0.0656755616386 1.2663398584 0)
(0.0635337096969 1.06343011445 0)
(0.0654553786908 0.921167613075 0)
(0.0698472938928 0.82459280587 0)
(0.0749619756645 0.757837980181 0)
(0.0798414362414 0.714982589714 0)
(0.0840843147985 0.679856788011 0)
(0.0869471446689 0.644857879445 0)
(0.0876993977351 0.6109354679 0)
(0.0852034867652 0.582278082225 0)
(0.0781641626789 0.568664574441 0)
(0.0672327778995 0.543691080634 0)
(0.0550164068367 0.496868310501 0)
(0.0432322484499 0.458717756341 0)
(0.03195854795 0.444751686622 0)
(0.0431949819189 1.40068470038 0)
(0.0809236572686 1.41755655891 0)
(0.0735039280867 1.4458108235 0)
(0.0704516436554 1.46597136126 0)
(0.0684186016396 1.44561641376 0)
(0.0681465066486 1.27343091765 0)
(0.0710845947886 1.07219623728 0)
(0.0765114886595 0.92906474154 0)
(0.0832071595906 0.832124466131 0)
(0.0898165225593 0.766584152562 0)
(0.0951233557412 0.724264827675 0)
(0.099039119361 0.689044359533 0)
(0.101390616561 0.654182332695 0)
(0.101646480308 0.620315467743 0)
(0.098655376302 0.5910783784 0)
(0.0907803140305 0.577118803507 0)
(0.0783644788926 0.554225555739 0)
(0.0649782183975 0.509318922006 0)
(0.0536553973472 0.465550018436 0)
(0.0434002324592 0.447113303036 0)
(0.00926057998676 0.291732228558 0)
(0.00429683074781 0.291911493999 0)
(-0.000520753722459 0.291953797919 0)
(-0.00520010085088 0.29187128036 0)
(-0.00977191495906 0.291677084423 0)
(-0.0142742243823 0.291383070469 0)
(-0.0187465834948 0.29099941554 0)
(-0.0232239719347 0.290535461606 0)
(-0.0277369272599 0.290000446535 0)
(-0.0323152645943 0.289402963345 0)
(-0.0369992826218 0.288748233804 0)
(-0.0418576054436 0.2880327094 0)
(-0.0470090014191 0.287238332509 0)
(-0.0525995681038 0.286342471153 0)
(-0.058630741706 0.285381222708 0)
(-0.0641129088422 0.284682618602 0)
(-0.0715476344375 0.283644755753 0)
(-0.0661574890642 0.285810366337 0)
(-0.223507897353 0.245341071068 0)
(-0.195654492909 0.26773580915 0)
(0.00184890956464 0.524086285518 0)
(0.000735743906647 0.524183771648 0)
(-0.000316575365442 0.524219182338 0)
(-0.00132996559981 0.524193972325 0)
(-0.00232544214679 0.524116078688 0)
(-0.00331792331943 0.523995221984 0)
(-0.00431783399316 0.523840683066 0)
(-0.00533159316189 0.523660793772 0)
(-0.00636440422262 0.523462828845 0)
(-0.00742501518092 0.52325226041 0)
(-0.00853246226789 0.523031421588 0)
(-0.00972053218186 0.522797807153 0)
(-0.0110230759318 0.522545733749 0)
(-0.0124027606999 0.522284357968 0)
(-0.0136513100539 0.522092953736 0)
(-0.0145459777623 0.522270262461 0)
(-0.0152547164494 0.522086807849 0)
(-0.0167949645758 0.523321295694 0)
(-0.0116143110104 0.483988627583 0)
(-0.00262974741692 0.483868017041 0)
(0.00183112783083 0.475759163613 0)
(0.000675913293936 0.475588017244 0)
(-0.000427269381784 0.475563133145 0)
(-0.00147105730228 0.475660043842 0)
(-0.00245776989809 0.475864251373 0)
(-0.00338928633657 0.476165813469 0)
(-0.00426746242058 0.476556252644 0)
(-0.00509485555911 0.477026612795 0)
(-0.00587867804889 0.477566830839 0)
(-0.00663416679568 0.478166631733 0)
(-0.00738291041885 0.478819030916 0)
(-0.00813548250897 0.479526926588 0)
(-0.00884355511969 0.480313050753 0)
(-0.00933807621748 0.481226057284 0)
(-0.00938751081477 0.482313559421 0)
(-0.00896271090934 0.483453347584 0)
(-0.00839565901972 0.483893788162 0)
(-0.00791836097135 0.479866631361 0)
(-0.000706934676477 0.469606969474 0)
(0.00314172652346 0.427197288443 0)
(0.00117715327174 0.486084051587 0)
(0.000297131470421 0.485883219265 0)
(-0.000562439609581 0.485830192637 0)
(-0.00137499533996 0.485895630029 0)
(-0.00213149370198 0.48605809178 0)
(-0.00283103552496 0.486298544707 0)
(-0.00347724941776 0.486599003335 0)
(-0.00407825966925 0.486941980837 0)
(-0.00464773859595 0.48731142023 0)
(-0.00520269283802 0.487695100102 0)
(-0.00575362020604 0.488088384883 0)
(-0.0062821123064 0.488498433168 0)
(-0.00671149527412 0.488946360314 0)