/*--------------------------------*- C++ -*----------------------------------*\
| =========                 |                                                 |
| \\      /  F ield         | OpenFOAM: The Open Source CFD Toolbox           |
|  \\    /   O peration     | Version:  2312                                  |
|   \\  /    A nd           | Website:  www.openfoam.com                      |
|    \\/     M anipulation  |                                                 |
\*---------------------------------------------------------------------------*/
FoamFile
{
    version     2.0;
    format      ascii;
    arch        "LSB;label=32;scalar=64";
    class       volScalarField;
    location    "0.34/water";
    object      alpha.gas_0;
}
// * * * * * * * * * * * * * * * * * * * * * * * * * * * * * * * * * * * * * //

dimensions      [0 0 0 0 0 0 0];

internalField   nonuniform List<scalar> 
1496
(
0.872916713191
0.851075232502
0.856561622934
0.857835189714
0.858977831001
0.855130004923
0.838626026271
0.794549277628
0.704855496683
0.56377871532
0.419945932047
0.321013803058
0.314433389171
0.386073433091
0.539329142831
0.61898761147
0.605808545987
0.544432005012
0.441475478336
0.333657491016
0.874889937492
0.846727794803
0.848004904902
0.849608165545
0.851902481734
0.849098366889
0.835649164975
0.796176843728
0.715162664532
0.583403523655
0.433466909239
0.324440369654
0.288528513892
0.332545850689
0.464021536075
0.552913767349
0.546318219088
0.49824298618
0.409161745481
0.31980178287
0.872762530718
0.841387368376
0.836684236478
0.837712487263
0.840919690969
0.84040751138
0.830575689328
0.796518092252
0.726913335768
0.611545254473
0.465679212426
0.342067498148
0.288405538605
0.300740317396
0.379911764939
0.465264963888
0.474147883456
0.444941803971
0.377345099355
0.309514550702
0.874148364066
0.835503613491
0.82441888802
0.823384878751
0.827241866439
0.828826383816
0.822051752152
0.794280488329
0.733658158554
0.637209484271
0.506699848053
0.376191836726
0.296290613479
0.280773181534
0.311869470245
0.373453638931
0.399680615017
0.387015409745
0.345485361161
0.301398742562
0.872487372653
0.829714856967
0.812205765349
0.807108961361
0.811098365512
0.813610966702
0.808752400863
0.786226198529
0.732549245299
0.649967596473
0.540035811936
0.416975250916
0.31783630729
0.279593243713
0.279770857573
0.305464186102
0.334305040488
0.333818676194
0.316606376637
0.294473366334
0.873447522395
0.823926760192
0.800278749887
0.789771385355
0.792302619675
0.793804778892
0.789117277437
0.769500171339
0.723838924582
0.648789481283
0.552555145552
0.445159744097
0.343645483702
0.282419915506
0.272181164676
0.276962208158
0.292059760373
0.29887940518
0.294230325038
0.287494693145
0.872314682284
0.816159625819
0.788312845064
0.772836637597
0.771186745816
0.768899718594
0.76116877126
0.741138396743
0.701735895245
0.637589442744
0.549846385946
0.449889014635
0.35461877432
0.287726719413
0.27183712294
0.272031353212
0.276119365607
0.281314079228
0.279959767745
0.27937570892
0.872500184662
0.804276547217
0.775865670047
0.756949801699
0.748936242396
0.739017931607
0.723348895299
0.698640619907
0.661860587125
0.607959429293
0.533657675407
0.443822762518
0.353134258696
0.287834052921
0.27179576753
0.27183712294
0.272573274034
0.274012935714
0.27013776144
0.26935248613
0.871719643895
0.78826362388
0.762347547013
0.741683126787
0.726704351717
0.704913076503
0.675130463326
0.640708745593
0.601775545618
0.553969571017
0.492772760298
0.418316626535
0.340225667421
0.283659554684
0.271751080337
0.271791480183
0.272528883691
0.270110901929
0.260378091869
0.25784203335
0.854440510533
0.769993809167
0.746817234249
0.726015273372
0.704148674767
0.667121203887
0.618142080811
0.568181748878
0.520507830974
0.472151559297
0.420220803394
0.363473487417
0.308012274492
0.274330577743
0.271700374574
0.27285005811
0.27287598887
0.265112430881
0.2496082069
0.247447786048
0.815387962337
0.749226309971
0.727002544025
0.70752784998
0.678632716176
0.625542252447
0.55543978959
0.485016791115
0.420890481687
0.366257680024
0.324412229961
0.293125006621
0.27241983789
0.268041727637
0.27158333877
0.273748892369
0.271754048292
0.256888263527
0.239962895081
0.240567166839
0.78270850671
0.713664485693
0.697436929279
0.680568784804
0.644696088954
0.577415644855
0.48933159512
0.398197378175
0.319420010946
0.278314528123
0.266619815316
0.264235450292
0.264129322495
0.264235450292
0.270927125766
0.273747006001
0.267419506004
0.24611944531
0.234121809786
0.237583632764
0.781944774216
0.639659576715
0.647733441016
0.634417746707
0.593481740076
0.516897109941
0.418526537756
0.318422518117
0.26642711393
0.263983106805
0.264235450292
0.263460738554
0.264235450292
0.263566286358
0.266217528707
0.271100333618
0.259496532706
0.236629059633
0.231315148022
0.236332926223
0.781297257717
0.531206986564
0.567137482788
0.557155953175
0.517028727013
0.440482635471
0.344516021585
0.270048084517
0.263916686476
0.264235450292
0.262862313877
0.264235450292
0.262716530251
0.264235450292
0.263555089691
0.26501969589
0.249918184638
0.230217710951
0.228930645802
0.234600988704
0.775379306002
0.434943044857
0.466262373716
0.455710829807
0.420974418257
0.35607764401
0.282394361395
0.263942745323
0.264235450292
0.262608564737
0.264235450292
0.262103000872
0.264235450292
0.262652029284
0.264599752651
0.262087853394
0.24010393776
0.225239530549
0.225077467485
0.230637490124
0.730862665167
0.390874408497
0.394649074517
0.379825750742
0.346041230672
0.294333830944
0.264047662755
0.264235450292
0.262579198597
0.264235450292
0.262061817058
0.264235450292
0.262158439145
0.269987080026
0.277981310624
0.256415943136
0.230836427849
0.219569884714
0.218546022465
0.22358718054
0.64129682583
0.390820732012
0.393325158057
0.377555604401
0.337377403609
0.28548421639
0.264235450292
0.262742007222
0.264235450292
0.262061817058
0.264235450292
0.270344390078
0.293489659275
0.303585299845
0.281597795284
0.246357034589
0.222044279465
0.211977662312
0.209952920311
0.21438098144
0.584291493834
0.443558742183
0.449844009218
0.427255785199
0.375196306667
0.318078620482
0.285842086276
0.277406295845
0.275399658059
0.284897436109
0.309917717753
0.34493239734
0.353985626242
0.325757815393
0.279335710944
0.237274782328
0.212669054517
0.203646154707
0.201763402306
0.20529553771
0.615802664554
0.605148882465
0.602043476007
0.578322162527
0.528871768161
0.475636308453
0.434035178501
0.411391598524
0.403321551561
0.409262525495
0.424048398757
0.421648613242
0.389487954124
0.337137490209
0.278534349297
0.23013503698
0.203219285212
0.197240850919
0.196346469844
0.19853079301
0.720405243991
0.754271316053
0.746115203487
0.734793451237
0.718259423849
0.697692720188
0.674012489085
0.653091652318
0.629594476781
0.594456779405
0.536575612386
0.473046541258
0.41069804393
0.346734293006
0.278374814162
0.222301326081
0.196294273438
0.194390744724
0.19426652726
0.194973230652
0.809698808327
0.803331938463
0.79345269695
0.793912891415
0.795957855666
0.796603867889
0.793392219506
0.787118731749
0.769337869825
0.724648464341
0.631233700259
0.524642954551
0.434520532297
0.354714318682
0.275386230047
0.211127126284
0.194130325866
0.19411499327
0.194092026026
0.19411499327
0.827367064412
0.805624445905
0.799553517299
0.803278181904
0.80418247619
0.803863229001
0.804422096615
0.803863229001
0.803182113617
0.771845708744
0.690367230758
0.575670887161
0.463298441128
0.361772778248
0.265546082014
0.200716774093
0.19411499327
0.194032489024
0.19411499327
0.194030618357
0.828347002467
0.802859199678
0.796770898065
0.802046961435
0.803863229001
0.804554478901
0.803863229001
0.804487100548
0.803863229001
0.781185851572
0.712028994883
0.607536488008
0.4887691477
0.37015277831
0.259948016581
0.197657570066
0.194030600283
0.19411499327
0.193885991336
0.19411499327
0.827455681361
0.792949146091
0.783086084568
0.791593090146
0.80403750603
0.803863229001
0.804482239563
0.803863229001
0.803983732894
0.781318393662
0.714172763246
0.617420560947
0.502718485249
0.378534623558
0.262267637198
0.198095096194
0.19411499327
0.19385645038
0.19411499327
0.193762659446
0.828347002467
0.777356534553
0.759885134053
0.768888021888
0.794192880371
0.804075742448
0.803863229001
0.804059244467
0.803113258469
0.776018756215
0.709896927535
0.616697069738
0.505055486179
0.381438981946
0.263906126948
0.198335980772
0.19398133755
0.19411499327
0.193706887963
0.19411499327
0.827385604152
0.760810804729
0.737757363124
0.73944941971
0.76773760484
0.793326627927
0.799799558578
0.799380979389
0.791250477121
0.756510185147
0.693485235267
0.607916939268
0.500734645724
0.378173917036
0.261052509446
0.197469546325
0.19411499327
0.193798215953
0.19411499327
0.193702954782
0.827657760919
0.745574338232
0.722148175377
0.710518014876
0.726989407326
0.7566892111
0.772453027046
0.771562421989
0.756196913849
0.718365191384
0.661293437217
0.583849178331
0.48204003187
0.361950389946
0.248465865345
0.195147041647
0.193968418132
0.19411499327
0.193736979681
0.208089881769
0.817620924347
0.729755535496
0.709582138001
0.686286010723
0.678299109023
0.691987965816
0.708303890018
0.707782917379
0.693119145682
0.660907103478
0.611914972776
0.540535437312
0.442681660016
0.326716088975
0.224213599597
0.194075764969
0.19411499327
0.195418019411
0.213780910603
0.232869284595
0.792863009343
0.69919116006
0.692944454048
0.663751084392
0.627193951566
0.609504947382
0.612880926245
0.612364563842
0.603665945712
0.581490068376
0.540857983251
0.47448391361
0.380627466413
0.273150035418
0.19952637503
0.19411499327
0.195758164225
0.218313123923
0.244110090198
0.240983159093
0.786038862381
0.641651899798
0.661570170763
0.632614896686
0.575535322448
0.522878055422
0.503177695531
0.496852419099
0.490519856128
0.475253478338
0.441698077714
0.381815877312
0.297638057499
0.215924745784
0.195118566931
0.194815327251
0.218802493126
0.257617192086
0.257214842028
0.236718504132
0.781545497524
0.564206122354
0.606975454433
0.5836036256
0.521941092771
0.444530047749
0.396293682995
0.372677745086
0.358484865871
0.343349930313
0.31623147208
0.269974267272
0.216250929097
0.19658398422
0.1952909441
0.215562689616
0.268388487622
0.283845270291
0.257603079006
0.221534784445
0.764824205382
0.482928433221
0.531744087874
0.515582366036
0.463467990311
0.380424611974
0.307456310364
0.259609598588
0.235306791236
0.223624249526
0.211404660151
0.199025743598
0.196002233657
0.195777939104
0.214345335974
0.277321700587
0.315614183664
0.298061749516
0.254676987592
0.209299848248
0.714629323233
0.432281675017
0.461936739482
0.449085346099
0.408876783809
0.33143370457
0.249882488445
0.199797616312
0.195849286111
0.196002233657
0.195219242691
0.196002233657
0.195247366255
0.218540537604
0.297413520946
0.356712925933
0.350098163512
0.309147169246
0.256936826167
0.208465210173
0.624339027241
0.429342233944
0.429136370753
0.426005543514
0.387781071268
0.310188736435
0.23380797149
0.195743983243
0.196002233657
0.195219242691
0.196002233657
0.196048151266
0.245306869365
0.341732772225
0.413796367562
0.415839536544
0.378463900876
0.325632018271
0.266688680687
0.209704530793
0.551781335136
0.432283342836
0.445688699457
0.441416512743
0.396492318993
0.31632223717
0.241988753164
0.202456191963
0.199101903766
0.206836747578
0.236453691874
0.312245441013
0.416463418007
0.481852703472
0.483012203394
0.447434661147
0.39595230099
0.335939810625
0.27019280672
0.208436416727
0.564116434637
0.5227999629
0.538175175794
0.526479827885
0.474429334707
0.399233383032
0.333385845131
0.29835990741
0.301481669385
0.341867483098
0.418310498221
0.496807914102
0.534504603654
0.525565990604
0.493112223439
0.448256388868
0.394243771835
0.3314502259
0.263070901515
0.197047511534
0.63168719466
0.656610085228
0.661409333608
0.65013287142
0.62173566788
0.588741609888
0.558383028544
0.537263075584
0.534241563909
0.551256959623
0.568471749052
0.568345984522
0.551920514809
0.525099137803
0.486024617787
0.434056051269
0.371112633444
0.298824536989
0.223583615545
0.157309170684
0.329248338421
0.3293638603
0.306039271509
0.107039231198
0.0752702007424
0.0754826806692
0.075486132915
0.0934371489412
0.23255584937
0.469225526798
0.645155101742
0.744303098606
0.807023185709
0.858120025801
0.878729274012
0.104329076704
0.286521043802
0.322684605016
0.329119092188
0.32924829532
0.329368640431
0.329503674134
0.328098482024
0.160508613411
0.0754928881265
0.0753060946156
0.0754928881265
0.0790143050677
0.128545395979
0.258069375359
0.396557352087
0.501516407168
0.595907208643
0.707023437912
0.773557356842
0.0582848860847
0.290360240418
0.318556645609
0.329219728053
0.329361613092
0.329502965986
0.329649378956
0.329801145911
0.286770934219
0.115770547731
0.0766819658499
0.0754831787027
0.0803339688885
0.0938919620268
0.119704997842
0.175652424478
0.234181488372
0.30239362135
0.436450225775
0.564411282538
0.0256277292457
0.294445867279
0.31090607388
0.328119881623
0.329487515579
0.329643577619
0.329800463721
0.329960882615
0.329888737914
0.24304681031
0.124850467124
0.0890126297861
0.0925904658918
0.101989825802
0.0872685105936
0.0614958876281
0.0642667506607
0.0770595995346
0.145831027175
0.270505404805
0.0170834468217
0.295315791407
0.305651247224
0.323800614265
0.32826530138
0.329532064742
0.329960882615
0.330125029641
0.330289003342
0.322296583723
0.24245556526
0.154699461497
0.135300523252
0.151946833265
0.117569814163
0.0344628972538
0.00994231064155
0.00691732678004
0.0147100526116
0.0495140366151
0.00840308544581
0.29449475415
0.303683598766
0.315940515995
0.319230939669
0.318467192685
0.319290805443
0.323335086846
0.330452975194
0.330678736857
0.308901079616
0.250229637722
0.220200499168
0.274602226669
0.235327442314
0.0416551801574
0.00171208188429
0.000165270492666
0.000281543507472
0.00230658590752
0.00158270239653
0.291207232418
0.300372038068
0.304129620578
0.300868876591
0.294492380691
0.295363998573
0.307463129462
0.328384444335
0.330804959383
0.320900915059
0.303980641549
0.323141419306
0.467679249524
0.367803196991
0.0548037977091
0.00121836244901
2.76146105425e-05
2.77045370687e-05
0.000479368672855
0.00117904665991
0.284477911472
0.291327029439
0.288438559826
0.27769210504
0.269876545103
0.276385139648
0.30276668573
0.329249310437
0.332227611306
0.329875328734
0.346511514572
0.444925275458
0.51668698695
0.369871162391
0.0525385162325
0.000947251497785
2.74100233726e-05
2.76058343381e-05
0.000540628000132
0.00142288095459
0.27377078347
0.275908879655
0.269068007754
0.255617512394
0.255127458966
0.27314741146
0.306359641623
0.333350049255
0.340735888893
0.354336852193
0.420996404768
0.548930800566
0.516682988132
0.281806107361
0.031133566291
0.000441403887822
2.74615819011e-05
2.74063544848e-05
0.000545166086157
0.00154030190128
0.26083131426
0.259711193587
0.251006471459
0.244758667107
0.252190337041
0.276908521001
0.312667425864
0.34118650214
0.364516710649
0.409249234442
0.523795705312
0.555811673211
0.457415936349
0.123454729159
0.00728777734822
8.05693489488e-05
2.73100607694e-05
2.74615819011e-05
0.000588009060019
0.00154493454909
0.250173208581
0.248776183228
0.242951864991
0.24351785857
0.254825023402
0.28288092452
0.314292258343
0.350854512931
0.403549580905
0.482569147802
0.571099964711
0.555877990793
0.294527515946
0.024192007579
0.000456825427342
2.73734280885e-05
2.74032581489e-05
2.70949558468e-05
0.000698736822084
0.00154103159225
0.245350516911
0.244610733958
0.242712862915
0.244983341896
0.260588795049
0.283293890098
0.309369554402
0.359425361216
0.446203517868
0.543810217845
0.570708986183
0.53314481606
0.124937654004
0.0020366299774
2.91586051775e-05
2.74032581489e-05
2.71125380578e-05
2.74009940961e-05
0.000670685371698
0.00154462735532
0.244220639788
0.24354247184
0.242812051535
0.249676123901
0.26232739178
0.275230615453
0.294141661891
0.367542956045
0.480018131328
0.568043266476
0.571412879167
0.502162038847
0.0590870886526
0.000289311666736
2.74032581489e-05
2.72094070663e-05
2.7238834728e-05
2.70892630368e-05
0.000541625436684
0.00154103159225
0.243448502984
0.2427928128
0.244716168069
0.25213202487
0.257528102815
0.255962565647
0.274204304701
0.378452679195
0.504065618143
0.570877938793
0.571518356849
0.511161750046
0.0607443830699
0.000266609261137
2.71880758569e-05
2.72728910298e-05
2.71007912569e-05
2.72728910298e-05
0.000341457009914
0.00110440818866
0.24141092346
0.24122533804
0.245558535918
0.251140140731
0.244341903355
0.234797401877
0.258812803734
0.389065857092
0.522109052708
0.571095762897
0.571958960951
0.552644404144
0.09284421985
0.000477660476915
2.72951001526e-05
2.71424363602e-05
2.72160994083e-05
2.69812661912e-05
0.000180930298662
0.000366158530687
0.236590070136
0.238037021416
0.245022969896
0.245949466847
0.228779358468
0.222509429297
0.248882832712
0.389462708486
0.534715905157
0.571333479627
0.572297491238
0.572636169219
0.199458514275
0.0018484233156
2.71479213631e-05
2.72338401314e-05
2.70176618933e-05
2.72316905914e-05
9.21809144254e-05
8.9800317985e-05
0.228880306688
0.232561235487
0.242281355165
0.237525595097
0.218831471631
0.217192349126
0.240821315295
0.382713199783
0.540552974395
0.57149466304
0.572671386985
0.573032830315
0.386697872597
0.011091855588
2.72764150892e-05
2.70443867223e-05
2.71424226567e-05
2.70036509312e-05
6.17200212609e-05
5.7845706013e-05
0.219358066547
0.22480052945
0.235861035371
0.228978215185
0.215250839356
0.214197075844
0.232446775459
0.36599416743
0.540912474474
0.571587990259
0.57296154012
0.573409291272
0.540250329571
0.0607517644279
0.000132247201943
2.71772893147e-05
2.70354201945e-05
2.71772893147e-05
5.70560359424e-05
4.96616572602e-05
0.209698740862
0.215497545499
0.226173204536
0.221890409289
0.214048825291
0.212205631464
0.225914005797
0.353240004061
0.541512996025
0.57199555991
0.573198703068
0.573800836156
0.574232007901
0.185802203759
0.000576401570467
2.70562080888e-05
2.71233654323e-05
2.69425501368e-05
5.41657678538e-05
4.11248833518e-05
0.201702088054
0.205989275935
0.21468984814
0.216410001004
0.213032155316
0.21188724974
0.225654384365
0.356752609012
0.548073294575
0.572866958669
0.573655396255
0.574232007901
0.574663177143
0.358520510888
0.0107074080368
3.15130415281e-05
2.69695455694e-05
2.71158845012e-05
5.5543731438e-05
3.9345491295e-05
0.196469079251
0.19832121719
0.204089911107
0.211126874042
0.212179516803
0.211886372993
0.240170562304
0.39542326732
0.56615837827
0.572589219223
0.569399257255
0.567280172182
0.57509434388
0.561862626503
0.116369772218
0.000250488548777
2.70496416712e-05
2.69206342771e-05
5.85182542543e-05
3.91573226837e-05
0.194248616213
0.194556330337
0.197727533205
0.207348874059
0.214520543599
0.226569799427
0.304647146268
0.483557382717
0.577542508284
0.570115739424
0.552059557868
0.559211227787
0.602702386433
0.742295069321
0.395630747408
0.00384663129654
2.69331803246e-05
2.70443370606e-05
6.07340941488e-05
3.9345491295e-05
0.19411499327
0.194077703028
0.196019467406
0.20895669891
0.229781950396
0.281781886013
0.422539717412
0.559915316419
0.578106264444
0.555044009475
0.551479313126
0.601228771634
0.725064138118
0.788746066856
0.455916437512
0.0100690196
2.70372002932e-05
2.68788721644e-05
8.958595309e-05
0.000127311950173
0.193936717555
0.19411499327
0.197811052141
0.221619632997
0.265991451423
0.363925738705
0.515230900905
0.587445641938
0.580325692626
0.554577136995
0.585403533101
0.715833758507
0.788692385032
0.78803232995
0.336206135913
0.008257332285
2.68130491426e-05
2.70388130753e-05
0.000228334577112
0.000703987639406
0.19411499327
0.193865398745
0.210298676058
0.24623885349
0.300825113219
0.413166264508
0.54952540568
0.589692362289
0.588082794738
0.585369204608
0.674329017443
0.773105169916
0.78803232995
0.674763434561
0.111337732068
0.00137179528361
2.68804180022e-05
2.68044679971e-05
0.000585077755212
0.00210433409909
0.193739524823
0.203560117105
0.232486471488
0.259401912426
0.307527397902
0.419095769986
0.548937429927
0.590220383211
0.600052172969
0.636270293907
0.722161881443
0.773060768264
0.744569965967
0.367854832413
0.017826116173
5.24685334585e-05
2.67561265245e-05
2.68804131066e-05
0.00125086514498
0.00414590720831
0.203492020294
0.22723326018
0.23914325247
0.257061298226
0.296098608208
0.399305528004
0.524684421268
0.58107095112
0.605636354765
0.659270645604
0.72001197003
0.741379399428
0.512262903116
0.085942470313
0.00102632791202
2.67586529021e-05
2.68804198466e-05
2.66555887554e-05
0.00228782908928
0.00769341611964
0.226885588483
0.231476233668
0.234240749339
0.242710234103
0.262817090966
0.343670060838
0.473708964204
0.55586682674
0.599428614079
0.656503969371
0.71397186174
0.598705490134
0.177644495759
0.00646453231779
2.99799377092e-05
2.68123397186e-05
2.66340125946e-05
2.68755628955e-05
0.00406902953583
0.0229822069317
0.232979873206
0.22815073849
0.218768908082
0.217647822384
0.222833988313
0.280611566018
0.414894340081
0.521204537841
0.581877926711
0.641881917561
0.701277813149
0.402579876693
0.0298418210377
0.000162922898588
2.68122939273e-05
2.66342702525e-05
2.68099978658e-05
2.65120747607e-05
0.00425755575969
0.101359952977
0.230373709869
0.214490376213
0.197058762479
0.190797672129
0.190403671045
0.233250534739
0.362837017985
0.486706057073
0.558902940977
0.617895763172
0.679802214709
0.366969665254
0.0209386877643
8.92402140505e-05
2.6682727127e-05
2.6742031572e-05
2.6560743171e-05
2.68336380782e-05
0.0193484549507
0.204579905669
0.216076699052
0.193059703734
0.175721583079
0.167763486186
0.166291370555
0.198570107232
0.31590937602
0.453884722947
0.537203249815
0.589369953863
0.64607130522
0.414728041907
0.0364964036334
0.000271137858022
2.68320250091e-05
2.66580386497e-05
2.68019716111e-05
0.000133217341212
0.0915409539486
0.220898677553
0.194490644729
0.171982288742
0.157764915442
0.149575770658
0.147987334699
0.170017917979
0.267841478723
0.416026006998
0.515992708591
0.5588064898
0.596636859664
0.507226305981
0.119175842152
0.00299674601277
3.21049429603e-05
2.6832039315e-05
2.66428998744e-05
0.00138059474574
0.196915760402
0.220232595254
0.177769924892
0.156288362527
0.143628173138
0.135488874651
0.133791053936
0.146716454629
0.219396024069
0.367142570629
0.488578653049
0.525740073254
0.540359780702
0.522165998586
0.301658088865
0.031815350394
0.00060652357811
7.34777094386e-05
0.000113393516916
0.00827709561057
0.302573546549
0.182711469714
0.169697065108
0.145740972716
0.13244573358
0.124384514299
0.12325297362
0.132073469875
0.185283341344
0.314749601778
0.446082103627
0.476717197992
0.476348550504
0.480058933315
0.419912479741
0.161308971039
0.0153464187404
0.00183917661815
0.002717896182
0.0595717045013
0.35671914449
0.107162699809
0.165058291898
0.137148693121
0.12208613119
0.117252928396
0.117225823413
0.128785376063
0.181785026968
0.29150567831
0.387924116935
0.399895441667
0.401613656414
0.420689775129
0.447540151449
0.381455208187
0.182552520452
0.0611875676659
0.0843992488252
0.322715263905
0.357259997417
0.0672524197737
0.158149174955
0.126053278134
0.116815658851
0.116815658851
0.117000786711
0.141008491998
0.211256117659
0.292424360418
0.336013904997
0.382142876005
0.439640568023
0.503873443984
0.570271247322
0.641720374388
0.585402053868
0.452945004193
0.47690578284
0.566274445416
0.318678114325
0.03595101127
0.141979035901
0.117148899683
0.116815658851
0.116815658851
0.134218688417
0.203688667587
0.272780207108
0.336701030447
0.450644666151
0.592643430155
0.696570315503
0.753244043972
0.791533822544
0.831413271843
0.832869350486
0.806921516136
0.774634538243
0.640462979654
0.23455117353
0.0350085047884
0.119835112359
0.116815658851
0.116815658851
0.140675586517
0.232042064619
0.298138642601
0.370375273233
0.537431803505
0.727670504707
0.82208117626
0.856509670716
0.869927906098
0.875906657217
0.879740081957
0.879915405564
0.87316967213
0.828745773487
0.595016848385
0.108094685486
0.0240837487504
)
;

boundaryField
{
    emptyPatch
    {
        type            empty;
    }
    minY
    {
        type            fixedValue;
        value           nonuniform List<scalar> 0();
    }
    maxY
    {
        type            inletOutlet;
        phi             phi.gas;
        inletValue      uniform 1;
        value           nonuniform List<scalar> 
40
(
0.63168719466
0.656610085228
0.661409333608
0.65013287142
0.62173566788
0.588741609888
0.558383028544
0.537263075584
0.534241563909
0.551256959623
0.568471749052
0.568345984522
0.551920514809
0.525099137803
0.486024617787
0.434056051269
0.371112633444
0.298824536989
0.223583615545
0.157309170684
0.119835112359
0.116815658851
0.116815658851
0.140675586517
0.232042064619
0.298138642601
0.370375273233
0.537431803505
0.727670504707
0.82208117626
0.856509670716
0.869927906098
0.875906657217
0.879740081957
0.879915405564
0.87316967213
0.828745773487
0.595016848385
0.108094685486
0.0240837487504
)
;
    }
    water_to_cooler
    {
        type            zeroGradient;
    }
    water_to_heater
    {
        type            zeroGradient;
    }
    procBoundary0to1
    {
        type            processor;
        value           nonuniform List<scalar> 
41
(
0.875385889942
0.854418273
0.860829244474
0.86122657306
0.861376819203
0.859055702371
0.840610295636
0.793458443402
0.700286803501
0.556603765003
0.423466571445
0.360991602938
0.372717669835
0.449586177883
0.594240810782
0.654761566756
0.645026035618
0.584255438216
0.475938853819
0.352797886925
0.329146114883
0.329231062776
0.28330307724
0.100255657599
0.0754826806692
0.0753275183996
0.0755123725375
0.12418409342
0.376270272525
0.674481279571
0.824320112419
0.878182315234
0.899954420468
0.915732048372
0.917984515238
0.141012409562
0.285266769141
0.323220450389
0.329041346714
0.32914815958
0.32914815958
)
;
    }
}


// ************************************************************************* //
