/*--------------------------------*- C++ -*----------------------------------*\
| =========                 |                                                 |
| \\      /  F ield         | OpenFOAM: The Open Source CFD Toolbox           |
|  \\    /   O peration     | Version:  2312                                  |
|   \\  /    A nd           | Website:  www.openfoam.com                      |
|    \\/     M anipulation  |                                                 |
\*---------------------------------------------------------------------------*/
FoamFile
{
    version     2.0;
    format      ascii;
    arch        "LSB;label=32;scalar=64";
    class       volScalarField;
    location    "0.18/water";
    object      alphat.gas;
}
// * * * * * * * * * * * * * * * * * * * * * * * * * * * * * * * * * * * * * //

dimensions      [1 -1 -1 0 0 0 0];

internalField   nonuniform List<scalar> 
750
(
9.41270591742e-08
7.89248810442e-08
7.25365064524e-08
8.06371686409e-08
9.63856707013e-08
1.13191934625e-07
1.34783036382e-07
1.77784406082e-07
1.8385292546e-07
1.91062134207e-07
2.13977623105e-07
2.10266692133e-07
2.15596281668e-07
2.33300280882e-07
2.62478089859e-07
2.91075332612e-07
3.11731146802e-07
2.93034339911e-07
2.95741384829e-07
2.94114063175e-07
9.32758784057e-08
8.6060923691e-08
1.0429227977e-07
1.3709102616e-07
1.85272077257e-07
2.13194035302e-07
2.28165448609e-07
2.7107589119e-07
2.67798172294e-07
2.55350965719e-07
3.06847510607e-07
3.15422915381e-07
2.86145241808e-07
2.69218104529e-07
2.5580779012e-07
2.64398186531e-07
2.74324411945e-07
2.82801564388e-07
2.80946769935e-07
2.46689703449e-07
1.0659006672e-07
1.17326513896e-07
1.26828895137e-07
1.41292235951e-07
1.79551054545e-07
1.98454452876e-07
2.133228444e-07
2.43529160179e-07
2.62893572226e-07
2.46793607486e-07
2.30373673035e-07
2.15636959679e-07
2.01579236697e-07
1.89585819606e-07
1.80996465118e-07
1.77815181997e-07
1.78484675523e-07
1.97964355178e-07
2.07401320334e-07
2.10288185609e-07
2.09320046964e-07
1.73420896076e-07
1.45313088686e-07
1.19480225373e-07
1.03351079786e-07
1.03583259584e-07
1.15614757706e-07
1.32143444266e-07
1.47632809977e-07
1.57824484907e-07
1.62160940906e-07
1.5986397267e-07
1.52405776591e-07
1.43217961626e-07
1.33911545372e-07
1.2551344769e-07
1.19001185797e-07
1.1506751668e-07
1.1513046842e-07
1.18178947896e-07
2.2212280509e-07
1.73352773876e-07
1.38519739181e-07
1.14201700459e-07
9.86182400012e-08
9.20966014673e-08
9.33861998901e-08
9.83660619471e-08
1.04403313326e-07
1.10056631212e-07
1.13784932095e-07
1.14695254111e-07
1.12724115929e-07
1.0869792355e-07
1.03761224297e-07
9.89383530454e-08
9.50933526685e-08
9.2783665616e-08
9.25305044881e-08
9.47469925175e-08
1.95582452708e-07
1.51573200881e-07
1.20396118744e-07
9.88958287887e-08
8.49921797821e-08
7.8028461915e-08
7.70511694414e-08
7.86089934302e-08
8.02449289916e-08
8.17391910639e-08
8.28595366515e-08
8.31298449516e-08
8.23218166855e-08
8.06009854293e-08
7.84359054502e-08
7.64350787656e-08
7.51809801586e-08
7.51035840694e-08
7.6512106851e-08
7.92408369397e-08
1.7421762791e-07
1.34606457304e-07
1.06477558885e-07
8.67477559371e-08
7.32940847018e-08
6.54218023701e-08
6.2800098399e-08
6.28670350215e-08
6.26337679081e-08
6.17318967888e-08
6.08037312891e-08
6.00921496249e-08
5.95740460511e-08
5.92588776778e-08
5.92796239963e-08
5.98473894309e-08
6.1121890025e-08
6.30771147532e-08
6.55279671715e-08
6.82904533261e-08
1.56968213072e-07
1.20971216188e-07
9.53461051214e-08
7.71152579838e-08
6.41844599147e-08
5.56714567481e-08
5.13759587365e-08
4.98031081867e-08
4.83911704234e-08
4.64623246989e-08
4.49052351008e-08
4.43060230698e-08
4.47032860024e-08
4.59691943708e-08
4.79912437044e-08
5.06551537286e-08
5.37479578047e-08
5.68942858606e-08
5.96856465433e-08
6.17694990833e-08
1.4228071631e-07
1.09432155549e-07
8.60073478862e-08
6.92134298046e-08
5.70023941883e-08
4.82340483891e-08
4.26879626928e-08
3.98093279762e-08
3.80251288749e-08
3.65485670507e-08
3.59383437422e-08
3.65992416132e-08
3.84383653717e-08
4.12049196288e-08
4.46256035944e-08
4.83733050866e-08
5.20094827082e-08
5.50142631133e-08
5.69863506606e-08
5.75056199671e-08
1.29604096468e-07
9.94836233369e-08
7.79758784788e-08
6.24812226825e-08
5.09654716597e-08
4.21145766655e-08
3.58394455968e-08
3.23476886569e-08
3.10694229512e-08
3.12244766302e-08
3.26051502261e-08
3.50936121749e-08
3.8425771264e-08
4.22841568537e-08
4.63089606955e-08
5.00726623542e-08
5.31053196778e-08
5.50259216581e-08
5.57097031502e-08
5.48243688126e-08
1.17390424475e-07
8.99087604334e-08
7.02831810483e-08
5.61022196725e-08
4.5337186603e-08
3.66382476168e-08
3.01766562044e-08
2.66936412633e-08
2.64392903903e-08
2.86732274279e-08
3.22869397441e-08
3.65632342298e-08
4.10750776556e-08
4.54785302873e-08
4.94200009036e-08
5.25391007053e-08
5.45487550265e-08
5.53572794611e-08
5.50898160681e-08
5.3396974193e-08
1.05711448812e-07
8.08721998449e-08
6.31098950272e-08
5.02384023056e-08
4.02460153803e-08
3.18675598901e-08
2.55785695762e-08
2.24480728932e-08
2.32714131742e-08
2.73954697381e-08
3.30033169363e-08
3.88083857759e-08
4.42014455935e-08
4.88324655207e-08
5.24366078854e-08
5.48290621604e-08
5.59711378738e-08
5.60061716101e-08
5.51547936819e-08
5.29756623581e-08
9.46920237157e-08
7.25920895009e-08
5.6658369203e-08
4.50525448928e-08
3.58897050946e-08
2.80178266147e-08
2.21246011264e-08
1.95261213844e-08
2.1426009604e-08
2.73015501802e-08
3.48344715989e-08
4.21173695775e-08
4.82754475638e-08
5.30394166858e-08
5.63148664422e-08
5.81112702668e-08
5.85916772405e-08
5.79836752091e-08
5.64794038752e-08
7.30205154268e-08
5.69581609525e-08
4.52169421911e-08
3.6677669124e-08
3.00734482895e-08
2.43133587213e-08
1.97081069974e-08
1.74159033928e-08
1.90235041449e-08
2.54904964034e-08
3.46078556195e-08
4.34641657276e-08
5.11691447863e-08
5.71548020942e-08
6.11626064713e-08
6.32307111484e-08
6.34089520168e-08
6.19855247247e-08
5.93345556384e-08
5.11999277822e-08
4.08243125085e-08
3.36652162328e-08
2.86018848464e-08
2.5162294578e-08
2.29604824499e-08
2.15310711167e-08
2.05601339561e-08
2.00992544458e-08
2.02029151313e-08
2.06749765446e-08
2.1507142179e-08
2.3221407854e-08
2.68850926549e-08
3.40273518952e-08
4.3953013344e-08
5.24730126106e-08
5.76917503391e-08
5.96126940748e-08
5.21952680247e-08
4.17865438768e-08
3.46107573714e-08
2.9308184789e-08
2.55474703099e-08
2.30832307727e-08
2.14363809958e-08
2.01928000995e-08
1.91506183673e-08
1.82489455959e-08
1.76932888242e-08
1.8648411124e-08
2.37119799026e-08
3.43960858202e-08
4.83420986321e-08
6.15614661784e-08
7.13301378094e-08
7.50696508817e-08
7.42128003014e-08
6.85822695307e-08
5.58561410445e-08
4.41690135882e-08
3.43677084643e-08
2.82771686368e-08
2.39152214924e-08
1.98154246395e-08
1.68260267287e-08
1.66141484896e-08
2.04356621244e-08
2.83752222843e-08
3.98123914238e-08
5.55578747822e-08
7.39173820574e-08
9.36163582325e-08
1.06093949449e-07
1.11253974919e-07
1.09995147205e-07
9.88268851537e-08
7.88323023631e-08
6.38020384926e-08
4.99464531742e-08
3.88580742002e-08
3.25203038028e-08
2.79504241324e-08
2.31816580966e-08
1.96548543524e-08
1.98318575321e-08
2.46251964982e-08
3.34187424259e-08
4.61829126184e-08
6.3552055269e-08
8.13342042608e-08
9.80069497625e-08
1.12606470929e-07
1.21209647033e-07
1.21914038051e-07
1.13415622539e-07
7.50507438425e-08
6.0521495259e-08
4.78369807708e-08
3.8025316936e-08
3.27953948658e-08
2.94467262115e-08
2.6016380729e-08
2.37102845909e-08
2.36179516231e-08
2.54156996869e-08
2.90907550482e-08
3.51138399314e-08
4.35782309755e-08
5.39519367485e-08
6.60704193183e-08
7.7091380931e-08
8.52718389169e-08
9.04926254443e-08
9.15683419335e-08
7.8009203991e-08
6.20963654693e-08
4.92111932413e-08
3.87789354796e-08
3.22369233391e-08
2.78200475596e-08
2.40706966349e-08
2.30069804699e-08
2.53376306626e-08
2.86898941256e-08
3.12067434293e-08
3.29774945471e-08
3.49230890234e-08
3.77280002567e-08
4.16281528441e-08
4.64896317386e-08
5.18746217006e-08
5.41807331509e-08
5.35608017212e-08
7.31467312227e-08
6.08139754239e-08
5.09309830069e-08
3.83876923698e-08
3.04310000705e-08
2.9521611334e-08
3.2866055591e-08
3.87947432249e-08
4.533596541e-08
5.04806928884e-08
5.32208687315e-08
5.37039044946e-08
5.26140813629e-08
5.05502287879e-08
4.74605250342e-08
4.30496504375e-08
3.65606599574e-08
3.15759468688e-08
2.92470079763e-08
6.03302892424e-08
4.9582596401e-08
4.28259248884e-08
3.68886411584e-08
3.13243157324e-08
2.75735350837e-08
2.64918228496e-08
2.8242475515e-08
3.32722048638e-08
4.14905520743e-08
5.13889026933e-08
6.05436402715e-08
6.6451468332e-08
6.6147950638e-08
5.40310527213e-08
3.49046035206e-08
2.26107716144e-08
1.85629581472e-08
1.82281860398e-08
6.12674207244e-08
4.7417724564e-08
3.8227211309e-08
3.28442538103e-08
3.01981535434e-08
3.05626413876e-08
3.68405309029e-08
5.1043473951e-08
7.05875009383e-08
8.99353433533e-08
1.05156119011e-07
1.0747234416e-07
8.10750807539e-08
4.01116554623e-08
2.19084553171e-08
1.79801373644e-08
1.77288933378e-08
1.89118104912e-08
2.09779444752e-08
2.36222364827e-08
1.06145195795e-07
8.85673397475e-08
7.54134494439e-08
6.61837382399e-08
6.06367011568e-08
5.84963733053e-08
5.90623616521e-08
6.17767448822e-08
6.59467703941e-08
6.63968721282e-08
5.59421801707e-08
4.08588261504e-08
2.98505496836e-08
2.41887261991e-08
2.22417382727e-08
2.23744323998e-08
2.37044763201e-08
2.59915931924e-08
2.92457141682e-08
3.26250863758e-08
1.71289055624e-07
1.39831725376e-07
1.15107180146e-07
9.82632836035e-08
9.09485225301e-08
9.08956456906e-08
9.29296032573e-08
9.44009342012e-08
8.88822999368e-08
7.29405838287e-08
5.73246913372e-08
4.73479829608e-08
4.16204708345e-08
3.86738641811e-08
3.73037065222e-08
3.71595304772e-08
3.67185578046e-08
3.63603340386e-08
3.72324403231e-08
3.97926118748e-08
1.65993787253e-07
1.34267446349e-07
1.12462013075e-07
1.01330578768e-07
1.00448615301e-07
1.04702580297e-07
1.08666513554e-07
1.10570899044e-07
1.04801711016e-07
8.74549379669e-08
6.90679850867e-08
5.68945720725e-08
5.02601282059e-08
4.72079051769e-08
4.63470193665e-08
4.64435076282e-08
4.59977252765e-08
4.4404602295e-08
4.19023462251e-08
4.09903970587e-08
1.54549877205e-07
1.23377069975e-07
1.03797745891e-07
9.8464834224e-08
1.06186862224e-07
1.19532920435e-07
1.30569651014e-07
1.34140960345e-07
1.24196598932e-07
1.00366286178e-07
7.67980877348e-08
6.15315563448e-08
5.33441993836e-08
4.93677062257e-08
4.7713436069e-08
4.67687525746e-08
4.51294176152e-08
4.20174783008e-08
3.80250485575e-08
3.39336839756e-08
1.40999166518e-07
1.17252138035e-07
1.00953746566e-07
9.19136387561e-08
9.01905130573e-08
9.58713672318e-08
1.08024652951e-07
1.21169119233e-07
1.242834549e-07
1.09007836692e-07
8.11002452611e-08
5.75334418415e-08
4.70380593075e-08
4.30312086598e-08
4.12442322994e-08
3.97897895603e-08
3.77787390022e-08
3.47562680026e-08
3.05563271406e-08
2.60209748893e-08
7.23116469408e-08
6.23115088974e-08
6.07492515066e-08
7.46110488463e-08
1.08424291491e-07
1.52322640925e-07
1.90703416364e-07
2.06812084847e-07
1.82565216186e-07
1.23453951812e-07
6.91757730898e-08
4.72237452338e-08
4.09645136489e-08
3.86398124146e-08
3.71093108018e-08
3.52236462362e-08
3.24854483127e-08
2.90445377311e-08
2.51106216255e-08
2.16755007425e-08
6.42868458139e-08
5.4309418299e-08
5.40436813221e-08
7.07159359516e-08
1.07506126992e-07
1.52544716031e-07
1.89729867668e-07
1.99060194404e-07
1.57313745058e-07
9.40078880428e-08
5.64711413582e-08
4.42808220778e-08
4.08782451289e-08
3.92445597402e-08
3.73646291501e-08
3.48388233793e-08
3.15920608804e-08
2.78705903289e-08
2.45031709627e-08
2.24478907831e-08
1.947509664e-07
1.58669264442e-07
1.32660292541e-07
1.1745731561e-07
1.14598220237e-07
1.28780200203e-07
1.48676647308e-07
1.38690336678e-07
1.06994975602e-07
7.94148482963e-08
6.4240639106e-08
5.88723823097e-08
5.76259196424e-08
5.63405795422e-08
5.40839153693e-08
5.08994394827e-08
4.66756781492e-08
4.1158080929e-08
3.60023525879e-08
3.33950385878e-08
2.98642979188e-07
2.34809844773e-07
1.85672673527e-07
1.50975840324e-07
1.34646791637e-07
1.4431674564e-07
1.57038742944e-07
1.47679165723e-07
1.25771673732e-07
1.03578948557e-07
8.75460027793e-08
7.92370663269e-08
7.67897915311e-08
7.67231814175e-08
7.72675618724e-08
7.79173117148e-08
7.8334795203e-08
7.69040477473e-08
7.24369233902e-08
6.32009174336e-08
2.55413731169e-07
2.00272029725e-07
1.59165248881e-07
1.29905833997e-07
1.15422080509e-07
1.20639860422e-07
1.32585139966e-07
1.30746409352e-07
1.17135639346e-07
1.01016211432e-07
8.76156211947e-08
7.87112744317e-08
7.44995880291e-08
7.35981762146e-08
7.47220018044e-08
7.70941340979e-08
7.98528454279e-08
8.17489554503e-08
8.17978133615e-08
7.95885484279e-08
2.14486613151e-07
1.67987029788e-07
1.33884799348e-07
1.09941214937e-07
9.77435525837e-08
9.98338548179e-08
1.08906598054e-07
1.11132322398e-07
1.04626796919e-07
9.48831280652e-08
8.57901431241e-08
7.89617031467e-08
7.47879821755e-08
7.30196632094e-08
7.32146226816e-08
7.48849121845e-08
7.72067274336e-08
7.90791667156e-08
7.96668922268e-08
7.85522722386e-08
1.9026322177e-07
1.48329611728e-07
1.17885326374e-07
9.64593459476e-08
8.43709598273e-08
8.29279927802e-08
8.87933105006e-08
9.27673660082e-08
9.12764893643e-08
8.70600897688e-08
8.25951742464e-08
7.90142041073e-08
7.66878261533e-08
7.56151458416e-08
7.56182490297e-08
7.63711547069e-08
7.73159377562e-08
7.7788502171e-08
7.733752337e-08
7.58991949645e-08
1.77945745913e-07
1.3805891638e-07
1.09650298447e-07
8.94212604765e-08
7.65546424603e-08
7.17899726986e-08
7.44258216304e-08
7.82148762432e-08
7.87196303713e-08
7.74054497949e-08
7.59666500361e-08
7.49770347382e-08
7.44930271028e-08
7.44064090029e-08
7.4543826209e-08
7.46610873388e-08
7.44478989275e-08
7.36390363942e-08
7.21353894726e-08
7.0040636582e-08
1.68142052813e-07
1.30535594339e-07
1.03721918188e-07
8.41809556269e-08
7.06394701904e-08
6.37098308463e-08
6.4356094551e-08
6.78407685838e-08
6.89657091948e-08
6.86786229961e-08
6.84808506907e-08
6.86839380258e-08
6.91032689785e-08
6.94875574052e-08
6.96234085589e-08
6.933764137e-08
6.84962929971e-08
6.70509258246e-08
6.5084125068e-08
6.28391177575e-08
1.63193250967e-07
1.26828317861e-07
1.00895916461e-07
8.15886833677e-08
6.74379356596e-08
5.91819328851e-08
5.87251857084e-08
6.17909806424e-08
6.26618331707e-08
6.22612026098e-08
6.21007268384e-08
6.23659580807e-08
6.27662349216e-08
6.30089808305e-08
6.29108715849e-08
6.23847229217e-08
6.14108937413e-08
6.00427641433e-08
5.84445327691e-08
5.69680169482e-08
)
;

boundaryField
{
    emptyPatch
    {
        type            empty;
    }
    minY
    {
        type            zeroGradient;
    }
    maxY
    {
        type            calculated;
        value           nonuniform List<scalar> 
20
(
1.63191392104e-07
1.26826919438e-07
1.00894813021e-07
8.15877916124e-08
6.74371985231e-08
5.91812858898e-08
5.87245435691e-08
6.17903048257e-08
6.26611476875e-08
6.22605213852e-08
6.21000472452e-08
6.23652754356e-08
6.27655477042e-08
6.30082907112e-08
6.29101822339e-08
6.23840389629e-08
6.14102200172e-08
6.00421049227e-08
5.84438905214e-08
5.69673902708e-08
)
;
    }
    maxX
    {
        type            compressible::alphatPhaseChangeJayatillekeWallFunction;
        Prt             0.85;
        Cmu             0.09;
        kappa           0.41;
        E               9.8;
        dmdt            nonuniform List<scalar> 0();
        value           nonuniform List<scalar> 0();
    }
    water_to_heater
    {
        type            compressible::alphatWallBoilingWallFunction;
        phaseType       vapor;
        relax           constant 1;
        partitioningModel
        {
            type            Lavieville;
            alphaCrit       0.2;
        }
        otherPhase      liquid;
        dmdt            uniform 0;
        dDep            uniform 1e-05;
        qQuenching      uniform 0;
        alphatConv      uniform 0;
        value           nonuniform List<scalar> 
61
(
2.28402071745e-11
2.28402071745e-11
2.28059780189e-11
2.28059780189e-11
2.28402071745e-11
1.19575554387e-06
5.51249754513e-06
5.51249754513e-06
5.57681823657e-06
5.57681823657e-06
5.62786077545e-06
5.62786077545e-06
5.66659922148e-06
5.69203829337e-06
5.70877619305e-06
5.70877619305e-06
5.71626742132e-06
5.71626742132e-06
5.71982164185e-06
5.71982164185e-06
5.71982583447e-06
5.45892566058e-06
6.7465500977e-07
6.7465500977e-07
1.07456645262e-06
1.07456645262e-06
5.35582655685e-06
5.35582655685e-06
5.42086727371e-06
4.93372456982e-06
4.33486487775e-06
4.33486487775e-06
4.96292795934e-06
4.96292795934e-06
5.885942503e-07
5.885942503e-07
2.83556900885e-08
3.23969748819e-07
5.53576147592e-06
5.53576147592e-06
5.66765317855e-06
5.66765317855e-06
5.58431169538e-06
5.58431169538e-06
2.83980449905e-07
1.91128094294e-10
2.6944057842e-10
2.6944057842e-10
6.70269696164e-07
6.70269696164e-07
5.41916369232e-06
5.41916369232e-06
5.5418722716e-06
5.53544428439e-06
5.52563139329e-06
5.52563139329e-06
5.5799381186e-06
5.5799381186e-06
5.58297253965e-06
5.58297253965e-06
5.58298221716e-06
)
;
    }
    procBoundary3to0
    {
        type            processor;
        value           nonuniform List<scalar> 
20
(
1.00440497464e-07
7.96406448902e-08
6.60779712345e-08
5.70276354173e-08
5.27787451798e-08
5.56035220062e-08
6.34009482959e-08
6.62007569907e-08
6.58020762747e-08
7.12946932228e-08
8.46133612163e-08
1.06364077878e-07
1.35794848607e-07
1.70049121095e-07
2.05137123639e-07
2.38105142947e-07
2.95200299854e-07
3.18760403064e-07
3.03220081503e-07
3.09870848205e-07
)
;
    }
    procBoundary3to1
    {
        type            processor;
        value           uniform 2.7086678458e-07;
    }
    procBoundary3to2
    {
        type            processor;
        value           nonuniform List<scalar> 
39
(
1.9847266134e-07
1.69334136701e-07
1.26345388229e-07
1.01941828132e-07
7.88177838529e-08
5.95356166414e-08
4.48759282959e-08
3.65612975849e-08
3.19918022399e-08
2.97946757169e-08
5.35161723707e-08
2.9102384676e-08
5.35161723707e-08
5.50493836926e-08
5.74284331542e-08
6.74162116183e-08
7.87439575979e-08
9.16129968254e-08
8.5448742288e-08
5.06696946851e-08
2.73237065517e-08
1.93480862515e-08
1.93480862515e-08
2.85547451559e-08
3.65269318858e-08
4.30161882743e-08
4.5484307741e-08
3.98537406498e-08
3.22671242194e-08
2.80743186526e-08
2.75639147016e-08
3.42114720415e-08
5.12912411456e-08
6.56912681873e-08
6.41050988739e-08
5.94143447077e-08
5.31532352888e-08
5.04698569406e-08
5.6620933003e-08
)
;
    }
}


// ************************************************************************* //
