/*--------------------------------*- C++ -*----------------------------------*\
| =========                 |                                                 |
| \\      /  F ield         | OpenFOAM: The Open Source CFD Toolbox           |
|  \\    /   O peration     | Version:  2312                                  |
|   \\  /    A nd           | Website:  www.openfoam.com                      |
|    \\/     M anipulation  |                                                 |
\*---------------------------------------------------------------------------*/
FoamFile
{
    version     2.0;
    format      ascii;
    arch        "LSB;label=32;scalar=64";
    class       volScalarField;
    location    "0.725/water";
    object      T.gas;
}
// * * * * * * * * * * * * * * * * * * * * * * * * * * * * * * * * * * * * * //

dimensions      [0 0 0 1 0 0 0];

internalField   nonuniform List<scalar> 
1496
(
454.384882957
361.285013506
321.039303477
306.859822727
302.515664845
301.304175329
300.940005871
300.771553336
300.670999118
300.589357813
300.508668989
300.425925479
300.344128805
300.265737208
300.195782939
300.138688773
300.096796152
300.069255841
300.053707921
300.044352935
439.596094093
357.478781808
321.218839944
307.380730498
302.781057854
301.422080747
300.989163858
300.794060479
300.680839983
300.593595228
300.50934968
300.42410951
300.341264084
300.263358782
300.1949028
300.139867547
300.100115342
300.074767339
300.060227338
300.051041116
437.05280552
355.162588246
321.070523081
307.750463732
303.054353998
301.572208619
301.061414137
300.829345374
300.696818998
300.60038833
300.511723458
300.424197097
300.340784978
300.263752084
300.1968711
300.143486396
300.10533765
300.081302803
300.067736644
300.058298013
440.410859187
354.581222215
320.890761714
307.932116108
303.263166459
301.718456289
301.146588499
300.874496234
300.717931006
300.609320639
300.515415746
300.425689604
300.342009234
300.26599807
300.200472078
300.148703497
300.11174735
300.088986049
300.076140689
300.065871988
443.031373137
354.61357879
320.698158335
307.939976573
303.385925398
301.846013186
301.233567983
300.922563139
300.740329268
300.618265991
300.518785274
300.426991515
300.343590832
300.269043641
300.205552509
300.155148657
300.119203515
300.098588722
300.085088044
300.07346467
444.803307214
354.598430524
320.39831375
307.853505333
303.479546227
301.973965548
301.317913746
300.966684447
300.759631799
300.624863765
300.520138199
300.426804992
300.34440759
300.272151303
300.210765157
300.161570373
300.129267088
300.109191347
300.094382239
300.080971575
444.281174696
353.589517695
320.110762286
308.008097833
303.73942775
302.151342166
301.406043689
301.00488627
300.77397135
300.628413082
300.519117645
300.425174735
300.344718839
300.274928926
300.214935568
300.170660436
300.1410973
300.120726243
300.103790214
300.088571768
431.66182343
348.019635743
319.377766165
308.563546177
304.311225729
302.442246191
301.529420102
301.051916427
300.790380837
300.632400367
300.517037291
300.423818405
300.345716912
300.277051125
300.222078682
300.182818025
300.154803019
300.132979066
300.11357563
300.096493788
412.47961764
346.978060749
321.125109568
310.113404332
305.206353975
302.876551549
301.714956036
301.125778412
300.818797842
300.640513947
300.516851911
300.424515274
300.347576405
300.282193093
300.234168583
300.198200863
300.170316902
300.145886687
300.123846642
300.105178625
395.779671185
341.841488914
320.62345167
310.761625973
305.793135124
303.220071707
301.881991046
301.201114518
300.850288938
300.647613776
300.519286441
300.427820178
300.351435714
300.29373745
300.250633651
300.216593537
300.186856989
300.159481232
300.135095426
300.11544736
384.431469987
335.293149918
317.836288349
309.912614146
305.614053963
303.212537737
301.903292857
301.219548733
300.854829892
300.645648329
300.521079699
300.432306001
300.361279073
300.310562356
300.270538176
300.236372019
300.204312983
300.174254313
300.148522165
300.12863726
377.524997381
329.804401544
314.392208579
308.139504986
304.792679386
302.850978735
301.75267223
301.155706877
300.820292079
300.635376707
300.523617539
300.440841661
300.377931442
300.331153171
300.292760608
300.25761486
300.22347816
300.191714984
300.165570992
300.14644126
373.576664383
326.100424222
311.763955989
306.442340726
303.860484235
302.385638152
301.534629485
301.05473543
300.783175021
300.631683223
300.534657522
300.459544204
300.40191778
300.35707045
300.319094174
300.282910883
300.247075872
300.214034935
300.188681462
300.170846621
371.182911848
324.734695066
310.468857438
305.465778052
303.257094779
302.082931931
301.401305582
301.004231596
300.778541761
300.649621984
300.562958193
300.492021154
300.435309529
300.390611548
300.351594163
300.314642928
300.277802982
300.245056169
300.220959521
300.204380576
371.248958931
326.672170811
311.306862914
305.816566987
303.417674282
302.196241179
301.488952397
301.06685093
300.83161447
300.701370409
300.613591289
300.541891735
300.483951511
300.436344904
300.395010315
300.357386634
300.320958441
300.288434113
300.26442903
300.245365825
384.277541665
339.226878376
318.867770199
309.559255279
305.299027056
303.18562834
301.996783204
301.319496445
300.969346557
300.795383063
300.691150737
300.611415525
300.546732147
300.49203514
300.444923918
300.40382332
300.368039008
300.336207323
300.310202788
300.287224464
453.453509906
377.168479221
335.838978752
316.872590749
308.467353571
304.5875051
302.626027068
301.614691323
301.129473422
300.903482131
300.779324987
300.689588818
300.615425987
300.551906187
300.496759263
300.449082866
300.409194311
300.376186942
300.34784201
300.321220837
575.716964959
406.884957669
345.124180998
320.451767085
309.994745667
305.218117807
302.896561808
301.76559782
301.238168067
300.991788879
300.856218135
300.759164344
300.67850361
300.608327652
300.546761359
300.492841949
300.446932045
300.408862838
300.375896974
300.344205946
618.567699863
421.975072643
349.804105516
321.85418213
310.413306796
305.335045873
302.95524741
301.831127587
301.308392532
301.056998209
300.914820424
300.813100612
300.728333208
300.653681757
300.587041548
300.527873268
300.476114404
300.432201365
300.393835392
300.356664383
627.906359857
428.285007726
351.835826706
322.236203322
310.418395269
305.305365349
302.963576687
301.872117775
301.358542256
301.103029184
300.954844546
300.84907415
300.761518368
300.683967665
300.614002206
300.550820008
300.494341034
300.445110741
300.40139662
300.35945886
630.244188422
430.371570147
352.134407913
321.953723718
310.223123776
305.25263637
302.984955478
301.91540745
301.399844417
301.13503409
300.978875649
300.868443004
300.778250453
300.698762946
300.626631058
300.560788871
300.50095438
300.44768775
300.399581218
300.354190476
630.908626463
429.789606896
350.769812646
320.859872046
309.672657687
305.063229738
302.966006408
301.943755617
301.428290537
301.15320332
300.988233941
300.872613553
300.779742486
300.698713336
300.625260007
300.557852008
300.496113108
300.44033314
300.38947405
300.342562855
630.768046926
426.628574908
347.537665104
318.747953729
308.536952184
304.543687837
302.775695016
301.893379982
301.418255059
301.14822047
300.980162029
300.861405068
300.766739672
300.684807813
300.610841427
300.542992878
300.480817486
300.424204485
300.372766238
300.326780543
628.899614008
420.963901386
342.606080144
315.647525068
306.815661248
303.673109532
302.368357325
301.717414354
301.341599648
301.106776544
300.949247873
300.833350665
300.73959778
300.658326684
300.58510124
300.518198219
300.456889873
300.401205192
300.351609441
300.308791938
624.92131006
412.064865265
336.612467008
312.251334505
305.02226744
302.750406609
301.890136581
301.466881734
301.20674162
301.026669354
300.893123622
300.787671892
300.699048917
300.621001413
300.550343587
300.485735747
300.426736433
300.374099407
300.328591188
300.289228543
617.814123165
400.951085948
330.061856629
309.133591092
303.557441676
302.016962632
301.483476381
301.225740686
301.057365666
300.927879122
300.821331664
300.729034752
300.647137564
300.574771066
300.508586735
300.447963792
300.393425808
300.345829222
300.304654581
300.268336839
605.690779695
389.32238655
324.145843377
306.677514898
302.531391179
301.519453935
301.191658561
301.03047242
300.919205425
300.826754973
300.74375893
300.666513658
300.591866852
300.524140476
300.463939144
300.409319348
300.360248242
300.317325016
300.279942647
300.245432558
594.859343499
380.731946964
320.145516834
305.139361777
301.930818714
301.228787702
301.009835107
300.896640187
300.816209096
300.745041676
300.677373941
300.61050713
300.540584797
300.478776381
300.423081582
300.372332854
300.327860497
300.289203177
300.253957781
300.21766361
594.718927168
379.477703984
319.294682634
304.697258674
301.71247094
301.108518611
300.929342155
300.837215979
300.762133415
300.696972274
300.632922468
300.565168274
300.499194107
300.439570125
300.385762382
300.338874138
300.298266979
300.261375628
300.22421671
300.18580377
598.577493983
383.835528657
320.833183521
305.032479339
301.729231254
301.079930705
300.901106992
300.807521095
300.73346519
300.667422224
300.600627254
300.533284883
300.467944356
300.408121882
300.355828742
300.310975224
300.27084901
300.231383794
300.191502213
300.15450642
600.126275309
388.425816683
323.303952138
305.850985653
301.922217302
301.108862244
300.897265775
300.796666331
300.71840794
300.648369501
300.579599361
300.510704423
300.444222595
300.383991313
300.331690504
300.285693905
300.242860829
300.199851754
300.162674679
300.130654738
600.677856454
389.600731511
324.204465836
306.3063364
302.08070831
301.146996888
300.901146144
300.793586113
300.709433277
300.635075079
300.563614161
300.492975783
300.425379122
300.363864695
300.309190065
300.260998356
300.214776619
300.174772408
300.142811349
300.114976423
600.136508947
387.505470255
323.513145507
306.192700772
302.085299232
301.159130888
300.909172128
300.790877649
300.700562678
300.622647529
300.549195373
300.477376142
300.408225755
300.344234041
300.287388774
300.238736936
300.194171908
300.159675335
300.131854835
300.106415955
595.630769988
383.107144367
321.810057639
305.685012248
301.96937432
301.158394222
300.91940534
300.786680055
300.690232692
300.609504005
300.534759327
300.462103188
300.390557732
300.32548849
300.269546921
300.223051553
300.183315615
300.153519672
300.12809923
300.103067537
575.815877877
374.648275169
319.654930102
305.382819038
302.050235118
301.240588454
300.940629534
300.784825139
300.680221848
300.596491896
300.520648143
300.44627747
300.374425923
300.309160732
300.257421348
300.215626017
300.181199029
300.15413115
300.129265493
300.103109524
507.207467958
362.929198816
319.191066841
306.328395722
302.571025697
301.399585366
300.979342205
300.787639719
300.672240213
300.585067759
300.507879047
300.431583721
300.360479738
300.297996628
300.251869936
300.214872627
300.184961972
300.159315386
300.133934317
300.106132375
449.811775525
358.950677868
321.401222039
307.793529271
303.128423064
301.553577593
301.006921117
300.784761015
300.662492611
300.573205346
300.493690491
300.418836556
300.349441169
300.294210814
300.253109835
300.219636307
300.191819029
300.166240436
300.13921926
300.108305862
300.016256195
300.014197807
300.011051232
300.007818327
300.005868048
300.005077905
300.004501159
300.003878477
300.003836159
300.004694356
300.00491653
300.0052979
300.005715783
300.005975467
300.006011516
300.005972835
300.036857667
300.030309579
300.025652299
300.022817642
300.020740939
300.017971124
300.013887354
300.009975022
300.007570642
300.006278677
300.005099713
300.004321499
300.004478246
300.005186143
300.005501992
300.005924665
300.006297252
300.006520964
300.006554181
300.006468127
300.043142704
300.036244298
300.031355163
300.028216265
300.025637403
300.021878392
300.016768138
300.01218615
300.009198173
300.007276504
300.005566756
300.004783885
300.00533153
300.005761839
300.006128111
300.006535207
300.006864714
300.007060378
300.007088003
300.006954028
300.04977782
300.04252478
300.037398321
300.033885805
300.030595097
300.025565986
300.019413976
300.014107875
300.010437968
300.007932418
300.005903015
300.005316316
300.006015455
300.006387747
300.006737043
300.0071097
300.007414547
300.007579862
300.007595351
300.00740592
300.056493124
300.048906436
300.043497732
300.039492282
300.0352651
300.028761089
300.021576043
300.015486326
300.011117429
300.008201869
300.006187495
300.00607181
300.00657357
300.006963837
300.00731121
300.007689751
300.007949492
300.008064437
300.008056948
300.007793261
300.063153919
300.055211346
300.049477925
300.044789332
300.039415336
300.031367959
300.023145223
300.016257414
300.011280988
300.008203387
300.006541476
300.006693466
300.007162043
300.007543415
300.007915105
300.008271449
300.008463996
300.008504339
300.008456348
300.008102268
300.069744245
300.061395734
300.055244261
300.049695918
300.043008022
300.033496849
300.024248548
300.01661761
300.011193532
300.008048375
300.006926409
300.007254909
300.007671038
300.008097707
300.008526006
300.008848088
300.008975086
300.008911659
300.008782074
300.008371986
300.076391702
300.067626495
300.060930473
300.054427854
300.046324526
300.035470484
300.025309009
300.017006786
300.011019052
300.007993937
300.007306946
300.007690802
300.008133706
300.008613682
300.009118083
300.009442783
300.009525596
300.009345759
300.009078496
300.008624501
300.083434942
300.074286604
300.06703117
300.059498188
300.049898564
300.037912673
300.026973819
300.017620938
300.010989773
300.007954155
300.007738763
300.008052141
300.008523215
300.009098229
300.009685162
300.010059744
300.010149325
300.009878676
300.009436335
300.008781787
300.091478097
300.082037132
300.074268111
300.065667058
300.054531806
300.041487752
300.029627873
300.018317708
300.011373264
300.008478054
300.008265192
300.008497953
300.008966209
300.009576929
300.010192474
300.010636642
300.010768206
300.010488182
300.009721553
300.008045822
300.101447641
300.091816338
300.083538347
300.073771675
300.061027397
300.046686581
300.032531652
300.019616067
300.011476837
300.009395436
300.008992876
300.009096547
300.009483926
300.010003625
300.010600744
300.01108267
300.011270985
300.011082623
300.0100215
300.007765001
300.114565929
300.10485859
300.095882612
300.08465248
300.069996803
300.053412801
300.036127289
300.02009175
300.012574682
300.010594773
300.009959813
300.009878915
300.010058323
300.010386229
300.010883132
300.01139708
300.011612328
300.011591078
300.01067848
300.007765927
300.13243119
300.122512019
300.112338025
300.098949866
300.081481725
300.061204349
300.040450869
300.022367006
300.014309579
300.012004063
300.011157633
300.010807987
300.010681645
300.010763818
300.011074788
300.011615693
300.011877131
300.012003471
300.011669847
300.007931898
300.156742077
300.145583732
300.133073027
300.116345269
300.094762429
300.070350341
300.04562874
300.02618904
300.016402517
300.013661569
300.012494862
300.011797159
300.011341161
300.011164679
300.011320592
300.011808438
300.012135974
300.012389673
300.012356808
300.00891758
300.188490842
300.174372615
300.15793555
300.136822561
300.110808315
300.081684986
300.053001126
300.030963708
300.018789233
300.015421972
300.013812171
300.012701782
300.011931762
300.011548652
300.011643826
300.012106589
300.012484117
300.0128161
300.012807572
300.009909576
300.225780451
300.206680911
300.184857742
300.159128956
300.128748242
300.095581067
300.063068751
300.036655263
300.021238541
300.01697327
300.014842931
300.013315622
300.012237906
300.011788691
300.0120775
300.012648876
300.012851777
300.013196773
300.01325177
300.011321132
300.263278998
300.237590665
300.209844876
300.180511218
300.148052986
300.112372199
300.075967568
300.043277065
300.023613203
300.018196396
300.015522051
300.013637941
300.012420704
300.01205791
300.012576805
300.013047321
300.013289774
300.013563122
300.013773887
300.013073107
300.293105413
300.261792158
300.229873017
300.198550669
300.165889557
300.129638233
300.089510712
300.050365773
300.025844364
300.019184616
300.016011054
300.013871045
300.012600034
300.01238746
300.013112486
300.013513653
300.013749584
300.014043971
300.01511547
300.016612797
300.311183921
300.276242162
300.242861726
300.211284635
300.179338044
300.143604297
300.099750959
300.055779694
300.027718031
300.019966931
300.016409188
300.014122381
300.012885569
300.012809785
300.013549963
300.013974391
300.014250227
300.015019232
300.016620286
300.022793765
300.319491165
300.283057813
300.249752761
300.218538046
300.187116713
300.151308286
300.105102737
300.056356015
300.028290376
300.020244764
300.016478036
300.014249523
300.013249831
300.01342532
300.014122953
300.01451763
300.014937802
300.017729907
300.020682457
300.031457068
300.319365381
300.282767424
300.250528112
300.220572709
300.189337076
300.152572196
300.101819015
300.050571273
300.026623922
300.019525271
300.016041463
300.014162908
300.013694478
300.014183105
300.014931676
300.015365705
300.016035078
300.020449451
300.025744587
300.042033489
300.312836743
300.277107673
300.246276808
300.217235031
300.185488786
300.144938172
300.087624683
300.039583894
300.023250265
300.01800469
300.015214617
300.014101611
300.0144429
300.015185536
300.016017593
300.016334541
300.016760779
300.022254273
300.029656219
300.056996264
300.3019321
300.267924444
300.238443601
300.209100441
300.174736437
300.125742453
300.065050019
300.030221888
300.020198271
300.016460321
300.014700891
300.014676974
300.015647176
300.016619662
300.01718328
300.016914135
300.01772553
300.02540964
300.038223281
300.066655526
300.288297382
300.256204073
300.227081909
300.195479657
300.154228112
300.096067395
300.046868669
300.024583394
300.018209011
300.015636639
300.015081477
300.015949358
300.017105831
300.018144055
300.018740423
300.01857026
300.020495495
300.030541368
300.049212584
300.084412389
300.272676155
300.241564858
300.21068128
300.172238744
300.120546976
300.071716595
300.03548856
300.021320109
300.016990694
300.015729364
300.016237318
300.01746984
300.018720808
300.019764683
300.020344081
300.022037678
300.025176093
300.038694356
300.063565919
300.145255799
300.255074461
300.223498203
300.187143106
300.140064615
300.092695639
300.054596523
300.028815802
300.019378252
300.016545312
300.016482886
300.017674788
300.019155883
300.020731913
300.022501647
300.023639253
300.026415311
300.032519093
300.056787998
300.094492362
300.291889741
300.235058461
300.199450176
300.156979539
300.109982673
300.072016883
300.043237875
300.025004966
300.018243053
300.016672805
300.017523219
300.019114477
300.020916087
300.022657575
300.024515993
300.027347
300.033048578
300.049049292
300.100769086
300.162950346
300.607565291
300.209541982
300.169245685
300.125691261
300.08667923
300.057692637
300.036379014
300.022942596
300.017868126
300.016993303
300.018457556
300.020300884
300.022355025
300.024580457
300.027253237
300.032336624
300.04557232
300.086595558
300.213929932
300.357194544
301.157611647
300.178660201
300.13739831
300.099254727
300.068912342
300.047645811
300.032214682
300.022451052
300.018164525
300.01714755
300.01897139
300.021047669
300.023400743
300.02716595
300.03324318
300.045608758
300.07921696
300.185273199
300.486126469
301.338883208
302.041280282
300.146603263
300.109922561
300.078590076
300.056040569
300.04050652
300.029389386
300.022252668
300.01859088
300.017335197
300.018708213
300.021114896
300.02352415
300.028638898
300.042056249
300.073768466
300.154900781
300.41619349
301.069242884
303.288338788
303.484480085
300.120070832
300.089033086
300.064208965
300.047233839
300.035799325
300.027486779
300.022131873
300.018979345
300.017657605
300.018447498
300.020494434
300.022703376
300.02572543
300.035427152
300.070747246
300.185041462
300.62188843
301.837038251
305.263300239
305.596132331
300.10089128
300.074932063
300.055174817
300.042072647
300.033165806
300.026538375
300.022245277
300.019405722
300.018081263
300.018456993
300.02016839
300.022357963
300.024491403
300.030139556
300.059448348
300.208362806
300.797628349
302.405596187
305.062300733
308.209003035
300.088749374
300.066616685
300.05053779
300.039668274
300.032233761
300.026613756
300.02271029
300.0200056
300.018690085
300.018953933
300.020748501
300.023586194
300.027006358
300.036189861
300.109248032
300.426709968
301.201407487
303.000434285
305.408157589
311.188478464
300.082239402
300.062745418
300.048837668
300.039193866
300.03224233
300.027299254
300.02345431
300.020956145
300.020139363
300.021657768
300.025766922
300.032750173
300.046485444
300.086392018
300.293722674
300.961780839
301.976928018
303.875056638
311.983025232
314.800997989
300.07990413
300.061915799
300.049099909
300.039780191
300.033106854
300.028101231
300.024842159
300.024343872
300.028235148
300.039314234
300.057955113
300.09043896
300.167494138
300.32320552
300.655809549
302.159368297
303.516460289
306.993414359
314.678413691
317.195958034
300.080479549
300.063212092
300.050158646
300.040597332
300.033638336
300.029747007
300.031262994
300.04257391
300.071253365
300.126400354
300.206988368
300.375639098
300.674947675
301.014977794
301.428170654
303.6218384
305.232940332
308.053967299
313.965438259
316.767574371
300.082749803
300.064214273
300.050294248
300.040105884
300.034212502
300.036727526
300.056362618
300.111437659
300.219491991
300.388322742
300.671956712
301.053372877
301.554854821
302.035936522
302.641561292
305.319812443
307.111413101
310.00371715
314.854052152
316.045510235
300.082661102
300.062752131
300.048210099
300.038428819
300.036641549
300.054580126
300.114803537
300.247156126
300.484346406
300.828365417
301.192175674
301.656979183
302.666935608
303.892953243
305.206773032
309.76874049
311.767118631
314.883038691
316.719260179
315.419676485
)
;

boundaryField
{
    emptyPatch
    {
        type            empty;
    }
    minY
    {
        type            fixedValue;
        value           nonuniform List<scalar> 0();
    }
    maxY
    {
        type            inletOutlet;
        inletValue      uniform 373;
        value           nonuniform List<scalar> 
40
(
449.811749424
358.950676236
321.401222092
307.793529406
303.128423144
301.553577622
301.006921101
300.784760962
300.66249253
300.573205239
300.493690362
300.418836425
300.349441071
300.294210793
300.253109835
300.219636309
300.191819032
300.166240438
300.139219261
300.108305862
300.0826611
300.062752127
300.048210092
300.03842881
300.036641556
300.054580223
300.114803877
300.247156895
300.484347573
300.828366469
301.192176135
301.656979368
302.666935814
303.892953575
305.20677342
309.768742278
311.767120825
314.883041508
316.719263844
315.419680602
)
;
    }
    maxX
    {
        type            fixedValue;
        value           uniform 300;
    }
    water_to_heater
    {
        type            copiedFixedValue;
        sourceFieldName T.liquid;
        value           nonuniform List<scalar> 
59
(
790.81444329
790.851255454
790.844278099
790.883446856
790.887947809
790.904082333
790.904876047
790.911657385
790.912195056
790.913103152
790.912658087
790.94189187
790.928356724
791.020339935
791.020938959
791.103424244
791.106995385
791.182441522
791.185555653
791.264626069
791.266363754
791.33283805
791.333479464
791.398629804
791.392871772
791.458362611
791.469005867
791.68649709
791.719935417
791.708265389
791.713610879
791.690378218
791.691820607
791.661332063
791.661613774
791.623556014
791.622403349
791.590775702
791.588509694
791.557406571
791.553035359
791.525995139
791.517449059
791.491142944
791.491015851
791.47849497
791.480640956
791.453583447
791.454381305
791.389192596
791.389430173
791.246367188
791.24280822
791.038393333
791.01650834
790.787269291
790.668658308
790.537096634
790.470400354
)
;
    }
    procBoundary0to1
    {
        type            processor;
        value           nonuniform List<scalar> 
41
(
483.572965633
364.938281791
320.485417934
306.47565655
302.426681832
301.289772674
300.926672651
300.763773806
300.66748652
300.587652978
300.509223407
300.428936648
300.348203112
300.270013224
300.198958285
300.140159936
300.095304631
300.065077489
300.047986132
300.038516517
300.012424384
300.010859715
300.008511846
300.005978129
300.004419531
300.003925958
300.003793422
300.003432426
300.003346942
300.004108843
300.004349984
300.004692178
300.005147991
300.00544757
300.005482078
300.005481819
300.031155026
300.024983136
300.020584021
300.017990347
300.017990347
)
;
    }
}


// ************************************************************************* //
