/*--------------------------------*- C++ -*----------------------------------*\
| =========                 |                                                 |
| \\      /  F ield         | OpenFOAM: The Open Source CFD Toolbox           |
|  \\    /   O peration     | Version:  2312                                  |
|   \\  /    A nd           | Website:  www.openfoam.com                      |
|    \\/     M anipulation  |                                                 |
\*---------------------------------------------------------------------------*/
FoamFile
{
    version     2.0;
    format      ascii;
    arch        "LSB;label=32;scalar=64";
    class       volScalarField;
    location    "0.175/water";
    object      Tf.gasAndLiquid;
}
// * * * * * * * * * * * * * * * * * * * * * * * * * * * * * * * * * * * * * //

dimensions      [0 0 0 1 0 0 0];

internalField   nonuniform List<scalar> 
1504
(
317.378081242
307.12472073
302.849122073
301.209305992
300.615991634
300.400321653
300.29062645
300.214594052
300.153897647
300.103880625
300.061720889
300.027631417
300.006388425
300.000536115
300.000043306
300.00000601
300.000000346
300
300
300
318.196725929
307.318672705
302.830859083
301.184669577
300.623172446
300.4167316
300.305421517
300.227383964
300.164753051
300.112599683
300.06816003
300.031615645
300.007949345
300.000782859
300.00006853
300.000010162
300.000000838
300
300
300
319.680297835
307.424678234
302.668244266
301.098661261
300.621217839
300.426096749
300.315575551
300.236935919
300.173131875
300.11940046
300.073166541
300.034747438
300.009263694
300.00103141
300.000097398
300.000015144
300.000001481
300
300
300
319.853217067
307.320805948
302.483694881
301.023621018
300.611072378
300.430498313
300.322817554
300.244321839
300.179716393
300.124566362
300.076690472
300.037103119
300.010344755
300.001262993
300.000128948
300.000020614
300.00000225
300
300
300
319.800807251
307.297532134
302.356899752
300.985348628
300.609575868
300.436404727
300.329701869
300.250777761
300.185183191
300.128488773
300.078963998
300.038585294
300.011306062
300.00149013
300.00016174
300.000026359
300.000003093
300
300
300
319.652485266
307.224397086
302.429988237
301.005103003
300.627373912
300.448256281
300.33794064
300.257024962
300.189901911
300.131411629
300.08038158
300.039448191
300.012029576
300.001765266
300.000196381
300.000032455
300.000003981
300
300
300
319.452550293
307.082898168
302.430035637
301.034311344
300.663733227
300.467662069
300.348170734
300.263233426
300.193899317
300.133383518
300.081100119
300.039890351
300.012571277
300.002048534
300.000240224
300.000039084
300.000004886
300.000000021
300
300
319.044314863
306.770699601
302.368476382
301.114611636
300.724253188
300.495088788
300.360348074
300.269280495
300.196992761
300.134315228
300.08112242
300.039959762
300.012991727
300.002326974
300.000297628
300.00004602
300.000005905
300.000000092
300
300
318.517507177
306.476672701
302.466035068
301.321146841
300.807494794
300.527792843
300.373406417
300.274710632
300.19881837
300.134024334
300.080375
300.039669001
300.013321439
300.002619079
300.000370054
300.000052693
300.000007145
300.000000196
300
300
317.915456137
306.327271929
302.843974439
301.539278886
300.887635328
300.557436381
300.384558228
300.278486089
300.198803998
300.132287507
300.078803374
300.039052646
300.013616614
300.002956589
300.000467818
300.000060698
300.000008729
300.00000034
300
300
317.456136583
306.74393231
303.341260586
301.751075722
300.961737162
300.582971322
300.393320923
300.280314079
300.196789647
300.129220717
300.07660956
300.038312071
300.014000692
300.003396218
300.000608746
300.000078547
300.000010854
300.000000614
300
300
317.345261668
307.611251517
303.80384841
301.942056967
301.02908097
300.605292113
300.400001426
300.279829032
300.192777489
300.125130456
300.074151177
300.037732097
300.014650039
300.00401787
300.000823477
300.000117616
300.000014254
300.000001038
300
300
317.61407034
308.23834696
304.115595405
302.07179019
301.077823783
300.621681429
300.402972043
300.27579447
300.186813308
300.120400935
300.071828467
300.037629585
300.015749825
300.004920222
300.001153185
300.000188891
300.000020183
300.000001835
300
300
318.054639131
308.545540131
304.212759096
302.101181829
301.089168205
300.623265489
300.396827056
300.26736222
300.179164458
300.115548058
300.070101387
300.038291953
300.017458004
300.00620289
300.001643423
300.000302699
300.000033621
300.000002864
300
300
318.581927238
308.609683044
304.116511479
302.023020094
301.045822447
300.595824224
300.378822905
300.254343666
300.170499571
300.111248399
300.069444075
300.039978807
300.019889212
300.007949005
300.002344218
300.00046891
300.000054638
300.000004029
300
300
319.203270838
308.750503496
304.024162503
301.906059146
300.958924077
300.548133214
300.352587682
300.2391725
300.162539263
300.108662679
300.070539273
300.04296015
300.02313729
300.010222603
300.003299578
300.000699816
300.000085524
300.000004522
300
300
319.253580803
308.610564511
303.770904102
301.695582057
300.839180232
300.48817845
300.323393029
300.22554197
300.157882937
300.109427574
300.074141363
300.047503144
300.027300895
300.012939641
300.004445461
300.000982279
300.000124033
300.000004166
300
300
317.231674068
307.732983752
303.265709891
301.420845397
300.702477898
300.428379975
300.300926402
300.219847797
300.159754612
300.114808245
300.08049725
300.053615211
300.032242001
300.016026863
300.005756437
300.001308145
300.000167472
300.000002849
300
300
314.66205198
306.585615408
302.730923426
301.126342956
300.5743313
300.391979999
300.297499475
300.226712401
300.170104023
300.125552065
300.090297603
300.061699047
300.038204426
300.019718348
300.007346648
300.001698163
300.000219802
300.000001879
300
300
313.76894401
306.175100971
302.474607645
300.937602375
300.541865122
300.406424266
300.320937037
300.250604968
300.191771536
300.143766968
300.104619381
300.072387474
300.04571873
300.024304421
300.009333153
300.002164772
300.000279278
300.000002448
300.000000202
300.000000002
315.576129241
307.099112783
302.843892307
301.10750054
300.643244286
300.472708389
300.373184772
300.293999092
300.226772289
300.170505628
300.124053385
300.086091309
300.054968254
300.029790116
300.011647006
300.002679817
300.000331676
300.000004313
300.000000427
300.000000085
319.959314087
308.72931584
303.794323482
301.677931837
300.89496627
300.587415689
300.448927024
300.352913092
300.271967297
300.203849766
300.147632256
300.102187138
300.065475289
300.035827044
300.014070984
300.003180815
300.000370644
300.000006049
300.000000508
300.000000081
324.178403467
309.848950314
304.292648334
301.968395934
301.049433419
300.681077133
300.513049611
300.405503785
300.315336334
300.236860605
300.171432551
300.118568257
300.076071185
300.041699679
300.016245442
300.003570517
300.000394075
300.000006727
300.000000469
300.000000018
326.531881239
310.409402944
304.424993892
302.033410469
301.09094043
300.712592161
300.53978527
300.431793439
300.343077856
300.261432477
300.190988411
300.132904973
300.085578874
300.046739782
300.017888069
300.003801563
300.000402741
300.000007137
300.000000393
300
327.817329478
310.688536459
304.433543662
302.019984721
301.089451305
300.719620811
300.549603542
300.442291077
300.355333213
300.276247345
300.205426412
300.144571748
300.09358326
300.050763677
300.019032989
300.003944618
300.000414794
300.000009873
300.000000425
300
328.64314261
310.873077837
304.42703401
301.991652229
301.074635063
300.716409935
300.551415279
300.445721119
300.360651432
300.284497047
300.215494855
300.154085122
300.100435082
300.054122362
300.020103786
300.004205673
300.000474905
300.000020618
300.000000814
300
329.172347468
311.003044698
304.42535617
301.965416013
301.056911664
300.709284945
300.549774169
300.446114803
300.363483932
300.290552902
300.223470255
300.161929284
300.105870617
300.05694928
300.021414627
300.004755602
300.000624774
300.000052864
300.000002831
300
329.499708973
311.095205247
304.437757111
301.953376944
301.045532284
300.703443797
300.547664716
300.446044814
300.366345811
300.296182913
300.230723739
300.168807642
300.110302278
300.059408608
300.022904675
300.005610341
300.000932005
300.000136995
300.000025442
300.000007694
329.736085908
311.167960646
304.4723582
301.96376568
301.04610284
300.702142872
300.546789482
300.446832008
300.369936262
300.301792614
300.237443313
300.17471817
300.114237966
300.061973183
300.024810317
300.006810246
300.001446798
300.000330307
300.000101222
300.000045853
329.930810896
311.231552795
304.525145213
301.997344401
301.060251031
300.706604395
300.548004268
300.449343198
300.374171667
300.307265581
300.243442836
300.179661129
300.117826795
300.064798235
300.027264139
300.008504843
300.002299679
300.000727637
300.000299181
300.000149335
330.228275272
311.271718115
304.543323507
302.023408108
301.074152693
300.711791925
300.549936187
300.453259158
300.378723785
300.312499298
300.248650181
300.183757339
300.121112424
300.067921008
300.03036395
300.010867507
300.003685108
300.001493563
300.000742048
300.000393592
330.906147449
311.225888113
304.425553204
301.97290079
301.054884709
300.704031406
300.547914573
300.456599533
300.383635701
300.317695257
300.253271079
300.187241397
300.124272412
300.071503835
300.034284763
300.014149022
300.005876885
300.00286994
300.001622802
300.000918266
331.878811289
311.165579642
304.237861306
301.871243443
301.015651549
300.690901988
300.547478552
300.461530106
300.389656143
300.323401366
300.257780355
300.19058218
300.127748206
300.075909707
300.039358524
300.018687284
300.00922371
300.005175336
300.003207886
300.001937738
333.390916811
311.299785761
304.151928078
301.805779589
300.9960531
300.690765203
300.556675112
300.469677345
300.397515965
300.330266172
300.26275201
300.194484922
300.132197778
300.081668809
300.045976257
300.02484561
300.014092153
300.008751695
300.005784127
300.003698795
334.121397375
311.531573612
304.184635437
301.79236976
300.996321245
300.702120287
300.570763316
300.481374243
300.407656988
300.338621774
300.268657354
300.199643567
300.138246816
300.089196546
300.054414789
300.032845107
300.020724915
300.013847207
300.009549352
300.006354542
334.760755303
311.909369381
304.37904352
301.872390358
301.039100728
300.736437015
300.593897662
300.497446922
300.420072881
300.348141529
300.275704745
300.206369629
300.146089789
300.098536327
300.064581648
300.042583041
300.029064312
300.020456576
300.014491052
300.009822493
335.47360904
312.291930295
304.602084732
301.992689761
301.111635548
300.789914906
300.625544222
300.51749249
300.433810571
300.357858178
300.283409251
300.214193279
300.155207918
300.109099791
300.075897006
300.053499025
300.038634765
300.028194766
300.020286236
300.01378281
336.11516332
312.149412433
304.502150809
302.012165666
301.170485055
300.845222178
300.660447164
300
300
300
300
300
300
300
300
300
300
300
300
300
300
300
300
300
300
300
300
300
300
300
300
300
300
300
300
300
300
300
300
300
300
300
300
300
300
300
300
300
300
300
300
300
300
300
300
300
300
300
300
300
300
300
300
300
300
300
300
300
300
300
300
300
300
300
300
300
300
300
300
300
300
300
300
300
300
300
300
300
300
300
300
300
300
300
300
300
300
300
300
300
300
300
300
300
300
300
300
300
300
300
300
300
300
300
300
300
300
300
300
300
300
300
300
300
300
300
300
300
300
300
300
300
300
300
300
300
300
300
300
300
300
300
300
300
300
300
300
300
300
300
300
300
300
300
300
300
300
300
300
300
300
300
300
300
300
300
300
300.000000005
300
300
300
300
300
300
300
300
300
300
300
300
300
300
300
300
300
300
300
300.000000018
300
300
300
300
300
300
300
300
300
300
300
300
300
300
300
300
300
300
300
300.000000031
300
300
300
300
300
300
300
300
300
300
300
300
300
300
300
300
300
300
300.000000019
300.000000048
300
300
300
300
300
300
300
300
300
300
300
300
300
300
300
300
300
300.000000044
300.00000012
300.000000158
300.000000006
300
300
300
300
300
300
300
300
300
300
300
300
300
300
300
300
300
300.000000169
300.000000227
300.000000048
300
300
300
300
300
300
300
300
300
300
300
300
300
300
300
300
300
300.00000014
300.000000245
300.00000015
300.000000002
300
300
300
300
300
300
300
300
300
300
300
300
300
300
300
300
300
300.000000257
300.000000195
300.000000013
300
300
300
300
300
300
300
300
300
300
300
300
300
300
300
300
300
300.000000087
300.000000099
300.000000002
300
300
300
300
300
300
300
300
300
300
300
300
300
300
300
300
300
300
300.000000024
300
300
300
300
300
300
300
300
300
300
300
300
300
300
300
300
300
300
300
300
300
300
300
300
300
300
300
300
300
300
300
300
300
300
300
300
300
300
300
300
300
300
300
300
300
300
300
300
300
300
300
300
300
300
300
300
300
300
300
300
300
300
300
300
300
300
300
300
300
300
300
300
300
300
300
300
300
300
300
300
300
300
300
300
300
300
300
300
300
300
300
300
300
300
300
300
300
300
300
300
300
300
300
300
300
300
300
300
300
300
300
300
300
300
300
300
300
300
300
300
300
300
300
300
300
300
300
300
300
300
300
300
300
300
300
300
300
300
300
300
300
300
300
300
300
300
300
300
300
300
300
300
300
300
300
300
300
300
300
300
300
300
300
300
300
300
300
300
300
300
300
300
300
300
300
300
300
300
300
300
300
300
300
300
300
300
300
300
300
300
300
300
300
300
300
300
300
300
300
300
300
300
300
300
300
300
300
300
300
300
300
300
300
300
300
300.000001644
300
300
300
300
300
300
300
300
300
300
300
300
300
300
300
300
300
300.000000004
300.000000012
300.000023755
300.000008341
300.000000272
300
300
300
300
300
300
300
300
300
300
300
300
300
300
300.000000005
300.000000026
300.000000038
300.000092729
300.000048204
300.000015992
300.000000643
300.000000009
300
300
300
300
300
300
300
300
300
300
300
300.000000002
300.000000033
300.000000062
300.000000076
300.000258925
300.000155601
300.000074973
300.000018291
300.000001031
300.000000106
300
300
300
300.000000005
300
300
300
300
300
300
300.000000027
300.000000075
300.000000111
300.000000127
300.000607661
300.000397383
300.000224967
300.000089346
300.000020957
300.000001383
300.000000146
300
300.000000048
300.0000002
300.000000012
300
300
300
300
300.000000007
300.000000068
300.00000014
300.000000191
300.000000216
300.001256377
300.000848707
300.000525166
300.00025644
300.000094712
300.000018615
300.00000135
300.000000247
300.000000254
300.00000039
300.000000164
300
300
300
300
300.00000002
300.000000105
300.000000201
300.000000268
300.000000301
300.002348321
300.001577458
300.00099756
300.000533315
300.000231932
300.000068537
300.000007585
300.000001001
300.000000614
300.000000577
300.000000423
300.000000003
300
300
300
300.00000002
300.00000011
300.000000214
300.000000288
300.000000323
300.003988881
300.00259382
300.001607564
300.000872523
300.000397498
300.000128989
300.000019185
300.000001945
300.000001016
300.000000682
300.000000559
300.000000026
300
300
300
300.000000009
300.000000085
300.000000182
300.000000252
300.000000286
300.006142443
300.003792607
300.002238592
300.001180092
300.000522899
300.000160539
300.000020672
300.000002093
300.000001249
300.000000671
300.000000382
300.000000075
300
300
300
300
300.000000043
300.00000012
300.000000178
300.000000207
300.008477998
300.004964344
300.002747753
300.001369575
300.000551515
300.000142866
300.000011011
300.000001729
300.000001361
300.00000058
300.000000202
300.000000024
300
300
300
300
300.000000007
300.000000056
300.000000097
300.000000117
)
;

boundaryField
{
    emptyPatch
    {
        type            empty;
    }
    minY
    {
        type            calculated;
        value           nonuniform List<scalar> 0();
    }
    maxY
    {
        type            calculated;
        value           nonuniform List<scalar> 0();
    }
    maxX
    {
        type            calculated;
        value           nonuniform List<scalar> 
38
(
300
300
300
300
300
300
300
300
300
300
300
300
300
300
300
300
300
300
300
300
300
300
300
300
300
300
300
300
300
300
300
300
300
300
300
300
300
300
)
;
    }
    water_to_heater
    {
        type            calculated;
        value           nonuniform List<scalar> 
60
(
796.324635526
796.319099776
796.317879541
796.319055117
796.319266028
796.317774721
796.318520734
796.318608065
796.317941001
796.319570601
796.319946334
796.320956422
796.321029436
796.321078198
796.320383939
796.319436415
796.319514495
796.319854567
796.319673192
796.322535309
796.322687112
796.32561295
796.326210076
796.329424775
796.329600217
796.334423026
796.333327705
796.341266862
796.351310467
796.362743511
796.363358327
796.381695454
796.373572718
796.400222837
796.399720055
796.450255278
796.462863731
796.49454883
796.502815087
796.533724988
796.539744992
796.564959752
796.568511954
796.585563814
796.586325814
796.590374133
796.59095225
796.588624988
796.590164453
796.588179153
796.593582964
796.621672571
796.644575864
796.687466365
796.689725495
796.72921668
796.7331551
796.76942199
796.775228742
796.811714262
)
;
    }
    procBoundary3to1
    {
        type            processor;
        value           nonuniform List<scalar> 
41
(
300.538282899
300.4463878
300.366018195
300.290169623
300.22162569
300.164247357
300.119718252
300.087319422
300.064651949
300.048582929
300.036315561
300.026295645
300.017668425
335.604196584
310.692020108
304.017435793
301.996386015
301.251576661
300.901189154
300.538282899
300.690838246
300.010565312
300.005886782
300.003037489
300.001398102
300.00047912
300.000088454
300.000004873
300.000001596
300.000001321
300.000000441
300.00000004
300
300
300
300
300
300
300.000000008
300.000000029
300.000000039
)
;
    }
    procBoundary3to2
    {
        type            processor;
        value           nonuniform List<scalar> 
41
(
316.802591517
306.900767684
302.801955293
301.190739013
300.594106968
300.37559262
300.270996382
300.198435734
300.140495409
300.093284215
300.054005456
300.022961585
300.004741224
300.000323877
300.000023878
300.000003067
300.000000016
300
300
300
300
300
300
300
300
300
300
300
300
300
300
300
300
300
300
300
300
300
300
300
300
)
;
    }
}


// ************************************************************************* //
