/*--------------------------------*- C++ -*----------------------------------*\
| =========                 |                                                 |
| \\      /  F ield         | OpenFOAM: The Open Source CFD Toolbox           |
|  \\    /   O peration     | Version:  2312                                  |
|   \\  /    A nd           | Website:  www.openfoam.com                      |
|    \\/     M anipulation  |                                                 |
\*---------------------------------------------------------------------------*/
FoamFile
{
    version     2.0;
    format      ascii;
    arch        "LSB;label=32;scalar=64";
    class       volScalarField;
    location    "0.66/water";
    object      Tf.gasAndLiquid;
}
// * * * * * * * * * * * * * * * * * * * * * * * * * * * * * * * * * * * * * //

dimensions      [0 0 0 1 0 0 0];

internalField   nonuniform List<scalar> 
1503
(
314.354601485
306.119330861
302.623904883
301.059917193
300.44436082
300.09209043
300.004157371
300.000026176
300.000000022
300
300
300
300
300
300
300
300
300
300
300
320.297088115
308.338851324
303.017405484
301.099454027
300.395019844
300.142487348
300.046896366
300.00554113
300.00008358
300.000000086
300
300
300
300
300
300
300
300
300
300
320.336200159
307.903738903
302.715580639
300.91009084
300.299414034
300.098140901
300.032174442
300.008314983
300.000601642
300.000006322
300.000000002
300
300
300
300
300
300
300
300
300
319.489425853
307.882963135
302.825936194
300.950087509
300.308277812
300.097085942
300.029504391
300.008692083
300.001452645
300.000055159
300.000000429
300
300
300
300
300
300
300
300
300
318.665517645
307.726986562
302.932729432
301.033682564
300.349288577
300.114686652
300.035440648
300.010119139
300.00275408
300.000251918
300.000005782
300.000000001
300
300
300
300
300
300
300
300
317.669576669
307.395204798
302.91761213
301.078235868
300.381457937
300.13271551
300.044102718
300.01301931
300.003511296
300.000665079
300.000030245
300.00000046
300
300
300
300
300
300
300
300
316.890287163
307.012114215
302.80776786
301.072631487
300.394474651
300.144271923
300.051774629
300.016490584
300.004448917
300.001172267
300.000118428
300.000003144
300
300
300
300
300
300
300
300
316.662338021
306.790037707
302.695887922
301.040954538
300.39538507
300.151725368
300.058377104
300.020344781
300.005682012
300.001420052
300.000302468
300.000013043
300.000000006
300
300
300
300
300
300
300
316.778597084
306.82929835
302.707838216
301.050061538
300.407368143
300.162488323
300.066329349
300.025031026
300.007455367
300.001774065
300.000453566
300.000048663
300.000000204
300
300
300
300
300
300
300
317.147866584
307.018853263
302.785794931
301.090026784
300.430763343
300.177340146
300.075793658
300.030694366
300.009834908
300.002309792
300.000524637
300.000127476
300.00000336
300.000000002
300
300
300
300
300
300
317.283767496
307.117117983
302.844134276
301.12884153
300.456542497
300.193988454
300.086281224
300.036966184
300.012765677
300.003039208
300.000623208
300.000157084
300.000018588
300.000000121
300
300
300
300
300
300
317.383644895
307.118129396
302.840050537
301.139147066
300.472510441
300.208093269
300.096345855
300.043279025
300.016002096
300.003943124
300.000744885
300.0001663
300.000049912
300.000002018
300.000000002
300
300
300
300
300
317.4774363
307.001729856
302.75451164
301.10781636
300.47070872
300.215402514
300.103806537
300.04854848
300.019053763
300.004995318
300.000874872
300.000175474
300.000048241
300.000007985
300.00000006
300
300
300
300
300
317.534696141
306.927030985
302.689848677
301.075975103
300.463147351
300.218383822
300.108608517
300.052304744
300.021531112
300.006066093
300.00105609
300.000184261
300.000045965
300.00001631
300.00000057
300
300
300
300
300
317.575676915
306.86567886
302.6303828
301.045358443
300.452795407
300.217805945
300.110643484
300.054601858
300.023375451
300.0070594
300.001270663
300.000198411
300.000043745
300.000015269
300.000001593
300.000000004
300
300
300
300
317.544889817
306.807060924
302.571704806
301.015725633
300.441582498
300.214992482
300.110978382
300.056107227
300.024887099
300.008017009
300.001520296
300.00021661
300.000041373
300.000012887
300.00000257
300.000000022
300
300
300
300
317.463374349
306.74288577
302.516351716
300.987788939
300.430839621
300.211834349
300.111567365
300.057810621
300.026569654
300.009112607
300.001840863
300.000242389
300.000039071
300.000010648
300.000003054
300.000000059
300
300
300
300
317.298811715
306.651778315
302.458057673
300.958517137
300.420101391
300.20999368
300.113237016
300.060412076
300.028882434
300.010569069
300.002298347
300.000283977
300.000037244
300.000008529
300.000002625
300.000000105
300
300
300
300
316.953124866
306.646079078
302.482601764
300.960485771
300.417899782
300.210940181
300.116718071
300.06447212
300.03221759
300.012620293
300.002978474
300.000355819
300.000037303
300.000006913
300.000001589
300.000000129
300
300
300
300
316.364753725
306.589793276
302.526221289
300.978791977
300.42175729
300.215090842
300.122792708
300.070483445
300.036850774
300.015417207
300.003942494
300.000472981
300.00004252
300.000006647
300.000001148
300.000000116
300
300
300
300
316.211689173
306.612388737
302.587175076
301.014578857
300.438579669
300.226959909
300.133360728
300.079091988
300.042926009
300.018890445
300.005179086
300.000645921
300.000056285
300.000008195
300.000001238
300.000000079
300
300
300
300
316.959143295
306.937423333
302.738677229
301.094515013
300.48131355
300.251285949
300.149417449
300.090339578
300.050322218
300.02294667
300.006639058
300.000873797
300.000077126
300.000011425
300.00000169
300.000000142
300
300
300
300
318.036713181
307.335659115
302.90217705
301.184570486
300.533689175
300.281460221
300.168102492
300.102849516
300.058504742
300.027423857
300.008230074
300.001146104
300.000106928
300.000015931
300.000002381
300.000000241
300
300
300
300
318.33045797
307.553949137
303.030543985
301.257033328
300.576938557
300.307869219
300.185382294
300.114926062
300.066919306
300.032221701
300.009915033
300.001445583
300.000145437
300.000022209
300.000003331
300.000000352
300
300
300
300
318.404928148
307.63703417
303.093415258
301.296127366
300.603260164
300.326327908
300.199155345
300.125622224
300.075027342
300.037352908
300.011738778
300.001784001
300.000186175
300.000029106
300.000004455
300.000000493
300
300
300
300
318.475756854
307.648122393
303.107075761
301.308370215
300.616017066
300.3383096
300.209752672
300.13470888
300.082109879
300.04194711
300.01387957
300.00216806
300.000232188
300.00003627
300.00000568
300.000000679
300
300
300
300
318.507563633
307.594387052
303.069324834
301.297197867
300.618513232
300.345586519
300.217807972
300.142059982
300.087578376
300.045494473
300.016018077
300.002656394
300.000279825
300.000042508
300.00000674
300.000000875
300
300
300
300
318.506063517
307.436137324
302.958653628
301.255231236
300.609445736
300.34808211
300.223077304
300.147019792
300.090826699
300.047662247
300.017572843
300.003188113
300.000329132
300.00004678
300.000007572
300.000001073
300.000000015
300
300
300
318.432742898
307.352207408
302.890535303
301.221959992
300.59929706
300.348018708
300.225648078
300.149068701
300.091681442
300.048263959
300.018294114
300.003574683
300.000377343
300.000049118
300.000008177
300.000001231
300.000000056
300
300
300.000000001
318.389928479
307.325035649
302.864235254
301.206061063
300.59282432
300.346819176
300.225633643
300.148083757
300.09030328
300.047418398
300.018214905
300.003744486
300.00040568
300.000051656
300.000008474
300.000001214
300.000000055
300
300
300.000000002
318.329128404
307.320452214
302.858579197
301.203318441
300.591159051
300.345528346
300.223476109
300.144691846
300.087247567
300.045569086
300.017664259
300.003793442
300.000419229
300.000053538
300.000008363
300.000001013
300.000000012
300
300
300
318.299935946
307.273904639
302.831635375
301.195604132
300.589425969
300.343446899
300.219394536
300.139875195
300.083447853
300.043476093
300.017129568
300.003906711
300.000470245
300.0000573
300.000008599
300.000000836
300
300
300
300
318.211991427
307.132498846
302.74559304
301.163295109
300.579407585
300.337907399
300.213341477
300.134410957
300.079774573
300.041890616
300.017084523
300.004283368
300.000581109
300.000062828
300.00000908
300.000000714
300
300
300
300
318.135285563
307.103510079
302.728982286
301.150575133
300.571622271
300.331282686
300.206937197
300.129526162
300.077311898
300.041497727
300.017952383
300.005117755
300.000738665
300.00007326
300.000009748
300.000000616
300
300
300
300
318.09652135
307.185534365
302.778039978
301.167324594
300.572393055
300.326538346
300.202126667
300.127016986
300.077297641
300.043270862
300.020108139
300.006221946
300.000942431
300.000086251
300.000010359
300.000000482
300
300
300
300
318.07801925
307.278231019
302.831694984
301.19018667
300.574949938
300.322296427
300.198957652
300.126991972
300.079895992
300.046831916
300.022958618
300.007535348
300.001181148
300.000098662
300.000010306
300.000000288
300
300
300
300
317.748855081
307.156345875
302.796313586
301.174677371
300.560169198
300.312086442
300.195808798
300.129286494
300.084427023
300.051298565
300.02605586
300.008899695
300.001436742
300.000110118
300.00000938
300.000000087
300
300
300
300
316.898265931
306.673551901
302.595450391
301.076379258
300.513816541
300.294297071
300.193384477
300.133147362
300.089796866
300.055921
300.028997823
300.010177053
300.001677702
300.000116815
300.000007387
300
300
300
300
300
300
300
300
300
300
300
300
300
300
300
300
300
300
300
300
300
300
300
300
300
300
300
300
300
300
300
300
300
300
300
300
300
300
300
300
300
300
300
300
300
300
300
300
300
300
300
300
300
300
300
300
300
300
300
300
300
300
300
300
300
300
300
300
300
300
300
300
300
300
300
300
300
300
300
300
300
300
300
300
300
300
300
300
300
300
300
300
300
300
300
300
300
300
300
300
300
300
300
300
300
300
300
300
300
300
300
300
300
300
300
300
300
300
300
300
300
300
300
300
300
300
300
300
300
300
300
300
300
300
300
300
300
300
300
300
300
300
300
300
300
300
300
300
300
300
300
300
300
300
300
300
300
300
300
300
300
300
300
300
300
300
300
300
300
300
300
300
300
300
300
300
300
300
300
300
300
300
300
300
300
300
300
300
300
300
300
300
300
300
300
300
300
300
300
300
300
300
300
300
300
300
300
300
300
300
300
300
300
300
300
300
300
300
300
300
300
300
300
300
300
300
300
300
300
300
300
300
300
300
300
300
300
300
300
300
300
300
300
300
300
300
300
300
300
300
300
300
300
300
300
300
300
300
300
300
300
300
300
300
300
300
300
300
300
300
300
300
300
300
300
300
300
300
300
300
300
300
300
300
300
300
300
300
300
300
300
300
300
300
300
300
300
300
300
300
300
300
300
300
300
300
300
300
300
300
300
300
300
300
300
300
300
300
300
300
300
300
300
300
300
300
300
300
300
300
300
300
300
300
300
300
300
300
300
300
300
300
300
300
300
300
300
300
300
300
300
300
300
300
300
300
300
300
300
300
300
300
300
300
300
300
300
300
300
300
300
300
300
300
300
300
300
300
300
300
300
300
300
300
300
300
300
300
300
300
300
300
300
300
300
300
300
300
300
300
300
300
300
300
300
300
300
300
300
300
300
300
300
300
300
300
300
300
300
300
300
300
300
300
300
300
300
300
300
300
300
300
300
300
300
300
300
300
300
300
300
300
300
300
300
300
300
300
300
300
300
300
300
300
300
300
300
300
300
300
300
300
300
300
300
300
300
300
300
300
300
300
300
300
300
300
300
300
300
300
300
300
300
300
300
300
300
300
300
300
300
300
300
300
300
300
300
300
300
300
300
300
300
300
300
300
300
300
300
300
300
300
300
300
300
300
300
300
300
300
300
300
300
300
300
300
300
300
300
300
300
300
300
300
300
300
300
300
300
300
300
300
300
300
300
300
300
300
300
300
300
300
300
300
300
300
300
300
300
300
300
300
300
300
300
300
300
300
300
300
300
300
300
300
300
300
300
300
300
300
300
300
300
300
300
300
300
300
300
300
300
300
300
300
300
300
300
300
300
300
300
300
300
300
300
300
300
300
300
300
300
300
300
300
300
300
300
300
300
300
300
300
300
300
300
300
300
300
300
300
300
300
300
300
300
300
300
300
300
300
300
300
300
300
300
300
300
300
300
300
300
300
300
300
300
300
300
300
300
300
300
300
300
300
300
300.000000001
300
300
300
300
300
300
300
300
300
300
300
300
300
300
300
300
300
300
300
300
300
300
300
300
300
300
300
300
300
300
300
300
300
300
300
300
300
300
300
300
300
300
300
300
300
300
300
300
300
300
300
300
300
300
300
300
300
300
300
300
300
300
300
300
300
300
300
300
300
300
300
300
300
300
300
300
300
300
300
300
300
300
)
;

boundaryField
{
    emptyPatch
    {
        type            empty;
    }
    minY
    {
        type            calculated;
        value           nonuniform List<scalar> 
40
(
300
300
300
300
300
300
300
300
300
300
300
300
300
300
300
300
300
300
300
300
300
300
300
300
300
300
300
300
300
300
300
300
300
300
300
300
300
300
300
300
)
;
    }
    maxY
    {
        type            calculated;
        value           nonuniform List<scalar> 0();
    }
    water_to_cooler
    {
        type            calculated;
        value           nonuniform List<scalar> 
37
(
300
300
300
300
300
300
300
300
300
300
300
300
300
300
300
300
300
300
300
300
300
300
300
300
300
300
300
300
300
300
300
300
300
300
300
300
300
)
;
    }
    water_to_heater
    {
        type            calculated;
        value           nonuniform List<scalar> 
61
(
789.999180654
789.950611596
789.689131466
789.689803333
789.568313782
789.568098161
789.511327222
789.511982111
789.501944879
789.503836413
789.504570075
789.504378185
789.505503977
789.504690449
789.50418624
789.502129973
789.496869577
789.497152592
789.48682828
789.486486822
789.473376987
789.473773076
789.460551626
789.460246562
789.447790977
789.447582138
789.436067724
789.436220308
789.426745746
789.427118835
789.420500161
789.42232769
789.417065332
789.414237843
789.410387433
789.40734204
789.405173611
789.405201425
789.404680431
789.404927482
789.404957007
789.405185968
789.404672073
789.40442915
789.403780493
789.403990789
789.40468078
789.404409238
789.406447766
789.406201552
789.407938703
789.408154752
789.411311473
789.411120678
789.417778594
789.41793912
789.430290754
789.430315538
789.453024672
789.454348512
789.487239207
)
;
    }
    procBoundary2to3
    {
        type            processor;
        value           nonuniform List<scalar> 
41
(
315.558099712
306.101626697
302.31781886
300.934325916
300.450115612
300.27608972
300.193382279
300.13840293
300.095541913
300.060373687
300.031706871
300.011351706
300.001900249
300.000118356
300.000004916
300
300
300
300
300
300
300
300
300
300
300
300
300
300
300
300
300
300
300
300
300
300
300
300
300
300
)
;
    }
}


// ************************************************************************* //
