/*--------------------------------*- C++ -*----------------------------------*\
| =========                 |                                                 |
| \\      /  F ield         | OpenFOAM: The Open Source CFD Toolbox           |
|  \\    /   O peration     | Version:  2312                                  |
|   \\  /    A nd           | Website:  www.openfoam.com                      |
|    \\/     M anipulation  |                                                 |
\*---------------------------------------------------------------------------*/
FoamFile
{
    version     2.0;
    format      ascii;
    arch        "LSB;label=32;scalar=64";
    class       volScalarField;
    location    "0.025/water";
    object      epsilon.gas;
}
// * * * * * * * * * * * * * * * * * * * * * * * * * * * * * * * * * * * * * //

dimensions      [0 2 -3 0 0 0 0];

internalField   nonuniform List<scalar> 
1503
(
24.0558105879
3.18676164674
0.450844934197
0.100444123757
0.0476031562873
0.0143676028194
0.003739086498
0.00175098512367
0.00116749700231
0.000851790437892
0.000673605866761
0.000577420417056
0.000521691353945
0.000484455548618
0.000459315531342
0.000443428180232
0.000434009710551
0.000428551418763
0.000425213808828
0.00042290787388
328.277451075
66.4630528741
12.839574871
3.08205991855
0.711011855957
0.203731876279
0.0484937609819
0.0112502599699
0.00501216742433
0.00325778715379
0.00225488205842
0.00167179855869
0.00124891474226
0.000892639307323
0.000673729373953
0.00055964171621
0.000503839706408
0.000477704359246
0.0004652849843
0.000458361353375
463.978599644
114.252084133
29.1469292193
7.6473982002
2.30270770617
0.391534719263
0.0677407452232
0.0176887547345
0.00998255799954
0.00780125453468
0.0059483539305
0.004585533501
0.00348634835576
0.00235997034731
0.00148134102436
0.000941552131139
0.000684113749125
0.000576621136486
0.000534701715454
0.000517718164869
613.76142653
160.878506442
46.0397092487
14.058123642
3.94238098624
0.829025384823
0.104640042523
0.0249453255903
0.015558406008
0.0129573676477
0.0104913459606
0.00845255148368
0.00680740876472
0.00508620378568
0.00346584034657
0.00211572056623
0.00122695655744
0.000801457219604
0.000644409449184
0.000594368535655
661.690548632
187.335498942
59.1412923029
19.993320377
5.89978257268
1.15494935298
0.178096733502
0.0386172272722
0.0234978553421
0.0189313371326
0.0150338234063
0.0119425517335
0.00974362792571
0.00782727267359
0.00598933580505
0.00418057306647
0.00256243148396
0.00143173536901
0.000881557383455
0.000694547370187
620.236064521
197.029825393
69.3338124098
25.0868999523
7.81202968154
1.60690786828
0.293051247796
0.060203626707
0.0329362628529
0.0264736562135
0.0212787849568
0.0162368902189
0.0124785304477
0.00988096549387
0.00789837689451
0.00611267555063
0.00431904942991
0.00266056711922
0.0014780916942
0.000902012748785
591.918758084
205.703706965
77.6073469966
29.04050639
9.35145965707
2.17568341592
0.410566276961
0.0946021093765
0.0430452205618
0.0331965886676
0.0284163157582
0.0229305086532
0.0173399410628
0.0129139951707
0.00977248417881
0.00755047984489
0.00572806725018
0.00400141077782
0.00246519569633
0.00138842188731
606.768013877
216.72190277
84.1569941728
32.1777428011
10.758449346
2.8034955151
0.539423369581
0.149957393391
0.0576320267991
0.0397818214295
0.0336392998677
0.0294239852447
0.0243743854771
0.0187417301748
0.0137403806287
0.0099954650491
0.0073031287757
0.00520987734266
0.00350075417131
0.00215925284551
617.897329261
225.344516399
89.0751349183
34.7149173867
12.0298375964
3.41230874937
0.756028876755
0.203725297988
0.0814647923361
0.0509241998592
0.0398857612443
0.0341413679526
0.0301668047071
0.0257793796494
0.0204452785033
0.0151458421369
0.0107479099692
0.00730641316312
0.00476474457961
0.00306491015389
623.28611696
231.051681363
92.6634125378
36.7813820617
13.1261549407
3.93571077819
0.968458341428
0.232350749669
0.10902235519
0.0686919114607
0.0512684991896
0.0410485938938
0.0348145486962
0.0307504803389
0.0269051169069
0.0221937633658
0.0168903753456
0.0117484019923
0.00744081979167
0.00451233697488
624.074310445
234.340723804
94.9831856746
38.2302714941
13.9872216349
4.36530960753
1.15836988246
0.298005386919
0.116741286428
0.0873708795566
0.0680036376118
0.0528842372296
0.0422694740485
0.0355447460742
0.0312994994568
0.0277545409178
0.0234967777628
0.0182032751752
0.0125479443553
0.00769556249258
624.567963959
236.387460932
96.0314569758
38.9838734991
14.4856981223
4.62893900374
1.29421304522
0.352512153748
0.13063094377
0.0932777814145
0.084033346948
0.0685086987736
0.0538357421671
0.0432112488157
0.03624385437
0.0317377148277
0.0281297700717
0.0239925873672
0.0188295573727
0.0131648344494
642.589805176
240.986848478
97.1548959001
39.3920359519
14.6162714161
4.7055143535
1.35116180573
0.382532697741
0.145552217402
0.0959161474958
0.0914835478792
0.0824934355033
0.0673782880411
0.0536943517018
0.0433836240009
0.0362840171336
0.0316093819912
0.0279440108568
0.0239492627793
0.0192065235413
667.07466978
247.597261538
98.9337174025
39.8295611494
14.6533550279
4.69784838533
1.35846277823
0.392221003193
0.153972799359
0.10100634833
0.0949279878737
0.090957292544
0.0786788513892
0.0641819308445
0.0514348235319
0.0417290433334
0.0352108562691
0.0309437403896
0.0274454439818
0.0238300348006
686.931416334
254.440886621
101.376792867
40.5395966259
14.7233282614
4.66175189635
1.34212268089
0.391022932168
0.157984370159
0.106134985791
0.0987206508859
0.09643694536
0.0862188136742
0.0718941627499
0.0580026924276
0.0467846442869
0.038890302022
0.0337231684802
0.0300409154166
0.026768269652
708.614783157
262.412428515
104.79989333
41.7125762288
14.8991447167
4.62889857908
1.31676605523
0.38444661128
0.159928106366
0.110562399563
0.103231268704
0.101476136868
0.0920351583378
0.0772084531035
0.0625149294031
0.0506406074081
0.0420937782279
0.0363039938445
0.0322107729627
0.0286031900497
733.237236511
272.419499417
109.417384749
43.287596374
15.0876534821
4.56450224638
1.27657481342
0.372648287649
0.16037944714
0.115091201528
0.108507447218
0.106609782446
0.0971038221224
0.0817116000424
0.0662104737377
0.053773141843
0.0447708117838
0.0385671322949
0.034051168829
0.0298328994685
768.171724117
286.476346243
115.652763346
45.190267719
15.1120223513
4.36244013193
1.18332308566
0.347027942202
0.158304630678
0.120046183564
0.114960588658
0.112643405006
0.102235400053
0.0860500374913
0.0699157652355
0.0568378114256
0.0472633226351
0.0406011188731
0.0356164999242
0.0307683213535
824.98975488
308.170085181
125.05812361
47.9023049278
15.0426538525
4.03093206525
1.04009470511
0.309324816356
0.154414218278
0.125675721742
0.122691722079
0.119526591903
0.107700421565
0.0904708695576
0.0737399546927
0.0600152685047
0.0497622287516
0.0425252389426
0.0369970554328
0.0315542665041
896.750725259
337.204159134
138.266493179
52.0065788531
15.2185939913
3.71995086712
0.900177236136
0.272963335278
0.150636212394
0.131973603147
0.131223069712
0.12653869897
0.112742392538
0.0945497451461
0.0772424894482
0.0630299696973
0.0521328977412
0.0442896184924
0.0381961678673
0.0322039951459
983.305674827
372.281315017
154.738221215
57.9223567354
16.0453633589
3.61227562035
0.81785040649
0.249188068942
0.148031722349
0.138878201692
0.140011092343
0.13319806502
0.117176443688
0.0980264584645
0.0802860121531
0.0655059849426
0.0540470844652
0.0456815857809
0.0390887822616
0.0326434067053
1072.05599161
412.969833929
175.381293903
66.1424430002
17.6840817042
3.74112475127
0.790216126197
0.236188117652
0.145688159192
0.145985847629
0.14892880882
0.139808788759
0.12148725378
0.101093114667
0.0826361887988
0.0672479333294
0.0552527763239
0.0464592632589
0.0394800798191
0.0327362115904
1189.33554841
464.841365237
202.658313045
77.5885601793
20.7105825821
4.04883411272
0.76392778181
0.222738654934
0.140453633377
0.150837411287
0.156781440139
0.145514898818
0.124980362381
0.103230973823
0.0839001270322
0.0678935627114
0.0554803043042
0.0463836921694
0.0391704348904
0.0323240595375
1326.31793607
533.43586469
239.104132612
93.3913378087
26.2569271948
4.7192714036
0.753141917637
0.213346790111
0.129810486965
0.14588168544
0.158664185561
0.14695555737
0.125128436133
0.102623959626
0.0829301526404
0.0667980687552
0.0543161768476
0.0451791246018
0.0379826850363
0.0312859476594
1493.46976215
626.590387754
286.254085675
111.706262116
32.4873863153
5.96647160846
0.84177917049
0.22685851559
0.116998155768
0.122589993706
0.145191446002
0.138436539228
0.118244931848
0.0970017498236
0.0784693538822
0.0632227252762
0.0513596934692
0.0426447801582
0.0358414041095
0.0296102687383
1703.37890441
760.959775668
336.621602882
129.335207893
38.2435531753
7.09714379185
1.03469344956
0.278676258114
0.115333706015
0.0904003694762
0.110869300826
0.115822470925
0.102224460181
0.0852193039977
0.0698017699232
0.0568476315531
0.0465518554281
0.0388665762929
0.0328910931826
0.027451499686
2684.10687386
1031.47799552
395.883400594
150.449559989
45.7180797126
8.88568441577
1.42465647812
0.392204507769
0.14001837292
0.0725796574779
0.0717398980023
0.0828981873468
0.0795745591737
0.0691157257939
0.0582879529107
0.0486462095837
0.0406130069845
0.0344147324476
0.0295697083583
0.0251308250194
4552.96042643
1290.84718738
475.204909474
182.227525323
59.1968307401
13.0233662584
2.35733926235
0.632541707513
0.215551621147
0.0836484682326
0.0529067551868
0.054475536832
0.0576384282551
0.0536488461578
0.0472597719295
0.0408001624308
0.0349811233139
0.0302598035455
0.0265255227096
0.0230624494175
4515.04240838
1385.08720094
523.33721018
214.714277021
75.4314367111
20.0440940772
4.36325279989
1.14483300722
0.381596451293
0.134410171379
0.059394400036
0.0430530867265
0.0432635840861
0.0428772623682
0.0395421316603
0.0352855116591
0.031020257986
0.0273336125319
0.0243794922327
0.021635975921
3664.5500016
1198.603612
471.384336662
201.265511666
77.4304871768
24.0192564821
6.40731693324
1.88453944425
0.662974688197
0.241745298516
0.0911291634846
0.0485903131151
0.0392099347646
0.0383178156768
0.0363555593807
0.0331188720707
0.0295224869493
0.0262230082063
0.0235485473742
0.0211255358605
2876.40152864
940.742370929
370.439762842
160.515443621
64.5005140189
22.2399290611
7.06293082289
2.43935737193
0.953102037528
0.374668191503
0.141094105277
0.0640682161395
0.0443299451767
0.0404857167871
0.0382568375406
0.0347853815305
0.0308538297247
0.02718785451
0.0242153324241
0.0216507480784
2735.34987181
685.273880195
238.692217467
103.950204722
44.2306809903
16.9297725301
6.28738480337
2.5268182892
1.08902963593
0.454116593146
0.178034328594
0.0786403326916
0.0535356285588
0.0481320834561
0.0447348393065
0.0398925760787
0.0346993210779
0.0299913562776
0.0262207510294
0.0231094252062
3057.24145687
572.047897101
174.876382917
68.7743308125
28.7812952918
11.9352578207
5.09132291886
2.30709323662
1.05914692182
0.452698409299
0.183018175333
0.0862630410619
0.0638064439765
0.0590789000308
0.0539668806147
0.046998888891
0.039989593956
0.0338745570444
0.0290640025447
0.0251918174794
2450.80625309
471.729785679
122.330654089
43.2459057695
18.5237461219
8.57472645597
4.12883708127
2.00918191018
0.935751363704
0.396190694192
0.165218352363
0.0883361461744
0.0747147147493
0.0713950485819
0.0640775335712
0.0547109361001
0.0457593853791
0.0381592474008
0.0322564376858
0.02756053641
1575.55748268
301.195862011
76.432296594
27.603580061
12.8516375598
6.62587264087
3.44777448204
1.70966714896
0.774989126168
0.319731915747
0.140658674695
0.0910721633887
0.0864004583173
0.082409962865
0.0725521960044
0.0611791483638
0.0507402519783
0.0420041957661
0.0352372413336
0.0298259034317
1148.43859799
218.697194458
55.2045825983
20.5860003357
10.1933874894
5.58528246265
2.97796880367
1.44449509986
0.622906400588
0.252226762271
0.121551270767
0.096690351462
0.0968268804914
0.0904306233206
0.0784719469717
0.0658217428574
0.0544732859717
0.04503799137
0.037725136347
0.0317997539511
990.252667401
188.334392855
47.2455218517
17.7014958149
8.99663928461
5.0232938679
2.64041651078
1.22261521754
0.500958649005
0.20544668858
0.1114301441
0.10340794008
0.104490740747
0.0956742325903
0.0823586940562
0.0690114595494
0.0571784957781
0.0473687718574
0.0397396578995
0.0334568566908
944.4490392
178.971505623
44.4436081699
16.4260858504
8.35323978957
4.66665315547
2.38376181428
1.04395164788
0.413291136083
0.177776221528
0.107664805708
0.109654096244
0.109685903195
0.0991329912526
0.0849515891005
0.0711963149318
0.0591243697337
0.049147617876
0.0413515793772
0.0348261145652
0.000421152468274
0.000419778734027
0.000418694336228
0.000417832053753
0.00041715364928
0.000416637767526
0.000416277139619
0.000416088823991
0.000416158267292
0.000416777923313
0.000418820143783
0.000424635177283
0.000440175767725
0.000480723483661
0.00059107902594
0.00094651009775
0.00261982417288
0.0172534127458
0.236082541808
4.15483368288
0.0004535113397
0.000449677320592
0.000446538328588
0.000443931968889
0.00044177025732
0.000439997909271
0.000438586404351
0.000437556613675
0.000437084758335
0.000437843238531
0.00044191398107
0.000454929608483
0.00049112719087
0.000588530837972
0.000874147099907
0.00196224290937
0.00849912397468
0.068816708724
0.71893177178
7.22088390748
0.000508719935597
0.000502257207141
0.000497020527706
0.00049264539771
0.000488986688822
0.000485954822262
0.000483489633777
0.000481578365893
0.000480359281328
0.000480489827135
0.000484244132846
0.000498319253995
0.000540759344909
0.000662201167983
0.00104199657242
0.00261807016608
0.0129887294854
0.110588076341
1.09745233285
8.14286226333
0.000577818094775
0.000569490827603
0.000563340497891
0.000558229850762
0.000553915801482
0.000550293852303
0.000547294159801
0.00054487487095
0.000543073761846
0.000542239065743
0.000543807785597
0.000552645865073
0.000583649649413
0.0006824621662
0.00101731688389
0.00250724776177
0.0132908145277
0.130671525943
1.34631238358
8.12398466626
0.000645624210083
0.000632332587512
0.000626160176538
0.000621591510556
0.000617753389913
0.000614485263506
0.000611721559093
0.000609416385678
0.000607554751224
0.000606247051192
0.000606088165555
0.000609423347012
0.000624521071216
0.000680247369423
0.000891317152417
0.00191193321817
0.0102254599753
0.127100657316
1.46009380631
7.86513029345
0.000719826244749
0.000677432218637
0.000667580185677
0.000663667632786
0.000660888347612
0.000658546357807
0.000656533527393
0.000654811972295
0.000653359341839
0.00065219436643
0.000651502258594
0.000652129577151
0.000657433647311
0.00068059846521
0.000779832038309
0.0013115386792
0.00636247201702
0.110138050362
1.492330576
7.64658841871
0.000877958174789
0.000720671079256
0.000685375858772
0.000678243942907
0.000675989508969
0.000674529052596
0.00067330546883
0.0006722449511
0.00067132811447
0.000670551996853
0.000669963033791
0.000669818248878
0.000671245131264
0.000679101665395
0.000716925306297
0.000941869744417
0.00349729870064
0.0912407552575
1.49343227293
7.5354488419
0.00126347800518
0.000835395192003
0.000701947207137
0.000673286576749
0.000668232880049
0.000667009531604
0.000666322732079
0.000665756129259
0.000665262318043
0.000664834256439
0.000664480852278
0.000664271554903
0.000664541483124
0.000666847718838
0.000679311906737
0.000762638165764
0.00208773465819
0.0804969950746
1.49645026461
7.5172720728
0.00192926609303
0.00116223098397
0.000784202574379
0.000672312990154
0.000650543480347
0.000647260723216
0.000646652731907
0.000646363546913
0.000646128895262
0.000645924169045
0.000645748955915
0.000645620604898
0.000645630572406
0.000646233278599
0.000649942874609
0.000678093770209
0.00143156528477
0.0773036576469
1.51503177569
7.5663322973
0.00287743608719
0.00183217042119
0.00107159798861
0.000728281662635
0.000641496359043
0.000627227400043
0.000625442948913
0.00062518500028
0.00062507769984
0.000624990664896
0.000624914353225
0.000624852727143
0.000624829334509
0.000624968249477
0.00062599112215
0.0006351724724
0.00114382285595
0.0779314998722
1.54633504314
7.66117933904
0.00462323392113
0.0029975612551
0.0017739263472
0.0009548041543
0.000672115710353
0.000616874221808
0.000609617177782
0.000608881526092
0.00060879338715
0.000608756782611
0.000608725276107
0.000608697558857
0.000608679469066
0.000608703488917
0.000608966055438
0.000612179309584
0.00103114505842
0.0806137698761
1.58653031083
7.7828218212
0.00827560174946
0.00523919804191
0.00321529504131
0.00156854703506
0.000804774519534
0.00062690363857
0.000601567134393
0.000598997613081
0.000598785901357
0.00059875933029
0.00059874393637
0.000598729502838
0.00059871701586
0.000598714900425
0.000598774971847
0.000600231755655
0.00100008813223
0.0844609024278
1.63243640448
7.91996413709
0.0139594489085
0.00942026415487
0.00604863740113
0.00299201960492
0.00116575305386
0.00067494772825
0.000601710904406
0.000594224170563
0.000593634951987
0.000593588866585
0.000593576447216
0.000593565890083
0.000593555857831
0.000593548579452
0.000593557836062
0.00059454001223
0.00100703564789
0.0890177603766
1.68203559033
8.06672047436
0.0195711261476
0.0149937152359
0.0108160370467
0.00597110106353
0.00202572981566
0.000799568501425
0.000611545049097
0.000592803347993
0.000591381062378
0.000591284349615
0.000591269330913
0.000591259254071
0.000591250077621
0.000591242313014
0.000591240111768
0.00059212747587
0.0010322717035
0.094062642085
1.73424060409
8.22011200181
0.0231652467059
0.0195913136447
0.0162943002537
0.0108368064256
0.00388444344575
0.001086383112
0.000635867635939
0.000593602301198
0.000590598500605
0.000590412053178
0.000590392059879
0.000590381803297
0.000590373163707
0.000590366012801
0.00059036218082
0.000591268522602
0.00106722013323
0.0994966832122
1.78851399866
8.37844036936
0.0248805679495
0.0221285120213
0.0201254760019
0.0158146232666
0.00693654060038
0.00165690513521
0.000683753708653
0.000596206333012
0.000590493528879
0.000590168734757
0.000590142728732
0.000590132869975
0.000590125206017
0.000590119212758
0.000590116254126
0.000591078330868
0.00110837153821
0.105280462302
1.84458486529
8.54047733322
0.0257315569366
0.0233957701958
0.0219052881364
0.0187311843238
0.0100392483801
0.00252081724289
0.000764104197309
0.000600586293263
0.000590688508306
0.000590171556943
0.000590139354919
0.000590131119571
0.000590125346545
0.000590121180903
0.000590119999194
0.000591152338438
0.00115443732959
0.11139926769
1.90228986797
8.70515424087
0.0263112101532
0.0241064149576
0.0226807103678
0.0199721274736
0.0120637749137
0.00341029544778
0.000872540339746
0.000606471855591
0.00059100858591
0.000590259182783
0.000590221785745
0.000590216769247
0.000590214085988
0.000590212604628
0.00059021385803
0.000591324456305
0.00120503899045
0.117845055322
1.96149981939
8.87151636675
0.026713146433
0.0245038469063
0.0230606092119
0.0205608139206
0.0131859075793
0.00404344529424
0.000984895980351
0.000612751856522
0.000591353063777
0.000590373750415
0.000590333497252
0.000590333253488
0.000590334811214
0.000590336844979
0.000590341082801
0.000591535717468
0.00126011799332
0.124607424783
2.02209498873
9.0388197776
0.0270088547291
0.0246709069905
0.0231633495455
0.0207837233269
0.0137649361966
0.00438705727753
0.00107105343569
0.000617915328803
0.00059166969293
0.000590504618893
0.000590463873362
0.000590469309358
0.000590475760694
0.00059048176532
0.000590489226761
0.00059177245086
0.00131967929072
0.131669863351
2.0839703789
9.20671862655
0.0271705618319
0.0246277898083
0.023014206358
0.0206767090459
0.0139551633814
0.00454800959954
0.00112385332672
0.000621571419714
0.000591975956398
0.000590663191406
0.000590622063205
0.000590632931577
0.000590644058902
0.000590653820011
0.000590664212818
0.00059203951278
0.00138369130959
0.139009750786
2.1470610913
9.37549726183
0.0270726502864
0.0243070220189
0.0225940369943
0.0202897929402
0.0138823913398
0.00462671740787
0.00115969048243
0.00062478186816
0.000592344022545
0.000590870327823
0.000590825088708
0.000590839727204
0.000590854254901
0.00059086672808
0.000590879111467
0.000592348986649
0.00145206451398
0.146601113709
2.21137609401
9.54628490832
0.0265743592874
0.0236522026452
0.0219140282915
0.0197020258059
0.0136619206064
0.00469592772202
0.00119759124569
0.000629014001578
0.000592862491344
0.000591149681141
0.000591092144103
0.000591107410452
0.000591122963728
0.000591136237373
0.000591148998383
0.000592715169379
0.00152467462332
0.154419234392
2.27702995586
9.72119685271
0.0256247556395
0.0226964885108
0.0210507420645
0.0190032452632
0.0133794520283
0.00480398101361
0.0012511672211
0.000635615612232
0.000593622777617
0.000591524647162
0.000591441572247
0.000591452839237
0.00059146598219
0.000591477310489
0.000591488210247
0.000593151997364
0.00160141587355
0.16244633883
2.34426468952
9.9033608428
0.0242896630948
0.0215363240677
0.0200893454882
0.0182609264857
0.0130906978117
0.00497049718125
0.00132739773013
0.000645768583445
0.000594725487749
0.000592016451954
0.000591888342683
0.000591889564225
0.000591895937196
0.000591901863846
0.000591908156574
0.000593671052971
0.00168227772237
0.170677970259
2.4134598419
10.0968025079
0.022732626478
0.0203095237004
0.0191308444832
0.0175474856585
0.0128351679619
0.0051970706167
0.00142859400795
0.000660468506157
0.000596290282232
0.000592641481008
0.000592440725447
0.000592424693254
0.000592419349373
0.000592415988742
0.000592414666898
0.000594279114613
0.00176743633463
0.179129246927
2.4851267842
10.3061655076
0.0211802284417
0.0191820162319
0.0182946486637
0.0169477733623
0.0126575205696
0.00548254823239
0.00155564544621
0.000680550600682
0.000598457403204
0.00059340691859
0.00059309583916
0.000593054739043
0.000593032742167
0.000593016266882
0.000593004455308
0.000594974762122
0.00185734681497
0.187839896055
2.55988440948
10.5362643351
0.0198760778052
0.018312077423
0.0176894359337
0.0165398211736
0.0126079614094
0.00583053678254
0.00171005256746
0.000706757514194
0.000601364481426
0.000594304234544
0.000593834664533
0.000593760993222
0.000593718256514
0.000593685569686
0.000593661053699
0.000595744333279
0.00195281478665
0.196876284615
2.63841045066
10.7914999059
0.0190385544572
0.0178232727857
0.0173962126847
0.0163849355206
0.012727467197
0.00624407910989
0.00189345005582
0.000739570199014
0.000605095565774
0.000595301095627
0.000594617907419
0.000594505855808
0.000594440160183
0.00059438969359
0.000594351524477
0.000596558510138
0.00205502773178
0.206329202109
2.72137026
11.0752204741
0.0188217462999
0.01779193159
0.017461018132
0.0165148851324
0.0130283075759
0.00671079532034
0.00210135573579
0.00077827198104
0.00060957745908
0.000596332874998
0.000595385057026
0.000595232459667
0.000595144530188
0.000595077050727
0.000595026133927
0.00059737171233
0.00216552793064
0.216306326084
2.80932587608
11.3891362544
0.0192846279287
0.0182338742925
0.0178932109608
0.0169192605206
0.0134894991457
0.00719818676696
0.00231775020007
0.000819743741044
0.000614448465172
0.00059729937815
0.000596059923711
0.000595870468183
0.000595764785094
0.000595683946148
0.000595623405494
0.000598126649019
0.00228611656662
0.226919404515
2.90263694158
11.7329147524
0.0203555363725
0.0190900981578
0.0186431986779
0.0175599718478
0.0140778669484
0.00767612723959
0.00252305492392
0.000858892323308
0.000619027491116
0.000598078060748
0.000596565261373
0.000596349639405
0.000596234322087
0.000596146486887
0.000596081463845
0.000598764918831
0.00241868827502
0.238267217982
3.00136855821
12.1040682587
0.0218591986431
0.020251455403
0.0196141981693
0.0183648386561
0.0147591398651
0.00812420652173
0.00270452464779
0.000890989199805
0.000622559994761
0.000598560316072
0.000596843944592
0.000596618290844
0.00059650348289
0.000596416446651
0.00059635308395
0.000599241254209
0.00256502232448
0.250418034569
3.10523419052
12.4982130321
0.023583834992
0.0215622015561
0.0206938191414
0.0192527232459
0.0154574818828
0.00852240731373
0.00285708733403
0.000913690444196
0.000624576818597
0.00059869292269
0.00059687641073
0.000596658015674
0.000596553170737
0.00059647411504
0.000596417992991
0.000599535468779
0.00272658715894
0.263397223005
3.2136021876
12.9096823696
0.0252422243485
0.0228652809608
0.0217868034822
0.0201529205479
0.0161322342559
0.00883691648814
0.00297086928902
0.000925845210369
0.000625005453539
0.000598492988856
0.000596683552195
0.000596486163108
0.000596397646001
0.000596331358336
0.000596286151347
0.000599656166611
0.0029044251021
0.277185156864
3.32557927499
13.332348038
0.0267412079516
0.024107070135
0.0228301794481
0.0210130390169
0.0167495191913
0.00905604518935
0.00304384433896
0.000927595085548
0.000624045507223
0.000598030714034
0.000596314331143
0.000596145512547
0.000596075696978
0.000596023913409
0.000595990903106
0.000599634877513
0.00309914235712
0.291725094637
3.44014121967
13.7604089028
0.0280568260149
0.0252449340033
0.0237903967104
0.0218017843014
0.0172829100803
0.00918450539794
0.00308510059778
0.000921575754983
0.000622092452463
0.000597397302391
0.000595827311482
0.000595688562794
0.000595636463161
0.000595598369464
0.000595576858365
0.000599514731545
0.00331082340022
0.306924794806
3.55622422989
14.1898636169
0.0291867830913
0.0262617390773
0.024658447173
)
;

boundaryField
{
    emptyPatch
    {
        type            empty;
    }
    minY
    {
        type            fixedValue;
        value           uniform 4.5592e-05;
    }
    maxY
    {
        type            inletOutlet;
        inletValue      nonuniform List<scalar> 0();
        value           nonuniform List<scalar> 0();
    }
    water_to_cooler
    {
        type            epsilonWallFunction;
        blending        stepwise;
        value           nonuniform List<scalar> 
37
(
11.7141715934
29.3484414638
41.6061386134
47.6097212641
49.557041323
49.8234426608
49.7994567598
49.9454651124
50.4007120592
51.1624836689
52.1301009881
53.2224663615
54.3920252778
55.6143117757
56.8768372544
58.1723949344
59.4959519704
60.8436384648
62.2128301331
63.6028492347
65.0159464034
66.458210993
67.9401169858
69.4765277112
71.0860921713
72.7899681841
74.6098852693
76.5656361692
78.6723016404
80.9375921033
83.3598143353
85.9269623587
88.6174304863
91.4025166103
94.2502750582
97.129524883
100.009620877
)
;
    }
    water_to_heater
    {
        type            epsilonWallFunction;
        blending        stepwise;
        value           nonuniform List<scalar> 
61
(
30.8450346012
600.07794825
600.07794825
1022.33096622
1022.33096622
1448.55716076
1448.55716076
1655.95566367
1675.72151176
1728.39302232
1728.39302232
1830.07692813
1830.07692813
1911.44733301
1911.44733301
1967.64034847
1998.80222796
2018.86641146
2018.86641146
2069.4684484
2069.4684484
2140.30121748
2140.30121748
2209.69560141
2285.24859318
2372.59467797
2372.59467797
2502.12784138
2502.12784138
2720.25090066
2720.25090066
3016.31010355
3369.129709
3780.07086826
3780.07086826
4277.97788407
4277.97788407
4958.63310699
4958.63310699
5811.19174316
7305.17241669
11617.87752
11617.87752
16824.9638119
16824.9638119
16584.4669054
16584.4669054
13734.0481121
10564.1568575
8835.50345009
8835.50345009
7686.81685054
7686.81685054
4973.44672931
4973.44672931
2860.66679587
2005.15003733
1728.3883188
1728.3883188
1653.75908181
1653.75908181
)
;
    }
    procBoundary2to3
    {
        type            processor;
        value           nonuniform List<scalar> 
41
(
936.527993381
176.832208899
43.4219933211
15.7312144712
7.89504170155
4.41897502109
2.19282734663
0.903453984014
0.352921805759
0.164759807561
0.107661313522
0.114659063999
0.11312670548
0.101514953957
0.086776918162
0.0727320489546
0.0605223316548
0.0504850313026
0.0426206993254
0.0359462341749
0.0225091212949
0.017722986833
0.00922511277907
0.00309622462245
0.000909740308997
0.000619571772885
0.000596675591396
0.000595274329588
0.00059516296976
0.000595125626561
0.000595098896969
0.00059508702329
0.000599338854335
0.00354019153567
0.322774496423
3.67409648079
14.6108760214
0.0301496571886
0.0271664471493
0.0225091212949
0.0254425574211
)
;
    }
}


// ************************************************************************* //
