/*--------------------------------*- C++ -*----------------------------------*\
| =========                 |                                                 |
| \\      /  F ield         | OpenFOAM: The Open Source CFD Toolbox           |
|  \\    /   O peration     | Version:  2312                                  |
|   \\  /    A nd           | Website:  www.openfoam.com                      |
|    \\/     M anipulation  |                                                 |
\*---------------------------------------------------------------------------*/
FoamFile
{
    version     2.0;
    format      ascii;
    arch        "LSB;label=32;scalar=64";
    class       volScalarField;
    location    "0.305/water";
    object      alphat.gas;
}
// * * * * * * * * * * * * * * * * * * * * * * * * * * * * * * * * * * * * * //

dimensions      [1 -1 -1 0 0 0 0];

internalField   nonuniform List<scalar> 
1504
(
2.66701659661e-06
2.67736201959e-06
2.28916653855e-06
1.80770732552e-06
1.37997590658e-06
1.06089583726e-06
8.53564731748e-07
7.2789189788e-07
6.36795622206e-07
5.25134554812e-07
3.53623516864e-07
1.64102770241e-07
5.49061769796e-08
2.44313211839e-08
1.99574843192e-08
1.99097303557e-08
1.93304411797e-08
1.86859296157e-08
1.89480423891e-08
3.24099493318e-08
2.63689430532e-06
2.62192586554e-06
2.23013314698e-06
1.76328877117e-06
1.35494380166e-06
1.0517620142e-06
8.55847755283e-07
7.31988947903e-07
6.32219894864e-07
5.04027016818e-07
3.23645286547e-07
1.47642427648e-07
5.21474996396e-08
2.42907520852e-08
1.98585449045e-08
1.98862365965e-08
1.93949954779e-08
1.88886183039e-08
1.89659420594e-08
2.31868237037e-08
2.59027754311e-06
2.54984428927e-06
2.15638781322e-06
1.70660674783e-06
1.32519661783e-06
1.04767795028e-06
8.63714291167e-07
7.37074426457e-07
6.24408491465e-07
4.7792161616e-07
2.9509938735e-07
1.35450268007e-07
5.08981966381e-08
2.44015602561e-08
1.98099936364e-08
1.97840568354e-08
1.93423628434e-08
1.89575061646e-08
1.91495116142e-08
2.12997726676e-08
2.50313208552e-06
2.44622053882e-06
2.06065548183e-06
1.64078552057e-06
1.30078315739e-06
1.05438914822e-06
8.78830686421e-07
7.44466617297e-07
6.1191272216e-07
4.49101129797e-07
2.71923862436e-07
1.28693515817e-07
5.15405277014e-08
2.50537429057e-08
1.98441731009e-08
1.95690502026e-08
1.91531970228e-08
1.88362141673e-08
1.92736233568e-08
2.09064940019e-08
2.38055611309e-06
2.30306706196e-06
1.96023232504e-06
1.6000298901e-06
1.30746015398e-06
1.08241337424e-06
9.04363529035e-07
7.5014709962e-07
5.92030501084e-07
4.22256437394e-07
2.57656363689e-07
1.28363101716e-07
5.48693180491e-08
2.66710946223e-08
2.0017397672e-08
1.92512118826e-08
1.88528964662e-08
1.85739366162e-08
1.91621227399e-08
2.06966685119e-08
2.26125125176e-06
2.21968130442e-06
1.9715230494e-06
1.66171475426e-06
1.37549819804e-06
1.13695313128e-06
9.32800360039e-07
7.45007543878e-07
5.69260003087e-07
4.06088128725e-07
2.56684268234e-07
1.36683444398e-07
6.2212286027e-08
2.95763481055e-08
2.04117975621e-08
1.88802568491e-08
1.84739320482e-08
1.82341661891e-08
1.88141616005e-08
2.03408544367e-08
2.36064685565e-06
2.43487641525e-06
2.22432576524e-06
1.85725861214e-06
1.49280790098e-06
1.19691121022e-06
9.51070982106e-07
7.37499362398e-07
5.59515465731e-07
4.089513951e-07
2.72669002894e-07
1.5610249226e-07
7.5061398746e-08
3.43821729108e-08
2.125907567e-08
1.8572650133e-08
1.80598295687e-08
1.78535147191e-08
1.82784506334e-08
1.97662968971e-08
2.79368132591e-06
2.93519393838e-06
2.61497449015e-06
2.08958345685e-06
1.61881799282e-06
1.26569974178e-06
9.81828283052e-07
7.49758339949e-07
5.7312169225e-07
4.34782943526e-07
3.0946100912e-07
1.9172723029e-07
9.7726579554e-08
4.30863685349e-08
2.3143320304e-08
1.8558601954e-08
1.77090331471e-08
1.74681206003e-08
1.76639040805e-08
1.89487325159e-08
3.27473210727e-06
3.38906541288e-06
2.91680728832e-06
2.29144897922e-06
1.77150577302e-06
1.37791826026e-06
1.05607075808e-06
8.00740315637e-07
6.16700548465e-07
4.83548210431e-07
3.67158852834e-07
2.47937571524e-07
1.3630283979e-07
5.92921978406e-08
2.72517694887e-08
1.91625059877e-08
1.75941500854e-08
1.71568030313e-08
1.7103778328e-08
1.79426193879e-08
3.34054381571e-06
3.40169372901e-06
2.99198014116e-06
2.45047734884e-06
1.94652965545e-06
1.53063087875e-06
1.17938284607e-06
8.94671865091e-07
6.87192229392e-07
5.45059724871e-07
4.34528209428e-07
3.19755910334e-07
1.93584627672e-07
8.71076869868e-08
3.51739210306e-08
2.08768002685e-08
1.78538437084e-08
1.70376846937e-08
1.66309605486e-08
1.68290520968e-08
3.00342246742e-06
3.15887926662e-06
2.95700661426e-06
2.56250878237e-06
2.11156810601e-06
1.69250619774e-06
1.32402333804e-06
1.0109269999e-06
7.69882169125e-07
6.05717394738e-07
4.9465274983e-07
3.90251196609e-07
2.60980625549e-07
1.26910342575e-07
4.80490664162e-08
2.40319258567e-08
1.85987447886e-08
1.71623394931e-08
1.62357987119e-08
1.57598182212e-08
2.81521933773e-06
3.07069674344e-06
2.96108210691e-06
2.64824345759e-06
2.24340679129e-06
1.84259185262e-06
1.46678444494e-06
1.12198729857e-06
8.46736890976e-07
6.56418530201e-07
5.38653683695e-07
4.44573529633e-07
3.22594758754e-07
1.71922098332e-07
6.54717176634e-08
2.84894428208e-08
1.97654814745e-08
1.74083838546e-08
1.59019249244e-08
1.48086289946e-08
2.69849886154e-06
3.04885615554e-06
3.00611756126e-06
2.72362224496e-06
2.32916028095e-06
1.93232758383e-06
1.55528876801e-06
1.20047379609e-06
9.03748064326e-07
6.93809445689e-07
5.67834778488e-07
4.80437478676e-07
3.68963952562e-07
2.13186614763e-07
8.51500824518e-08
3.39783914457e-08
2.10534956857e-08
1.76566805053e-08
1.55976649894e-08
1.3967816054e-08
2.60994722032e-06
3.01644199036e-06
3.02314613021e-06
2.76191784765e-06
2.37080508908e-06
1.9744844225e-06
1.59859525563e-06
1.24255086214e-06
9.35896559875e-07
7.17476586711e-07
5.87278143077e-07
5.03277697623e-07
3.99713426914e-07
2.44972252593e-07
1.03935373992e-07
4.00395221776e-08
2.23830162512e-08
1.78359883625e-08
1.52701688078e-08
1.31897081483e-08
2.54172961702e-06
2.97320096132e-06
3.00831914649e-06
2.76229795874e-06
2.37588745236e-06
1.98096422763e-06
1.60742508399e-06
1.2540453147e-06
9.47879495822e-07
7.31153403833e-07
6.02314951998e-07
5.20559661389e-07
4.20195648872e-07
2.65727203054e-07
1.17699799762e-07
4.51271111511e-08
2.35110174472e-08
1.78423887347e-08
1.48710391815e-08
1.24278754855e-08
2.49824097593e-06
2.93762665699e-06
2.98329408824e-06
2.74087583014e-06
2.35483334052e-06
1.96007233563e-06
1.58826192041e-06
1.23956960562e-06
9.43635092354e-07
7.37422199052e-07
6.15070455148e-07
5.35546658256e-07
4.3422875365e-07
2.7715896694e-07
1.25260149715e-07
4.81574549585e-08
2.41013243307e-08
1.75813887797e-08
1.43423673709e-08
1.16389314612e-08
2.46667292641e-06
2.91825616405e-06
2.96598061605e-06
2.71399272232e-06
2.31819056954e-06
1.91804577095e-06
1.54639213933e-06
1.20529247898e-06
9.28565506837e-07
7.39691191183e-07
6.27128651735e-07
5.49175975538e-07
4.42890653519e-07
2.80380790361e-07
1.26796580775e-07
4.88531923026e-08
2.40234000807e-08
1.70808186606e-08
1.3651565223e-08
1.07786715226e-08
2.46193001464e-06
2.92607435447e-06
2.96867693003e-06
2.69324806935e-06
2.27279254618e-06
1.85746506744e-06
1.48361752027e-06
1.1586738204e-06
9.08845384263e-07
7.40997106502e-07
6.39309044351e-07
5.61045329379e-07
4.45806218055e-07
2.75924866445e-07
1.22947953315e-07
4.73825826892e-08
2.32798087632e-08
1.63472873145e-08
1.28290113994e-08
9.82913757072e-09
2.48029217904e-06
2.96576284803e-06
2.99651763084e-06
2.68123835812e-06
2.2192014194e-06
1.77890845694e-06
1.40317055852e-06
1.1083137475e-06
8.89189418847e-07
7.43031745794e-07
6.51718223237e-07
5.70091441628e-07
4.42036381867e-07
2.64238430424e-07
1.14730355398e-07
4.42343809576e-08
2.1996689957e-08
1.54116810875e-08
1.19033696179e-08
8.82501078777e-09
2.55230738224e-06
3.0441555493e-06
3.02147699312e-06
2.65112746025e-06
2.14881922231e-06
1.68998574892e-06
1.32731141236e-06
1.06222120584e-06
8.72413038915e-07
7.47124061408e-07
6.64379042068e-07
5.74846210785e-07
4.30639964555e-07
2.46270670046e-07
1.03600282323e-07
4.0101276199e-08
2.03746640342e-08
1.43257632801e-08
1.0901046324e-08
7.80252270707e-09
2.65609625661e-06
3.13738488436e-06
3.00786319472e-06
2.58596539024e-06
2.06118885605e-06
1.59871992198e-06
1.26082369463e-06
1.02358411121e-06
8.60680793685e-07
7.55069159035e-07
6.76926868955e-07
5.73449450488e-07
4.11472325076e-07
2.23993943851e-07
9.13608221866e-08
3.57187975428e-08
1.86263470588e-08
1.31390395235e-08
9.84404150436e-09
6.79244789461e-09
2.71775310718e-06
3.13217702852e-06
2.93914335408e-06
2.49602128375e-06
1.9718832815e-06
1.52219962011e-06
1.20479238085e-06
9.93686166519e-07
8.56441096793e-07
7.68552188613e-07
6.87765458393e-07
5.64243679516e-07
3.85935782172e-07
2.0038475476e-07
7.98198267083e-08
3.17048872938e-08
1.69291257832e-08
1.18964858638e-08
8.75658239569e-09
5.81770164585e-09
2.72062518229e-06
2.99537139009e-06
2.79714705312e-06
2.37751905456e-06
1.88468385271e-06
1.45909297316e-06
1.16260309017e-06
9.75201030737e-07
8.6326434327e-07
7.87469282798e-07
6.94087866558e-07
5.47011179053e-07
3.57114353938e-07
1.78726166079e-07
7.03837261384e-08
2.84623480111e-08
1.54006219312e-08
1.06399060151e-08
7.66126099993e-09
4.88725065524e-09
2.7169928602e-06
2.87617277119e-06
2.67051476458e-06
2.27811417798e-06
1.82027292207e-06
1.41792672298e-06
1.1380198225e-06
9.73655616197e-07
8.8451519983e-07
8.09912184604e-07
6.93834448312e-07
5.23287062265e-07
3.29215002577e-07
1.6179897183e-07
6.39270763316e-08
2.62067346854e-08
1.41140235276e-08
9.41460842581e-09
6.57527277861e-09
4.00525908783e-09
2.69963193368e-06
2.81219580054e-06
2.58995423444e-06
2.20841291621e-06
1.77502625095e-06
1.39298273648e-06
1.13311448414e-06
9.95328080616e-07
9.2125490572e-07
8.33661176767e-07
6.86407697935e-07
4.96429235148e-07
3.06666306798e-07
1.51618075964e-07
6.10146849388e-08
2.50983037895e-08
1.31442616508e-08
8.27920520365e-09
5.51948391496e-09
3.18595024752e-09
2.67087758632e-06
2.76338894153e-06
2.53373353462e-06
2.1602209175e-06
1.74395698658e-06
1.38389397341e-06
1.15387977699e-06
1.04394437348e-06
9.72663979283e-07
8.57292830749e-07
6.73590298952e-07
4.72593404615e-07
2.93741238646e-07
1.49808162082e-07
6.23027469799e-08
2.54502074388e-08
1.26223524853e-08
7.3204117726e-09
4.52672215138e-09
2.45737791443e-09
2.68248848628e-06
2.78385228485e-06
2.54551883021e-06
2.16618770385e-06
1.74760025923e-06
1.40537449815e-06
1.20802277001e-06
1.11831352089e-06
1.03556480635e-06
8.81436779828e-07
6.64357358456e-07
4.60405655309e-07
2.94010046712e-07
1.57838458939e-07
6.92745019861e-08
2.80486963273e-08
1.28051240504e-08
6.6621675323e-09
3.66997242714e-09
1.84456451168e-09
2.7790972438e-06
2.91688649626e-06
2.66367264564e-06
2.24470593471e-06
1.79890857388e-06
1.46425610078e-06
1.2890204124e-06
1.20587026445e-06
1.10511760799e-06
9.16571737306e-07
6.74872402191e-07
4.6818477445e-07
3.09583991851e-07
1.79041223216e-07
8.48540467575e-08
3.39928136681e-08
1.39965239557e-08
6.42098284793e-09
3.02248233929e-09
1.3578035126e-09
2.95720412806e-06
3.11862159746e-06
2.83255915729e-06
2.35106643489e-06
1.87322503176e-06
1.53720079441e-06
1.36796795706e-06
1.28560143539e-06
1.17959570798e-06
9.79041251165e-07
7.17485607586e-07
4.98867996732e-07
3.40626896812e-07
2.16371864767e-07
1.1274275427e-07
4.53031694071e-08
1.67935560163e-08
6.73678262923e-09
2.64680247863e-09
1.00071806067e-09
3.14142330606e-06
3.25839744455e-06
2.90369801549e-06
2.39407990418e-06
1.91735045641e-06
1.58411854359e-06
1.41487513083e-06
1.33957876391e-06
1.24979890239e-06
1.05943058511e-06
7.80440809051e-07
5.45910079394e-07
3.8803792989e-07
2.69418151488e-07
1.56134681097e-07
6.57100787763e-08
2.25461497208e-08
7.87147234705e-09
2.60434891385e-09
7.63847051984e-10
3.05121890963e-06
3.10825105568e-06
2.78553016574e-06
2.34282567194e-06
1.91035655768e-06
1.59215469067e-06
1.42486850452e-06
1.35734403609e-06
1.28658785057e-06
1.11309024935e-06
8.43393561762e-07
6.09364377171e-07
4.48547657352e-07
3.27961970193e-07
2.09803857637e-07
9.76795976486e-08
3.33248519147e-08
1.03438596829e-08
2.96844918071e-09
6.52717847433e-10
2.95325232761e-06
2.9817031428e-06
2.66253587219e-06
2.26720509636e-06
1.87550865544e-06
1.5745708163e-06
1.41001064694e-06
1.34315515492e-06
1.28260646341e-06
1.13194450032e-06
8.92041144441e-07
6.73509110789e-07
5.08575585314e-07
3.79533582525e-07
2.59840925014e-07
1.36249122975e-07
5.00737769436e-08
1.47446898476e-08
3.77430791435e-09
6.74556599271e-10
2.86627137481e-06
2.86704437791e-06
2.55917898719e-06
2.20036106755e-06
1.83705101649e-06
1.54844482856e-06
1.38505201295e-06
1.31563004561e-06
1.26051383248e-06
1.13109497158e-06
9.22110699053e-07
7.19555905112e-07
5.53269397634e-07
4.1837668326e-07
2.97324154655e-07
1.69843247813e-07
6.82902147809e-08
2.03155476979e-08
4.88234807366e-09
7.80012905788e-10
2.78893528395e-06
2.76587543636e-06
2.47598442678e-06
2.14875392315e-06
1.80478539325e-06
1.52343902621e-06
1.35965485778e-06
1.2867661534e-06
1.23288239288e-06
1.11654596359e-06
9.30223876037e-07
7.42211545274e-07
5.79773760978e-07
4.44583693132e-07
3.22454220375e-07
1.92765394496e-07
8.24961601287e-08
2.53115137121e-08
5.95556639889e-09
9.11620757302e-10
2.72152813852e-06
2.68740609618e-06
2.41381823344e-06
2.11210195382e-06
1.78215332019e-06
1.50471541335e-06
1.33848068535e-06
1.26018144045e-06
1.20311617759e-06
1.09245844252e-06
9.2067318998e-07
7.45253297658e-07
5.91164800926e-07
4.60034979152e-07
3.37164170007e-07
2.04776177767e-07
9.01469493057e-08
2.82709791136e-08
6.6104971825e-09
1.00413858504e-09
2.691124879e-06
2.63130560792e-06
2.36383353142e-06
2.08250272855e-06
1.76709594966e-06
1.49328323383e-06
1.32287504675e-06
1.23756152651e-06
1.17518483571e-06
1.06626336327e-06
9.03235084606e-07
7.37955750425e-07
5.93545638127e-07
4.67576260951e-07
3.430330469e-07
2.06951207337e-07
9.0963155965e-08
2.86095974723e-08
6.63295283162e-09
1.00570135283e-09
2.67840995883e-06
2.60012865603e-06
2.33348595981e-06
2.06289871718e-06
1.75808338263e-06
1.48617551619e-06
1.31060800975e-06
1.2187309826e-06
1.15264870303e-06
1.04615503578e-06
8.8960991782e-07
7.31670325942e-07
5.94422860861e-07
4.70775966258e-07
3.41711805038e-07
2.00832516215e-07
8.60030356112e-08
2.66254715581e-08
6.06820204932e-09
9.16590578682e-10
2.67236152152e-06
2.58202139095e-06
2.31560573216e-06
2.04900342531e-06
1.7500442873e-06
1.47849704574e-06
1.29877537863e-06
5.61401606241e-06
4.39320325975e-06
3.00266983944e-06
1.94953022537e-06
1.3999439016e-06
1.29972035e-06
1.524507696e-06
1.91642894125e-06
2.31863929843e-06
2.63767022399e-06
2.83292168084e-06
2.88981413318e-06
2.80859699403e-06
2.60439022336e-06
2.31792551985e-06
2.05160436876e-06
2.01452401956e-06
3.14535984415e-07
2.94580694708e-06
5.12144956704e-06
5.16155608267e-06
4.02552390775e-06
2.73160513288e-06
1.80326001297e-06
1.37068147398e-06
1.35852972521e-06
1.63626696249e-06
2.04260666148e-06
2.43425885998e-06
2.73297629865e-06
2.9054716687e-06
2.94021370065e-06
2.83899598703e-06
2.61882727626e-06
2.32292626965e-06
2.04964900248e-06
1.99064268106e-06
1.53750275085e-07
2.10359963699e-06
4.44930289385e-06
4.71999211849e-06
3.68662350912e-06
2.49733148692e-06
1.69069090758e-06
1.36488767207e-06
1.43049298521e-06
1.75108622193e-06
2.16496832107e-06
2.54379442047e-06
2.82220904661e-06
2.97282013394e-06
2.98650175602e-06
2.86620920688e-06
2.63073691673e-06
2.3268299249e-06
2.05116569207e-06
1.97437506973e-06
7.81524169893e-08
1.3853682302e-06
3.7551795641e-06
4.29258347469e-06
3.37892057987e-06
2.29868784223e-06
1.60774713247e-06
1.37832327378e-06
1.51181810741e-06
1.86595869779e-06
2.28189378707e-06
2.64639767548e-06
2.90484304716e-06
3.03460505368e-06
3.02843029286e-06
2.89005488731e-06
2.63983598547e-06
2.32893945529e-06
2.0555007038e-06
1.96737006741e-06
4.77623902619e-08
8.6469749277e-07
3.05836184706e-06
3.87989621873e-06
3.10241554176e-06
2.13264885154e-06
1.54971178189e-06
1.40672177989e-06
1.59877191015e-06
1.97815105749e-06
2.3919066945e-06
2.74121597612e-06
2.98030433429e-06
3.09041465783e-06
3.06571940346e-06
2.91035309092e-06
2.64586996182e-06
2.32852488529e-06
2.06179150371e-06
1.97150511458e-06
3.72535231139e-08
5.11638674823e-07
2.36667166926e-06
3.47732263528e-06
2.85555114474e-06
1.995347277e-06
1.51177851929e-06
1.44585361436e-06
1.68768188571e-06
2.08513816195e-06
2.49361108914e-06
2.82740199199e-06
3.04802011307e-06
3.13985334164e-06
3.09812437461e-06
2.92698449069e-06
2.64867869672e-06
2.32486756038e-06
2.06873743561e-06
1.98862211087e-06
2.84023125044e-08
2.59157868128e-07
1.70610186178e-06
3.07757012247e-06
2.63578432624e-06
1.88246994927e-06
1.48921073017e-06
1.49158719987e-06
1.77509152484e-06
2.1847194344e-06
2.58581713328e-06
2.90426060421e-06
3.10755571165e-06
3.18265467782e-06
3.12551825562e-06
2.93994879112e-06
2.64824286481e-06
2.31732866569e-06
2.07455538091e-06
2.02018744875e-06
2.28269514487e-08
1.00528955498e-07
1.14643772058e-06
2.67423185083e-06
2.43930905194e-06
1.78922702765e-06
1.47741545316e-06
1.54009853418e-06
1.85806517652e-06
2.27524893352e-06
2.66774655764e-06
2.9714247371e-06
3.15874808618e-06
3.21877065378e-06
3.14794059759e-06
2.94937905918e-06
2.64469862754e-06
2.30542152601e-06
2.07700110747e-06
2.06672644809e-06
2.16102834676e-08
4.7454887447e-08
7.03521332083e-07
2.25858308528e-06
2.26056774057e-06
1.71044165468e-06
1.47213430778e-06
1.58816176396e-06
1.93446734914e-06
2.35580968572e-06
2.73917220232e-06
3.02895975965e-06
3.20177409802e-06
3.24840845989e-06
3.16560481118e-06
2.95552526376e-06
2.63832137192e-06
2.28889214407e-06
2.07352967782e-06
2.12696412664e-06
2.01412753537e-08
3.2991904471e-08
3.18069662343e-07
1.81851880816e-06
2.09273014653e-06
1.64097008979e-06
1.46974333946e-06
1.63341351001e-06
2.00312360063e-06
2.42627855313e-06
2.80046286269e-06
3.07738979721e-06
3.23716167487e-06
3.27202931497e-06
3.17888429334e-06
2.95872009533e-06
2.62948518581e-06
2.26777843555e-06
2.06161575207e-06
2.19672904347e-06
1.85005497392e-08
2.37069732755e-08
1.0020088873e-07
1.33880387415e-06
1.928449184e-06
1.57615471072e-06
1.46755475568e-06
1.67454078292e-06
2.06385802784e-06
2.48728654212e-06
2.85253464537e-06
3.117647161e-06
3.26574216607e-06
3.29030858635e-06
3.18827888607e-06
2.95934227111e-06
2.61862145631e-06
2.24246432923e-06
2.03926014938e-06
2.26802243358e-06
1.67350933552e-08
2.04411776855e-08
5.44819983634e-08
7.89417285795e-07
1.75821229041e-06
1.51215495512e-06
1.46392159666e-06
1.71119556934e-06
2.11728221558e-06
2.53999853955e-06
2.89667165379e-06
3.15093444355e-06
3.28855356884e-06
3.30407875406e-06
3.19439273352e-06
2.95780565748e-06
2.60617306653e-06
2.21363385995e-06
2.0054496824e-06
2.32892752812e-06
1.50195573975e-08
1.73971030022e-08
3.1964673054e-08
3.00710911706e-07
1.56102960164e-06
1.44642365325e-06
1.45819811611e-06
1.74373698403e-06
2.16449556131e-06
2.58588167692e-06
2.934373703e-06
3.17863460564e-06
3.30679870837e-06
3.31432726869e-06
3.19796097871e-06
2.95458010037e-06
2.59252643626e-06
2.18208434279e-06
1.96046443871e-06
2.36529410178e-06
1.34615071432e-08
1.46605999905e-08
2.2500385773e-08
1.07862160859e-07
1.28076281187e-06
1.37823116245e-06
1.45083614289e-06
1.77322530678e-06
2.20706244496e-06
2.6267121105e-06
2.96738227522e-06
3.2023430692e-06
3.32188029856e-06
3.32223539283e-06
3.19989381248e-06
2.95023841836e-06
2.57806494497e-06
2.1488263577e-06
1.90602759842e-06
2.36471181366e-06
1.20740866894e-08
1.2343587126e-08
1.69328367056e-08
6.19423212629e-08
8.6127545081e-07
1.30776535878e-06
1.443431267e-06
1.80146475234e-06
2.24702809054e-06
2.66458139845e-06
2.99767784635e-06
3.22386603866e-06
3.33541345204e-06
3.32921748473e-06
3.20135144171e-06
2.94556211515e-06
2.56326702604e-06
2.11493801819e-06
1.84503478011e-06
2.32124480745e-06
1.0819270978e-08
1.03629321305e-08
1.27908851411e-08
4.0802918436e-08
4.31056800978e-07
1.23100713234e-06
1.43848477242e-06
1.83078547853e-06
2.28674174627e-06
2.70178567934e-06
3.02743992826e-06
3.24526008568e-06
3.34935293514e-06
3.33713429939e-06
3.20402810369e-06
2.94191050849e-06
2.54930526184e-06
2.08177618421e-06
1.78118589657e-06
2.23848099053e-06
9.64699832922e-09
8.67547296812e-09
9.7053520526e-09
2.11903179387e-08
1.82789864122e-07
1.13577315191e-06
1.43934473195e-06
1.8640900581e-06
2.32897483771e-06
2.74101514723e-06
3.05930798242e-06
3.26917194059e-06
3.36641183662e-06
3.34877885756e-06
3.21071278995e-06
2.94190305902e-06
2.53807608424e-06
2.05110465616e-06
1.7187214251e-06
2.12857014168e-06
8.52719497776e-09
7.22259615178e-09
7.41183006588e-09
1.34725546409e-08
9.02863751929e-08
1.00569036821e-06
1.45042593968e-06
1.90509562384e-06
2.37715592973e-06
2.78559521846e-06
3.09665429354e-06
3.29916372089e-06
3.39044308501e-06
3.36830059749e-06
3.22567277218e-06
2.94937688326e-06
2.53274546257e-06
2.02555822739e-06
1.66204934421e-06
2.00833151087e-06
7.44676218069e-09
5.95689924281e-09
5.70510959628e-09
8.92406696439e-09
5.75009393491e-08
8.26566024441e-07
1.47571945765e-06
1.95759386253e-06
2.43478374694e-06
2.83906515186e-06
3.14330207658e-06
3.33951474827e-06
3.42624191845e-06
3.40089505639e-06
3.25408760562e-06
2.96936477682e-06
2.53741629877e-06
2.00776584256e-06
1.61433714237e-06
1.89341308703e-06
6.41122041103e-09
4.85700993723e-09
4.41518502304e-09
6.26514902859e-09
3.980120427e-08
6.03129585527e-07
1.51514902486e-06
2.02433747466e-06
2.50478661599e-06
2.90477949892e-06
3.20315789278e-06
3.39469107221e-06
3.47870354672e-06
3.45159081498e-06
3.30083430705e-06
3.00596388979e-06
2.55431657096e-06
1.99859876713e-06
1.57653175834e-06
1.79327605502e-06
5.43259836763e-09
3.912590825e-09
3.44884557351e-09
4.76620500338e-09
2.56163515649e-08
3.76959715676e-07
1.5614522545e-06
2.10806366398e-06
2.59052653159e-06
2.9864285767e-06
3.27997630085e-06
3.46818670304e-06
3.55071747966e-06
3.52233305746e-06
3.36682914955e-06
3.05853055096e-06
2.58194813565e-06
1.99564652907e-06
1.54600195049e-06
1.70993050515e-06
4.51749456142e-09
3.10983664176e-09
2.73267138319e-09
4.01244516658e-09
1.61151250547e-08
2.08664428063e-07
1.59231591283e-06
2.21294455193e-06
2.69647714011e-06
3.08736868752e-06
3.37508963711e-06
3.55852739448e-06
3.63754406739e-06
3.60526580992e-06
3.44174501508e-06
3.11590665384e-06
2.60983873504e-06
1.98935596084e-06
1.51407904399e-06
1.63755639773e-06
3.67323348605e-09
2.43085939117e-09
2.19998548793e-09
3.7081900038e-09
1.39944752107e-08
1.19300005566e-07
1.53119078184e-06
2.34241025965e-06
2.82655451014e-06
3.20772894752e-06
3.48287590474e-06
3.65293956956e-06
3.71878769436e-06
3.67339097576e-06
3.49492323632e-06
3.14805701191e-06
2.612138153e-06
1.95954510956e-06
1.46580964629e-06
1.56564464027e-06
2.90162485957e-09
1.85777505102e-09
1.79779282544e-09
3.6891734975e-09
1.4426307972e-08
8.78489566848e-08
1.21216667607e-06
2.49380712912e-06
2.98444003838e-06
3.34465030087e-06
3.59136020419e-06
3.7291407794e-06
3.76201251442e-06
3.68627086716e-06
3.48243447256e-06
3.11452653636e-06
2.55823340814e-06
1.88890314748e-06
1.39615302716e-06
1.49622699344e-06
2.20917336099e-09
1.38628575584e-09
1.51330903847e-09
3.95393030044e-09
1.63196990155e-08
7.93600002201e-08
6.69587142326e-07
2.62964754854e-06
3.1740763326e-06
3.49567093089e-06
3.68971454455e-06
3.76802155372e-06
3.7404937555e-06
3.61096520576e-06
3.36833150096e-06
2.98265448033e-06
2.42882751356e-06
1.77784995962e-06
1.32122245334e-06
1.44933842412e-06
1.62012744441e-09
1.02914032404e-09
1.38132609551e-09
4.57894220531e-09
1.97184624233e-08
7.17437698301e-08
3.4739946805e-07
2.54724257017e-06
3.39045901525e-06
3.65459057856e-06
3.76908673661e-06
3.76004894738e-06
3.64561044411e-06
3.44029115377e-06
3.14750243454e-06
2.75273942911e-06
2.23768912118e-06
1.65941847069e-06
1.27724212688e-06
1.45068975749e-06
1.15174048867e-09
7.95764927272e-10
1.44107560012e-09
5.71285778112e-09
2.48555406759e-08
8.62755517216e-08
2.85602811969e-07
1.87067572587e-06
3.56306820446e-06
3.77408059469e-06
3.78387593557e-06
3.66738040194e-06
3.45332180324e-06
3.16917321254e-06
2.83705642152e-06
2.46447851064e-06
2.0418059516e-06
1.59249785453e-06
1.30534751595e-06
1.52071227762e-06
8.06835539001e-10
6.85380838374e-10
1.74550019454e-09
7.58002309205e-09
3.20087992367e-08
1.03365599761e-07
2.79882454139e-07
9.95675603405e-07
3.37083438211e-06
3.66736175771e-06
3.55241104863e-06
3.3309211973e-06
3.04485109798e-06
2.73493778739e-06
2.43906488141e-06
2.17691513939e-06
1.92652723333e-06
1.65147709912e-06
1.46029909151e-06
1.72260959389e-06
5.75976751847e-10
6.8027821663e-10
2.31543892113e-09
1.02315931992e-08
3.99263870036e-08
1.1563973936e-07
2.2329890816e-07
5.63667447892e-07
2.37510348912e-06
3.02033603011e-06
2.80824569556e-06
2.54860396111e-06
2.30049032951e-06
2.09808279557e-06
1.966618007e-06
1.91298917768e-06
1.90398095033e-06
1.87781495535e-06
1.89667476761e-06
2.47874159881e-06
4.30385145216e-10
7.3670412495e-10
3.01839413884e-09
1.28584592107e-08
4.46273074016e-08
1.11720616314e-07
1.88890767633e-07
3.62998455171e-07
1.1687400336e-06
1.92654243525e-06
1.78679644644e-06
1.64322044863e-06
1.55860675699e-06
1.53047402409e-06
1.55450762309e-06
1.66020913189e-06
1.90400806822e-06
2.32481144281e-06
3.01592789305e-06
4.16195846756e-06
3.31454688669e-10
7.71721276144e-10
3.46350392184e-09
1.38846678834e-08
4.18229371944e-08
8.66116032159e-08
1.28091522856e-07
2.13551373271e-07
4.55602867698e-07
1.01564583592e-06
1.10331105393e-06
1.15997606441e-06
1.22977777654e-06
1.28871748783e-06
1.34133127832e-06
1.43781353217e-06
1.6544427268e-06
2.01256368101e-06
2.37198878445e-06
2.41118009992e-06
2.54007695104e-10
7.02861310089e-10
3.29392722622e-09
1.25330518835e-08
3.24461440431e-08
5.23544384938e-08
5.94971657267e-08
9.41237945758e-08
1.50685086814e-07
4.30690589928e-07
5.8582346196e-07
7.91751355097e-07
1.07487753823e-06
1.26435333742e-06
1.24941443185e-06
1.17656024893e-06
1.37202985826e-06
1.67771197899e-06
1.87051684595e-06
2.05530574628e-06
2.01358525919e-10
5.46393961362e-10
2.59011276111e-09
9.58266605184e-09
2.16062016491e-08
2.66593264845e-08
2.05240932252e-08
1.5971640045e-08
2.53736300483e-08
9.33104964174e-08
2.20210257975e-07
4.09501634112e-07
6.91446184627e-07
7.40272078816e-07
3.3315652407e-07
2.57860224907e-07
2.4257499824e-07
1.54482838472e-06
1.71768990333e-06
1.97778229879e-06
1.79165493175e-10
3.98672636837e-10
1.80433648541e-09
6.33331772013e-09
1.24294150195e-08
1.23528502476e-08
6.93681366995e-09
3.37342254037e-09
2.59001096582e-09
4.79678156229e-09
6.8415849622e-08
3.66963381603e-07
5.90023934243e-07
2.37102399176e-07
2.02915586913e-07
1.91136113175e-07
1.68479146973e-07
4.56162292082e-07
1.66723055373e-06
1.92731025775e-06
1.70653288743e-10
2.75660825904e-10
1.13887313587e-09
3.67986848412e-09
6.31443102002e-09
5.34978006222e-09
2.49420809061e-09
9.87704775982e-10
6.48854743105e-10
3.30285444518e-09
6.10675111634e-08
2.31265654716e-07
1.75030647753e-07
1.8457550617e-07
1.69789486952e-07
1.53722751987e-07
1.4702084778e-07
1.86724319005e-07
1.70331397652e-06
1.91212452619e-06
1.64422628635e-10
1.80763734342e-10
6.50029409429e-10
1.89518745492e-09
2.86499048002e-09
2.14399053644e-09
9.60378808573e-10
4.5784770965e-10
8.10351795346e-10
1.14453371595e-08
8.82217636914e-08
1.53634520191e-07
1.53029790909e-07
1.422547588e-07
1.29083319693e-07
1.20656214685e-07
1.28144804535e-07
1.72340177756e-07
1.7386081069e-06
1.95345581667e-06
1.54717611237e-10
1.17627820225e-10
3.39953760944e-10
8.66954761025e-10
1.15169946121e-09
7.90445359558e-10
4.11004098854e-10
4.21737078616e-10
2.54171554482e-09
3.23689295211e-08
1.07680644831e-07
1.25222453988e-07
1.18272312471e-07
1.05556664777e-07
9.85090739169e-08
1.04932506542e-07
1.27214177228e-07
1.83417029115e-07
1.4861810196e-06
2.04519125439e-06
1.41046295225e-10
8.2227335213e-11
1.72122763633e-10
3.63192799109e-10
4.27946673442e-10
3.11738928925e-10
2.78553119601e-10
8.20040322619e-10
8.21349982645e-09
5.41780386422e-08
9.89233392132e-08
1.00418413788e-07
8.78938532054e-08
7.88218503036e-08
8.14463779205e-08
9.80545444385e-08
1.29786341252e-07
1.93686739009e-07
1.45445538605e-06
2.18653771973e-06
)
;

boundaryField
{
    emptyPatch
    {
        type            empty;
    }
    minY
    {
        type            zeroGradient;
    }
    maxY
    {
        type            calculated;
        value           nonuniform List<scalar> 0();
    }
    maxX
    {
        type            compressible::alphatPhaseChangeJayatillekeWallFunction;
        Prt             0.85;
        Cmu             0.09;
        kappa           0.41;
        E               9.8;
        dmdt            uniform 0;
        value           nonuniform List<scalar> 
38
(
0
0
0
0
0
0
0
0
0
0
0
0
0
0
0
0
0
0
0
0
0
0
0
0
0
0
0
0
0
0
0
4.92092062501e-06
3.0805919225e-06
1.35212622424e-06
3.60176898118e-07
2.99074292265e-07
2.74782871023e-07
2.81268295442e-07
)
;
    }
    water_to_heater
    {
        type            compressible::alphatWallBoilingWallFunction;
        phaseType       vapor;
        relax           constant 1;
        partitioningModel
        {
            type            Lavieville;
            alphaCrit       0.2;
        }
        otherPhase      liquid;
        dmdt            uniform 0;
        dDep            uniform 1e-05;
        qQuenching      uniform 0;
        alphatConv      uniform 0;
        value           nonuniform List<scalar> 
60
(
4.07134876598e-07
4.07134876598e-07
3.67136022049e-07
4.01200164271e-07
3.65574322814e-07
3.65574322814e-07
3.7531072696e-07
3.7531072696e-07
2.60512899121e-07
2.60512899121e-07
5.32769901013e-08
1.07337373485e-08
1.32900645509e-08
1.32900645509e-08
7.60527023222e-08
7.60527023222e-08
5.42485976276e-07
5.42485976276e-07
7.38319930717e-07
6.96805370283e-07
7.55959961517e-07
7.55959961517e-07
7.01824956871e-07
7.01824956871e-07
7.52039278589e-07
7.52039278589e-07
7.01824956871e-07
7.44795831911e-07
6.96805370283e-07
6.96805370283e-07
7.25983997858e-07
7.25983997858e-07
6.92535526446e-07
6.92535526446e-07
7.00607686557e-07
6.85856059156e-07
6.07321378966e-07
6.07321378966e-07
4.64553785892e-07
4.64553785892e-07
2.9795565079e-07
2.9795565079e-07
1.45986995227e-07
6.50864815898e-08
4.51064592362e-08
4.51064592362e-08
7.74139495336e-08
7.74139495336e-08
3.39839512832e-07
3.39839512832e-07