/*--------------------------------*- C++ -*----------------------------------*\
| =========                 |                                                 |
| \\      /  F ield         | OpenFOAM: The Open Source CFD Toolbox           |
|  \\    /   O peration     | Version:  2312                                  |
|   \\  /    A nd           | Website:  www.openfoam.com                      |
|    \\/     M anipulation  |                                                 |
\*---------------------------------------------------------------------------*/
FoamFile
{
    version     2.0;
    format      ascii;
    arch        "LSB;label=32;scalar=64";
    class       volScalarField;
    location    "0.95/water";
    object      T.gas;
}
// * * * * * * * * * * * * * * * * * * * * * * * * * * * * * * * * * * * * * //

dimensions      [0 0 0 1 0 0 0];

internalField   nonuniform List<scalar> 
1503
(
354.764101349
323.657100314
310.241373946
304.204428151
301.774341761
300.382769111
300.016478588
300.000089968
300.000000058
300
300
300
300
300
300
300
300
300
300
300
398.583407835
335.296081481
312.090745044
304.280372869
301.541499868
300.562256092
300.180080163
300.020008163
300.000348173
300.000000427
300
300
300
300
300
300
300
300
300
300
402.03234617
335.390731209
311.350348877
303.647868433
301.179740708
300.388895725
300.12833424
300.032499254
300.002495119
300.00002364
300.000000009
300
300
300
300
300
300
300
300
300
400.820614084
336.94732104
312.267451127
303.885623266
301.201059844
300.368541327
300.11260159
300.033466931
300.005855865
300.000217501
300.000000676
300
300
300
300
300
300
300
300
300
397.410927303
337.108912417
313.038702132
304.285913308
301.347097882
300.413482052
300.124600063
300.036555063
300.010276042
300.001002525
300.000013034
300.000000004
300
300
300
300
300
300
300
300
392.639653399
336.017591544
313.18425843
304.504201031
301.457860311
300.458513013
300.142131181
300.042906845
300.012544933
300.002564456
300.000096459
300.00000047
300
300
300
300
300
300
300
300
389.786255472
334.765307593
312.876806851
304.504895745
301.490457965
300.478881307
300.152934809
300.048118903
300.01461917
300.004382251
300.000474355
300.000005599
300.000000001
300
300
300
300
300
300
300
388.879013994
333.795030182
312.404470236
304.363007802
301.4657792
300.479780348
300.157490944
300.051541729
300.016169353
300.004977287
300.001277992
300.000047104
300.000000045
300
300
300
300
300
300
300
388.622467956
333.483532604
312.249048914
304.320399968
301.469194237
300.489084115
300.164478706
300.055710211
300.017937879
300.005487363
300.001759815
300.000238332
300.000001558
300
300
300
300
300
300
300
388.656963574
333.326650866
312.179593406
304.317112168
301.488242159
300.506354884
300.174810456
300.06115514
300.020180999
300.006072274
300.00186747
300.000584936
300.000022347
300.000000019
300
300
300
300
300
300
388.747789923
333.061194282
312.017399532
304.276394495
301.492269172
300.519597753
300.184641055
300.066861322
300.022782945
300.006746583
300.001944835
300.000643453
300.000094772
300.00000054
300
300
300
300
300
300
388.910110848
332.590048503
311.666278974
304.133974029
301.454968519
300.516617943
300.189087556
300.071000495
300.025210487
300.007522611
300.002029547
300.000613507
300.000187281
300.000004972
300.000000002
300
300
300
300
300
388.877001703
331.90133283
311.110280248
303.859021811
301.355102635
300.488675203
300.184397415
300.072141568
300.026888189
300.008262959
300.002120022
300.000575991
300.00019813
300.000016511
300.00000003
300
300
300
300
300
388.526653964
331.852394322
310.908971009
303.685154115
301.26319493
300.453441478
300.175096737
300.071541594
300.028148705
300.009059189
300.002251467
300.000543041
300.000161069
300.000029152
300.000000208
300
300
300
300
300
386.352091425
331.510822317
310.811899772
303.577207098
301.187590552
300.420603587
300.166020328
300.071304153
300.029837111
300.010188293
300.002503178
300.000531558
300.000128749
300.000036669
300.000001034
300
300
300
300
300
385.459758113
331.560161942
310.862001294
303.55005794
301.152716246
300.405308596
300.164436851
300.074408626
300.033109281
300.012070183
300.003024187
300.000581757
300.000115311
300.000028137
300.000002962
300.000000009
300
300
300
300
390.300455932
333.620099279
311.58401818
303.787108753
301.229790789
300.433547685
300.178672578
300.083370268
300.03872424
300.014978412
300.003953959
300.000744529
300.000131287
300.000026982
300.000006841
300.00000016
300
300
300
300
395.131019128
335.507654919
312.429329184
304.153890574
301.379158746
300.493080457
300.204659214
300.096612415
300.045956768
300.018533584
300.005203589
300.001020582
300.000175965
300.000033141
300.000007448
300.000000839
300.000000002
300
300
300
396.370556712
336.481083294
313.129150773
304.509836349
301.528241205
300.553679649
300.23153888
300.110235264
300.053319748
300.022154899
300.006516749
300.001354843
300.000241482
300.000043728
300.000009032
300.000002085
300.000000026
300
300
300
396.680206991
336.789739434
313.417871666
304.700407312
301.621282754
300.594511822
300.251271393
300.121289091
300.059758684
300.025295147
300.007688509
300.001653524
300.000307278
300.000055356
300.000010698
300.000002154
300.00000011
300
300
300
396.886739082
336.600630728
313.354484809
304.711458297
301.643410403
300.61045926
300.262222313
300.129101351
300.064878817
300.027753416
300.008651096
300.001916828
300.000359472
300.000064743
300.000011819
300.000002097
300.000000041
300
300
300
396.89718373
336.004933049
312.954676092
304.555275568
301.601450725
300.605415267
300.266401467
300.134348425
300.068190541
300.029499794
300.009367449
300.002124878
300.000400932
300.000071705
300.000012531
300.00000197
300
300
300
300
396.847095397
334.92009686
312.205409455
304.231265072
301.496792938
300.580796781
300.264455622
300.136176878
300.069862889
300.030647085
300.009897093
300.002275274
300.00042941
300.000076681
300.000013009
300.000001867
300
300
300
300
396.541521965
334.352446491
311.755313836
303.985578829
301.402129898
300.554672845
300.259863925
300.135237842
300.070164111
300.03134666
300.010423051
300.002405878
300.000451015
300.000080775
300.000013329
300.000001808
300
300
300
300
396.334782215
334.216953705
311.632244966
303.903042041
301.36316581
300.541615989
300.255351065
300.133858247
300.069993983
300.032000537
300.010972742
300.002568977
300.000495035
300.000088508
300.00001386
300.000001773
300
300
300
300
396.074014353
334.292451536
311.712498117
303.948246596
301.378464713
300.544486357
300.253737706
300.132518166
300.069702111
300.03248783
300.011608569
300.002870122
300.000547621
300.000091841
300.000013593
300.000001564
300
300
300
300
395.967545019
334.339790601
311.76780174
303.997395156
301.403530828
300.551856288
300.253969043
300.131456062
300.069340881
300.0330673
300.01242647
300.003262327
300.000591162
300.000090252
300.000012121
300.000001047
300
300
300
300
395.300483096
334.076934855
311.587044394
303.928841151
301.38286019
300.542511791
300.249063418
300.129427597
300.069352277
300.034416719
300.013808133
300.003689355
300.000629046
300.000085404
300.000009345
300.00000043
300
300
300
300
391.448138095
333.39782057
311.507442435
303.858736708
301.3168602
300.504258464
300.232927101
300.124838891
300.069689472
300.036331193
300.01545101
300.004263209
300.000698253
300.000085021
300.000007755
300.000000014
300
300
300
300
386.136314433
332.168746839
311.263460008
303.677353948
301.172218864
300.433722644
300.209827393
300.121153547
300.072144176
300.039805195
300.017842365
300.005093076
300.000803613
300.000089861
300.000007876
300
300
300
300
300
383.836439589
331.475331411
311.037035247
303.495085929
301.030924286
300.377024776
300.199241771
300.125252164
300.079222017
300.04607758
300.021770924
300.00648675
300.000999043
300.000108302
300.000010564
300
300
300
300
300
385.701532777
331.842646398
311.188819684
303.586463368
301.079467209
300.393028997
300.213854393
300.13994959
300.092041948
300.05597086
300.027900991
300.008961945
300.001467597
300.000165893
300.000018917
300.000000842
300
300
300
300
394.871672544
334.039426893
311.587400549
303.896960649
301.318235592
300.492625638
300.253791349
300.163720219
300.10956306
300.068883345
300.036216665
300.012809161
300.00240451
300.000309376
300.000039971
300.000003784
300
300
300
300
400.092756616
336.326364085
312.675678945
304.378329501
301.577302946
300.624120943
300.309868387
300.192822218
300.129130507
300.083105697
300.045833378
300.017794715
300.003886756
300.000582096
300.000083377
300.0000101
300
300
300
300
401.75551236
338.025557602
313.61941619
304.830187163
301.784612207
300.735682926
300.36449746
300.221544278
300.1477447
300.096574437
300.055305326
300.023218029
300.00574016
300.00098051
300.000152696
300.000020728
300.000001016
300
300
300
402.477599463
338.971624648
314.299211379
305.16093161
301.942165709
300.816870583
300.407925902
300.245705047
300.163374556
300.107695456
300.063044773
300.028014118
300.007653087
300.00142699
300.000237847
300.000033799
300.000002498
300
300
300
402.71151488
339.513752661
314.635165291
305.356127704
302.035019278
300.867318187
300.437846347
300.263684199
300.175234804
300.115909517
300.068401488
300.031327354
300.00922803
300.001834903
300.000319357
300.000047163
300.000004414
300
300
300
402.868269972
339.306154068
314.544372344
305.328077255
302.043903917
300.883627076
300.453352744
300.27510271
300.183274925
300.121080317
300.071367735
300.033090441
300.010166702
300.002144804
300.000381772
300.000058508
300.000006225
300
300
300
300
300
300
300
300
300
300
300
300
300
300
300
300
300
300
300
300
300
300
300
300
300
300
300
300
300
300
300
300
300
300
300
300
300
300
300
300
300
300
300
300
300
300
300
300
300
300
300
300
300
300
300
300
300
300
300
300
300
300
300
300
300
300
300
300
300
300
300
300
300
300
300
300
300
300
300
300
300
300
300
300
300
300
300
300
300
300
300
300
300
300
300
300
300
300
300
300
300
300
300
300
300
300
300
300
300
300
300
300
300
300
300
300
300
300
300
300
300
300
300
300
300
300
300
300
300
300
300
300
300
300
300
300
300
300
300
300
300
300
300
300
300
300
300
300
300
300
300
300
300
300
300
300
300
300
300
300
300
300
300
300
300
300
300
300
300
300
300
300
300
300
300
300
300
300
300
300
300
300
300
300
300
300
300
300
300
300
300
300
300
300
300
300
300
300
300
300
300
300
300
300
300
300
300
300
300
300
300
300
300
300
300
300
300
300
300
300
300
300
300
300
300
300
300
300
300
300
300
300
300
300
300
300
300
300
300
300
300
300
300
300
300
300
300
300
300
300
300
300
300
300
300
300
300
300
300
300
300
300
300
300
300
300
300
300
300
300
300
300
300
300
300
300
300
300
300
300
300
300
300
300
300
300
300
300
300
300
300
300
300
300
300
300
300
300
300
300
300
300
300
300
300
300
300
300
300
300
300
300
300
300
300
300
300
300
300
300
300
300
300
300
300
300
300
300
300
300
300
300
300
300
300
300
300
300
300
300
300
300
300
300
300
300
300
300
300
300
300
300
300
300
300
300
300
300
300
300
300
300
300
300
300
300
300
300
300
300
300
300
300
300
300
300
300
300
300
300
300
300
300
300
300
300
300
300
300
300
300
300
300
300
300
300
300
300
300
300
300
300
300
300
300
300
300
300
300
300
300
300
300
300
300
300
300
300
300
300
300
300
300
300
300
300
300
300
300
300
300
300
300
300
300
300
300
300
300
300
300
300
300
300
300
300
300
300
300
300
300
300
300
300
300
300
300
300
300
300
300
300
300
300
300
300
300
300
300
300
300
300
300
300
300
300
300
300
300
300
300
300
300
300
300
300
300
300
300
300
300
300
300
300
300
300
300
300
300
300
300
300
300
300
300
300
300
300
300
300
300
300
300
300
300
300
300
300
300
300
300
300
300
300
300
300
300
300
300
300
300
300
300
300
300
300
300
300
300
300
300
300
300
300
300
300
300
300
300
300
300
300
300
300
300
300
300
300
300
300
300
300
300
300
300
300
300
300
300
300
300
300
300
300
300
300
300
300
300
300
300
300
300
300
300
300
300
300
300
300
300
300
300
300
300
300
300
300
300
300
300
300
300
300
300
300
300
300
300
300
300
300
300
300
300
300
300
300
300
300
300
300
300
300
300
300
300
300
300
300
300
300
300
300
300
300
300
300
300
300
300
300
300
300
300
300
300
300
300
300
300
300
300
300
300
300
300
300
300
300
300
300
300
300
300
300
300
300
300
300
300
300
300
300
300
300
300
300
300
300
300
300
300
300
300
300
300
300
300
300
300
300
300
300
300
300
300
300
300
300
300
300
300
300
300
300
300
300
300
300
300
300
300
300
300
300
300
300
300
300
300
300
300
300
300
300
300
300
300
300
300
300
300
300
300
300
300
300
300
300
300
300
300
300
300
300
)
;

boundaryField
{
    emptyPatch
    {
        type            empty;
    }
    minY
    {
        type            fixedValue;
        value           uniform 300;
    }
    maxY
    {
        type            inletOutlet;
        inletValue      nonuniform List<scalar> 0();
        value           nonuniform List<scalar> 0();
    }
    maxX
    {
        type            fixedValue;
        value           uniform 300;
    }
    water_to_heater
    {
        type            copiedFixedValue;
        sourceFieldName T.liquid;
        value           nonuniform List<scalar> 
61
(
786.043703153
785.995212563
785.724272008
785.724933667
785.586791927
785.586565588
785.511467605
785.51222425
785.486195329
785.486824393
785.476769174
785.476493665
785.47080224
785.470909901
785.466012424
785.465806008
785.457170543
785.456989462
785.442100229
785.442323057
785.424005079
785.423917236
785.405182588
785.406441274
785.387603126
785.384167061
785.367742527
785.365133775
785.352515479
785.352475908
785.343236964
785.343580281
785.336707385
785.337033332
785.331571412
785.331239597
785.326930329
785.327202248
785.32492609
785.324644122
785.323783906
785.323648639
785.321977239
785.321981548
785.320816147
785.322197825
785.322610875
785.325968073
785.327159435
785.324763954
785.326060939
785.321254105
785.326847775
785.327067643
785.339866228
785.340315461
785.362334548
785.362488696
785.396940823
785.39688814
785.445204731
)
;
    }
    procBoundary2to3
    {
        type            processor;
        value           nonuniform List<scalar> 
41
(
402.761695053
339.149402679
314.437977299
305.270689746
302.02151001
300.883849196
300.459227462
300.281314245
300.187877489
300.123269484
300.072196156
300.033488337
300.010546361
300.002312171
300.000421701
300.000066291
300.000007501
300
300
300
300
300
300
300
300
300
300
300
300
300
300
300
300
300
300
300
300
300
300
300
300
)
;
    }
}


// ************************************************************************* //
