/*--------------------------------*- C++ -*----------------------------------*\
| =========                 |                                                 |
| \\      /  F ield         | OpenFOAM: The Open Source CFD Toolbox           |
|  \\    /   O peration     | Version:  2312                                  |
|   \\  /    A nd           | Website:  www.openfoam.com                      |
|    \\/     M anipulation  |                                                 |
\*---------------------------------------------------------------------------*/
FoamFile
{
    version     2.0;
    format      ascii;
    arch        "LSB;label=32;scalar=64";
    class       volScalarField;
    location    "0.6/water";
    object      alpha.gas;
}
// * * * * * * * * * * * * * * * * * * * * * * * * * * * * * * * * * * * * * //

dimensions      [0 0 0 0 0 0 0];

internalField   nonuniform List<scalar> 
1497
(
0.763625801671
0.713817232393
0.624021285272
0.508715301039
0.388345841818
0.279686644638
0.215338155704
0.205554588827
0.205598336536
0.205562049876
0.205653499154
0.205785237307
0.205705339538
0.797811679848
0.783845523217
0.780917000384
0.782745674545
0.783260389062
0.783152425449
0.783050089846
0.767278611616
0.722766472334
0.647401534946
0.547311334868
0.433882538533
0.320637908439
0.232166764986
0.205598336536
0.205518451678
0.205598336536
0.20553137424
0.205598336536
0.205973917964
0.797018064667
0.769421093254
0.766845326533
0.773855442106
0.781593604056
0.783059986366
0.781932068069
0.765826423298
0.722559142577
0.652211326263
0.5607654711
0.454582438273
0.342327241997
0.244940701135
0.206062564515
0.205598336536
0.205427894837
0.205598336536
0.205491185686
0.206819773054
0.791793422577
0.742216431625
0.735795293267
0.749720662984
0.768800057325
0.7750230155
0.772275503263
0.755840513117
0.71550215771
0.64922544312
0.560845206828
0.457033251629
0.345448857882
0.246798032064
0.206159943632
0.20548189491
0.205598336536
0.205343988954
0.205598336536
0.211759411541
0.76933444447
0.712326691373
0.696683492806
0.711174958987
0.735201429488
0.745890964916
0.742802431505
0.72736706056
0.69138474193
0.63177801917
0.549654182999
0.449161448203
0.338707392443
0.241774028541
0.205719374232
0.205598336536
0.205323656097
0.205598336536
0.205531444326
0.228152349946
0.744217107311
0.693173267636
0.66291520446
0.661704469583
0.676541802519
0.686504844434
0.684078868247
0.671124701395
0.640177769212
0.587289400466
0.511667235416
0.415671504196
0.309303446024
0.224302390844
0.205598336536
0.205365727738
0.205598336536
0.205285039042
0.219179615712
0.237684321767
0.720851089033
0.685900776513
0.636896329281
0.604994239628
0.598007956416
0.598258111305
0.594730302981
0.583144573564
0.556009987704
0.508116699965
0.437352589062
0.346858429718
0.25434927017
0.207168467495
0.205457796731
0.205598336536
0.205285039042
0.214998879094
0.236890711193
0.23771679711
0.703004239518
0.673755248962
0.609616957407
0.54574092269
0.50877689061
0.490096195297
0.478732357881
0.463376047525
0.436499751451
0.392126233643
0.328488190859
0.255995270817
0.20990166451
0.205488293856
0.205598336536
0.205992422599
0.21827878343
0.235892594752
0.237576005375
0.237628076824
0.67810140355
0.644569534785
0.576473350759
0.492251723748
0.426599137916
0.380042360763
0.349706486259
0.322457766575
0.294263416773
0.260935823979
0.226250388194
0.206777569466
0.205485355226
0.205598336536
0.211338998344
0.228902569815
0.237158495666
0.237253752569
0.235364242906
0.230317122689
0.632513065292
0.589168418957
0.535750797697
0.455248234307
0.373794337206
0.299454101483
0.244036544022
0.217228376436
0.208739644163
0.205746119507
0.205598336536
0.205393222839
0.205598336536
0.221555726422
0.245269343026
0.24851065191
0.239757708718
0.231747466435
0.22171179708
0.210985559021
0.570993289585
0.531251779527
0.506604281531
0.444742616872
0.358662062699
0.274701559353
0.214364936238
0.205598336536
0.204836549324
0.205598336536
0.204830425128
0.213872434045
0.243088579168
0.272134456248
0.274397534576
0.249375316422
0.228658365409
0.212758380863
0.200420835664
0.193120369664
0.532962819586
0.526668321786
0.512499935278
0.456224012207
0.368714342879
0.284187718121
0.226765408105
0.211878632048
0.212540709203
0.222143518717
0.249744978063
0.293384492585
0.323690443812
0.317347438135
0.280621354623
0.237634954372
0.206239545447
0.194404529871
0.191123675519
0.190785162337
0.555799418648
0.575861616722
0.56889023835
0.527441895481
0.449849068127
0.374905271258
0.328628393917
0.311292405809
0.313523464355
0.340172695299
0.383597046729
0.408834181527
0.391293927859
0.342513503674
0.281342772158
0.224225900277
0.192572742207
0.190791659558
0.190766949546
0.190824838287
0.646321253243
0.681524187174
0.670290413788
0.649348235379
0.61413739517
0.580790477867
0.559777484629
0.542261043774
0.52221150933
0.509376807508
0.501140251239
0.47686718899
0.426770910951
0.358061437623
0.280655008766
0.216411305226
0.190791659558
0.190698904767
0.190791659558
0.190519451034
0.744820581274
0.751343943968
0.728645499385
0.719914632736
0.717972534071
0.717519433519
0.714298628683
0.705128291516
0.667430763229
0.608571107135
0.552805199432
0.501606225144
0.439996096116
0.362696137231
0.277418220427
0.208013519731
0.1907022524
0.190791659558
0.190417314836
0.190791659558
0.789268349878
0.765158787
0.73708465501
0.730879729543
0.733979206413
0.737802003109
0.737932931976
0.733677969325
0.700548976137
0.63567547474
0.568245060854
0.508100489265
0.440752429949
0.358902303991
0.264980803294
0.195634103714
0.190791659558
0.190377921178
0.190791659558
0.190026986838
0.807016588073
0.769941030422
0.736651858692
0.726623245027
0.727713742998
0.730538211921
0.731503251158
0.72721815018
0.696346218644
0.633295791597
0.566399968453
0.50317670571
0.429101340801
0.33646081852
0.238231682757
0.190791659558
0.190469841455
0.190791659558
0.190022819004
0.190791659558
0.830346997224
0.777168145096
0.732489708348
0.708496691297
0.697764968963
0.695779814262
0.696311333869
0.690554458968
0.661481098582
0.603663205995
0.541122171917
0.47284902447
0.388806807461
0.288378942524
0.204320476501
0.190635762704
0.190791659558
0.190066905696
0.190791659558
0.190005183398
0.851059450447
0.783833740991
0.728983674913
0.68879269623
0.649080018162
0.626697913449
0.620480701446
0.611465802537
0.582794380041
0.532419112856
0.476745825382
0.40657419051
0.319100133233
0.22929050738
0.190775919936
0.190791659558
0.190258672364
0.190740544015
0.190016722839
0.226187676552
0.85237083734
0.791157632556
0.733017848329
0.688873835196
0.62167740217
0.549250122286
0.517339669147
0.50141275182
0.472230242318
0.427964341533
0.377985441048
0.312172608333
0.238255198039
0.193180314074
0.19079135421
0.190440932062
0.190740544015
0.190034740408
0.20116362177
0.297756009564
0.851059450447
0.801838789486
0.745043472346
0.696533564827
0.635811805117
0.522816381992
0.420318189908
0.379477608187
0.346700332435
0.303976991025
0.262441465624
0.219207212398
0.192774697188
0.19079135421
0.190501659102
0.190740544015
0.190140932156
0.190740544015
0.24147887814
0.334901159003
0.852358664191
0.810177564672
0.758491842351
0.710964183285
0.666848386999
0.544426868305
0.404635901006
0.291125599264
0.236113186419
0.205352249471
0.193819023169
0.190737166096
0.19079135421
0.19042239634
0.190740544015
0.19019919115
0.190740544015
0.190253528918
0.260393403886
0.342131437301
0.851059450447
0.813204186091
0.764956074961
0.723232735101
0.68878010793
0.588250519044
0.426015311644
0.289214209929
0.196570299428
0.19079135421
0.190474039174
0.19079135421
0.190165870366
0.190740544015
0.190020175956
0.190740544015
0.190045713577
0.190740544015
0.255439732758
0.340044837704
0.85193952662
0.81288487781
0.765346114585
0.72749492235
0.696173486554
0.620005356666
0.468058377708
0.308179920082
0.199737159477
0.190351579339
0.19079135421
0.189846826239
0.190740544015
0.189641336871
0.190740544015
0.189778507993
0.190740544015
0.190180016105
0.236874995342
0.331248790188
0.851059450447
0.810466810282
0.76301024218
0.727051392314
0.697193111654
0.630102371896
0.499413266953
0.339667343068
0.212888777998
0.19079135421
0.189872850583
0.190740544015
0.18933492858
0.190714832329
0.189333468758
0.190740544015
0.189642161134
0.190672137059
0.202920874087
0.311496570307
0.851449916473
0.804268205534
0.755558458901
0.723941772588
0.695915198687
0.630321452954
0.509961011631
0.361271178078
0.229172658494
0.19043107319
0.190740544015
0.189466319108
0.190714832329
0.189033036008
0.190714832329
0.189209717573
0.190672137059
0.189569289481
0.190672137059
0.28108276603
0.851059450447
0.793733347215
0.742760887585
0.716295973051
0.6890290374
0.624650625421
0.509126775518
0.366683584959
0.237490574772
0.190740544015
0.190090081856
0.190740544015
0.189211001021
0.190714832329
0.188996324477
0.190672137059
0.189152524925
0.190672137059
0.189512075003
0.252142660521
0.848073145488
0.777858699312
0.726647153607
0.7035306388
0.67291846642
0.606643716648
0.497588211726
0.36282942055
0.237596547308
0.190663245811
0.190740544015
0.18973304725
0.190740544015
0.189094133249
0.190672137059
0.188984463629
0.190672137059
0.188957899532
0.190672137059
0.239927745808
0.836969849202
0.754234802059
0.709588410585
0.68691445356
0.64756502806
0.574702037315
0.468957812444
0.345175017881
0.231004415605
0.190740544015
0.190288583686
0.190740544015
0.189449084289
0.190672137059
0.189060086032
0.190672137059
0.188887115251
0.190672137059
0.188730577438
0.244245890934
0.817063938985
0.722824373999
0.695632350727
0.666185532316
0.612479142613
0.528603231553
0.423822093067
0.312312973637
0.215889633139
0.190595513405
0.190740544015
0.189796229432
0.190740544015
0.189291432198
0.190672137059
0.189057727852
0.190672137059
0.188730577438
0.190672137059
0.270904758489
0.78440761331
0.701167112359
0.681158860573
0.64012097481
0.565230434331
0.466490793503
0.362746552491
0.268843273968
0.201785265911
0.190740544015
0.190245899712
0.198142115099
0.214322016756
0.222219396419
0.214639076763
0.190672137059
0.189601165359
0.190672137059
0.188594795434
0.32820696679
0.750705574694
0.696433061624
0.662370350815
0.603684621992
0.503994052969
0.389290646938
0.290337248026
0.226212839191
0.199008999486
0.196497293841
0.213777272081
0.255883791617
0.276382880324
0.26765550255
0.22829546425
0.190620139114
0.190672137059
0.188975020553
0.202110552147
0.389981273166
0.736611325661
0.694138697373
0.639648189549
0.555809009145
0.431274745821
0.308223939698
0.231603848649
0.205753728587
0.202459610532
0.21396371266
0.258721105923
0.289027071375
0.289344809567
0.268637148973
0.217815947398
0.190740544015
0.189683667354
0.190672137059
0.277198170211
0.417319791089
0.740033283417
0.693106787804
0.622065260568
0.511652306792
0.365973427434
0.251452447953
0.20936396073
0.202309217874
0.203328376006
0.217390890838
0.261150126595
0.286416655487
0.283007668307
0.249959742147
0.195076073995
0.190131866234
0.190740544015
0.208619348935
0.391395400599
0.417330354048
0.763089886761
0.695806214422
0.609477550432
0.478125221378
0.321005630681
0.226080607072
0.203799479634
0.200888760827
0.202032038986
0.212156389966
0.242400225181
0.26411922369
0.255334615195
0.21946641978
0.190425253875
0.190740544015
0.199134927975
0.339350359425
0.440313654602
0.416921528345
0.810877789651
0.701950111677
0.595634644621
0.445547476721
0.287345474562
0.21332679285
0.200638170404
0.199610175859
0.199827562602
0.201443081731
0.208004137136
0.217784763112
0.222554509938
0.215247325226
0.202526333545
0.225203764862
0.340207271645
0.472177609476
0.447941965184
0.398344464871
0.845231952657
0.705821291624
0.572057900546
0.40104409433
0.253193336726
0.203598806166
0.199019119915
0.199056500143
0.199151646132
0.199503786979
0.198989949792
0.199856222517
0.22577420093
0.272162958641
0.33025895668
0.421862149626
0.516969286119
0.504696115948
0.437942260672
0.385272793843
0.841387061913
0.697710102359
0.521427982776
0.330819719946
0.217027361991
0.198563872345
0.198429892849
0.198661995157
0.199056500143
0.198150026195
0.199503786979
0.234181005516
0.364930042497
0.485064637571
0.555326709719
0.589185602029
0.573749514398
0.504084260377
0.41891797053
0.379774334018
0.20712241537
0.21080657365
0.210224105968
0.211244816917
0.24129432208
0.326681067643
0.429021469745
0.501002441743
0.550246357847
0.558978282113
0.559004616437
0.561025418537
0.559626179272
0.562051997546
0.559629106961
0.213083531931
0.00472317639671
9.46603572077e-05
9.42502086508e-05
6.09892275001e-05
0.212210774309
0.215116890017
0.211132606326
0.211149234973
0.227457458934
0.297280719088
0.405209050219
0.491624067419
0.542998724771
0.557781546873
0.559081451561
0.559004616437
0.560276416796
0.559625755609
0.55115635967
0.0973784574724
0.00102051794342
0.000100345408018
0.000120881375553
6.11951484466e-05
0.219473402756
0.221033004753
0.213878491007
0.211375687857
0.225312632099
0.2809366568
0.376779495922
0.460323205397
0.511227632008
0.542805094616
0.557781546873
0.558500502458
0.559004616437
0.560536430104
0.425432701357
0.0395027522662
0.000356401426415
0.000145662209774
0.000182805158363
6.14010693933e-05
0.231033346282
0.22853865247
0.21732640547
0.214460247418
0.224323957839
0.263076360676
0.332363482424
0.397670719456
0.441704165429
0.478141372526
0.509822004801
0.518440776176
0.520521296536
0.533237675282
0.286940869664
0.0206722152065
0.000391759521285
0.000242303182677
0.000304846792718
6.40813950903e-05
0.237684321767
0.233292664169
0.221212240399
0.2165459924
0.22152901046
0.2404126351
0.274277373385
0.310626863523
0.339965256175
0.367314778304
0.395110208026
0.401214764975
0.399893303733
0.403131794348
0.210273621816
0.0200198439689
0.000854675587179
0.000560401241547
0.00061209919506
0.00010753133729
0.23771679711
0.233833251965
0.22333254908
0.216667561554
0.216164812376
0.218280057184
0.224578310463
0.235183991014
0.247783019384
0.261342078895
0.27422733486
0.273523203043
0.266790673323
0.267040347588
0.180148243013
0.0335137133008
0.00398021814268
0.00304134294612
0.0016275885741
0.000263185520168
0.237684321767
0.232588852019
0.222349318178
0.214635283366
0.208066547882
0.200771808897
0.198738473592
0.200230245246
0.203732533044
0.207375783519
0.207872857786
0.203325437012
0.198333709267
0.198537151794
0.193368278908
0.0916002079565
0.0294547960202
0.0299436148229
0.00511831101098
0.00089146240109
0.234490124214
0.226088405277
0.216147322299
0.206370477414
0.196342710093
0.191543200026
0.191484630175
0.191870620017
0.192213371081
0.19160716997
0.191043331984
0.190943535318
0.191043331984
0.214230661726
0.280036756587
0.303088964789
0.253696366276
0.19553582248
0.0231394512681
0.00252908267994
0.22162357409
0.211034439117
0.20070409526
0.192477449505
0.190904382094
0.190950009081
0.19080019243
0.190950009081
0.190503497774
0.190950009081
0.190556309369
0.249302294548
0.416091588006
0.542160747004
0.608745747721
0.653947546783
0.667452122645
0.518972460096
0.105241542221
0.00452267231246
0.200772900815
0.192921859164
0.190878826653
0.190736896002
0.190878826653
0.190642349737
0.190950009081
0.190335286755
0.190950009081
0.297992707457
0.59388611285
0.73756398587
0.777413372241
0.788482608396
0.787295224147
0.787579836922
0.787102056935
0.632426458679
0.20986559687
0.00640827555988
0.190863909523
0.190878826653
0.190630215638
0.190878826653
0.190377377481
0.190878826653
0.19018080554
0.230473491284
0.553006962648
0.769514837075
0.790055504945
0.787295224147
0.791613750112
0.787295224147
0.790422940353
0.787295224147
0.771620632193
0.62923219329
0.259826320436
0.00757679513505
0.190824838287
0.190625041779
0.190878826653
0.190190605636
0.190878826653
0.190088432784
0.292574590474
0.691885129879
0.787295224147
0.790840415776
0.787295224147
0.791604411905
0.787295224147
0.791058461009
0.787295224147
0.779834231088
0.72824350138
0.630030587572
0.273980272989
0.00759524617811
0.190576900655
0.190824838287
0.190189183607
0.190878826653
0.190075246465
0.292485588255
0.728330979957
0.787295224147
0.790239687183
0.787295224147
0.791085112375
0.787295224147
0.790532722603
0.787295224147
0.788055535773
0.751151243461
0.692932427013
0.612375379562
0.275452781196
0.00658714764823
0.190824838287
0.190138329047
0.190824838287
0.190055873398
0.244446913976
0.670026582866
0.787295224147
0.789401649325
0.787295224147
0.789999418207
0.787295224147
0.789816941682
0.787295224147
0.788557396712
0.776902630319
0.722385142919
0.665837458071
0.57722785937
0.254756249492
0.00492884550102
0.190114581541
0.190824838287
0.190041957069
0.213991580845
0.499651184209
0.766107882675
0.788619572236
0.787295224147
0.789099981692
0.787295224147
0.78926295145
0.787295224147
0.788351642097
0.787295224147
0.751126890517
0.693416204481
0.629626798665
0.532833440569
0.222236659311
0.00336125176333
0.190791659558
0.190029094002
0.221112219569
0.355905946088
0.586924809159
0.765937192084
0.787295224147
0.788163716315
0.787295224147
0.788365649021
0.787295224147
0.787840825183
0.787295224147
0.768941749276
0.72247793721
0.662555539398
0.588995126643
0.480126038978
0.181779735214
0.00213056412678
0.190010435677
0.243494403994
0.318294969209
0.377554502277
0.578457048305
0.751561614798
0.78757816557
0.787295224147
0.78765309293
0.787295224147
0.787647618752
0.785341903136
0.768517815412
0.735411550228
0.692009453164
0.629838997631
0.546037929724
0.418098575354
0.133582791342
0.00130338420473
0.2458002866
0.327655407784
0.323056432637
0.355871305846
0.543243323793
0.707750374164
0.767204642565
0.780683496458
0.784857197862
0.785985566923
0.780918859997
0.760849062733
0.731814118255
0.698936002449
0.658349515801
0.598897867037
0.50225067458
0.345439839334
0.080013444129
0.000962527104572
0.32190665265
0.331089007837
0.30755730091
0.318250937476
0.479099685821
0.632096432101
0.709780865402
0.744862534348
0.758392007834
0.761162615668
0.751104584952
0.721197094742
0.688604650052
0.656419941667
0.623041989563
0.570999828356
0.455784935366
0.26052099575
0.0303611140262
0.000961220159806
0.354015307914
0.331049622918
0.284474914131
0.28031833128
0.388126513811
0.529705186557
0.620321877816
0.675760613496
0.704629255651
0.712000754599
0.702441989593
0.669612122082
0.633415883488
0.604515048081
0.58685022327
0.54650688786
0.396588666856
0.156533061266
0.00493558803897
0.000957458483215
0.366761690886
0.334516798158
0.273254215097
0.250474525678
0.287044752944
0.40397604155
0.506820385926
0.581338048097
0.62833627082
0.643762921974
0.638010015717
0.600660495051
0.561709717517
0.543084679532
0.549313434109
0.523637702383
0.308995334274
0.061539222346
0.00109678726181
0.000958172536135
0.375751289009
0.346104978072
0.278222726366
0.232687760616
0.220170831295
0.269502219719
0.371989365608
0.464956646907
0.533108231548
0.558848026724
0.556296000398
0.514365889777
0.478307833241
0.474708685512
0.50946738752
0.499743826166
0.204911976069
0.0168551624611
0.000955827404811
0.000955094946768
0.384560322463
0.362746153765
0.296488206428
0.236159085863
0.201750719881
0.196362493989
0.238246212634
0.330883230562
0.421758025366
0.462338191666
0.462802130992
0.419405000128
0.385825387552
0.398833162151
0.46780492989
0.467823863428
0.137234429217
0.0052713189505
0.000951887949715
0.00095582800983
0.399443983004
0.379897862008
0.321325033176
0.254270354924
0.202614324236
0.193380616818
0.193482050313
0.216898846988
0.309052517996
0.368509170382
0.373738690847
0.330414587094
0.295479674082
0.313762043229
0.414832493849
0.437495249226
0.109704478864
0.00310245097936
0.000953697243813
0.000952633196764
0.409949223172
0.399605107688
0.341754353014
0.285768050912
0.209743228901
0.193482050313
0.192938933618
0.193482050313
0.227600267504
0.29840808186
0.307572726372
0.262398291011
0.21902251929
0.2252226081
0.342879032021
0.410927924774
0.10925974205
0.00315809290992
0.000951119184663
0.000954528329973
0.409698117568
0.410136584842
0.355188450641
0.312981971884
0.225060258498
0.192707437661
0.19334212185
0.192244293363
0.195486903553
0.27154561501
0.269124627317
0.214387852809
0.158997645331
0.145997444776
0.259582817122
0.382570325177
0.134806941506
0.00554574287713
0.000953444338817
0.000952416615837
0.409983383109
0.409717848516
0.364253063121
0.315954691571
0.228075916016
0.19334212185
0.19186005842
0.19334212185
0.198134406868
0.271611562983
0.241548341669
0.170374223352
0.112831107212
0.0873092808178
0.179136756911
0.34544087895
0.192293444373
0.0162515376021
0.000951063945346
0.000954530557971
0.40974979859
0.41005238636
0.366062506784
0.308176511289
0.224002921307
0.192280409042
0.19334212185
0.191746685756
0.248254188575
0.269508362366
0.203032421848
0.122773306053
0.074246415565
0.0471211641862
0.113404182087
0.30079621119
0.263015522666
0.0513182933742
0.00171253165242
0.000953803042602
0.409898040405
0.409704170001
0.361081784902
0.289414382969
0.219675007251
0.193482050313
0.191813434969
0.252981963901
0.284362468597
0.242017622104
0.145021246233
0.0751542583889
0.0411501259959
0.0207403385074
0.0659794026466
0.265495454287
0.306232807616
0.122121314789
0.00764618104991
0.000957228693692
0.409704170001
0.40978042763
0.34471711866
0.273968327447
0.227450312579
0.211102638508
0.27060081277
0.328249629167
0.286482734617
0.180652786263
0.0840510886533
0.0361232386063
0.0157906076686
0.00589795505113
0.046145282132
0.242852841972
0.306540250734
0.200922509818
0.0248877403732
0.000956378662845
0.409678822692
0.396504478823
0.324378529847
0.27624367402
0.269969493525
0.306666273334
0.370077446411
0.336764160626
0.233289022269
0.104772691726
0.0356644214548
0.0105785303395
0.00269643426919
0.00117648776962
0.0430656618204
0.235631495835
0.303632728392
0.239370632427
0.0443400597675
0.000959902582039
0.409535036575
0.376637564077
0.320640804978
0.31066881271
0.348097566154
0.39506961185
0.390848055402
0.297859665963
0.144590530585
0.042329133132
0.00810959695183
0.00121414854568
0.000481474871653
0.00059778356911
0.0410134277505
0.235433751809
0.313001026472
0.25503797244
0.0533352870173
0.000958928533133
0.409122040662
0.368234727606
0.34288093478
0.382599699018
0.418489531794
0.431467186459
0.375513621359
0.217958656059
0.0673461607213
0.00948472077756
0.000786708128853
0.000417474495047
0.00042054789815
0.000581808496904
0.0408511715886
0.236853626181
0.341912875486
0.27386661434
0.0542228980535
0.000962495461525
0.396794777095
0.371045253127
0.407236753608
0.448277855777
0.454476869129
0.437200546771
0.325914294467
0.13579150428
0.0221814555624
0.00110572229241
0.000416685260864
0.000417680847012
0.000416826948618
0.000632555408516
0.055390751177
0.242504945466
0.345089520414
0.30401073942
0.0509997508439
0.000961374304623
0.394897040124
0.406612188448
0.473283743983
0.476221782228
0.467662103076
0.428183898695
0.257086851841
0.0712447352697
0.00518933649812
0.000418612464929
0.000417680847012
0.00041497351548
0.000417923724208
0.00126685671072
0.0945821515758
0.258922211912
0.344175176412
0.297298181274
0.0599984611776
0.000965064432174
0.395067264985
0.470742313069
0.497733033323
0.483776247464
0.468915475123
0.392830781528
0.184164446825
0.0315158844433
0.00116144660196
0.000417680847012
0.000414458844337
0.000417680847012
0.000423146502552
0.00633509735368
0.141087382236
0.269762083599
0.319944907684
0.251663746271
0.0477168538429
0.00096379619779
0.411861221599
0.508839744193
0.501630053622
0.484155941852
0.462132408179
0.333693847505
0.120641812958
0.0125672108527
0.00049341108757
0.000415768077017
0.000417680847012
0.000413926758532
0.000437981348285
0.0113749373427
0.174049319704
0.285776719977
0.274911579155
0.188265916282
0.0202426155552
0.000967790963411
0.425184987151
0.515828134855
0.50267588529
0.482185999876
)
;

boundaryField
{
    emptyPatch
    {
        type            empty;
    }
    minY
    {
        type            fixedValue;
        value           nonuniform List<scalar> 0();
    }
    maxY
    {
        type            inletOutlet;
        phi             phi.gas;
        inletValue      nonuniform List<scalar> 0();
        value           nonuniform List<scalar> 0();
    }
    maxX
    {
        type            zeroGradient;
    }
    water_to_heater
    {
        type            zeroGradient;
    }
    procBoundary1to0
    {
        type            processor;
        value           nonuniform List<scalar> 
41
(
0.843918226922
0.641560061727
0.427089904388
0.246282090955
0.19902014369
0.198086762782
0.197704673326
0.198421398085
0.197660467283
0.199056500143
0.270329902221
0.462458273709
0.579822745609
0.611833762041
0.6131371139
0.613127663402
0.574171791926
0.491918651248
0.398370119631
0.374011071868
0.439993280008
0.271005163826
0.0740079783207
0.00483401892044
0.000418328896727
0.000417680847012
0.000414035838447
0.000417680847012
0.000438616331443
0.00651435976624
0.185847989391
0.34655086314
0.28859447573
0.168833397005
0.00875186874502
0.000966326671992
0.430312432985
0.518099450507
0.503909843722
0.439993280008
0.477168444053
)
;
    }
    procBoundary1to3
    {
        type            processor;
        value           nonuniform List<scalar> 
41
(
0.747647686975
0.67917884288
0.56561621139
0.439954513952
0.325590323351
0.237708703099
0.206882543307
0.205598336536
0.205587447357
0.20584176915
0.206304168974
0.205807345284
0.205572019567
0.797018064667
0.787201345425
0.783447348613
0.783379910326
0.783336820236
0.783260389062
0.781187769276
0.781187769276
0.205631588619
0.207122844773
0.21018412097
0.225165273286
0.281625803541
0.379777651707
0.452570983366
0.497557957878
0.547515414896
0.559004616437
0.561536564003
0.559625755609
0.562008917441
0.560529254426
0.561809441937
0.244398491193
0.0059201654277
0.000132277591662
0.000119376017352
6.07833065537e-05
)
;
    }
}


// ************************************************************************* //
