/*--------------------------------*- C++ -*----------------------------------*\
| =========                 |                                                 |
| \\      /  F ield         | OpenFOAM: The Open Source CFD Toolbox           |
|  \\    /   O peration     | Version:  2312                                  |
|   \\  /    A nd           | Website:  www.openfoam.com                      |
|    \\/     M anipulation  |                                                 |
\*---------------------------------------------------------------------------*/
FoamFile
{
    version     2.0;
    format      ascii;
    arch        "LSB;label=32;scalar=64";
    class       volScalarField;
    location    "0.735/water";
    object      alpha.gas;
}
// * * * * * * * * * * * * * * * * * * * * * * * * * * * * * * * * * * * * * //

dimensions      [0 0 0 0 0 0 0];

internalField   nonuniform List<scalar> 
1497
(
0.687906083705
0.643926918939
0.573061078404
0.474510479501
0.354620468601
0.249044339514
0.227632370549
0.227092459361
0.227632370549
0.226614702048
0.227632370549
0.236445366408
0.246629058279
0.747364999088
0.627470556312
0.656194194292
0.656732506559
0.649768758083
0.631607248349
0.614794007085
0.591749452153
0.550573228636
0.483615201536
0.388666294856
0.281798650594
0.228099015106
0.227302921234
0.227632370549
0.226538632412
0.227632370549
0.230327332234
0.26869864801
0.262651457704
0.675331833936
0.605487183858
0.627064854021
0.628453453457
0.606387117522
0.5539808685
0.508505383662
0.475184921437
0.434166627421
0.37232129917
0.290306464827
0.232040957487
0.227405460406
0.227632370549
0.226511419576
0.227632370549
0.226493059083
0.275191227601
0.303404685488
0.274730045219
0.622223824962
0.60504730737
0.617734357057
0.623837141182
0.594962020381
0.516778688141
0.431082659393
0.3704533984
0.320640946266
0.267650389023
0.231306534798
0.227424830721
0.227632370549
0.22675957116
0.227632370549
0.229099516835
0.290668391
0.354650899275
0.337549164214
0.286590048484
0.609027332206
0.606103716865
0.629570748463
0.633685995708
0.603525619829
0.523181231777
0.427314857786
0.346500032821
0.282800254149
0.235354571424
0.227427844884
0.227632370549
0.226769250569
0.227632370549
0.258880319276
0.359223482635
0.44181783348
0.434341945994
0.374652223224
0.312824872766
0.634966604481
0.655253260112
0.672177710065
0.670174221161
0.642290165425
0.570942332183
0.469670733584
0.374305362605
0.298468150203
0.245622148011
0.228922792589
0.227582301596
0.240391739521
0.308843801736
0.460672715121
0.569999966792
0.568160318049
0.507388499056
0.423339111906
0.350672129788
0.715152665812
0.73617167326
0.732681543047
0.724485792862
0.705301163314
0.663112774321
0.588397429057
0.488765440159
0.387562766899
0.310568120964
0.275574782178
0.284998247162
0.359116164287
0.517518147547
0.619038558924
0.630627850731
0.6172482916
0.555500903941
0.462108879675
0.369985066189
0.804356813268
0.787966495356
0.767542406131
0.760485511158
0.752944428432
0.737457956285
0.702724072194
0.63441511535
0.534429062782
0.43949679145
0.394562645088
0.419202350197
0.521505474538
0.622334555958
0.630627850731
0.631091452931
0.62305600694
0.564798671764
0.467345537287
0.369233624257
0.830945431346
0.793836315853
0.774467262383
0.771249373815
0.769902150044
0.764269686568
0.744603300268
0.694705773482
0.610321329249
0.524481912647
0.484945604344
0.505895816053
0.577217085073
0.630627850731
0.631091452931
0.630627850731
0.620668573618
0.558351296492
0.45737145051
0.354002813021
0.831975135189
0.789819083302
0.774364347036
0.772248839361
0.772053747487
0.767392484999
0.747204361664
0.696916206099
0.614558800612
0.533312283633
0.498348434061
0.516759972123
0.580485238741
0.630766842814
0.630627850731
0.630813487515
0.60572851126
0.527530780429
0.418774335133
0.311564559176
0.831426901306
0.776370194142
0.770253904358
0.769892158587
0.770579532967
0.764817429709
0.740661751707
0.685892159984
0.603521894633
0.525506802723
0.494066836322
0.513231132832
0.576943744116
0.627436866851
0.630647481738
0.619483109069
0.562791087707
0.462683928089
0.348954761982
0.250515189033
0.831770651955
0.755630030671
0.758303003519
0.759843911847
0.761324195709
0.750390402402
0.713220627986
0.647336873021
0.565214228996
0.49567897368
0.474357692377
0.496749080669
0.562768387187
0.612427997306
0.612565208121
0.575977599101
0.487445100927
0.373347628175
0.269412176256
0.209373802786
0.831165096015
0.739327096865
0.739151911758
0.738989513973
0.736957245098
0.713091648323
0.655424528189
0.577954997684
0.498758548572
0.442117222555
0.434935708393
0.464871765887
0.532858352621
0.572679462734
0.560375354043
0.49739717795
0.391400680998
0.28387903693
0.214899802993
0.204691021768
0.831990477007
0.723578666271
0.714489691374
0.707690004351
0.693692166474
0.6483185858
0.572002354085
0.489047772225
0.416190956655
0.376407458088
0.381641597984
0.42364493541
0.485039349478
0.503786355954
0.475931279971
0.397545620091
0.296927967266
0.225964863825
0.204691021768
0.204506029748
0.83062274334
0.687576150383
0.684684731986
0.667254924183
0.633020671202
0.564322082436
0.478420317434
0.395689626935
0.329125564322
0.309804788214
0.325746405494
0.375120695722
0.419695513945
0.416867496581
0.376109309746
0.300375793584
0.233947591459
0.209902803385
0.204600855444
0.204691021768
0.831478000744
0.632900230639
0.648010386856
0.618326459695
0.562896339188
0.477525332686
0.390568888471
0.310096118747
0.257618093943
0.255538683348
0.276844202998
0.320064531228
0.343392557194
0.329683261174
0.287352837843
0.237297454024
0.215099139363
0.209602491731
0.204691021768
0.204443843889
0.830203357893
0.578914274367
0.601320874577
0.562650116138
0.493250064472
0.401170650405
0.31602833279
0.249034514452
0.235745990349
0.235690615567
0.242394651619
0.267297961997
0.275106841497
0.26292113546
0.236223188328
0.218242622554
0.214552491142
0.210815967486
0.206025796908
0.205385256156
0.806541485111
0.529236289993
0.545788765
0.504009496986
0.428950103416
0.337021546464
0.259314486429
0.23566567582
0.235590642916
0.235285806613
0.235382645566
0.237351484067
0.240315278247
0.233658242496
0.222006806946
0.217229748407
0.215425966188
0.213341249788
0.212252615144
0.217247971831
0.729054834174
0.498056046394
0.503696678557
0.459248305169
0.376651595263
0.288014783745
0.236032397337
0.235590642916
0.235285806613
0.235382645566
0.234993374775
0.235156284131
0.235029445071
0.228500546246
0.220505749931
0.217585832758
0.216876504432
0.217507954471
0.224809047111
0.243402816965
0.632504849264
0.495740466677
0.4954739891
0.449259578009
0.354179676743
0.270483720692
0.235854187631
0.235285806613
0.235590642916
0.234969781676
0.235382645566
0.235702320933
0.237299961291
0.227853096186
0.220038140913
0.217663236248
0.218024970156
0.224866674054
0.246521838534
0.277136150339
0.582079726408
0.511959283689
0.518428986105
0.462435730396
0.361773958552
0.278458786084
0.240974368474
0.235854187631
0.235224983852
0.237974784699
0.242791564769
0.247984814756
0.241085782362
0.227518006017
0.218949661024
0.216606104144
0.218798527415
0.236097779008
0.273209157799
0.304944760512
0.613468599965
0.61361295196
0.599027337865
0.53405222847
0.436872931342
0.353769703211
0.301730786199
0.277402777994
0.270690451076
0.272910999356
0.275493956878
0.267581579063
0.247335644567
0.227928110228
0.216739959524
0.213790017955
0.218744005168
0.247282968955
0.293288395374
0.320571410286
0.718508054359
0.743342967845
0.713525735633
0.667163535487
0.609570505106
0.548605298452
0.483319628099
0.423389091909
0.382912671237
0.358542593969
0.335462865026
0.302260966889
0.26423559779
0.231875014513
0.214208908655
0.20979680298
0.21663786
0.249935158642
0.30235600252
0.325215387494
0.816706653401
0.802301360512
0.780812275302
0.764886223948
0.74815216131
0.723268663389
0.679861856884
0.616594874339
0.542230950223
0.475109160996
0.415980218193
0.357083771775
0.297571582727
0.243212439173
0.212152855694
0.206102558137
0.212032276582
0.248219568964
0.307407476124
0.325196779142
0.827937260904
0.807647489485
0.798653217807
0.79447366342
0.791024547999
0.781390085386
0.755866455752
0.709188307049
0.637639207167
0.555366065673
0.476824156589
0.401828670433
0.326653874163
0.254356469084
0.209650957308
0.204691080504
0.207078117804
0.243874669865
0.312178093978
0.325202111987
0.829215680089
0.805692991856
0.800378666256
0.797449687496
0.795974230796
0.788653709053
0.765908984164
0.722930857428
0.657030075946
0.576667549256
0.494351195789
0.412971330119
0.331550403554
0.254660165281
0.206153044249
0.204649516983
0.204720740073
0.241196466168
0.318088014771
0.325196779142
0.828005492774
0.797365086969
0.796307480944
0.793872918531
0.793433438005
0.786553859279
0.763514682425
0.719937139135
0.654380145157
0.574921481657
0.492100067146
0.408234178084
0.322502021846
0.242655935662
0.204666827593
0.204691080504
0.204564180399
0.243598789215
0.325020342286
0.325365148774
0.828859715301
0.782644941776
0.779396133
0.77720996212
0.778937978428
0.772297677929
0.747016811124
0.699623884043
0.63272622609
0.554252095376
0.469610690186
0.379205450334
0.285841299669
0.214803722143
0.204691080504
0.204321146194
0.204691080504
0.26114649326
0.329289809417
0.325616348632
0.827959529837
0.762172216923
0.745031672072
0.741036333873
0.744010154128
0.735805228592
0.705236634128
0.651652691867
0.582141213258
0.50286795793
0.413983305102
0.315885729107
0.228972738994
0.204691080504
0.2042888986
0.204691080504
0.208710252163
0.302739877893
0.331202271327
0.318154928361
0.827422237863
0.719852020558
0.693190229566
0.684682104041
0.686232171802
0.673618912427
0.63744843938
0.580741791968
0.510182073378
0.428211629285
0.333372259648
0.239718758216
0.204691080504
0.204403810658
0.204691080504
0.203975070411
0.247929273374
0.340557479101
0.332070136771
0.304214470926
0.824849196322
0.637243018442
0.626475396138
0.610704616113
0.60662813676
0.588163418722
0.550206460391
0.49562075419
0.426570063135
0.341847721666
0.249378852611
0.205124179118
0.204455797975
0.204691080504
0.203975070411
0.222781926654
0.334238910062
0.34077487325
0.323186472167
0.289626557796
0.819639112159
0.534939285064
0.551991315014
0.526298288918
0.511029843722
0.486178416346
0.449384887295
0.398917471643
0.333071358236
0.253473839574
0.205908312893
0.204449898134
0.204691080504
0.203998038128
0.216581831927
0.31772937287
0.34955879617
0.341064054513
0.30077169878
0.278267032472
0.773202751994
0.488085686482
0.489537994259
0.453588839779
0.419158967911
0.382559564331
0.34334815921
0.295576349269
0.240187908098
0.205653161245
0.204424786445
0.204691080504
0.203952242115
0.214446787789
0.306766948966
0.349837181293
0.349707556554
0.318464631768
0.275910122603
0.269882581909
0.672425818817
0.486560584013
0.474078710319
0.431529375044
0.373836987942
0.317559261641
0.270543751028
0.229543496938
0.204691080504
0.204278562092
0.204691080504
0.203940550434
0.217039688475
0.296540225031
0.355947101865
0.350418625663
0.326637457252
0.277792631521
0.258017203319
0.261804154493
0.594686495262
0.503035450835
0.488523530168
0.441256698472
0.376298652814
0.314618843579
0.265128086609
0.227114203406
0.205157749426
0.204691080504
0.209776037656
0.231655244892
0.298813961289
0.369779834433
0.358094934576
0.32718708081
0.274818641498
0.245576244973
0.24568724917
0.252412741628
0.61400886985
0.592256424873
0.564275973421
0.504127762617
0.425474437327
0.354674191118
0.303148115117
0.271651543111
0.26016690461
0.270638755883
0.300199775441
0.348505585074
0.394203105952
0.394990792305
0.355364031488
0.298483407948
0.25085627762
0.232864516071
0.235039592975
0.241182405817
0.718197410091
0.747390857977
0.709533684283
0.643783716511
0.568339917123
0.503674651103
0.461522238215
0.44661074023
0.454324782929
0.477433336828
0.508721537878
0.521740457565
0.492326584765
0.4330185076
0.371068207818
0.306636365647
0.255470789056
0.231396685339
0.22535049162
0.22913204983
0.855189870252
0.861432475886
0.821771497103
0.769243464581
0.722049272797
0.688996468014
0.670887783832
0.667485652174
0.674236576106
0.681695839936
0.682445667279
0.6579574498
0.600686073688
0.522494942225
0.443923419901
0.363224894925
0.288634933902
0.238156270334
0.219189129593
0.218120966826
0.230298157387
0.225809748524
0.255192868694
0.339214403282
0.400977974961
0.404610214715
0.405773142935
0.404610214715
0.40565104897
0.404610214715
0.404854504016
0.385098020829
0.320067986784
0.353887818931
0.577911558703
0.683013927024
0.626262430857
0.482105446114
0.238398495993
0.00520859151776
0.231375827217
0.218250769853
0.228908011022
0.274777082433
0.343629319741
0.385318238528
0.404610214715
0.405186899874
0.404610214715
0.404954267519
0.404030169745
0.372704743933
0.351077606812
0.488288224091
0.681522725693
0.683042177203
0.59690523296
0.433295848135
0.202709704009
0.00362482183826
0.233253200118
0.21816757036
0.215594777362
0.228653186966
0.265899008969
0.313282872649
0.355359696234
0.380006047816
0.403113649378
0.404610214715
0.396322180532
0.358630099697
0.396037954121
0.590773123224
0.68166032831
0.658266542363
0.564297112142
0.38312953767
0.157135771953
0.00198353118779
0.243681763255
0.221830372042
0.210380330942
0.209439710292
0.216811068715
0.236341654976
0.265172667193
0.299403035404
0.346651053273
0.383877312709
0.374359569965
0.352335365916
0.436806532529
0.63082818462
0.663323528538
0.602056465563
0.517865468016
0.324790834193
0.108639581729
0.000859042827159
0.267712940246
0.231968912556
0.21011264787
0.204940182919
0.205007671461
0.206349683758
0.210720925574
0.223598997653
0.25889004563
0.311501009575
0.316521510556
0.327326186723
0.460810316612
0.646194785076
0.616092555915
0.522753615372
0.438044536521
0.247218032555
0.0609650903063
0.000264220890008
0.29031844878
0.238999712885
0.209074049602
0.204679031546
0.204691021768
0.20463690194
0.204691021768
0.204670944482
0.210533425824
0.227410048654
0.234634468087
0.276249973995
0.472875235684
0.661741849134
0.570722377458
0.432905497818
0.334798998886
0.16440309483
0.0274847003113
8.79318746632e-05
0.294246532447
0.23783822937
0.206804364619
0.204691021768
0.204572648499
0.204691021768
0.204483336327
0.204691021768
0.204568642774
0.204691021768
0.204393461738
0.255260861473
0.510531366242
0.683031259576
0.554856938973
0.385514045554
0.261320502117
0.108413770596
0.0131927927775
7.56989730393e-05
0.289276331026
0.229237331956
0.204732626851
0.204596857821
0.204691021768
0.204359042596
0.204691021768
0.204287915006
0.204691021768
0.204155922933
0.204691021768
0.310089788829
0.622392983361
0.686756391177
0.562983251249
0.390160898595
0.227034860348
0.0788190760376
0.00803504847585
7.57205641285e-05
0.267860934523
0.212169389942
0.204622534123
0.204691021768
0.204300700014
0.204691021768
0.204057088419
0.204691021768
0.20385000211
0.204691021768
0.253867237004
0.547070145327
0.686756391177
0.689294451878
0.587299504015
0.394301990577
0.194208204145
0.0569071662452
0.00568254415922
7.56989730393e-05
0.229801424131
0.204669056332
0.204691021768
0.204312567413
0.204691021768
0.203930375363
0.204691021768
0.203572177709
0.204691021768
0.261355040469
0.557870844397
0.686701485651
0.690403740482
0.686756391177
0.609177706829
0.377276498268
0.155285736774
0.0386193227756
0.0055488289979
0.000163468352042
0.205748246394
0.204691021768
0.204355175212
0.204691021768
0.203894339012
0.204691021768
0.203560751011
0.204691021768
0.296230846325
0.604587654083
0.686756391177
0.690405647968
0.686756391177
0.689222413246
0.609906506758
0.33194470805
0.119482710442
0.0269491063633
0.00902794221754
0.000816971309907
0.204691021768
0.204390634312
0.204691021768
0.203916788363
0.204691021768
0.203560751011
0.204691021768
0.345143659238
0.647200773537
0.686756391177
0.690630260901
0.686756391177
0.690738459746
0.686756391177
0.577665638562
0.274523226663
0.0923520665133
0.0192042275752
0.0167005962064
0.00287668242578
0.204433071081
0.204691021768
0.203978649574
0.204691021768
0.20368327718
0.205624215906
0.37811383157
0.669705032583
0.686756391177
0.690239686711
0.686756391177
0.69075650661
0.686756391177
0.687598166464
0.494085963875
0.211792049899
0.0669263369802
0.0122922596369
0.0278946422968
0.0073066128241
0.204691021768
0.204090293992
0.204691021768
0.203733749915
0.218283733851
0.397768203059
0.657069110301
0.686756391177
0.689347136659
0.686756391177
0.689774194993
0.686756391177
0.688093815003
0.660805040939
0.381425358117
0.144720981849
0.0398172523098
0.00542452219353
0.0450901647219
0.0135075486968
0.204251775955
0.204691021768
0.20389445178
0.229871527895
0.386374420899
0.609198884658
0.686756391177
0.688060573207
0.686756391177
0.688879693447
0.686756391177
0.687757618937
0.674854778623
0.549099173486
0.257793700769
0.0808314833309
0.016154235289
0.00128243713347
0.0719801495165
0.0185034767044
0.204691021768
0.204213964066
0.235944767212
0.357362218415
0.521286307968
0.629407439666
0.686529387869
0.686756391177
0.687525627966
0.686756391177
0.677928547122
0.654837788705
0.587066820397
0.370330851434
0.135598437161
0.0299543649188
0.0030783270481
0.000322565933327
0.10684852551
0.0208846568846
0.2093258037
0.234458691673
0.322570696584
0.442103079212
0.524162217327
0.601480870928
0.646854890847
0.658862373862
0.655796407513
0.635733956424
0.594522247155
0.534051799617
0.413630664782
0.189460602758
0.0446275644585
0.00482955325464
0.000211412345446
0.00841898967744
0.14389769784
0.0238252225023
0.235535602291
0.286953903555
0.375468276143
0.442051057611
0.497707305783
0.535749847959
0.557509459717
0.563736677484
0.543362492254
0.495175601661
0.427036285464
0.341115568836
0.207900947598
0.0566405381561
0.0057384603376
0.000195858608159
7.02527605026e-05
0.0276819097082
0.217990520293
0.0321131329001
0.274338239594
0.323844223341
0.374730541298
0.422482941728
0.450887927273
0.464655577497
0.466947064721
0.441838304087
0.380674516281
0.306122378628
0.227834909248
0.144566452523
0.0542170273279
0.00562310422487
0.000172802574018
4.73890457185e-05
5.51869935959e-05
0.0592155423779
0.293439675652
0.0383298541279
0.303837111323
0.32629143984
0.361169638315
0.388390529307
0.405884686296
0.416372537024
0.415656309162
0.372372583864
0.252737216734
0.139229957325
0.0718846138199
0.0271919461494
0.00415935125205
0.000131300403087
4.72734485979e-05
4.73893253383e-05
0.000188642662687
0.0923207013541
0.324493881037
0.0349958440115
0.31680364228
0.32233204603
0.339907078216
0.355259810232
0.370057651856
0.385811275803
0.391025407857
0.364183558519
0.23213399356
0.0659576722261
0.0108526282269
0.00136019306113
9.47435391769e-05
4.72760225315e-05
4.73810307352e-05
4.71168542308e-05
0.000297797707037
0.10669567066
0.351145512699
0.0201345663278
0.319588039784
0.316588156217
0.321560893654
0.330895750359
0.343423877135
0.361283484247
0.372595632541
0.361419489648
0.243064837306
0.0636711219592
0.0044648308948
0.000150879838557
4.73252268099e-05
4.73628413671e-05
4.70099292151e-05
4.73810307352e-05
0.000164524745292
0.161744317723
0.383163754887
0.00432623237601
0.320467550694
0.311520730635
0.309399579705
0.315018333849
0.324766959158
0.33948837674
0.352977068839
0.351272950812
0.259020693462
0.0712448975361
0.00489950667274
0.000185368730254
5.13822080112e-05
4.70541815123e-05
4.73628413671e-05
4.70051831125e-05
0.00389675148446
0.365347053066
0.383272150281
0.000284637120859
0.32078250323
0.306861549552
0.301015090588
0.304866330872
0.312168331594
0.321241736659
0.329742000005
0.328615363568
0.262460137435
0.0909507796024
0.00783924599433
0.000527591613789
0.000152401396803
8.10063230788e-05
7.31891631092e-05
0.000139908390936
0.08582534308
0.446671822822
0.327114514727
0.000183219571377
0.320279218251
0.301721227738
0.294471032668
0.298017494428
0.302641974336
0.305042117916
0.303293075313
0.293564268704
0.251233967887
0.12119267432
0.0194743533924
0.00234897144706
0.000768827420849
0.000291503207204
0.000226965734908
0.0115279835683
0.365764942247
0.446772447464
0.219493879436
0.000182956128329
0.317278757252
0.295577710761
0.289568490106
0.292259201859
0.293197566191
0.287548450081
0.271773574229
0.249064252288
0.217417947729
0.138632773696
0.0477387099046
0.00972989843198
0.00268360918525
0.000785403253872
0.00235753506947
0.225680854833
0.448845705963
0.433392125873
0.13226157302
0.000183081524575
0.310692490752
0.289360964277
0.285698008596
0.285837260189
0.280814651169
0.264139562642
0.233008610912
0.19885650063
0.172850413703
0.134796448353
0.0688157348068
0.0222106990203
0.0048777226283
0.00380928449611
0.124397506298
0.449014063693
0.448108609871
0.340461583142
0.0627276899692
0.000182818606946
0.301535607578
0.284519153829
0.281476462717
0.276658424226
0.26247462662
0.230691134324
0.186308508203
0.149090699009
0.131159912169
0.112885054498
0.0664976346042
0.026236281294
0.0127352987988
0.0765034147181
0.440144289228
0.448108609871
0.448541197431
0.255294096986
0.0238492552181
0.00018299345848
0.292400917235
0.280684889537
0.275260008088
0.262611398918
0.234231259287
0.185125870535
0.13530179915
0.106914989253
0.0961611953385
0.0821619517566
0.0605123341654
0.0429766677154
0.109013821909
0.400546528049
0.448108609871
0.448845705963
0.425001159097
0.201670612473
0.0110447053504
0.000182834776444
0.285371464514
0.276348125667
0.265279299152
0.240225354129
0.19247454439
0.130194232468
0.0895621863403
0.0787120348241
0.0741679570309
0.0741109192234
0.101015458446
0.240613027624
0.406384743981
0.448095708263
0.448691756173
0.448108609871
0.387369131746
0.168827544623
0.00750409159159
0.000182991653193
0.280014936042
0.269926653019
0.249012615696
0.204840902692
0.136657525283
0.0805981900152
0.0680846705051
0.0665759365984
0.0666506407427
0.155251309913
0.455228660791
0.539729037882
0.442118806252
0.4055745974
0.424475243406
0.436964671497
0.359058374896
0.1422638852
0.00485225899254
0.00018287894127
0.274495442787
0.259496361633
0.222139326733
0.155405106959
0.0816102198376
0.0658862029586
0.0660210090887
0.06604341962
0.127308683981
0.531072261073
0.64152959841
0.620273896797
0.428102467692
0.369570491966
0.382004613662
0.404694349302
0.317378911953
0.105206441991
0.00224856292691
0.000183026859414
0.267444097923
0.242416517218
0.180844619527
0.0992052526023
0.0655772450576
0.065735751842
0.0656522599272
0.0684831479166
0.360654389671
0.643275074147
0.643891620659
0.63610329453
0.44743148836
0.369687915027
0.369570491966
0.377048463275
0.263598464149
0.0604927407477
0.00068118346986
0.000182940313752
0.257988751611
0.216062358196
0.132802982357
0.0661037949173
0.0654215436767
0.0653453041081
0.065735751842
0.0983670947985
0.474384014552
0.639905796546
0.644508157753
0.64849413479
0.526081060485
0.398164764092
0.396629517736
0.380374220708
0.23382380464
0.0351005937147
0.000292144751899
0.000183092285421
0.245659548357
0.182367096767
0.0937320939104
0.0652242573343
0.0649479137576
0.0654215436767
0.0650552135677
0.132812087186
0.4708230453
0.581258856252
0.631870896541
0.668287046829
0.621582880392
0.535873934271
0.485926404044
0.414040278862
0.251589227081
0.0382980520335
0.000354968445079
0.000183033229381
0.231385067203
0.152648534503
0.0705495095853
0.0647762234279
0.0652242573343
0.0645915092877
0.0654215436767
0.16123614975
0.463147111554
0.544257790046
0.648493099043
0.668981158309
0.670910954126
0.644277360445
0.583642255261
0.469429224962
0.300453043407
0.0673642428866
0.0010324148244
0.000183186939361
0.217565941666
0.13625909583
0.0650068795894
0.0648723838132
0.0644757835542
0.0652242573343
0.0644586506953
0.2315658229
0.472441181596
0.547584508102
0.668981158309
0.673035086643
0.669375243398
0.670809272827
0.632514097438
0.492941424816
0.325398572381
0.113225447616
0.00372322995714
0.000183149408617
0.206478192307
0.133741815494
0.0648723838132
0.0644757835542
)
;

boundaryField
{
    emptyPatch
    {
        type            empty;
    }
    minY
    {
        type            fixedValue;
        value           nonuniform List<scalar> 0();
    }
    maxY
    {
        type            inletOutlet;
        phi             phi.gas;
        inletValue      nonuniform List<scalar> 0();
        value           nonuniform List<scalar> 0();
    }
    water_to_cooler
    {
        type            zeroGradient;
    }
    water_to_heater
    {
        type            zeroGradient;
    }
    procBoundary1to0
    {
        type            processor;
        value           nonuniform List<scalar> 
41
(
0.902909593041
0.892492437624
0.861927994594
0.819321300266
0.791203231278
0.776750178823
0.769025897315
0.763993492708
0.758435019994
0.748999199424
0.732780420003
0.703668384271
0.659314799427
0.599615362539
0.526700226779
0.441015953184
0.34697975776
0.261246030199
0.217568931088
0.208612740049
0.0648723838132
0.0641551448356
0.0931158071107
0.365614688201
0.455818550671
0.53215185187
0.670716442015
0.669375243398
0.673336781023
0.669715194507
0.653725068026
0.485806191449
0.309323904652
0.138826847518
0.0090868318029
0.000183308061837
0.19673847125
0.134890286057
0.0646138993171
0.0648723838132
0.0646734825399
)
;
    }
    procBoundary1to3
    {
        type            processor;
        value           nonuniform List<scalar> 
41
(
0.75622225044
0.712341152417
0.639349755657
0.538446278271
0.414296488429
0.287976355047
0.228027626054
0.227632370549
0.226982738658
0.227632370549
0.226759383224
0.227632370549
0.230361882703
0.803157805623
0.659731325227
0.688893074172
0.69570888582
0.706769355038
0.711434864647
0.707628797121
0.707628797121
0.227632370549
0.235013469702
0.297052994078
0.393665245569
0.404610214715
0.406230971467
0.404610214715
0.405829402047
0.404610214715
0.404913520835
0.398070095301
0.37413296433
0.309946310592
0.222329052004
0.307750976896
0.588617965303
0.626046704844
0.516320863186
0.234152858418
0.00367810953231
)
;
    }
}


// ************************************************************************* //
