/*--------------------------------*- C++ -*----------------------------------*\
| =========                 |                                                 |
| \\      /  F ield         | OpenFOAM: The Open Source CFD Toolbox           |
|  \\    /   O peration     | Version:  2312                                  |
|   \\  /    A nd           | Website:  www.openfoam.com                      |
|    \\/     M anipulation  |                                                 |
\*---------------------------------------------------------------------------*/
FoamFile
{
    version     2.0;
    format      ascii;
    arch        "LSB;label=32;scalar=64";
    class       volScalarField;
    location    "0.425/water";
    object      rhom;
}
// * * * * * * * * * * * * * * * * * * * * * * * * * * * * * * * * * * * * * //

dimensions      [1 -3 0 0 0 0 0];

internalField   nonuniform List<scalar> 
1503
(
913.910995867
948.132707669
985.255661643
996.244145927
999.281558836
999.888458993
999.986148078
999.998990295
999.999978717
999.999999808
999.999999999
1000
1000
1000
1000
1000
1000
1000
1000
1000
693.689962739
870.143737409
945.965769763
981.473373211
994.101851241
998.425038318
999.64825037
999.938586971
999.993812368
999.999856867
999.999999485
999.999999999
1000
1000
1000
1000
1000
1000
1000
1000
693.687495141
828.422613129
915.402383836
963.818365437
986.013449437
995.331434693
998.70218437
999.710425892
999.956536172
999.997592081
999.999987278
999.999999982
1000
1000
1000
1000
1000
1000
1000
1000
693.687915062
789.770055099
877.416571325
937.464305419
971.828183804
989.141451799
996.538059318
999.111285522
999.833896482
999.984203941
999.999753149
999.999999704
1000
1000
1000
1000
1000
1000
1000
1000
701.618156592
766.938512251
838.303954128
901.294327964
947.473427982
976.472916952
991.469709845
997.579887367
999.492229142
999.936593458
999.997634831
999.999995806
999.999999997
1000
1000
1000
1000
1000
1000
1000
715.00469829
758.470506357
808.597021231
862.950885031
913.638562306
953.920172169
980.198332409
993.539647052
998.498828011
999.782860279
999.986920467
999.99991562
999.999999946
1000
1000
1000
1000
1000
1000
1000
718.211455935
754.138593262
790.365259887
831.71187498
877.781346104
922.98530079
959.965457515
984.061557054
995.58681168
999.252097583
999.939878142
999.998870307
999.999999093
999.999999999
1000
1000
1000
1000
1000
1000
718.42983632
751.319553213
780.534366445
810.696512792
847.99665296
890.583292367
932.520710263
966.701630804
988.230697478
997.44551459
999.726221574
999.990265045
999.999972899
999.999999988
1000
1000
1000
1000
1000
1000
717.385235127
750.052982191
771.996901196
794.853834034
824.825636918
862.296156094
903.31912626
942.360426347
973.655436247
992.195666986
998.808545625
999.931228973
999.999175456
999.999999591
1000
1000
1000
1000
1000
1000
718.429930749
750.080309393
765.361642056
782.877867726
807.648509224
840.421656243
877.248546062
915.255091491
951.544899157
980.448400933
995.629218527
999.597709942
999.989623406
999.999977169
999.999999993
1000
1000
1000
1000
1000
717.129027367
751.611078056
764.146781035
778.374428909
798.441319895
825.848193767
856.966656075
890.258827034
925.722525812
961.276997426
987.668319833
998.232232542
999.919931893
999.999333018
999.999999753
1000
1000
1000
1000
1000
718.4859856
755.559072816
766.87321649
780.295511652
797.780813669
818.643815853
842.883700831
870.206378308
901.984730543
938.719377324
973.950306151
994.449797716
999.590960049
999.993195931
999.999990377
999.999999997
1000
1000
1000
1000
717.256778027
762.43043638
775.669904751
787.917191222
800.939180927
816.149457535
833.792104317
856.085936598
884.472200255
919.056215956
957.445807896
987.417841436
998.597211791
999.961471996
999.999854587
999.999999937
1000
1000
1000
1000
718.485976888
770.58681441
785.385843799
796.724536438
805.014416721
814.725059664
827.768060348
847.051259958
872.91614087
904.25656784
941.604786464
977.829943084
996.495390997
999.850587862
999.998855199
999.999999311
1000
1000
1000
1000
718.426463584
775.842782266
787.876947951
797.186084275
804.199454203
811.650345134
822.711440217
840.623536903
864.034994692
891.471957766
926.021997225
965.920607557
992.690607355
999.517358332
999.992974354
999.999993722
1000
1000
1000
1000
725.755724328
775.707897485
784.274422449
790.910965775
796.895321012
804.612284134
816.703446311
833.909936662
853.99951535
876.630156222
907.271512306
949.056845565
985.209057136
998.433960446
999.955076661
999.999808883
999.999999999
1000
1000
1000
729.317568223
765.04587233
769.063590394
772.761582325
780.645176775
793.191720713
808.456274899
824.574497653
840.561305107
858.18512928
883.319359264
923.038048904
968.856936119
994.528560172
999.692672534
999.996143176
999.999999534
1000
1000
1000
715.407896389
738.454318226
744.437045971
749.445305972
761.684268192
779.981042561
798.508419186
814.556173918
828.468803509
841.628874015
859.386073063
889.595007829
937.836349461
982.06766519
998.148523654
999.950258124
999.999840993
999.999999996
1000
1000
689.463696422
715.083877603
721.154228903
729.581924506
746.037283035
768.561882609
790.585725593
809.821325859
826.551911332
838.604256095
844.687503325
858.794133154
896.780845127
954.547008145
991.831402537
999.5705729
999.995264301
999.999999674
1000
1000
688.750157599
708.332934236
708.232534685
716.658770489
735.613131072
761.656288233
787.35567263
809.682367894
828.120841433
840.963620198
843.380725443
843.432495905
863.395260639
917.705452657
976.185105209
997.757005013
999.949690081
999.999869336
999.99999999
1000
686.77983935
707.48225802
707.588029953
712.288366991
730.818273784
759.212861264
787.300118688
811.806718069
833.932531333
847.516384963
845.24913168
843.470633347
849.077251406
888.96121275
954.030742603
992.920098498
999.719909004
999.997974968
999.999999601
1000
688.540460959
708.696174543
707.663961594
712.286888666
730.757101233
759.801892654
790.043747474
819.214322556
844.789499758
851.752927764
850.382721306
844.449538424
845.644359941
874.681945205
935.520857433
985.633580366
999.104045311
999.988829949
999.999987039
999.999999997
686.512022868
712.505910688
709.390536409
714.979906232
734.136965751
764.83726818
799.058259879
832.662747868
851.716863258
851.728177648
851.852308605
849.335120354
846.788329925
868.467119625
923.915916106
978.677960057
998.154894322
999.966547328
999.999910277
999.999999957
688.540503098
718.323415161
714.002565345
721.917689975
743.65886408
777.068513827
814.474799022
847.410334222
851.728125174
852.021553771
851.728173167
851.925369665
849.523312975
864.669904122
916.068146155
972.97697413
997.049377906
999.929591653
999.999717462
999.999999776
686.577590744
724.903529254
720.958343542
732.36656283
758.514112048
794.96247102
832.563025462
851.728053263
851.993222781
851.728133144
852.292533874
851.728157008
847.810811988
857.723809802
907.638939922
966.868316141
995.573404833
999.8654231
999.999300961
999.99999927
688.749764898
731.017151224
729.598227788
744.878925467
775.168128898
813.08112907
847.188050037
851.895044749
851.728079129
852.408693998
851.728125839
852.359580938
832.063750348
842.857262568
893.460213834
956.54131154
992.754719811
999.713302503
999.998132875
999.999997672
687.120886725
736.90489793
740.990124631
759.527060361
790.627561025
826.291367854
851.703023581
851.728006015
852.320945833
851.728083306
852.510139085
842.06728358
818.96594466
822.390513541
868.375076004
937.115276962
986.594574398
999.276164719
999.993798699
999.99999094
688.890819833
744.607814213
756.03223088
776.330370354
804.3591904
834.479714263
851.727889011
852.118485142
851.728028959
852.519834887
851.457141293
819.230946032
819.117855672
818.892311499
843.461985957
907.944705663
974.41989782
998.057238632
999.975962389
999.999959731
688.506973123
756.081226049
769.885101227
789.596795468
812.778875454
837.359086555
851.880360722
851.727957347
852.519780966
851.728026976
826.036012598
819.117817901
818.667825965
819.117820633
822.758398623
876.485364116
955.739868092
995.108680718
999.901904104
999.999748236
696.809390467
770.269382244
776.817569115
791.755912584
813.165115622
836.120152136
850.82226743
851.578260628
847.18021227
832.339808099
819.1177696
818.776698042
819.117782478
818.828816509
819.11778262
854.590301198
932.993494173
989.01279161
999.621890567
999.998183215
721.677213601
775.133807881
775.356854936
787.055162138
807.957257107
827.660243511
836.948029461
833.975559067
828.64477293
825.598984083
823.644763084
821.485043723
818.94135536
819.11774125
819.047406652
841.760407267
909.370610184
978.17032678
998.726518386
999.988452861
740.293509044
763.537029901
757.552002962
766.713976831
791.450519686
810.531661777
816.861441712
818.204672865
825.003445156
832.00247084
838.104097429
834.73749383
825.153086919
820.100412192
819.36488126
834.599426254
886.131271237
960.880271859
996.226487112
999.935776537
728.662402841
720.247980721
715.72679894
727.240658696
762.255149343
789.513585197
803.338054029
814.362093402
829.114470634
845.336274189
853.919631465
851.263032261
840.068164816
829.142168727
825.073880409
830.907948419
863.666664118
936.028160516
990.045213075
999.683706308
687.670814459
673.511022428
675.839185837
683.945291775
718.436089159
759.183561133
788.554783893
809.878242858
830.556437192
851.581580842
862.330204032
861.893951958
855.137906698
844.673949354
834.830959085
828.198624229
843.851034129
904.996767611
976.938765741
998.679239259
653.298751412
657.011391154
658.055889242
659.178471364
675.66363305
715.677432313
761.461467198
796.394550044
825.707684091
850.771409557
865.17301002
865.719045565
863.485175228
857.775351185
844.863034916
826.73002674
825.570337785
872.41866363
954.961439865
995.506740362
651.156096919
653.513598884
652.937675296
653.15802891
656.127514373
680.188123228
727.239444281
773.655199753
813.004492848
846.280724585
865.383912653
866.164426733
866.201354562
864.518266652
853.630732937
826.722667124
812.520044479
846.475441098
927.964106501
988.242911509
652.435080813
652.786437555
652.87275892
652.721021264
653.172794603
666.010537893
704.816952758
754.434693295
800.649395237
840.817284571
865.037316647
866.251787117
866.2901579
866.21589167
859.725583919
828.622229083
812.516643452
832.063491552
903.93942616
976.722116855
649.649473098
652.635935168
652.473505182
652.880036942
652.805681675
662.82079163
697.639417218
746.676101642
795.65317753
839.050995569
864.946669141
866.335995181
866.395246639
866.312567777
864.301225955
833.747865996
812.521670748
826.097309283
887.868730377
963.810137902
1000
1000
1000
1000
1000
1000
1000
1000
1000
1000
1000
1000
1000
1000
1000
1000
1000
1000
1000
1000
1000
1000
1000
1000
1000
1000
1000
1000
1000
1000
1000
1000
1000
1000
1000
1000
1000
1000
1000
1000
1000
1000
1000
1000
1000
1000
1000
1000
1000
1000
1000
1000
1000
1000
1000
1000
1000
1000
1000
1000
1000
1000
1000
1000
1000
1000
1000
1000
1000
1000
1000
1000
1000
1000
1000
1000
1000
1000
1000
1000
1000
1000
1000
1000
1000
1000
1000
1000
1000
1000
1000
1000
1000
1000
1000
1000
1000
1000
1000
1000
1000
1000
1000
1000
1000
1000
1000
1000
1000
1000
1000
1000
1000
1000
1000
1000
1000
1000
1000
1000
1000
1000
1000
1000
1000
1000
1000
1000
1000
1000
1000
1000
1000
1000
1000
1000
1000
1000
1000
1000
1000
1000
1000
1000
1000
1000
1000
1000
1000
1000
1000
1000
1000
1000
1000
1000
1000
1000
1000
1000
1000
1000
1000
1000
1000
1000
1000
1000
1000
1000
1000
1000
1000
1000
1000
1000
1000
1000
1000
1000
1000
1000
1000
1000
1000
1000
1000
1000
1000
1000
1000
1000
1000
1000
1000
1000
1000
1000
1000
1000
1000
1000
1000
1000
1000
1000
1000
1000
1000
1000
1000
1000
1000
1000
1000
1000
1000
1000
1000
1000
1000
1000
1000
1000
1000
1000
1000
1000
1000
1000
1000
1000
1000
1000
1000
1000
1000
1000
1000
1000
1000
1000
1000
1000
1000
1000
1000
1000
1000
1000
1000
1000
1000
1000
1000
1000
1000
1000
1000
1000
1000
1000
1000
1000
1000
1000
1000
1000
1000
1000
1000
1000
1000
1000
1000
1000
1000
1000
1000
1000
1000
1000
1000
1000
1000
1000
1000
1000
1000
1000
1000
1000
1000
1000
1000
1000
1000
1000
1000
1000
1000
1000
1000
1000
1000
1000
1000
1000
1000
1000
1000
1000
1000
1000
1000
1000
1000
1000
1000
1000
1000
1000
1000
1000
1000
1000
1000
1000
1000
1000
1000
1000
1000
1000
1000
1000
1000
1000
1000
1000
1000
1000
1000
1000
1000
1000
1000
1000
1000
1000
1000
1000
1000
1000
1000
1000
1000
1000
1000
1000
1000
1000
1000
1000
1000
1000
1000
1000
1000
1000
1000
1000
1000
1000
1000
1000
1000
1000
1000
1000
1000
1000
1000
1000
1000
1000
1000
1000
1000
1000
1000
1000
1000
1000
1000
1000
1000
1000
1000
1000
1000
1000
1000
1000
1000
1000
1000
1000
1000
1000
1000
1000
1000
1000
1000
1000
1000
1000
1000
1000
1000
1000
1000
1000
1000
1000
1000
1000
1000
1000
1000
1000
1000
1000
1000
1000
1000
1000
1000
1000
1000
1000
1000
1000
1000
1000
1000
1000
1000
1000
1000
1000
1000
1000
1000
1000
1000
1000
1000
1000
1000
1000
1000
1000
1000
1000
1000
1000
1000
1000
1000
1000
1000
1000
1000
1000
1000
1000
1000
1000
1000
1000
1000
1000
1000
1000
1000
1000
1000
1000
1000
1000
1000
1000
1000
1000
1000
1000
1000
1000
1000
1000
1000
1000
1000
1000
1000
1000
1000
1000
1000
1000
1000
1000
1000
1000
1000
1000
1000
1000
1000
1000
1000
1000
1000
1000
1000
1000
1000
1000
1000
1000
1000
1000
1000
1000
1000
1000
1000
1000
999.999999999
1000
1000
1000
1000
1000
1000
1000
1000
1000
1000
1000
1000
1000
1000
1000
1000
1000
1000
1000
999.999999988
1000
1000
1000
1000
1000
1000
1000
1000
1000
1000
1000
1000
1000
1000
1000
1000
1000
1000
1000
999.999999955
1000
1000
1000
1000
1000
1000
1000
1000
1000
1000
1000
1000
1000
1000
1000
1000
1000
1000
1000
999.999998834
1000
1000
1000
1000
1000
1000
1000
1000
1000
1000
1000
1000
1000
1000
1000
1000
1000
1000
1000
999.999953877
1000
1000
1000
1000
1000
1000
1000
1000
1000
1000
1000
1000
1000
1000
1000
1000
1000
1000
1000
999.999113924
1000
1000
1000
1000
1000
1000
1000
1000
1000
1000
1000
1000
1000
1000
1000
1000
1000
1000
1000
999.99006254
1000
1000
1000
1000
1000
1000
1000
1000
1000
1000
1000
1000
1000
1000
1000
1000
1000
1000
1000
999.925192997
999.999997679
1000
1000
1000
1000
1000
1000
1000
1000
1000
1000
1000
1000
1000
1000
1000
1000
1000
1000
999.601991899
999.999463247
1000
1000
1000
1000
1000
1000
1000
1000
1000
1000
1000
1000
1000
1000
1000
1000
1000
1000
998.579859982
999.992176868
1000
1000
1000
1000
1000
1000
1000
1000
1000
1000
1000
1000
1000
1000
1000
1000
1000
1000
996.449772829
999.953314248
1000
)
;

boundaryField
{
    emptyPatch
    {
        type            empty;
    }
    minY
    {
        type            calculated;
        value           uniform 1000;
    }
    maxY
    {
        type            calculated;
        value           nonuniform List<scalar> 0();
    }
    maxX
    {
        type            calculated;
        value           nonuniform List<scalar> 
37
(
1000
1000
1000
1000
1000
1000
1000
1000
1000
1000
1000
1000
1000
1000
1000
1000
1000
1000
1000
1000
1000
1000
1000
1000
1000
1000
1000
1000
1000
1000
1000
1000
1000
1000
1000
1000
1000
)
;
    }
    water_to_heater
    {
        type            calculated;
        value           nonuniform List<scalar> 
61
(
913.852242134
693.522521957
693.522570458
693.523066497
693.523083221
693.522540742
693.522544034
701.454299119
714.844416327
718.051060695
718.051054592
718.26892775
718.268922385
717.223581528
717.22357679
718.268884797
716.967366648
718.32519624
718.32519341
717.095351465
717.095349052
718.325162021
718.325159485
718.265306653
725.597015461
729.159989951
729.159987157
715.24518804
715.245184891
689.291635909
689.29163235
688.579276803
686.608400778
688.370137217
688.370133227
686.340647036
686.340642963
688.370106697
688.370102309
686.406023578
688.579186955
686.949323275
686.949318974
688.720006774
688.72000256
688.335805474
688.335801065
696.640271662
721.516484116
740.13956462
740.139560347
728.502767639
728.502763279
687.496902484
687.496897793
653.116771528
650.976807697
652.257952555
652.257947315
649.471810237
649.471804072
)
;
    }
    procBoundary2to3
    {
        type            processor;
        value           nonuniform List<scalar> 
41
(
652.137968664
652.35888498
652.556914977
652.47505385
652.895645295
662.891629302
697.739726826
746.57440524
796.207394148
840.66050427
865.475953828
866.432572491
866.468221368
866.460916322
866.262597293
839.902209748
812.518855237
824.039800242
878.299530882
952.139342306
1000
1000
1000
1000
1000
1000
1000
1000
1000
1000
1000
1000
1000
1000
1000
1000
1000
993.227792792
999.835434826
1000
999.99999169
)
;
    }
}


// ************************************************************************* //
