/*--------------------------------*- C++ -*----------------------------------*\
| =========                 |                                                 |
| \\      /  F ield         | OpenFOAM: The Open Source CFD Toolbox           |
|  \\    /   O peration     | Version:  2312                                  |
|   \\  /    A nd           | Website:  www.openfoam.com                      |
|    \\/     M anipulation  |                                                 |
\*---------------------------------------------------------------------------*/
FoamFile
{
    version     2.0;
    format      ascii;
    arch        "LSB;label=32;scalar=64";
    class       volScalarField;
    location    "0.305/water";
    object      p_rgh;
}
// * * * * * * * * * * * * * * * * * * * * * * * * * * * * * * * * * * * * * //

dimensions      [1 -1 -2 0 0 0 0];

internalField   nonuniform List<scalar> 
1496
(
100508.023077
100862.648552
100958.669062
101000.884548
101045.2916
101112.191768
101197.502596
101285.490571
101351.678936
101372.623688
101371.503431
101370.63992
101370.72826
101369.045664
101369.101602
101366.663077
101363.136764
101348.627811
101328.20251
101315.741564
100510.187777
101099.134403
101144.371786
101198.734092
101249.177862
101311.56786
101360.067142
101379.273411
101379.271904
101379.027495
101378.049282
101378.767608
101376.823274
101377.370413
101369.872706
101349.251909
101341.804485
101338.946845
101331.235224
101322.655828
100511.71445
101266.835555
101302.596227
101353.982228
101380.345476
101387.179845
101386.676656
101385.880514
101387.074882
101385.273079
101386.656126
101384.034551
101385.227992
101366.185357
101331.054707
101333.435925
101345.111917
101345.618404
101339.723835
101331.108997
100524.572175
101294.262054
101346.425135
101394.614249
101395.84733
101395.971846
101394.365609
101396.269913
101393.165957
101395.735871
101391.557099
101393.146548
101360.187699
101307.13752
101318.79146
101342.628468
101356.047948
101356.044383
101351.207474
101345.61359
100608.692085
101253.134985
101332.656687
101388.396323
101405.717273
101403.390854
101405.160987
101400.65982
101403.406413
101397.62775
101391.19184
101326.092679
101273.529572
101289.976563
101329.780462
101358.518062
101369.41715
101369.13551
101365.419603
101362.851544
100695.524906
101036.028955
101173.277837
101271.565934
101352.260886
101387.126788
101396.226621
101392.261371
101366.563674
101316.196285
101240.095146
101201.637438
101231.291396
101292.92167
101345.012201
101372.972382
101381.691387
101382.14987
101379.251189
101377.777378
100643.104115
100695.032966
100803.199871
100943.243368
101087.43353
101182.506225
101215.775141
101201.978466
101151.144751
101093.913194
101078.988549
101125.363797
101206.784401
101290.451224
101354.165726
101384.858447
101393.242246
101393.721932
101390.437268
101388.579149
100504.812382
100449.932034
100506.762905
100603.71036
100712.154187
100802.237224
100849.946205
100867.714365
100884.67263
100925.893116
100993.71301
101079.18415
101177.401783
101279.997314
101360.533358
101397.204781
101404.896905
101404.440542
101399.911956
101396.656736
100355.039145
100358.851199
100409.57035
100454.250635
100499.647423
100543.408423
100584.903084
100637.077949
100721.205756
100832.204317
100943.279279
101047.602474
101155.690685
101272.659204
101368.91926
101410.89526
101416.914487
101415.395892
101409.602186
101404.676166
100301.034714
100352.4462
100394.194887
100422.440463
100444.699367
100467.385167
100499.1873
100553.258325
100644.749472
100771.789671
100905.050328
101028.504603
101150.68128
101277.679388
101381.864575
101425.514333
101429.345349
101426.99726
101420.294161
101413.946636
100301.752166
100353.03424
100392.439772
100417.1562
100433.133391
100449.817359
100477.043691
100527.021176
100612.367095
100736.429685
100879.209964
101019.226201
101155.788549
101291.182085
101400.731919
101440.432986
101442.062919
101439.021534
101431.825916
101424.939756
100302.175272
100355.213844
100395.304106
100418.177758
100431.046439
100445.097757
100470.460222
100518.997337
100601.988439
100722.697506
100867.74237
101018.271097
101166.719466
101313.192403
101421.31988
101454.636446
101454.859359
101451.223389
101443.79257
101436.99991
100303.997257
100361.24868
100404.118708
100423.089475
100433.320539
100446.036242
100471.089796
100520.275255
100604.020945
100724.266033
100869.337818
101024.576377
101183.117448
101335.522901
101439.496564
101468.118172
101467.678805
101463.571431
101456.11513
101449.576579
100304.716415
100370.656458
100418.404543
100434.141525
100440.263336
100451.335749
100476.814126
100527.867029
100613.669837
100734.079559
100879.222916
101038.216208
101204.22967
101358.253812
101457.330018
101481.569137
101480.627711
101476.105091
101468.886124
101462.449738
100306.400854
100381.143808
100434.809207
100450.036287
100455.217305
100466.240226
100494.261562
100550.416393
100640.514832
100760.736124
100904.861282
101066.391075
101235.26682
101387.648045
101477.995777
101495.313253
101493.636038
101488.583317
101481.818228
101474.29474
100307.581642
100392.859965
100454.868772
100471.814453
100479.657118
100494.56945
100529.162009
100593.717343
100689.127855
100809.82836
100953.231114
101115.230285
101284.186921
101429.1661
101501.149001
101508.870084
101506.3401
101500.692668
101493.62983
101483.546359
100308.957838
100409.427
100484.368023
100505.437001
100517.397958
100539.105222
100583.981793
100658.899973
100759.860492
100882.969033
101027.846114
101190.7797
101355.892966
101480.302219
101521.056431
101521.466436
101518.384537
101511.911438
101503.329693
101486.562056
100310.250726
100442.778355
100531.710098
100557.946688
100573.390393
100603.432562
100660.840612
100746.563117
100854.456788
100982.725255
101131.527327
101294.569454
101444.292316
101524.102652
101534.394354
101532.911477
101528.983124
101521.337722
101507.725805
101475.963576
100335.993366
100502.564498
100601.618381
100629.143525
100648.392924
100689.266277
100760.642356
100858.140571
100975.2108
101110.782046
101263.396502
101416.847265
101521.480294
101545.721689
101544.978899
101543.068256
101537.945514
101525.225252
101498.50084
101449.126245
100411.873242
100583.678725
100686.430014
100714.24602
100741.913191
100797.430132
100884.36968
100995.075294
101122.823076
101265.30895
101412.133496
101522.478807
101556.208805
101556.357895
101555.005865
101551.728397
101540.977636
101514.17408
101472.109949
101418.575103
100572.583413
100661.332021
100761.810212
100809.846282
100855.938528
100929.523531
101032.782048
101156.773201
101293.814307
101432.18413
101534.576208
101567.531736
101567.961532
101566.189108
101563.659975
101555.011779
101527.854851
101483.877751
101446.115273
101399.988988
100814.58751
100755.572869
100832.592725
100915.617151
100991.463378
101084.73145
101202.176699
101335.510049
101467.045833
101556.208841
101579.857625
101579.468761
101577.952477
101575.042611
101568.27383
101542.637123
101493.574633
101458.003149
101438.998805
101393.554559
100891.21751
100888.926449
100931.178292
101037.26038
101144.348379
101254.746901
101378.581164
101501.21986
101577.498866
101591.301846
101590.068034
101588.7481
101587.170754
101581.852623
101560.368181
101507.465467
101466.446766
101456.321402
101442.614119
101393.997782
100858.027717
100959.980664
101078.989478
101204.054641
101318.437084
101428.303749
101531.713637
101593.352641
101601.162255
101600.180657
101598.79484
101597.469834
101595.48033
101580.800312
101529.552262
101476.975889
101467.490616
101463.398559
101447.696468
101399.604765
100633.056644
101105.182604
101306.641966
101434.39138
101511.03461
101573.465512
101607.382096
101609.966078
101609.292936
101607.862285
101607.415609
101605.169985
101600.957996
101559.48261
101494.269531
101478.046703
101476.11128
101471.267765
101454.068903
101410.72732
100610.67181
101318.919299
101553.97866
101614.277922
101617.926984
101619.441569
101618.389211
101617.490199
101616.163446
101616.575195
101613.730024
101613.064026
101591.59936
101518.256944
101492.650884
101489.17976
101488.793863
101479.821432
101462.684709
101430.990298
100614.889308
101522.159499
101627.678374
101628.731567
101629.773319
101626.982112
101628.197418
101624.832202
101625.433383
101621.939616
101622.761724
101616.288221
101542.930194
101502.163275
101502.832994
101509.048043
101503.59844
101489.581973
101477.333142
101455.763538
100626.23
101595.078787
101636.649356
101640.831866
101636.860823
101638.973314
101633.841489
101636.452281
101630.441482
101631.92293
101625.455242
101570.761414
101488.356987
101503.243983
101523.58154
101531.909576
101518.720557
101503.420696
101496.690867
101477.902345
100709.480188
101557.295506
101647.323962
101646.467294
101648.080903
101641.880863
101643.924289
101636.492936
101638.342459
101624.045841
101550.62295
101468.912645
101468.715135
101510.126721
101543.864934
101551.250738
101537.033689
101521.845571
101514.904131
101494.604532
100823.358852
101309.405949
101484.827352
101565.725506
101597.767159
101609.820611
101603.491671
101582.353
101527.224138
101442.109203
101377.988491
101387.700426
101447.509195
101504.230987
101546.633529
101565.087313
101560.32239
101543.001447
101529.862928
101507.333541
100785.710066
100914.136675
101036.050672
101155.416312
101243.141236
101281.4124
101281.323197
101235.89347
101173.590535
101148.518027
101194.567063
101285.792512
101383.540682
101467.066355
101531.581488
101570.326507
101581.408909
101567.837448
101545.57229
101519.526956
100716.474513
100656.641432
100664.440181
100699.411159
100743.479624
100772.942922
100783.121489
100784.592008
100812.538779
100895.35767
101013.879402
101137.061886
101255.880193
101376.216356
101489.040428
101564.090324
101596.330784
101597.519215
101568.565806
101535.741739
100627.576927
100569.159285
100540.07044
100516.35804
100506.944528
100510.274528
100517.568827
100545.622555
100611.704692
100729.905243
100871.978295
101006.323644
101135.064496
101271.678862
101418.876662
101546.747056
101609.212991
101625.753469
101602.578631
101561.630742
100560.529878
100535.274671
100508.715864
100474.136992
100456.690947
100454.911154
100456.605683
100472.954966
100525.155107
100637.84077
100790.813065
100939.662893
101078.344909
101218.284613
101368.421483
101520.993718
101619.284122
101650.352153
101641.445278
101600.401714
100523.826062
100522.214594
100501.053672
100464.247355
100449.717042
100449.821457
100449.744736
100452.602538
100491.387384
100593.666819
100749.556386
100910.869343
101060.222168
101206.608858
101359.394593
101513.945507
101629.78783
101673.272642
101675.943892
101646.102393
100524.143828
100525.712733
100504.481021
100465.78866
100452.100502
100452.012683
100452.124757
100452.03024
100483.133201
100580.881502
100734.959431
100902.443181
101060.92332
101213.050669
101369.45481
101525.120232
101645.78091
101691.664098
101697.38772
101682.128777
100526.922997
100533.035637
100511.997009
100470.656371
100454.342792
100454.366536
100454.367226
100454.454094
100484.435187
100583.171768
100737.28716
100907.919559
101076.146588
101243.564373
101413.412141
101571.30534
101677.768761
101704.316725
101704.755461
101703.790255
101297.304903
101207.258199
101144.216132
101143.266763
101207.391957
101333.919934
101391.16256
101391.978475
101389.152593
101167.496339
100641.751655
100525.048402
100526.758791
100520.830262
101547.78905
101608.340059
101314.146159
101313.851218
101325.051462
101340.420719
101308.345716
101170.509514
101149.131629
101149.291723
101197.725376
101331.529388
101399.377922
101399.62762
101396.872574
101177.297067
100628.265499
100527.409884
100524.724505
100526.929135
101551.497986
101619.221675
101320.996084
101329.207635
101354.195658
101359.96138
101295.089022
101156.104843
101155.417285
101154.025231
101204.699286
101350.763125
101407.347444
101406.252644
101403.309604
100995.18241
100568.368524
100528.008192
100527.680632
100522.18338
101503.81576
101628.679599
101333.280549
101353.782185
101375.022213
101366.539796
101220.251742
101161.400848
101158.896917
101159.21982
101221.137463
101387.956053
101414.114076
101412.373507
101171.240316
100633.306153
100535.535648
100529.844284
100528.894248
100528.60924
101402.242507
101640.827184
101353.244781
101378.548458
101381.434641
101351.885272
101167.452411
101164.248252
101164.955147
101163.500395
101255.954236
101416.747672
101420.328571
101231.301864
100643.297385
100539.293485
100535.137223
100534.815822
100532.833852
100527.660689
101275.398185
101652.221355
101373.11903
101388.636091
101386.999319
101273.071534
101169.852083
101170.939033
101168.318055
101173.008424
101298.911316
101424.105529
101303.456483
100779.877208
100538.785396
100537.927501
100537.516695
100540.567101
100543.798742
100533.112785
101179.738399
101664.617863
101388.255782
101393.792843
101379.79714
101184.829351
101176.509621
101173.442913
101174.762678
101209.113692
101331.672391
101396.308995
101131.812513
100673.078987
100541.094312
100540.249842
100540.021572
100543.981849
100573.164622
100592.987148
101136.82732
101677.961661
101398.29039
101399.217272
101341.843196
101181.486469
101178.942187
101180.667473
101178.411071
101231.076053
101374.798525
101404.543551
101154.764827
100714.70924
100546.796977
100542.542769
100541.917884
100546.822639
100638.254529
100672.803302
101097.518821
101689.979014
101404.386812
101404.766885
101287.593445
101184.914689
101185.858769
101183.94837
101185.461031
101184.635675
101437.772066
101473.011028
101284.996526
100836.370651
100561.351219
100544.700893
100544.191356
100559.79613
100702.22925
100698.286548
101062.411386
101701.651529
101410.480889
101403.0658
101248.66966
101191.028457
101189.243226
101191.040165
101189.189796
101191.162164
101441.028311
101539.628698
101486.464783
101035.898359
100606.273277
100553.043291
100546.18549
100592.742773
100708.265581
100701.793799
101059.439124
101713.847193
101416.761563
101395.973339
101253.038818
101195.87266
101196.518391
101194.394881
101196.574627
101195.297997
101384.306792
101555.713716
101564.582686
101280.856424
100731.495421
100586.367225
100560.902056
100613.126784
100709.799181
100704.620751
101102.678561
101726.354546
101423.554411
101394.764972
101267.313402
101202.518661
101201.038336
101202.350104
101200.750717
101202.390552
101257.767852
101514.569848
101572.684621
101494.181741
101000.068272
100666.213315
100581.399296
100582.207642
100628.758821
100719.251387
101215.718183
101735.231914
101432.223366
101400.147909
101290.031196
101209.309667
101208.733955
101206.911931
101208.408031
101207.167432
101208.807601
101376.80972
101557.044391
101556.419672
101300.511725
100791.893451
100583.820634
100574.473638
100582.875396
100683.588352
101322.462135
101744.108163
101441.978971
101406.932838
101310.19834
101223.625162
101214.667646
101215.145846
101213.483868
101215.059804
101214.429465
101313.285945
101483.877767
101559.860997
101413.224064
100855.462455
100580.812392
100583.368071
100574.234072
100583.911132
101254.916403
101751.662184
101451.458425
101410.702056
101318.860309
101241.497555
101222.375333
101221.203745
101221.631036
101220.923913
101245.820523
101342.779976
101452.301248
101510.68637
101333.31533
100770.209877
100585.084213
100579.109932
100585.137355
100576.659208
101145.2936
101753.246836
101457.799193
101406.076226
101320.275001
101258.445179
101229.698181
101228.859312
101227.906028
101236.0847
101319.956632
101397.427258
101422.147507
101318.19834
100949.773566
100615.579984
100582.074538
100585.953893
100580.962545
100586.599859
101102.547725
101755.770727
101455.927897
101388.568707
101312.106267
101265.673631
101238.554428
101235.513335
101235.016212
101292.341024
101423.070058
101423.440893
101275.859266
100854.944347
100619.65241
100584.577809
100587.247026
100582.8771
100587.85844
100581.466062
101044.254069
101759.816862
101440.212513
101360.189467
101298.16861
101267.725085
101245.608363
101242.94831
101275.172214
101400.784198
101473.345787
101367.76805
100874.986893
100591.424718
100586.67338
100589.52019
100585.065671
100589.63504
100585.890335
100589.980903
100977.18158
101766.080071
101409.89189
101326.569277
101282.50548
101265.926194
101254.135169
101267.41613
101359.848589
101517.293431
101494.064893
101093.848662
100598.92797
100588.200006
100591.986675
100587.351034
100591.762504
100588.79169
100592.163251
100605.951756
100947.667522
101775.504911
101373.450703
101299.29016
101274.874833
101272.68522
101270.403843
101327.753805
101475.822361
101588.028762
101434.244355
100819.129603
100591.047035
100594.756368
100590.021777
100594.274809
100591.544188
100594.27427
100593.489687
100672.848828
100958.399348
101787.428599
101340.330449
101286.450718
101281.854017
101280.525363
101298.316966
101412.710583
101593.21405
101619.608438
101306.4315
100721.986455
100597.373217
100591.442091
100596.949685
100593.435837
100596.512115
100595.489299
100600.15293
100743.089014
101014.610681
101804.68451
101315.299042
101290.675877
101289.464099
101288.301478
101338.04707
101501.205928
101674.761812
101645.650634
101237.543508
100719.90823
100594.047382
100599.479588
100594.643831
100599.070247
100597.393366
100599.099844
100658.560722
100813.559588
101109.859405
101824.484324
101307.18027
101297.748382
101296.953845
101295.806935
101384.056332
101582.845187
101730.792577
101675.121471
101241.413682
100729.188812
100601.938492
100594.841552
100601.45337
100598.744471
100601.040409
100637.214482
100756.548479
100892.155633
101228.360108
101842.94297
101306.835411
101305.07338
101303.530435
101303.917657
101430.418014
101651.977828
101771.323924
101698.268112
101238.924718
100734.201126
100596.649255
100603.803292
100599.082899
100603.376214
100619.873861
100726.427701
100855.518387
100987.77757
101357.992362
101858.86132
101314.496892
101310.601314
101310.50151
101314.074132
101476.27373
101709.079825
101798.730979
101694.575934
101206.540991
100723.994468
100605.555222
100597.792851
100605.450474
100604.554666
100684.210136
100832.869746
100949.554365
101107.158382
101479.494685
101872.467048
101331.774435
101317.138376
101315.369598
101324.705567
101522.708394
101755.301826
101808.394866
101661.513307
101129.352558
100697.027813
100599.417619
100607.148823
100604.426624
100629.547081
100774.602405
100921.824059
101049.148189
101241.760415
101571.763879
101884.977244
101358.78248
101321.144289
101321.511985
101334.10427
101568.226364
101791.681208
101815.210853
101587.043799
101020.52035
100661.880096
100608.78018
100600.586528
100608.54256
100692.525301
100859.246197
100995.789529
101150.287271
101359.703446
101626.820681
101896.337188
101384.766877
101326.217226
101324.586656
101340.612715
101608.094863
101814.680325
101813.451001
101494.379241
100921.182002
100624.824555
100602.732669
100610.414708
100618.949764
100776.223485
100928.643455
101071.048848
101245.617565
101443.750173
101661.576964
101907.667386
101406.550944
101329.552093
101328.961207
101342.926423
101630.065407
101825.824317
101812.534604
101446.727811
100870.963152
100609.609225
100612.772936
100606.775189
100652.656373
100843.367284
100995.441455
101145.003194
101314.167445
101483.090362
101667.386255
101918.51649
101425.328569
101341.897403
101329.812708
101335.064502
101627.320683
101833.741667
101819.866811
101455.351046
100875.599623
100615.23291
100607.896383
100614.945635
100660.182579
100852.396372
101030.244261
101181.325607
101319.200111
101470.289806
101657.354618
101927.778718
101443.392268
101353.698701
101332.000416
101332.092622
101577.215142
101840.351326
101839.115164
101519.970417
100950.372015
100623.499205
100617.746876
100614.253884
100649.646927
100810.315959
100995.836233
101157.75866
101294.841331
101419.278948
101611.72514
101918.795399
101462.510164
101365.736371
101330.733818
101333.339818
101464.743523
101834.776925
101866.236293
101684.667961
101186.797907
100739.973107
100618.77514
100620.37437
100641.03812
100757.337279
100926.756392
101102.238062
101245.348847
101274.122587
101329.226215
101899.864735
101483.458788
101381.619291
101330.823434
101331.776597
101348.261859
101765.984949
101871.183927
101853.748773
101567.885877
101081.87814
100749.948822
100687.953278
100707.990383
100783.979302
100892.712117
101012.474348
101078.519985
100945.431828
100774.197712
101776.980941
101506.962082
101402.236494
101329.053265
101331.863214
101332.504899
101540.758332
101860.468024
101878.777987
101858.352037
101587.113679
101165.648055
101019.799495
100999.937556
100953.454663
100886.927245
100853.175778
100757.9242
100707.910594
100704.14284
101496.999501
101535.979995
101427.164678
101328.973854
101329.997475
101332.974801
101355.877505
101706.836854
101878.302006
101892.942439
101881.690988
101688.667259
101568.066856
101500.909475
101224.596363
100863.854055
100725.147643
100703.266199
100699.073574
100702.402654
101172.52166
101573.925786
101457.001961
101330.308004
101330.632062
101331.936993
101346.109366
101515.453715
101777.760927
101893.310436
101898.820772
101901.28154
101889.430199
101740.597853
101179.677177
100868.19086
100805.221663
100695.508613
100695.03441
100691.374113
100908.256751
101616.535459
101485.873037
101346.670678
101330.271728
101337.524765
101378.001925
101508.823222
101677.160192
101841.292724
101896.124533
101895.075362
101838.532743
101422.672714
100920.008673
100985.659496
100996.849951
100800.321033
100682.008046
100683.003998
100781.420225
101638.355461
101492.189255
101380.495874
101371.548843
101411.352593
101502.528035
101585.171561
101638.938349
101669.948705
101655.10091
101534.394512
101219.259784
100824.133771
100770.4416
101072.408405
101157.851642
100970.36635
100670.11319
100669.08833
100739.792874
)
;

boundaryField
{
    emptyPatch
    {
        type            empty;
    }
    minY
    {
        type            zeroGradient;
    }
    maxY
    {
        type            prghTotalPressure;
        U               U.gas;
        p0              uniform 100000;
        value           nonuniform List<scalar> 
40
(
100528.298431
100534.451906
100513.352566
100471.879131
100455.515418
100455.543358
100455.548178
100455.639391
100485.725074
100584.798382
100739.397165
100910.454662
101079.04468
101246.758088
101416.844882
101574.926405
101681.448905
101707.866892
101708.050717
101706.771041
101640.92672
101494.142384
101381.636186
101372.091337
101411.327503
101501.880744
101583.684413
101636.314182
101665.967781
101649.704163
101528.190547
101212.352129
100814.848073
100759.989929
101062.932583
101149.706879
100962.774242
100662.786944
100662.769671
100735.775846
)
;
    }
    water_to_cooler
    {
        type            fixedFluxPressure;
        gradient        uniform 0;
        value           nonuniform List<scalar> 
38
(
101608.340059
101619.221675
101628.679599
101640.827184
101652.221355
101664.617863
101677.961661
101689.979014
101701.651529
101713.847193
101726.354546
101735.231914
101744.108163
101751.662184
101753.246836
101755.770727
101759.816862
101766.080071
101775.504911
101787.428599
101804.68451
101824.484324
101842.94297
101858.86132
101872.467048
101884.977244
101896.337188
101907.667386
101918.51649
101927.778718
101918.795399
101899.864735
101776.980941
101496.999501
101172.52166
100908.256751
100781.420225
100739.792874
)
;
    }
    water_to_heater
    {
        type            fixedFluxPressure;
        gradient        uniform 0;
        value           nonuniform List<scalar> 
59
(
100508.023077
100508.023077
100510.187777
100511.71445
100524.572175
100524.572175
100608.692085
100608.692085
100695.524906
100695.524906
100643.104115
100504.812382
100355.039145
100355.039145
100301.034714
100301.034714
100301.752166
100301.752166
100302.175272
100303.997257
100304.716415
100304.716415
100306.400854
100306.400854
100307.581642
100307.581642
100308.957838
100310.250726
100335.993366
100335.993366
100411.873242
100411.873242
100572.583413
100572.583413
100814.58751
100891.21751
100858.027717
100858.027717
100633.056644
100633.056644
100610.67181
100610.67181
100614.889308
100626.23
100709.480188
100709.480188
100823.358852
100823.358852
100785.710066
100785.710066
100716.474513
100627.576927
100560.529878
100560.529878
100523.826062
100523.826062
100524.143828
100524.143828
100526.922997
)
;
    }
    procBoundary0to1
    {
        type            processor;
        value           nonuniform List<scalar> 
41
(
100530.360409
100677.201189
100802.595442
100833.868911
100865.164543
100917.9385
100997.911125
101096.74637
101207.197453
101312.682069
101362.884854
101363.141366
101362.105711
101361.873273
101360.197441
101360.232697
101357.77038
101357.558401
101349.920252
101313.83349
101284.113776
101234.075137
101150.859257
101154.949557
101227.214806
101342.671423
101383.262058
101383.802996
101354.052961
100981.931879
100582.605623
100526.437996
100520.187706
100525.628619
101498.449246
101600.364985
101306.676825
101305.025452
101306.130719
101311.633203
101311.633203
)
;
    }
}


// ************************************************************************* //
