/*--------------------------------*- C++ -*----------------------------------*\
| =========                 |                                                 |
| \\      /  F ield         | OpenFOAM: The Open Source CFD Toolbox           |
|  \\    /   O peration     | Version:  2312                                  |
|   \\  /    A nd           | Website:  www.openfoam.com                      |
|    \\/     M anipulation  |                                                 |
\*---------------------------------------------------------------------------*/
FoamFile
{
    version     2.0;
    format      ascii;
    arch        "LSB;label=32;scalar=64";
    class       volScalarField;
    location    "0.855/water";
    object      Ct2;
}
// * * * * * * * * * * * * * * * * * * * * * * * * * * * * * * * * * * * * * //

dimensions      [0 0 0 0 0 0 0];

internalField   nonuniform List<scalar> 
1503
(
1
1.00000117162
1.43622366413
2.73714327015
6.52308912993
8.51158157379
8.91146345818
8.96469056608
8.96976967183
8.96892709302
8.96894088422
8.96911339644
8.96936771036
8.96962944168
8.96987089501
8.97007913933
8.970248334
8.97037609399
8.9704624167
8.97051007423
1
1
1.00000020242
1.40968093297
2.06683580515
4.81919401334
7.63456116206
8.70598508906
8.94090678967
8.96318206385
8.95930238032
8.95644319472
8.95490767481
8.954132431
8.95374291496
8.95353927783
8.95342537189
8.95335793199
8.95331821853
8.95329775239
1
1
1
1.06553445561
1.45729075681
2.42779995243
5.2777677439
7.82180277063
8.77507888267
8.95762823011
8.96521697733
8.96167944818
8.95936305507
8.95809558977
8.95747112197
8.95718749247
8.95706823072
8.95702257133
8.95700761642
8.95700435275
1
1
1
1
1.28557814619
1.55277844569
2.97423172686
6.09138483003
8.26525042342
8.89707385734
8.96680285491
8.96397765781
8.96074811333
8.95866912471
8.95749670547
8.95689251797
8.95660081061
8.95646645232
8.95640661049
8.95638079561
1
1
1
1
1.00000217257
1.37449921779
1.70580958542
3.75961067374
7.09586927652
8.68751256158
8.95866547388
8.9662685102
8.96268631557
8.96003699032
8.95837153414
8.9574303547
8.95693752277
8.95669266194
8.95657448657
8.95651793431
1
1
1
1
1
1.00053265335
1.40388793388
1.9694746001
4.89886714349
8.07114408331
8.91014380917
8.96766757166
8.96439190609
8.96134892623
8.95924997219
8.957963962
8.95724057326
8.95685760322
8.95666198332
8.9565632905
1
1
1
1
1
1
1.01440333694
1.42791320125
2.47921480626
6.39715511851
8.70030606475
8.96397786741
8.96590678133
8.96263295412
8.96018949946
8.95858489754
8.95762381868
8.95708608141
8.95679850522
8.95664827699
1
1
1
1
1
1
1
1.11139246018
1.49924346807
3.54751437753
7.86125509427
8.92641131239
8.96709855955
8.96382845503
8.96112057339
8.95923351618
8.95803915299
8.95733704501
8.95694599903
8.95673614908
1
1
1
1
1
1
1
1.00000000049
1.30913364309
1.76265372106
5.53310721665
8.70168138607
8.96536273005
8.96491655852
8.96200615836
8.95987408136
8.95845998306
8.95759286042
8.95709310815
8.95682036692
1
1
1
1
1
1
1
1
1.00015765422
1.41005601531
2.75245256995
7.75062183838
8.94027993823
8.96587736232
8.96283135237
8.96047739747
8.95885785181
8.95783301762
8.95722706098
8.95689163718
1
1
1
1
1
1
1
1
1
1.11527896415
1.60434008716
5.49136273978
8.79672918681
8.96610948538
8.96366202655
8.96106301698
8.95923469569
8.95805334534
8.95734396625
8.95694980441
1
1
1
1
1
1
1
1
1
1.00000667061
1.40471229378
3.01089396493
8.22661422741
8.95943268508
8.96464117704
8.96170070629
8.9596231307
8.95827525269
8.95746252562
8.95701234484
1
1
1
1
1
1
1
1
1
1
1.1307521495
1.73814573243
6.59113753494
8.90297593988
8.9658325269
8.96252256366
8.96011302642
8.95856294541
8.95763165337
8.957117535
1
1
1
1
1
1
1
1
1
1
1.00000113411
1.41338872337
3.66331096633
8.51625293122
8.96365568493
8.96368042497
8.96082612388
8.95900519008
8.9579160145
8.95731240253
1
1
1
1
1
1
1
1
1
1
1
1.04143292945
1.68863209935
6.56680226096
8.90378238175
8.96521317808
8.96184830357
8.95966768791
8.95836150958
8.95762735371
1
1
1
1
1
1
1
1
1
1
1
1
1.35261482356
2.84475970285
8.31546700462
8.96151957081
8.96314790894
8.9605449864
8.95896231643
8.95805360126
1
1
1
1
1
1
1
1
1
1
1
1
1.00000056074
1.46824483265
5.70481354744
8.88084614792
8.96456382662
8.96156347381
8.95966239514
8.95854483094
1
1
1
1
1
1
1
1
1
1
1
1
1
1.16245188721
2.48757924546
8.31976778848
8.96194648826
8.96263684087
8.96039417591
8.95904397748
1
1
1
1
1
1
1
1
1
1
1
1
1
1.00000026356
1.51448936042
6.57921997433
8.93077140996
8.96368735995
8.9611077663
8.95950509935
1
1
1
1
1
1
1
1
1
1
1
1
1
1
1.39709470847
4.39686251111
8.8189272169
8.96437758015
8.96178118164
8.95990456705
1
1
1
1
1
1
1
1
1
1
1
1
1
1
1.28397126161
3.03189240274
8.60198622182
8.9642450598
8.96244038887
8.96025693787
1
1
1
1
1
1
1
1
1
1
1
1
1
1
1.1116140657
2.31609538606
8.29431614603
8.96300277148
8.96316251536
8.96061660111
1
1
1
1
1
1
1
1
1
1
1
1
1
1
1.00743252103
1.83034934163
7.76803054112
8.95868027415
8.96404112045
8.96105956381
1
1
1
1
1
1
1
1
1
1
1
1
1
1
1.00000001662
1.49066492092
6.53239407855
8.93841351783
8.96512923151
8.96165652896
1
1
1
1
1
1
1
1
1
1
1
1
1
1
1
1.35600092723
4.09466610929
8.82982858383
8.96625732087
8.96244039718
1
1
1
1
1
1
1
1
1
1
1
1
1
1
1
1.00005484549
1.96256691808
8.25180536201
8.96468454606
8.96340382733
1
1
1
1
1
1
1
1
1
1
1
1
1
1
1
1
1.41587488307
6.15134992188
8.93385488145
8.96451332536
1
1
1
1
1
1
1
1
1
1
1
1
1
1
1
1
1.04022382914
2.97880389823
8.69807553497
8.96529324152
1
1
1
1
1
1
1
1
1
1
1
1
1
1
1
1
1
1.5860782151
7.59933068564
8.95792331224
1
1
1
1
1
1
1
1
1
1
1
1
1
1
1
1
1
1.38418152895
5.07014563176
8.89727539714
1
1
1
1
1
1
1
1
1
1
1
1
1
1
1
1
1
1.01620542388
2.6145202684
8.61760573039
1
1
1
1
1
1
1
1
1
1
1
1
1
1
1
1
1
1
1.60283633912
7.70302723989
1
1
1
1
1
1
1
1
1
1
1
1
1
1
1
1
1
1
1.4044858192
5.75237902804
1
1
1
1
1
1
1
1
1
1
1
1
1
1
1
1
1
1
1.14694936453
3.45115315473
1
1
1
1
1
1
1
1
1
1
1
1
1
1
1
1
1
1
1.00013743606
2.07425908792
1
1
1
1
1
1
1
1
1
1
1
1
1
1
1
1
1
1
1.00000000001
1.57683071114
1
1
1
1
1
1
1
1
1
1
1
1
1
1
1
1
1
1
1
1.43616006585
1
1
1
1
1
1
1
1
1
1
1
1
1
1
1
1
1
1
1
1.39787869313
8.9705250033
8.97051387289
8.97048211502
8.97043371616
8.97037097821
8.97029475583
8.97020500665
8.97010156343
8.96998520442
8.96985951928
8.96973460763
8.96963482258
8.96961461609
8.96978740549
8.9703520448
8.97149565298
8.97280625978
8.97351016938
8.97357596501
8.97360718213
8.95329139136
8.95329543764
8.95330754216
8.95332644382
8.95335252796
8.95338888683
8.95344386623
8.95353656058
8.9537076953
8.95403908187
8.95468376019
8.95590054137
8.95805769256
8.96150029262
8.96608934935
8.97049797029
8.97289936118
8.97349519078
8.97358290178
8.97359945348
8.95700464366
8.95700522066
8.95700564954
8.95700713789
8.95701321446
8.95703218826
8.95708201471
8.95719903185
8.957451744
8.95795869319
8.95890262906
8.96051793195
8.96300418241
8.9663061466
8.96979424682
8.97231552881
8.97333596211
8.97354657096
8.97358175695
8.97360371466
8.95637065589
8.95636814827
8.95637120252
8.95638198547
8.95640812916
8.95646687994
8.95659244083
8.95684701892
8.95733377949
8.95820493441
8.9596493504
8.96183371407
8.96477013124
8.96812014989
8.97109018611
8.97284954275
8.97343784124
8.97354866069
8.97357969354
8.97360213255
8.95649197221
8.95648274376
8.95648639059
8.95650667848
8.95655680923
8.95666456862
8.9568806424
8.95728833631
8.95800966506
8.95919767233
8.9609997826
8.96347737592
8.96648247212
8.9695418589
8.97191970674
8.97313077586
8.97348054439
8.9735481635
8.97357825026
8.97360192655
8.95651548542
8.95649732149
8.95650238416
8.95653659044
8.95661994295
8.95679170692
8.95711784308
8.95769647824
8.95865444898
8.96012502798
8.96219719543
8.96483445888
8.96778127352
8.97051911746
8.97242628602
8.97327849938
8.97349628909
8.97354679663
8.97357778386
8.97360231976
8.95657404215
8.95654590727
8.95655406907
8.95660714204
8.95673243997
8.9569801433
8.9574279733
8.9581806814
8.95935722803
8.9610585563
8.9633129333
8.96600567525
8.96881772075
8.97123423371
8.97275847323
8.97336046995
8.97350210279
8.97354633504
8.97357796598
8.97360333105
8.9566323682
8.95659453045
8.95660924909
8.95668781455
8.95686461218
8.95719899986
8.95777595217
8.95869921991
8.96007111682
8.96195543832
8.9643256369
8.96700923042
8.96965325316
8.97176928133
8.97298096038
8.97340549811
8.97350445398
8.97354655448
8.97357858257
8.97360477302
8.95668606694
8.95664086771
8.95666748944
8.95677946747
8.95701732839
8.95744709645
8.95815632103
8.95924157976
8.96078345521
8.96280867031
8.96524452496
8.96787746164
8.97033880943
8.97217698834
8.97313075249
8.973429935
8.97350598011
8.97354716881
8.97357950932
8.97360651861
8.95672909944
8.95668142607
8.95672699016
8.95688105348
8.95718892688
8.95772051144
8.95856173681
8.95979762163
8.9614848532
8.96361579391
8.96608022384
8.96863571477
8.97090837313
8.97248954597
8.9732304596
8.97344340395
8.97350746372
8.97354795582
8.97358068131
8.97360847743
8.95676410061
8.95672032602
8.95679239867
8.95699674215
8.95738191885
8.95801900221
8.95898889961
8.9603623335
8.96217191507
8.964379425
8.96684449549
8.96930404941
8.9713850521
8.97272818106
8.9732956433
8.97345142202
8.97350900878
8.97354882483
8.97358205526
8.97361058953
8.95680705034
8.95677168652
8.95687567385
8.95713588536
8.95760248043
8.95834523047
8.95943743393
8.96093406889
8.96284464431
8.96510422779
8.96754799094
8.96989734059
8.9717844419
8.97290815977
8.97333769465
8.97345688592
8.97351053682
8.97354976336
8.97358359771
8.97361281575
8.95688801833
8.95685900295
8.9569948152
8.95731154785
8.95785905293
8.95870350335
8.95990864462
8.96151310759
8.96350476047
8.9657953321
8.96819949176
8.9704261301
8.97211737708
8.97304157769
8.97336492269
8.97346116267
8.97351197481
8.97355078537
8.9735852806
8.97361512963
8.95704106137
8.95700680407
8.95716710059
8.9575351636
8.95815823308
8.95909664997
8.9604030723
8.96209961511
8.96415396803
8.96645708346
8.96880550747
8.97089747041
8.97239195854
8.97313866663
8.97338307818
8.97346481436
8.97351329492
8.97355189696
8.97358707581
8.97361751031
8.9572856419
8.95722707877
8.95739923495
8.95780949947
8.95849985641
8.95952263675
8.96091813355
8.96269193018
8.96479271163
8.96709229257
8.96937018707
8.9713157564
8.97261495395
8.97320821821
8.97339584749
8.97346801949
8.97351449648
8.97355308179
8.97358894894
8.9736199362
8.95761136901
8.95750907945
8.95768066914
8.95812443386
8.95887446145
8.95997310924
8.96144726955
8.96328600975
8.96541978741
8.96770203993
8.96989547646
8.9716835223
8.97279262604
8.97325758387
8.97340539285
8.97347079297
8.97351557655
8.9735542994
8.97359085542
8.97362238068
8.95798001651
8.95782156794
8.95798594287
8.95845926803
8.95926542551
8.96043520315
8.96198132057
8.96387633847
8.96603285887
8.96828595823
8.97038146725
8.97200223962
8.97293113837
8.97329260053
8.97341286102
8.97347309367
8.97351651254
8.97355549156
8.97359274164
8.97362481102
8.95834433218
8.95812639811
8.95828475209
8.95879028507
8.95965460345
8.9608956234
8.96251131007
8.96445766483
8.96662940483
8.96884269692
8.97082686174
8.97227314407
8.97303668094
8.97331762892
8.97341879549
8.97347487553
8.97351726361
8.9735565938
8.97359455136
8.97362719084
8.95866493558
8.95839158915
8.95855201731
8.9590983949
8.96002797026
8.96134461904
8.96303105271
8.96502653492
8.96720747733
8.96937027936
8.97122953888
8.97249804665
8.97311537997
8.97333574357
8.9734234346
8.9734761129
8.97351778582
8.97355754981
8.97359623553
8.97362948525
8.95892084976
8.95860031496
8.95877509505
8.95937461669
8.96037955146
8.96177859906
8.96353871767
8.96558206938
8.96776597659
8.96986630048
8.97158728236
8.97267997514
8.97317304597
8.9733490233
8.97342690603
8.9734768148
8.97351805213
8.97355832542
8.97359776274
8.97363166718
8.9591204828
8.9587583893
8.95895877713
8.95962325341
8.96071326537
8.96220103449
8.96403710457
8.96612587088
8.9683044609
8.97032809573
8.97189866245
8.97282342656
8.97321487342
8.97335886079
8.97342933763
8.97347703337
8.9735180686
8.97355891862
8.97359912729
8.97363372309
8.95930211215
8.95889399289
8.95912445749
8.95986070191
8.96104158893
8.96262115436
8.9645324897
8.96666111175
8.96882264368
8.97075302037
8.97216385889
8.97293410625
8.97324522234
8.97336622234
8.97343090485
8.97347686559
8.97351788118
8.97355936271
8.97360035237
8.97363565636
8.95952157068
8.95904849479
8.9593030425
8.96010998021
8.96138142205
8.96305092169
8.9650325121
8.96719119005
8.96931985666
8.97113887653
8.97238508773
8.97301827203
8.97326754704
8.97337182533
8.97343183386
8.97347644595
8.97351757151
8.97355972128
8.97360148713
8.97363748757
8.95983303515
8.95926222871
8.95952452504
8.9603932824
8.96174893238
8.96350157933
8.96554395551
8.96771846179
8.96979470129
8.97148434741
8.97256642102
8.97308198665
8.97328445217
8.97337623604
8.97343237822
8.9734759303
8.97351724355
8.97356007659
8.97360259865
8.97363925174
8.96026666039
8.95955955917
8.95980820753
8.96072571078
8.96215559912
8.963981169
8.96607121236
8.96824341682
8.97024495671
8.97178924047
8.97271311907
8.97313055823
8.97329781887
8.97337991219
8.97343278686
8.97347547548
8.97351700643
8.97356051516
8.97360376101
8.97364099381
8.96082760161
8.95994821387
8.96016236613
8.96111513095
8.96260807096
8.96449428542
8.96661596167
8.9687644748
8.97066773362
8.97205448754
8.97283083598
8.97316828025
8.9733089533
8.97338321854
8.97343327681
8.97347522089
8.97351695873
8.97356111453
8.97360504469
8.9736427637
8.96151819865
8.96043369412
8.96059308893
8.96156731389
8.96311088344
8.96504326601
8.96717752918
8.9692781341
8.97105977082
8.97228199073
8.9729250051
8.97319842163
8.97331872919
8.97338643399
8.97343401661
8.97347527526
8.97351717684
8.9735619332
8.97360650754
8.97364461158
8.96234987598
8.96102632778
8.9611086086
8.9620881864
8.96366732617
8.9656282888
8.96775274515
8.96977905255
8.9714177763
8.97247442346
8.97300048686
8.97322334857
8.97332770457
8.97338975306
8.97343511607
8.97347570619
8.97351770546
8.97356300249
8.97360818683
8.97364658288
8.96332728871
8.96173640961
8.96171539114
8.9626808341
8.96427726359
8.96624596514
8.96833531987
8.97026021317
8.97173886725
8.97263504509
8.97306140699
8.97324468015
8.97333620113
8.97339327885
8.9734366152
8.97347652837
8.97351854725
8.97356431799
8.97361009115
8.9736487119
8.96448042744
8.96256531193
8.96241210882
8.96334138387
8.96493461586
8.96688814181
8.96891572735
8.97071358203
8.97202110548
8.97276750589
8.97311109233
8.97326343006
8.97334434707
8.97339700845
8.97343846986
8.97347768932
8.97351965089
8.97356583037
8.97361219169
8.97365101381
8.96547161115
8.96349893887
8.96318582944
8.96405702314
8.96562667311
8.96754215191
8.96948210446
8.97113123275
8.97226392695
8.97287559485
8.97315205791
8.97328012475
8.97335209565
8.97340081773
8.97344053753
8.97347905616
8.97352090037
8.97356743751
8.97361441487
8.97365347605
8.96259329852
8.96450929627
8.96401341039
8.96480738757
8.96633566831
8.96819244931
8.97002181319
8.97150649008
8.97246825049
8.97296294055
8.97318603956
8.97329490267
8.97335923494
8.97340445374
8.97344256977
8.97348040848
8.97352210977
8.97356898161
8.97361663889
8.97365605085
8.93630571135
8.96558302044
8.96486467103
8.9655672045
8.96704102877
8.96882244593
8.97052284142
8.97183463207
8.97263623123
8.97303273358
8.97321407524
8.97330760281
8.97336540345
8.97340754195
8.97344421765
8.97348144289
8.97352302777
8.97357025441
8.97361869713
8.97365865192
8.81650479463
8.96664087652
8.96570214405
8.96630717772
8.96772072063
8.96941572233
8.97097469392
8.97211312912
8.97277084612
8.97308756123
8.97323664075
8.97331785638
8.97337012581
8.97340961605
8.97344505694
8.97348179432
8.97352335594
8.97357101361
8.97362039091
8.97366115793
8.4430404522
8.96758729972
8.96648158974
8.96699587835
8.96835326202
8.96995752634
8.97136935141
8.9723418022
8.97287557339
8.97312942867
8.97325385075
8.97332520405
8.97337288429
8.97341017869
8.97344463942
8.97348107898
8.97352278396
8.9735710121
8.97362151238
8.97366342517
7.66107188783
8.96731547059
8.96716979744
8.96760982308
8.96892345459
8.97043775906
8.97170276816
8.97252308346
8.97295427416
8.97315996659
8.97326571632
8.97332924695
8.97337322765
8.97340879197
8.97344256785
8.97347895596
8.97352103907
8.97357003715
8.97362187487
8.97366530673
6.50340761544
8.96150220397
8.96776520976
8.96814644679
8.96942831909
8.97085351901
8.97197592818
8.97266196082
8.97301112702
8.97318070033
8.97327238881
8.9733297944
8.97337088561
8.97340517201
8.97343857425
8.97347519114
8.97351793706
8.97356795081
8.97362134501
8.97366667793
5.20420986415
8.94310504276
8.96829668483
)
;

boundaryField
{
    emptyPatch
    {
        type            empty;
    }
    minY
    {
        type            calculated;
        value           nonuniform List<scalar> 
40
(
8.973631813
8.97363268427
8.97363281651
8.97363297523
8.97363313174
8.97363327883
8.9736334151
8.97363353893
8.97363364894
8.97363374557
8.97363382932
8.97363390107
8.97363396203
8.97363401336
8.97363405602
8.97363409081
8.97363411838
8.97363413924
8.97363415379
8.97363416229
8.97363416493
8.97363416213
8.97363415467
8.97363414317
8.97363412808
8.97363410967
8.97363408809
8.97363406338
8.97363403551
8.97363400436
8.97363396975
8.97363393141
8.97363388891
8.9736338416
8.97363378856
8.97363372928
8.97363366456
8.973633593
8.97363349638
8.97363252505
)
;
    }
    maxY
    {
        type            calculated;
        value           nonuniform List<scalar> 0();
    }
    maxX
    {
        type            calculated;
        value           nonuniform List<scalar> 
37
(
8.97363421804
8.97363878926
8.97364245769
8.97364598648
8.9736494774
8.97365294438
8.97365639766
8.9736598407
8.97366327478
8.97366669985
8.973670115
8.97367351849
8.9736769079
8.97368028054
8.97368363421
8.97368696806
8.97369028339
8.97369358401
8.97369687594
8.9737001665
8.97370346295
8.97370677087
8.97371009289
8.97371342774
8.97371677012
8.97372011103
8.97372343863
8.9737267394
8.97372999951
8.97373320645
8.97373635093
8.97373942867
8.97374244193
8.97374540028
8.97374832062
8.97375122593
8.97375414318
)
;
    }
    water_to_heater
    {
        type            calculated;
        value           uniform 1;
    }
    procBoundary2to3
    {
        type            processor;
        value           nonuniform List<scalar> 
41
(
1
1
1
1
1
1
1
1
1
1
1
1
1
1
1
1
1
1
1
1.31128362442
8.96862138017
8.96987483809
8.97120791514
8.97219411224
8.97276515787
8.97305040294
8.97319320026
8.97327428586
8.97332693995
8.97336583413
8.97339924586
8.97343256867
8.97346969839
8.97351341501
8.9735647118
8.97361984481
8.97366740375
3.98425827033
8.90555132625
8.96862138017
8.96880505301
)
;
    }
}


// ************************************************************************* //
