/*--------------------------------*- C++ -*----------------------------------*\
| =========                 |                                                 |
| \\      /  F ield         | OpenFOAM: The Open Source CFD Toolbox           |
|  \\    /   O peration     | Version:  2312                                  |
|   \\  /    A nd           | Website:  www.openfoam.com                      |
|    \\/     M anipulation  |                                                 |
\*---------------------------------------------------------------------------*/
FoamFile
{
    version     2.0;
    format      ascii;
    arch        "LSB;label=32;scalar=64";
    class       volScalarField;
    location    "140/fluidRegion";
    object      p;
}
// * * * * * * * * * * * * * * * * * * * * * * * * * * * * * * * * * * * * * //

dimensions      [1 -1 -2 0 0 0 0];

internalField   nonuniform List<scalar> 
17
(
1.47906e+07
1.47887e+07
1.47857e+07
1.47817e+07
1.47778e+07
1.47738e+07
1.47699e+07
1.4766e+07
1.4762e+07
1.47581e+07
1.47542e+07
1.47503e+07
1.47464e+07
1.47423e+07
1.47378e+07
1.47335e+07
1.47292e+07
)
;

boundaryField
{
    inlet
    {
        type            calculated;
        value           uniform 1.47916e+07;
    }
    outlet
    {
        type            calculated;
        value           uniform 1.47271e+07;
    }
    fixedWalls
    {
        type            calculated;
        value           nonuniform List<scalar> 
68
(
1.47906e+07
1.47887e+07
1.47857e+07
1.47817e+07
1.47778e+07
1.47738e+07
1.47699e+07
1.4766e+07
1.4762e+07
1.47581e+07
1.47542e+07
1.47503e+07
1.47464e+07
1.47423e+07
1.47378e+07
1.47335e+07
1.47292e+07
1.47906e+07
1.47887e+07
1.47857e+07
1.47817e+07
1.47778e+07
1.47738e+07
1.47699e+07
1.4766e+07
1.4762e+07
1.47581e+07
1.47542e+07
1.47503e+07
1.47464e+07
1.47423e+07
1.47378e+07
1.47335e+07
1.47292e+07
1.47906e+07
1.47887e+07
1.47857e+07
1.47817e+07
1.47778e+07
1.47738e+07
1.47699e+07
1.4766e+07
1.4762e+07
1.47581e+07
1.47542e+07
1.47503e+07
1.47464e+07
1.47423e+07
1.47378e+07
1.47335e+07
1.47292e+07
1.47906e+07
1.47887e+07
1.47857e+07
1.47817e+07
1.47778e+07
1.47738e+07
1.47699e+07
1.4766e+07
1.4762e+07
1.47581e+07
1.47542e+07
1.47503e+07
1.47464e+07
1.47423e+07
1.47378e+07
1.47335e+07
1.47292e+07
)
;
    }
}


// ************************************************************************* //
