/*--------------------------------*- C++ -*----------------------------------*\
| =========                 |                                                 |
| \\      /  F ield         | OpenFOAM: The Open Source CFD Toolbox           |
|  \\    /   O peration     | Version:  2312                                  |
|   \\  /    A nd           | Website:  www.openfoam.com                      |
|    \\/     M anipulation  |                                                 |
\*---------------------------------------------------------------------------*/
FoamFile
{
    version     2.0;
    format      ascii;
    arch        "LSB;label=32;scalar=64";
    class       surfaceScalarField;
    location    "0.45/water";
    object      phi;
}
// * * * * * * * * * * * * * * * * * * * * * * * * * * * * * * * * * * * * * //

dimensions      [0 3 -1 0 0 0 0];

oriented        oriented;

internalField   nonuniform List<scalar> 
1442
(
1.97220098545e-07
2.26067439651e-07
1.5596935259e-07
2.12223195709e-07
1.21396516665e-07
1.98099039487e-07
9.25438607815e-08
1.84879622885e-07
6.86336804443e-08
1.7267132783e-07
4.91714772981e-08
1.61257739097e-07
3.40359638479e-08
1.50275546536e-07
2.26424852814e-08
1.4018214248e-07
1.37922699059e-08
1.31581265691e-07
6.40225360395e-09
1.24345732981e-07
-2.30439021754e-10
1.18083489122e-07
-6.55290209961e-09
1.1252677327e-07
-1.29119716368e-08
1.07563508279e-07
-1.95142030138e-08
1.03042001047e-07
-2.57926399113e-08
9.81777584896e-08
-2.98669961721e-08
9.16469972125e-08
-2.9295113596e-08
8.28777188733e-08
-2.11847405518e-08
7.14103016552e-08
5.45919867982e-08
1.60297026983e-07
2.63276210083e-07
1.23570003956e-07
2.46460011328e-07
9.26199064719e-08
2.27865265027e-07
6.71211958377e-08
2.09698263928e-07
4.67152404972e-08
1.92664776977e-07
3.05153130762e-08
1.7720519505e-07
1.75493738864e-08
1.6308799316e-07
7.16205111887e-09
1.50477976269e-07
-1.09694557006e-09
1.39787039496e-07
-7.76771996812e-09
1.30986234056e-07
-1.33902409294e-08
1.2368904411e-07
-1.83073349021e-08
1.17434473362e-07
-2.25210016168e-08
1.11772059706e-07
-2.54165574689e-08
1.05934833414e-07
-2.57690871899e-08
9.8528804891e-08
-2.27807399687e-08
8.86579424097e-08
-1.64341409546e-08
7.65310269838e-08
-7.45053982782e-09
6.24267005279e-08
4.71414469704e-08
1.63088963948e-07
3.01653558395e-07
1.24119691045e-07
2.82810445571e-07
9.12304511303e-08
2.5918749563e-07
6.38449222528e-08
2.36012790921e-07
4.11891618793e-08
2.14573390175e-07
2.26711915717e-08
1.95207281025e-07
7.95650087527e-09
1.7745766663e-07
-3.30832032489e-09
1.61523165026e-07
-1.17502727667e-08
1.48094721987e-07
-1.79853699856e-08
1.37141857252e-07
-2.2543749019e-08
1.28201378406e-07
-2.57145629962e-08
1.20579048311e-07
-2.7379142561e-08
1.13422103562e-07
-2.69598025926e-08
1.05507766235e-07
-2.39981660123e-08
9.55630747414e-08
-1.88652904977e-08
8.35228069537e-08
-1.24026899379e-08
7.00673387388e-08
-5.73318731529e-09
5.57570397136e-08
4.1407991485e-08
2.09113030556e-07
3.49262798363e-07
1.5954184843e-07
3.30238524484e-07
1.17210466694e-07
3.00038881648e-07
8.31976084377e-08
2.68874294434e-07
5.65284292336e-08
2.40327126147e-07
3.48069803873e-08
2.16201264441e-07
1.67405382651e-08
1.94967583664e-07
2.07705942243e-09
1.7579189165e-07
-9.21725458793e-09
1.59128254407e-07
-1.72759337092e-08
1.45039264701e-07
-2.24676376047e-08
1.33298880879e-07
-2.51861918295e-08
1.23245289632e-07
-2.55678904855e-08
1.13776205328e-07
-2.3563107062e-08
1.03488907758e-07
-1.95912255021e-08
9.15838040067e-08
-1.4529998834e-08
7.84573064595e-08
-9.14271027486e-09
6.46772092522e-08
-4.03748723075e-09
5.06508249563e-08
3.7368022052e-08
2.58139796053e-07
3.74458704125e-07
2.14227361861e-07
3.68902149147e-07
1.70453891671e-07
3.41080356366e-07
1.28353575615e-07
3.09278955296e-07
9.13413882198e-08
2.76141626446e-07
6.12486623399e-08
2.45360360922e-07
3.72775059388e-08
2.18182332065e-07
1.82501056871e-08
1.94227282788e-07
3.21326504227e-09
1.73729508866e-07
-8.06203999366e-09
1.56020782983e-07
-1.55098327981e-08
1.40567566897e-07
-1.92492724413e-08
1.26886512747e-07
-1.97011148398e-08
1.14178718845e-07
-1.76670711677e-08
1.01430649694e-07
-1.42480280213e-08
8.81520767279e-08
-1.02735656485e-08
7.44754666212e-08
-6.27042628435e-09
6.06687146123e-08
-2.62220728227e-09
4.6999814505e-08
3.47367965178e-08
2.47812863296e-07
3.66970452282e-07
2.30016145145e-07
3.81312601902e-07
2.03072192788e-07
3.64990741089e-07
1.69369980036e-07
3.40691796246e-07
1.33048835702e-07
3.10695798646e-07
9.72510812977e-08
2.79804072036e-07
6.51008809892e-08
2.49275907341e-07
3.94853877594e-08
2.19018079004e-07
2.02213290108e-08
1.92354171578e-07
5.95537601815e-09
1.69814596324e-07
-3.97545057222e-09
1.50180699391e-07
-9.62132067593e-09
1.32344127418e-07
-1.14171531551e-08
1.15875470438e-07
-1.0571958184e-08
1.00535777539e-07
-8.43501268188e-09
8.59889988101e-08
-5.81357073138e-09
7.18391132658e-08
-3.21383454365e-09
5.80581237193e-08
-9.42481476009e-10
4.47217473303e-08
3.37705361677e-08
2.18822085344e-07
3.50387006933e-07
2.18608213099e-07
3.7776476892e-07
2.04502228402e-07
3.76511894131e-07
1.84721059982e-07
3.58424089244e-07
1.60539028544e-07
3.33031400038e-07
1.31505373326e-07
3.07118573341e-07
1.00566779522e-07
2.78707706036e-07
7.13898140492e-08
2.47009460174e-07
4.72349926323e-08
2.15606259588e-07
2.92565851113e-08
1.87111673981e-07
1.6599648032e-08
1.62342020939e-07
8.3471036438e-09
1.40264029406e-07
3.81855831766e-09
1.20200986798e-07
1.98456610471e-09
1.02253609403e-07
1.72151809371e-09
8.61856509226e-08
2.21545784716e-09
7.13059403656e-08
2.72720313314e-09
5.75180837757e-08
2.69952087483e-09
4.47308973169e-08
3.64096446326e-08
1.40814664031e-07
3.36190458698e-07
1.53720878494e-07
3.63272011457e-07
1.57636354126e-07
3.70822706456e-07
1.49548420326e-07
3.64802474077e-07
1.3681230988e-07
3.44170562335e-07
1.23350304312e-07
3.19075614937e-07
1.06963001257e-07
2.93677521371e-07
8.60227576808e-08
2.66628871543e-07
6.48135662158e-08
2.35723560464e-07
4.7635897036e-08
2.03447232276e-07
3.54561728145e-08
1.73893582943e-07
2.74411365916e-08
1.47822978417e-07
2.23362548463e-08
1.2498729259e-07
1.91849682581e-08
1.05190740798e-07
1.73353394696e-08
8.78934581574e-08
1.62248453939e-08
7.23215913925e-08
1.45099059233e-08
5.91589806975e-08
1.07853469589e-08
4.84043143073e-08
4.70411778916e-08
2.86198088049e-08
3.10409538136e-07
5.25220999979e-08
3.38704535842e-07
7.49981689876e-08
3.47308936723e-07
8.98316210258e-08
3.48539999958e-07
9.27926181488e-08
3.39770691661e-07
9.08912923209e-08
3.19603278472e-07
8.7836468911e-08
2.95405505534e-07
8.2715827036e-08
2.70499384742e-07
7.32612950009e-08
2.4401608912e-07
6.21235535494e-08
2.13607976229e-07
5.30669183864e-08
1.82184472454e-07
4.67592329306e-08
1.53548107256e-07
4.25542909423e-08
1.2875159517e-07
3.95530252009e-08
1.07860823189e-07
3.70986164593e-08
9.0098994193e-08
3.39940929909e-08
7.52380225363e-08
2.80449006191e-08
6.49433393211e-08
1.84631942661e-08
5.7826172244e-08
6.50321864637e-08
2.9712973684e-08
2.92536200595e-07
4.88693775129e-08
3.19247745771e-07
7.01191362122e-08
3.25538904523e-07
9.21236792778e-08
3.25609749322e-07
1.07318588745e-07
3.2332030052e-07
1.1266118637e-07
3.12978502167e-07
1.13131516988e-07
2.93722260186e-07
1.12770061407e-07
2.69692489358e-07
1.10627995436e-07
2.45048975455e-07
1.04807155044e-07
2.18410800905e-07
9.64341943068e-08
1.896854432e-07
8.76487266162e-08
1.61618984278e-07
7.91719380325e-08
1.36652827042e-07
7.10985584135e-08
1.15472082534e-07
6.26036894467e-08
9.82200588349e-08
5.14680218243e-08
8.6053721864e-08
3.57907542598e-08
8.02730345489e-08
1.75377707379e-08
7.56595486489e-08
8.17196490372e-08
2.36464732565e-08
2.39668195749e-07
3.96282095704e-08
2.76427140448e-07
5.74117462795e-08
3.01317586103e-07
7.58976161802e-08
3.06812335337e-07
9.75509070865e-08
3.03472923821e-07
1.1954993044e-07
3.00462540514e-07
1.35158884537e-07
2.96243105264e-07
1.42165666067e-07
2.85529651283e-07
1.45084675974e-07
2.65643995502e-07
1.46385705411e-07
2.42669226816e-07
1.45288446529e-07
2.18486260609e-07
1.39823381813e-07
1.94205053746e-07
1.29539567701e-07
1.71052503764e-07
1.15629939281e-07
1.49815220739e-07
9.93827438252e-08
1.31075908685e-07
8.01830449506e-08
1.16852656745e-07
5.57803298113e-08
1.09878568039e-07
2.76760676351e-08
1.07671493385e-07
5.43426103162e-09
9.71105850911e-08
8.6329012149e-08
1.24122701456e-08
2.31610513255e-07
2.79517787355e-08
2.60820572942e-07
4.6322272566e-08
2.82870586737e-07
6.48411013537e-08
2.8816704506e-07
8.47572678803e-08
2.83305193239e-07
1.07869145987e-07
2.76852307779e-07
1.30082329621e-07
2.73179825e-07
1.4673623794e-07
2.67773975463e-07
1.5692468211e-07
2.54304003957e-07
1.62991683763e-07
2.35480425669e-07
1.65856112367e-07
2.14547693162e-07
1.64573776568e-07
1.94450278393e-07
1.57167844328e-07
1.77441637124e-07
1.41964739026e-07
1.64028040168e-07
1.19551756098e-07
1.52536703002e-07
8.88575341556e-08
1.46584603875e-07
4.88055192458e-08
1.48849658063e-07
5.1130107233e-09
1.50253344631e-07
2.68167161483e-09
9.86275133002e-08
8.81361881286e-08
-2.35459370272e-08
2.79009849115e-07
-9.96741508387e-09
2.47227443686e-07
1.30785694421e-08
2.5974924501e-07
3.46004164285e-08
2.66567318286e-07
5.42747301067e-08
2.63498566734e-07
7.41867079546e-08
2.56668293107e-07
9.54821033932e-08
2.51344487716e-07
1.15123042033e-07
2.47270131953e-07
1.29749853775e-07
2.38630461608e-07
1.39153169987e-07
2.24972500305e-07
1.43725783433e-07
2.0886447367e-07
1.43659230207e-07
1.9340141769e-07
1.37624422832e-07
1.82324518102e-07
1.22881954793e-07
1.77543293779e-07
1.00360501411e-07
1.73768584276e-07
5.69331394887e-08
1.88625537116e-07
3.20509281661e-09
2.0122388367e-07
-7.89719390456e-09
1.60086150273e-07
-1.22941941077e-09
9.11794554507e-08
8.59469499849e-08
1.192327014e-07
4.47453476295e-07
5.36158800196e-08
3.12280958905e-07
4.57544023129e-08
2.67560510525e-07
4.98203879511e-08
2.62423832082e-07
5.38314550074e-08
2.59409491666e-07
5.87349786927e-08
2.51642490064e-07
6.60675863243e-08
2.43734699385e-07
7.56281199886e-08
2.37183993298e-07
8.50220249404e-08
2.28502065087e-07
9.15364245481e-08
2.1758722532e-07
9.42936934756e-08
2.05152245322e-07
9.33469828988e-08
1.93320158807e-07
8.66372539778e-08
1.87880333133e-07
6.76917470186e-08
1.95169288073e-07
3.10397945867e-08
2.09049905878e-07
-2.09626450598e-08
2.39124927927e-07
-2.02234686168e-08
1.99052481167e-07
1.57714998256e-09
1.37103592504e-07
-2.5394398697e-10
9.24689525941e-08
8.4991617123e-08
2.47504293318e-07
6.54728082149e-07
9.54135144779e-08
4.56817357068e-07
3.88183680271e-08
3.23405889126e-07
2.65504884211e-08
2.74619792428e-07
1.9655807968e-08
2.66228932037e-07
1.44760231781e-08
2.56748651482e-07
1.21999003691e-08
2.45887804293e-07
1.34962519719e-08
2.35641117174e-07
1.69545154471e-08
2.24672889853e-07
2.04417820911e-08
2.13604706646e-07
2.26792783481e-08
2.02310603697e-07
2.26092850922e-08
1.9268002156e-07
1.6040937558e-08
1.93529225296e-07
-8.67841653633e-09
2.18670888152e-07
-4.75281661898e-08
2.4651948483e-07
-3.04010730669e-08
2.20604054156e-07
5.09037288714e-10
1.67022593885e-07
1.16019080917e-08
1.25346141629e-07
4.49221291828e-09
9.92353418381e-08
8.90769057399e-08
1.45802333722e-07
7.80718961511e-07
-4.92994476796e-08
6.41012577878e-07
-1.3629593191e-07
4.08808503127e-07
-1.47043476773e-07
2.85271746915e-07
-1.38650095643e-07
2.57774777966e-07
-1.27548862034e-07
2.45585426513e-07
-1.16192693997e-07
2.34467836112e-07
-1.03601769884e-07
2.22959040413e-07
-8.9925191263e-08
2.10863252571e-07
-7.55129716667e-08
1.99000854651e-07
-6.11261317819e-08
1.8766719694e-07
-4.90441493152e-08
1.80244706657e-07
-4.53883268858e-08
1.89261874012e-07
-5.23326525892e-08
2.24612557054e-07
-4.21882361243e-08
2.35253489951e-07
-1.00813431641e-08
1.8771244756e-07
6.84569390559e-09
1.49737420139e-07
8.84658313103e-09
1.23049423115e-07
3.72940240975e-09
1.04066726214e-07
9.25049029095e-08
1.96112542848e-07
8.53243596708e-07
-4.99420629571e-08
8.74993451907e-07
-1.85153882368e-07
5.41799903964e-07
-2.35765065174e-07
3.35528458055e-07
-2.38758438642e-07
2.60679374918e-07
-2.20641463945e-07
2.27411785019e-07
-1.95409834239e-07
2.09182046841e-07
-1.6920817516e-07
1.96705038752e-07
-1.44550506594e-07
1.86151872788e-07
-1.21653186272e-07
1.76037790963e-07
-1.00180637713e-07
1.66105696567e-07
-7.96711605853e-08
1.59558353175e-07
-6.10112286274e-08
1.70110827765e-07
-4.08070746805e-08
2.03596511431e-07
-1.88545019572e-08
2.12612766738e-07
-4.53373191053e-09
1.73082261388e-07
-4.39119105999e-09
1.49314385694e-07
-3.35401742956e-09
1.21758176166e-07
-2.23990507317e-09
1.02697213703e-07
9.00061156499e-08
1.28754522526e-07
7.92604740258e-07
1.81793035676e-07
8.12433657075e-07
9.31584917997e-08
6.26370249567e-07
1.58002151651e-08
4.10828410202e-07
-1.56072789805e-08
2.91045896615e-07
-1.96003576364e-08
2.30949209328e-07
-9.40817932801e-09
1.98806672149e-07
6.59432502783e-09
1.80620936645e-07
2.3625022688e-08
1.69062929376e-07
3.91564239683e-08
1.60449941095e-07
5.1803885806e-08
1.53402543401e-07
6.23879299622e-08
1.48895398984e-07
7.81197687376e-08
1.54084970894e-07
9.77158444997e-08
1.83328482023e-07
8.56337829233e-08
2.23934130947e-07
4.23790858424e-08
2.16023402692e-07
1.20132817443e-08
1.79372356929e-07
4.27106696317e-09
1.29181264061e-07
2.75849815546e-09
1.03912836551e-07
9.24771355607e-08
2.75817872168e-07
5.87607923967e-07
4.67135902095e-07
6.14254455632e-07
5.68734471782e-07
5.20526623949e-07
5.70681461458e-07
4.06084021424e-07
5.51219706731e-07
3.08631573434e-07
5.37142624624e-07
2.43824860745e-07
5.3015260684e-07
2.05081182285e-07
5.30024763237e-07
1.80358219887e-07
5.35104114176e-07
1.63791068418e-07
5.42745636709e-07
1.52715382898e-07
5.48911618922e-07
1.47177084195e-07
5.48604011639e-07
1.49145780575e-07
5.34739978773e-07
1.67873028715e-07
4.9784749246e-07
2.19867484912e-07
4.04554510601e-07
3.16490106839e-07
2.13264551339e-07
4.06618741861e-07
7.39006771982e-08
3.18223253376e-07
-2.5632088256e-10
2.02996489276e-07
-6.38735405263e-09
1.09727442976e-07
8.57963102175e-08
3.87627967498e-07
4.17418104215e-07
5.72224405505e-07
4.26044112702e-07
7.13114566268e-07
3.76830943983e-07
7.98742702056e-07
3.18300813558e-07
8.41699275085e-07
2.64061227937e-07
8.65066038059e-07
2.19329337176e-07
8.83329043495e-07
1.8609094817e-07
9.00784460831e-07
1.62464874161e-07
9.17905389827e-07
1.46417218242e-07
9.30965805181e-07
1.39517512334e-07
9.24080939399e-07
1.53940047021e-07
8.9736262626e-07
1.75639773151e-07
8.45095547186e-07
2.19373991593e-07
7.56806043691e-07
3.06873543e-07
6.54075262124e-07
4.17805132729e-07
3.48364428338e-07
7.11015017694e-07
1.2015299927e-07
5.45136001405e-07
-5.15889227219e-08
3.73439291575e-07
-3.56670169289e-08
9.30907377446e-08
4.97939351401e-08
1.57814975305e-07
2.97321520824e-07
2.89344378814e-07
2.9258060825e-07
3.90756448517e-07
2.73849061934e-07
4.57907102347e-07
2.49898420859e-07
5.02873275876e-07
2.18119708198e-07
5.35462508944e-07
1.86040504583e-07
5.59763840696e-07
1.61350556271e-07
5.77449664448e-07
1.44519180729e-07
5.82680892663e-07
1.40986320384e-07
5.6609330355e-07
1.55770559065e-07
4.88981389391e-07
2.30158167363e-07
2.47772917981e-07
4.15619334537e-07
-3.13644718916e-08
4.97277821567e-07
-2.25507243308e-07
4.99864370564e-07
-3.21939774352e-07
5.1318508788e-07
-1.23671686266e-07
5.11847003695e-07
-3.98661213897e-08
4.60421056938e-07
-2.40152946793e-08
3.56667589474e-07
-1.20400827173e-08
8.04086788438e-08
3.74762485969e-08
1.442377344e-08
2.51384641232e-07
6.12482388613e-08
2.4519049342e-07
9.01457372291e-08
2.44319051555e-07
1.03596673604e-07
2.35682631767e-07
1.14917975849e-07
2.06139287632e-07
1.24735849722e-07
1.7580816254e-07
1.28478498971e-07
1.57346577937e-07
1.1988254965e-07
1.52851701959e-07
8.71937769686e-08
1.73025544776e-07
-1.1496814005e-08
2.53200377039e-07
-2.57654760565e-07
4.74889678211e-07
-3.23215873598e-07
4.79825378965e-07
-3.00830465089e-07
4.73601478773e-07
-2.64355574603e-07
4.62159969079e-07
-2.01597963851e-07
4.49255718165e-07
-1.25276677387e-07
4.34410320442e-07
-5.04431558411e-08
3.84523406518e-07
-2.96973640363e-09
3.08177502064e-07
5.9714466822e-09
7.07233319442e-08
4.30045890358e-08
-8.12271306607e-08
2.60379539044e-07
-9.55072082997e-08
2.59152516154e-07
-1.17924338833e-07
2.66085952947e-07
-1.42617539912e-07
2.59564663672e-07
-1.58842324917e-07
2.21815092819e-07
-1.7210136237e-07
1.88808363846e-07
-1.88214085125e-07
1.73207975823e-07
-2.16910071127e-07
1.80936199169e-07
-2.6502738543e-07
2.19975148503e-07
-3.18652324834e-07
3.05386122615e-07
-2.96310079145e-07
4.51131084733e-07
-2.85534613218e-07
4.676998665e-07
-2.67398887171e-07
4.54179798769e-07
-2.41426663749e-07
4.34962060197e-07
-2.03781084567e-07
4.10442342767e-07
-1.51075321727e-07
3.80591393675e-07
-9.44201549037e-08
3.26806928501e-07
1.97233712656e-08
1.93020295461e-07
1.30425536974e-08
7.67222477084e-08
5.54006204789e-08
-2.33864120339e-07
2.88635321865e-07
-2.671704432e-07
2.92148706265e-07
-3.06136591803e-07
3.04372398897e-07
-3.47930704842e-07
3.005884514e-07
-3.85008407917e-07
2.58432588666e-07
-4.13769536832e-07
2.1732108526e-07
-4.40479864742e-07
1.99607573879e-07
-4.64900560458e-07
2.04614047292e-07
-4.76015348194e-07
2.29948539168e-07
-4.39318877021e-07
2.67321465846e-07
-2.96028403467e-07
3.06439514324e-07
-1.78419269289e-07
3.48748165141e-07
-1.60756557445e-07
4.35239121361e-07
-1.70407393496e-07
4.43395432141e-07
-1.73947366573e-07
4.12821822942e-07
-1.01977910534e-07
3.07514509031e-07
2.21085333264e-09
2.21584946653e-07
3.70212663928e-08
1.57282572075e-07
1.81943344516e-08
9.48664877899e-08
7.2935833169e-08
-3.74726708776e-07
3.16527679013e-07
-3.98877142986e-07
3.16175359334e-07
-4.26491784939e-07
3.3150085739e-07
-4.68177350434e-07
3.41618525548e-07
-5.24917669319e-07
3.14647875204e-07
-5.69365929651e-07
2.61548276013e-07
-5.99993730032e-07
2.29992365187e-07
-6.15944549429e-07
2.20083081386e-07
-6.11589320227e-07
2.24809592126e-07
-5.86887530901e-07
2.41608321297e-07
-5.44250949176e-07
2.62659218641e-07
-4.77388940405e-07
2.80712301222e-07
-3.35897970762e-07
2.92605780479e-07
-1.8676583492e-07
2.93172120213e-07
-5.33310182499e-08
2.78349510172e-07
1.09793678353e-08
2.42238137221e-07
4.37004945794e-08
1.88010733737e-07
5.0611002508e-08
1.49616736908e-07
2.78327490457e-08
1.16985287362e-07
1.00134266318e-07
-3.88607886522e-07
3.59011424744e-07
-3.86385002407e-07
3.14275058652e-07
-3.78457492872e-07
3.2371058672e-07
-3.80004223849e-07
3.43316063201e-07
-4.22957607574e-07
3.57738508405e-07
-4.78259580205e-07
3.16906574147e-07
-5.12783552219e-07
2.64518071067e-07
-5.23236255583e-07
2.30531002112e-07
-5.10182164149e-07
2.11710920121e-07
-4.74626072318e-07
2.05915215675e-07
-4.20019640263e-07
2.07818116445e-07
-3.5175955116e-07
2.12140157887e-07
-2.73522256088e-07
2.14014549401e-07
-1.89322360025e-07
2.0860674237e-07
-1.06424608944e-07
1.95089948111e-07
-3.79477922456e-08
1.73418628192e-07
-1.43897472473e-09
1.51182565165e-07
1.24804051843e-08
1.35377016677e-07
1.3726399942e-08
1.15423160256e-07
1.1352524538e-07
-6.90526610356e-08
5.17222692734e-07
-9.52212506031e-08
3.40700970058e-07
-9.90950748524e-08
3.27771119479e-07
-9.7281413166e-08
3.41663320343e-07
-1.20850977517e-07
3.8162562892e-07
-1.85985220504e-07
3.82384981667e-07
-2.42957428706e-07
3.21691021347e-07
-2.74892716266e-07
2.62538410242e-07
-2.84448814017e-07
2.21293017766e-07
-2.73381701636e-07
1.94873501118e-07
-2.44413983618e-07
1.78878119292e-07
-2.01477620611e-07
1.69223566153e-07
-1.5035588394e-07
1.62894460006e-07
-9.85177003844e-08
1.56749150708e-07
-5.21810528034e-08
1.48716639926e-07
-2.13303575357e-08
1.42516666447e-07
-8.77447361173e-09
1.38558367427e-07
-3.81839967832e-10
1.26898457446e-07
7.79976069568e-09
1.07153544399e-07
1.21204661482e-07
3.38309034842e-07
7.20445757464e-07
2.43935725847e-07
4.30158052378e-07
2.0853402511e-07
3.62969036626e-07
1.83733887936e-07
3.66530098499e-07
1.51835056605e-07
4.13727925101e-07
1.02728763861e-07
4.31767973813e-07
4.26274233024e-08
3.82051508209e-07
-1.26305807731e-09
3.06577444308e-07
-2.98770552161e-08
2.49950426528e-07
-4.47547251203e-08
2.09761818255e-07
-4.72938762912e-08
1.81423543636e-07
-3.97731819311e-08
1.61711518835e-07
-2.45038675323e-08
1.47636561876e-07
-5.86845571031e-09
1.38124979583e-07
7.87900260148e-09
1.34978259868e-07
7.65132996467e-09
1.42748623526e-07
4.53540860726e-09
1.41672355996e-07
3.92665902081e-09
1.27501995214e-07
7.83278298404e-09
1.0323762063e-07
1.29021712152e-07
4.50948775889e-07
8.34339599586e-07
3.5449628759e-07
5.12889607132e-07
3.07057620994e-07
4.09161345619e-07
2.57578437632e-07
4.15809754149e-07
2.09860545498e-07
4.61138062818e-07
1.74307318197e-07
4.66879785036e-07
1.46801601893e-07
4.09134918402e-07
1.21258803931e-07
3.31819643386e-07
9.85063239014e-08
2.72563845026e-07
8.20822712065e-08
2.2614519162e-07
7.100687927e-08
1.9248823379e-07
6.3346485939e-08
1.69364703003e-07
5.83750938874e-08
1.52601524899e-07
5.40252913738e-08
1.42467225165e-07
3.99045716586e-08
1.49067549934e-07
2.28233367394e-08
1.59735764289e-07
1.32070834299e-08
1.51182974302e-07
5.41487418793e-09
1.35198205015e-07
3.98325954296e-09
1.04603633244e-07
1.32890218387e-07
3.75461461877e-07
8.67929418161e-07
3.03451223109e-07
5.70888290114e-07
2.39057193898e-07
4.7187652932e-07
1.71499102139e-07
4.82840647197e-07
1.2552840342e-07
5.05902545512e-07
1.16996412362e-07
4.73901661828e-07
1.21658960431e-07
4.03016944747e-07
1.19511972271e-07
3.32985641789e-07
1.12150941555e-07
2.79486808286e-07
1.03289741541e-07
2.34875153164e-07
9.47514546814e-08
2.00989334513e-07
8.6444011776e-08
1.77642816713e-07
7.21956775332e-08
1.66822681431e-07
4.69570597151e-08
1.67631384008e-07
2.1262143103e-08
1.74365478743e-07
6.61960106425e-09
1.73780688437e-07
-1.79902909946e-09
1.59044794539e-07
-6.86575356815e-09
1.39741494255e-07
-8.78076475826e-09
1.06224541444e-07
1.23547103765e-07
2.573007256e-07
8.32223463272e-07
1.69068617818e-07
6.43083075592e-07
8.55479187983e-08
5.53096799654e-07
2.15806018855e-08
5.45294712097e-07
4.39160101767e-09
5.21449951833e-07
1.92081298198e-08
4.57711237745e-07
3.91440817918e-08
3.82154835395e-07
5.04028808846e-08
3.21292128578e-07
5.14793356361e-08
2.78272127523e-07
4.68219617179e-08
2.39491069898e-07
3.52016136871e-08
2.12577418164e-07
1.05368682822e-08
2.02273388981e-07
-1.23071537267e-08
1.89482117614e-07
-3.06236268336e-08
1.85450667635e-07
-3.45530867641e-08
1.77698631024e-07
-2.63115847637e-08
1.64966115217e-07
-1.95429523643e-08
1.51737721573e-07
-1.25034307684e-08
1.3223250076e-07
-1.21466192061e-08
1.05621696719e-07
1.10974710608e-07
7.70979620774e-08
8.70849120179e-07
-2.12212892085e-08
7.30358141045e-07
-1.01131579134e-07
6.32351983245e-07
-1.21567511841e-07
5.65971376394e-07
-1.11564528494e-07
5.11561255469e-07
-9.99817284205e-08
4.4612525985e-07
-9.27604567647e-08
3.74910533599e-07
-8.77175350142e-08
3.16238216643e-07
-9.07479251656e-08
2.81293944562e-07
-1.13505264052e-07
2.62239816788e-07
-1.4503160322e-07
2.44073389552e-07
-1.66682980995e-07
2.23780034765e-07
-1.6456813587e-07
1.8719872962e-07
-1.40602345414e-07
1.61337282659e-07
-1.06730992982e-07
1.43684616718e-07
-7.23470465335e-08
1.30443934534e-07
-4.21676240991e-08
1.21416844956e-07
-2.02674994564e-08
1.1021037469e-07
-1.17164102671e-08
9.69664658087e-08
9.91360145607e-08
-2.4642114633e-07
1.04869071537e-06
-3.09269443802e-07
7.93988207294e-07
-2.92499379888e-07
6.18217584221e-07
-2.24279522798e-07
4.99873149726e-07
-1.65544792974e-07
4.54535302634e-07
-1.56336850183e-07
4.38128638339e-07
-1.85137534986e-07
4.04331581801e-07
-2.15719090019e-07
3.47051186325e-07
-2.5339700393e-07
3.19104703456e-07
-3.25618349907e-07
3.34646662043e-07
-3.8099324426e-07
2.99646825732e-07
-3.52992205719e-07
1.9589973933e-07
-3.00765858892e-07
1.35015232426e-07
-2.47363688635e-07
1.07950193684e-07
-1.96079996846e-07
9.23948122733e-08
-1.47117542575e-07
8.1461172039e-08
-1.00338025156e-07
7.46012733971e-08
-6.08902326536e-08
7.07096440141e-08
-3.11493445803e-08
6.71594301943e-08
6.79041227292e-08
-3.87779912009e-07
1.22826291995e-06
-3.1247597549e-07
7.20193087783e-07
-1.59877388811e-07
4.65611285743e-07
-4.26853701992e-08
3.82446023488e-07
2.11117689799e-08
3.90486949778e-07
1.34251807179e-08
4.45536607432e-07
-7.81062034815e-08
4.95573275573e-07
-1.42941249903e-07
4.11694804107e-07
-2.08117483469e-07
3.84133715465e-07
-3.03635334507e-07
4.30039801043e-07
-3.28357127686e-07
3.24257082377e-07
-3.01803696087e-07
1.69249851883e-07
-2.60616706847e-07
9.37804963513e-08
-2.18180916762e-07
6.54863106672e-08
-1.7840866809e-07
5.25945234021e-08
-1.41084614491e-07
4.4107693135e-08
-1.05018631301e-07
3.84998154968e-08
-7.08533709684e-08
3.6493772313e-08
-3.79001409788e-08
3.41341344885e-08
2.99179928029e-08
-5.69395224999e-09
1.13840322365e-06
4.66176450071e-10
7.12032669879e-07
1.09873709827e-07
3.55052967684e-07
1.84201247606e-07
3.07400199347e-07
1.79773243412e-07
3.94377992778e-07
1.3665324348e-07
4.88255501676e-07
1.44372754232e-07
4.87547559303e-07
9.39297413699e-08
4.61887267389e-07
4.00884008631e-08
4.37784986762e-07
5.0754671466e-08
4.1923064407e-07
7.60187626249e-09
3.67261912743e-07
-3.48284916315e-08
2.11539068353e-07
-4.91345204132e-08
1.08001918224e-07
-4.86604687077e-08
6.49742295966e-08
-4.03378398194e-08
4.42503382661e-08
-3.09158450615e-08
3.46647363782e-08
-2.2055384182e-08
2.96120140633e-08
-1.50265147101e-08
2.94197127844e-08
-1.06974813717e-08
2.97504947102e-08
1.91681074532e-08
-3.79535417138e-09
1.14973955252e-06
1.02323041763e-07
6.00637575922e-07
1.68306477059e-07
2.86852723098e-07
2.06159121834e-07
2.68478524225e-07
1.58268831558e-07
4.41521227849e-07
1.64401194353e-07
4.81581653678e-07
1.7724483962e-07
4.74299575413e-07
1.87594461025e-07
4.51215414846e-07
1.95899693304e-07
4.29219132665e-07
2.06508724208e-07
4.08401187188e-07
2.07925962484e-07
3.65641703747e-07
1.46007429764e-07
2.73276014571e-07
1.07083569668e-07
1.46797984025e-07
8.29393331984e-08
8.90383944992e-08
6.80392373529e-08
5.91078937709e-08
5.68257670734e-08
4.58448628767e-08
4.62513723011e-08
4.01455236353e-08
3.201935177e-08
4.35843457536e-08
7.4730288758e-09
5.4212115439e-08
2.65923453731e-08
-4.10858602185e-08
1.20930178215e-06
1.4302898804e-07
4.07165036824e-07
1.87994791038e-07
2.3926775762e-07
1.98980437169e-07
2.56483797264e-07
1.79724335037e-07
4.6001359088e-07
1.84328685547e-07
4.76449615356e-07
1.97476112219e-07
4.60747297506e-07
2.08702832475e-07
4.39666671436e-07
2.20196166696e-07
4.17453848305e-07
2.39860811738e-07
3.88495011539e-07
2.62252798247e-07
3.43026741177e-07
2.84932068152e-07
2.50398437729e-07
2.58478311363e-07
1.73095246055e-07
2.27877629455e-07
1.19523215213e-07
2.00892655054e-07
8.60086554124e-08
1.78063487843e-07
6.85979629825e-08
1.54417904681e-07
6.37067455914e-08
1.16089252464e-07
8.18067841502e-08
2.57423920282e-08
1.44436846528e-07
5.22485129412e-08
8.09367384663e-08
1.41480949327e-07
1.58550403089e-07
1.49332017611e-07
1.6598069963e-07
1.97407379971e-07
2.32183857308e-07
2.68514479647e-07
3.11902861448e-07
3.6239552887e-07
4.10321505197e-07
4.1453393908e-07
3.95718505465e-07
3.59739900012e-07
3.14268826177e-07
2.4148342999e-07
1.33385815684e-07
3.92870358947e-08
3.26560671316e-08
)
;

boundaryField
{
    emptyPatch
    {
        type            empty;
        value           nonuniform List<scalar> 0();
    }
    minY
    {
        type            calculated;
        value           nonuniform List<scalar> 
19
(
-1.8052262614e-07
-1.7202336223e-07
-1.6392425584e-07
-1.56206466985e-07
-1.4885204269e-07
-1.4184387523e-07
-1.35165662335e-07
-1.28801869275e-07
-1.2273769272e-07
-1.1695902625e-07
-1.114524277e-07
-1.062050877e-07
-1.012048e-07
-9.6439933e-08
-9.18994028e-08
-8.75726472e-08
-8.344960145e-08
-7.95206747e-08
-7.577672735e-08
)
;
    }
    maxY
    {
        type            calculated;
        value           nonuniform List<scalar> 0();
    }
    maxX
    {
        type            calculated;
        value           uniform 0;
    }
    water_to_heater
    {
        type            calculated;
        value           nonuniform List<scalar> 0();
    }
    procBoundary1to0
    {
        type            processor;
        value           nonuniform List<scalar> 
38
(
-1.00754846884e-08
-4.12603971176e-09
-2.34620035944e-08
-3.07175385242e-07
-5.18490206671e-07
-3.29898263529e-07
-3.07201040346e-07
-8.96584734412e-08
-8.18145705112e-08
-2.23182327044e-07
-4.04083013009e-08
3.04375239184e-08
7.18917696717e-08
2.05712897659e-07
3.47261486886e-07
3.48838173693e-07
-1.01647933179e-07
-5.97364297785e-07
-6.48172068678e-07
-4.79922356769e-07
-2.91385867316e-07
-1.47832928169e-07
4.64948507024e-08
2.07992924152e-07
9.96746935713e-08
-1.2128998079e-08
-2.81522668131e-08
-2.46222888689e-07
-2.03870567399e-07
-2.07356968343e-07
-2.60881627656e-07
-2.95130643445e-07
-2.51943266857e-07
-2.08661459883e-07
-1.28336010402e-07
-3.35602394852e-09
-1.20625464663e-08
-2.52964330706e-07
)
;
    }
    procBoundary1to2
    {
        type            processor;
        value           nonuniform List<scalar> 
20
(
1.15793533361e-06
3.40364897884e-07
2.21136804998e-07
2.65217737918e-07
4.42816886028e-07
4.44590629322e-07
4.25616868811e-07
4.03022977472e-07
3.73784775421e-07
3.37745889243e-07
2.94866082174e-07
2.45983216363e-07
1.91740761964e-07
1.55352350073e-07
1.31342469038e-07
1.41248272114e-07
1.71667782155e-07
1.75768113374e-07
1.50931557885e-07
8.47796598275e-08
)
;
    }
    procBoundary1to3
    {
        type            processor;
        value           uniform -4.76078534478e-08;
    }
}


// ************************************************************************* //
