/*--------------------------------*- C++ -*----------------------------------*\
| =========                 |                                                 |
| \\      /  F ield         | OpenFOAM: The Open Source CFD Toolbox           |
|  \\    /   O peration     | Version:  2312                                  |
|   \\  /    A nd           | Website:  www.openfoam.com                      |
|    \\/     M anipulation  |                                                 |
\*---------------------------------------------------------------------------*/
FoamFile
{
    version     2.0;
    format      ascii;
    arch        "LSB;label=32;scalar=64";
    class       volScalarField;
    location    "0.385/water";
    object      d.gas;
}
// * * * * * * * * * * * * * * * * * * * * * * * * * * * * * * * * * * * * * //

dimensions      [0 1 0 0 0 0 0];

internalField   nonuniform List<scalar> 
1503
(
0.00496548805921
0.00496554989508
0.00496556643796
0.00496557933506
0.00496559048361
0.00496560059911
0.00496561001524
0.00496561872935
0.00496562667632
0.00496563387729
0.00496564035304
0.00496564614538
0.00496565132211
0.00496565594787
0.00496566007541
0.00496566374592
0.00496566699087
0.00496566983164
0.00496567228024
0.00496567434074
0.0049657940293
0.00496582451838
0.00496582236442
0.00496582289322
0.00496582834052
0.00496583348097
0.00496583849721
0.00496584347081
0.00496584851799
0.00496585353381
0.00496585829714
0.00496586271882
0.00496586682784
0.00496587065817
0.00496587421811
0.00496587749807
0.00496588048141
0.00496588314915
0.00496588548136
0.0049658874581
0.00496606820843
0.00496609964867
0.00496608774519
0.00496607896136
0.0049660774528
0.00496607669987
0.00496607660215
0.00496607730585
0.00496607873059
0.00496608074931
0.00496608314257
0.00496608565029
0.00496608813273
0.00496609056284
0.00496609293723
0.00496609523828
0.00496609743375
0.00496609948287
0.00496610134204
0.00496610297065
0.00496630322384
0.00496632486547
0.00496631178488
0.0049663060215
0.00496630686231
0.00496630716125
0.00496630688106
0.00496630670226
0.00496630691119
0.00496630756154
0.0049663086134
0.00496630991856
0.00496631131716
0.00496631273229
0.00496631414865
0.00496631556185
0.00496631695828
0.00496631831253
0.00496631959139
0.00496632076128
0.00496653559798
0.00496655013105
0.00496653278291
0.0049665268007
0.00496652841591
0.00496652997055
0.00496653058227
0.00496653081484
0.0049665311439
0.00496653168405
0.00496653243172
0.00496653332826
0.00496653427241
0.00496653519274
0.00496653607344
0.00496653692389
0.00496653775431
0.00496653856601
0.00496653935133
0.00496654009923
0.00496675620255
0.00496677185659
0.00496675454193
0.00496674788014
0.00496674873124
0.00496675083651
0.0049667525154
0.0049667535466
0.00496675431351
0.00496675506172
0.00496675580979
0.00496675654268
0.00496675722298
0.00496675781582
0.00496675831975
0.00496675875688
0.00496675915483
0.00496675953563
0.00496675991324
0.0049667602968
0.00496698790118
0.00496700750196
0.00496698949529
0.00496698107897
0.00496697934176
0.00496697948565
0.00496698007868
0.00496698052187
0.00496698069808
0.00496698082915
0.00496698095416
0.00496698103917
0.00496698107695
0.00496698106374
0.00496698100507
0.00496698092062
0.00496698083705
0.00496698077909
0.00496698076601
0.00496698081389
0.00496722720058
0.00496724867779
0.00496723291258
0.00496722374517
0.00496721987337
0.00496721718726
0.00496721500339
0.00496721307232
0.00496721117303
0.00496720942149
0.00496720794194
0.00496720665568
0.00496720551743
0.00496720451762
0.00496720364491
0.0049672028916
0.00496720225908
0.00496720175304
0.00496720137966
0.00496720114605
0.00496748142856
0.00496749572809
0.00496747288208
0.00496746246684
0.00496745738894
0.00496745252616
0.00496744798577
0.00496744386242
0.00496743995191
0.00496743627879
0.00496743312407
0.00496743047252
0.00496742822114
0.00496742633006
0.0049674247654
0.00496742348728
0.00496742246541
0.00496742168007
0.00496742111869
0.00496742077065
0.00496768884275
0.00496770140581
0.00496768171084
0.00496767551438
0.00496767349236
0.00496767059349
0.00496766679495
0.00496766288088
0.00496765906976
0.00496765528129
0.00496765181709
0.0049676488622
0.0049676463815
0.0049676443421
0.00496764270923
0.00496764143731
0.00496764048512
0.00496763982242
0.00496763942527
0.00496763927126
0.00496790354018
0.00496791643225
0.00496789379362
0.00496788514421
0.00496788192531
0.00496787872525
0.00496787509487
0.00496787162795
0.0049678685656
0.00496786574611
0.00496786309994
0.00496786082173
0.004967859014
0.0049678576782
0.00496785675096
0.00496785616917
0.00496785588812
0.00496785587447
0.00496785609942
0.00496785653602
0.00496806268781
0.00496808303443
0.00496807140744
0.00496806806921
0.0049680689072
0.0049680694307
0.00496806930749
0.00496806882985
0.00496806834068
0.00496806782499
0.00496806715307
0.00496806656765
0.00496806632709
0.0049680665519
0.004968067132
0.00496806795109
0.00496806896376
0.00496807014273
0.00496807145979
0.00496807288756
0.00496825278444
0.0049682812318
0.00496827046443
0.00496826417002
0.00496826332454
0.00496826368774
0.00496826428928
0.00496826508369
0.00496826600436
0.00496826678516
0.00496826745344
0.00496826842001
0.00496827007758
0.00496827242722
0.00496827514762
0.00496827796661
0.00496828079912
0.00496828362284
0.00496828641095
0.00496828913923
0.00496842361237
0.00496845655965
0.00496844905172
0.00496844696606
0.00496844973465
0.00496845310869
0.00496845686101
0.00496846055815
0.00496846331859
0.0049684649852
0.00496846637967
0.00496846866241
0.00496847240659
0.00496847739175
0.00496848285349
0.00496848818457
0.00496849322579
0.00496849797289
0.00496850242251
0.00496850656879
0.00496863101259
0.00496866742373
0.0049686521958
0.00496864653359
0.00496864837794
0.00496865248275
0.00496865777369
0.00496866289496
0.00496866626542
0.00496866786525
0.00496866924109
0.00496867233072
0.00496867792563
0.00496868551123
0.00496869386409
0.00496870177802
0.00496870899347
0.00496871554382
0.00496872147417
0.00496872681649
0.00496882297693
0.0049688637817
0.00496885225149
0.00496884984561
0.00496885574432
0.00496886394846
0.00496887236561
0.00496887876754
0.00496888215468
0.00496888342741
0.00496888455902
0.00496888753145
0.00496889378093
0.00496890295499
0.00496891331772
0.00496892296409
0.00496893151973
0.00496893907636
0.00496894573508
0.00496895157269
0.00496904901486
0.00496909795887
0.00496908793392
0.00496908682124
0.00496909470954
0.00496910403876
0.00496911228301
0.00496911775774
0.00496912013788
0.0049691206317
0.0049691208955
0.00496912239146
0.00496912720184
0.00496913585115
0.00496914620396
0.00496915570393
0.00496916383316
0.00496917082336
0.00496917683962
0.00496918198659
0.00496930762546
0.00496936037282
0.00496935620958
0.00496935648852
0.00496936389077
0.00496937210592
0.0049693792987
0.00496938348968
0.00496938455114
0.00496938410266
0.00496938280653
0.00496938151774
0.00496938259165
0.0049693876557
0.00496939502075
0.00496940173291
0.00496940704024
0.00496941135752
0.00496941496222
0.00496941795846
0.00496960440361
0.00496965697976
0.0049696505187
0.00496965188889
0.00496965971654
0.00496966724732
0.00496967230051
0.00496967391403
0.00496967312682
0.00496967092953
0.00496966727968
0.0049696627678
0.00496965919872
0.00496965764163
0.00496965814862
0.00496965894952
0.00496965894841
0.00496965851837
0.00496965804609
0.00496965759885
0.00496995081574
0.00497000146727
0.0049699874963
0.00496998380101
0.00496998468289
0.00496998364382
0.00496998015226
0.00496997465829
0.0049699680684
0.00496996109684
0.00496995440188
0.00496994831011
0.00496994207082
0.00496993491755
0.00496992678916
0.00496991955401
0.00496991286959
0.00496990674846
0.00496990151323
0.00496989716807
0.00497030246127
0.00497033806928
0.00497031140061
0.00497029895735
0.00497029057347
0.00497028008287
0.00497026751661
0.0049702538896
0.00497024037113
0.00497022887104
0.00497021966702
0.00497021046523
0.00497020239312
0.00497019460148
0.00497018360246
0.00497017066938
0.00497015872732
0.00497014822442
0.00497013934419
0.00497013203783
0.00497055201498
0.00497056588388
0.0049705415203
0.00497053057042
0.00497052343966
0.00497051375228
0.0049705008799
0.004970486257
0.00497047173309
0.00497045882314
0.0049704475622
0.00497043797932
0.00497042947451
0.00497042200049
0.00497041380909
0.00497040154613
0.00497038843107
0.00497037671586
0.0049703668226
0.00497035866736
0.00497072088856
0.00497072765985
0.00497071039957
0.00497070296358
0.00497069951469
0.00497069397917
0.0049706851143
0.00497067435577
0.0049706632891
0.00497065334116
0.0049706452498
0.00497063777229
0.00497063062758
0.00497062423061
0.00497061789314
0.00497060998908
0.00497060005785
0.00497059067977
0.00497058272396
0.00497057614241
0.00497086400653
0.0049708706493
0.0049708544738
0.00497085158549
0.00497085222739
0.00497085098315
0.00497084686724
0.00497084096803
0.00497083452613
0.0049708305851
0.00497082763876
0.00497082338611
0.00497081885684
0.00497081257459
0.00497080685558
0.00497080286477
0.00497079793373
0.00497079322348
0.00497078935835
0.00497078622501
0.00497104433045
0.00497104854995
0.00497102489941
0.00497101892646
0.00497101797747
0.00497101623923
0.0049710125301
0.00497100767669
0.00497100457049
0.00497100532892
0.00497100542892
0.00497100323387
0.0049710005907
0.00497099610474
0.00497099182847
0.0049709900649
0.00497098952864
0.00497098992953
0.00497099104826
0.00497099228192
0.00497118765532
0.00497119661212
0.00497117791399
0.00497117445486
0.00497117545624
0.00497117571729
0.00497117387624
0.00497117182195
0.0049711750343
0.0049711817369
0.0049711811986
0.00497118185652
0.00497118276624
0.00497118202799
0.00497117965635
0.00497117899642
0.00497118147781
0.00497118640011
0.00497119236629
0.00497119801802
0.00497135091264
0.00497136559389
0.00497134626609
0.00497134046837
0.004971340149
0.00497133997212
0.00497133903054
0.00497134114484
0.00497135113034
0.00497135665543
0.00497136165036
0.00497136441659
0.00497136853546
0.00497137306582
0.00497137376939
0.00497137402707
0.00497137829726
0.00497138687751
0.0049713970378
0.00497140662827
0.0049714902871
0.00497151453189
0.00497150478724
0.0049715019751
0.004971503732
0.00497150585328
0.00497150876122
0.00497151792457
0.00497153148356
0.00497154243152
0.00497154695235
0.00497155494108
0.0049715639468
0.0049715724009
0.0049715793485
0.00497157887254
0.00497158353389
0.00497159449501
0.00497160774844
0.00497162049142
0.00497167982553
0.00497170719204
0.00497168834937
0.00497168358786
0.00497168534936
0.00497168857893
0.00497169511751
0.00497171053765
0.00497172843973
0.00497173594245
0.00497174740129
0.00497175617316
0.00497176871507
0.00497179404278
0.00497179568439
0.00497179333874
0.00497179809157
0.00497181014248
0.00497182550013
0.00497184084204
0.00497186157114
0.00497189378481
0.00497187368699
0.00497187067764
0.0049718753375
0.00497188249932
0.00497189546031
0.00497191688907
0.00497193039488
0.00497194550494
0.00497195544355
0.00497197025561
0.0049720026532
0.00497201326611
0.00497201178302
0.00497201192813
0.0049720182473
0.0049720319128
0.0049720499475
0.00497206829778
0.00497205709442
0.0049720996631
0.00497207762508
0.00497207447969
0.00497208135508
0.00497209269363
0.00497211204821
0.00497213348998
0.00497215304085
0.00497216578319
0.00497218382993
0.00497220524295
0.00497222340548
0.00497223854463
0.00497224169216
0.00497224328863
0.00497224944213
0.00497226382079
0.00497228435826
0.00497230562429
0.00497224871042
0.00497230465551
0.00497228921734
0.00497228992336
0.0049723025089
0.00497232060352
0.00497234549942
0.00497237199685
0.00497238812246
0.00497240923464
0.00497242885889
0.00497245165224
0.0049724837504
0.00497248673191
0.00497249081494
0.00497249556974
0.00497249986034
0.00497251330174
0.00497253464849
0.0049725573571
0.0049724558871
0.00497253227962
0.00497253317008
0.00497253971189
0.00497255675952
0.00497257942351
0.00497260876829
0.00497263259847
0.0049726585551
0.00497268107581
0.00497270332769
0.00497274160724
0.0049727507391
0.00497275843829
0.00497276884343
0.00497277201115
0.00497277545993
0.00497278673066
0.00497280616733
0.00497282760355
0.00497271013834
0.0049728071923
0.00497281533186
0.00497282410349
0.00497284322615
0.00497287016032
0.00497290149393
0.00497293423289
0.00497296214702
0.00497299126222
0.0049730312732
0.00497304825423
0.00497305647179
0.0049730688019
0.00497307596506
0.00497308031939
0.00497308287669
0.00497309029798
0.0049731032363
0.00497311898977
0.00497309935717
0.00497322433776
0.00497322013823
0.00497321887645
0.00497323261903
0.00497325979515
0.00497329425203
0.0049733264534
0.00497335094218
0.00497337392969
0.00497338677135
0.00497339345789
0.0049734015421
0.00497340886495
0.00497341562053
0.00497341944259
0.00497342309709
0.00497342485855
0.0049734263317
0.00497343065287
0.00497382618394
0.00497394448246
0.0049739006597
0.00497386797628
0.00497384739225
0.00497384151492
0.00497384017351
0.00497383343019
0.00497382206174
0.00497380885278
0.00497379851171
0.00497378997861
0.00497378443049
0.0049737806497
0.00497377968159
0.00497378147684
0.00497378223847
0.00497377611755
0.00497376659897
0.00497375549501
0.0049746413208
0.00497469806085
0.00497464031903
0.00497460242368
0.00497456285808
0.00497451311952
0.00497445743548
0.00497440250081
0.00497435107505
0.00497430540771
0.00497426528326
0.00497423015587
0.00497419835715
0.00497417164333
0.00497415328067
0.00497414275664
0.00497413109865
0.00497411952832
0.00497410411478
0.00497407994901
0.00497508688751
0.00497508267412
0.0049750600505
0.00497504806806
0.00497503510804
0.00497500715988
0.00497495472851
0.00497488792432
0.00497482018239
0.00497475542289
0.0049746948037
0.00497463865242
0.00497458626414
0.00497453952318
0.0049745017404
0.00497447427389
0.00497445142459
0.00497443355249
0.00497441398081
0.00497438562794
0.00496567597182
0.0049656771281
0.00496567783624
0.00496567814941
0.00496567810859
0.0049656777438
0.00496567707619
0.00496567611924
0.00496567488037
0.00496567336149
0.00496567155947
0.0049656694646
0.00496566705713
0.00496566430122
0.00496566114514
0.00496565756071
0.00496565360268
0.00496564918616
0.00496564317567
0.00496558236079
0.00496588902788
0.0049658901407
0.00496589081991
0.00496589112077
0.0049658910887
0.00496589076076
0.00496589016818
0.00496588933788
0.00496588829363
0.00496588705547
0.00496588563807
0.00496588404715
0.00496588227731
0.00496588031903
0.00496587819363
0.00496587600025
0.00496587385834
0.00496587174013
0.00496586935715
0.0049658692443
0.00496610431323
0.00496610531192
0.00496610597008
0.00496610633265
0.00496610644375
0.00496610634355
0.00496610606845
0.00496610565072
0.00496610511809
0.00496610449193
0.00496610378595
0.00496610300663
0.00496610216088
0.00496610127701
0.004966100433
0.00496609974116
0.00496609925872
0.00496609890288
0.00496609850315
0.00496610018302
0.00496632178304
0.00496632260436
0.00496632320866
0.00496632362208
0.0049663238764
0.00496632400122
0.00496632402283
0.00496632396273
0.00496632383674
0.00496632365399
0.00496632341814
0.00496632313195
0.00496632280843
0.00496632248559
0.00496632222674
0.00496632207375
0.00496632197543
0.00496632177749
0.0049663214825
0.00496632295416
0.004966540799
0.00496654141486
0.0049665419184
0.00496654231873
0.00496654263196
0.00496654287239
0.00496654305178
0.00496654317782
0.00496654325397
0.00496654327963
0.00496654325322
0.00496654317804
0.00496654307146
0.00496654297082
0.00496654291946
0.00496654291989
0.00496654289188
0.00496654274923
0.0049665426682
0.00496654394425
0.00496676070112
0.00496676110577
0.00496676147612
0.00496676180871
0.00496676210532
0.00496676236689
0.00496676259313
0.0049667627815
0.00496676292762
0.00496676302636
0.00496676307562
0.00496676308161
0.00496676306495
0.00496676305993
0.00496676309318
0.00496676313993
0.00496676311022
0.00496676300809
0.00496676304068
0.00496676402651
0.00496698094827
0.0049669811537
0.0049669813884
0.00496698163559
0.00496698188414
0.00496698212402
0.00496698234592
0.00496698254041
0.00496698269877
0.00496698281433
0.00496698288611
0.00496698292278
0.0049669829458
0.00496698298369
0.00496698304636
0.00496698308833
0.00496698303846
0.00496698298939
0.00496698308708
0.00496698384239
0.00496720107077
0.0049672011318
0.00496720127486
0.00496720146743
0.00496720168649
0.00496720191301
0.00496720213116
0.00496720232722
0.00496720249044
0.00496720261423
0.00496720269921
0.00496720275576
0.0049672028046
0.00496720286733
0.00496720293866
0.00496720296156
0.00496720290947
0.00496720291987
0.00496720304092
0.00496720362382
0.00496742063941
0.00496742068854
0.00496742084751
0.00496742107134
0.00496742132857
0.00496742159457
0.00496742185017
0.00496742208018
0.00496742227408
0.00496742242684
0.0049674225412
0.00496742262895
0.00496742270948
0.00496742279706
0.00496742287317
0.00496742288135
0.00496742285147
0.00496742291482
0.00496742303842
0.00496742349938
0.0049676393488
0.00496763960098
0.00496763994623
0.00496764033666
0.00496764073976
0.00496764113128
0.00496764149343
0.00496764181334
0.00496764208353
0.00496764230236
0.0049676424757
0.00496764261712
0.00496764274463
0.00496764286533
0.00496764295065
0.00496764296003
0.00496764297246
0.00496764307714
0.00496764319782
0.00496764357349
0.00496785715415
0.00496785787296
0.00496785860953
0.00496785932686
0.00496786000183
0.00496786061844
0.0049678611664
0.00496786163975
0.00496786203741
0.00496786236341
0.00496786262814
0.00496786284769
0.00496786303898
0.00496786320251
0.00496786330482
0.00496786333559
0.00496786340111
0.00496786353655
0.00496786365652
0.00496786397366
0.00496807437411
0.00496807581318
0.00496807713299
0.00496807832301
0.00496807938108
0.00496808030816
0.00496808110799
0.00496808178629
0.00496808235177
0.00496808281639
0.00496808319644
0.00496808351121
0.00496808377671
0.00496808398791
0.00496808411398
0.00496808418296
0.00496808430248
0.00496808446141
0.00496808458442
0.00496808486245
0.00496829173259
0.00496829406322
0.00496829608566
0.00496829783093
0.00496829932874
0.0049683006049
0.00496830168283
0.00496830258389
0.00496830332912
0.00496830393992
0.00496830443917
0.00496830484948
0.00496830518566
0.00496830543887
0.00496830559017
0.00496830570462
0.00496830587023
0.00496830604714
0.00496830617526
0.00496830642805
0.00496851032426
0.00496851355619
0.00496851626427
0.00496851853326
0.00496852043253
0.0049685220178
0.00496852333521
0.0049685244234
0.00496852531637
0.0049685260448
0.0049685266375
0.00496852711932
0.00496852750299
0.00496852777833
0.00496852794718
0.00496852810132
0.00496852829792
0.00496852848608
0.00496852861826
0.00496852885493
0.00496873149168
0.00496873538883
0.0049687385685
0.00496874117176
0.00496874330776
0.00496874506086
0.00496874649794
0.00496874767245
0.00496874862875
0.00496874940411
0.00496875003055
0.00496875053256
0.00496875091936
0.00496875118245
0.0049687513501
0.00496875152504
0.0049687517322
0.00496875192162
0.00496875205334
0.00496875227877
0.00496895653707
0.00496896056409
0.00496896377464
0.00496896635014
0.0049689684261
0.00496897010432
0.00496897146292
0.00496897256223
0.00496897345012
0.0049689741647
0.00496897473623
0.00496897518469
0.00496897551395
0.00496897572045
0.00496897585884
0.0049689760262
0.00496897622062
0.00496897639806
0.0049689765219
0.00496897673719
0.00496918624422
0.00496918960472
0.004969192222
0.00496919427831
0.00496919590593
0.00496919720162
0.00496919823738
0.00496919906687
0.00496919973087
0.0049692002599
0.00496920067574
0.00496920098895
0.00496920119612
0.00496920130138
0.00496920137949
0.00496920150845
0.0049692016677
0.00496920181908
0.00496920192649
0.00496920212985
0.00496942034363
0.00496942214954
0.00496942350686
0.00496942453941
0.00496942533428
0.00496942595279
0.00496942643857
0.0049694268221
0.00496942712482
0.00496942736041
0.0049694275354
0.00496942764633
0.00496942768137
0.00496942765383
0.00496942764773
0.00496942771419
0.00496942782197
0.00496942793633
0.00496942802028
0.00496942820842
0.00496965714778
0.00496965671389
0.00496965632914
0.00496965599572
0.00496965571324
0.00496965547852
0.00496965528668
0.00496965513099
0.00496965500367
0.0049696548948
0.00496965479097
0.00496965467236
0.00496965451906
0.00496965435382
0.00496965425771
0.00496965425342
0.00496965430512
0.00496965437916
0.00496965443719
0.00496965460728
0.00496989361858
0.00496989081947
0.00496988864839
0.00496988695141
0.0049698856194
0.0049698845716
0.00496988374658
0.00496988309571
0.00496988257949
0.00496988216332
0.00496988181396
0.00496988149632
0.00496988118551
0.00496988091301
0.00496988074689
0.00496988068525
0.00496988069183
0.00496988073303
0.00496988076951
0.00496988092096
0.00497012618489
0.00497012167565
0.00497011824939
0.00497011562283
0.00497011359721
0.00497011202848
0.00497011081002
0.00497010986046
0.00497010911625
0.00497010852464
0.00497010803811
0.0049701076116
0.00497010722126
0.00497010690637
0.00497010671653
0.00497010663268
0.0049701066208
0.00497010664786
0.00497010667442
0.00497010681021
0.00497035218202
0.00497034725051
0.00497034355768
0.00497034077249
0.00497033866119
0.00497033705469
0.00497033582885
0.00497033489029
0.00497033416726
0.00497033360113
0.0049703331398
0.00497033273685
0.00497033237761
0.0049703321082
0.00497033195938
0.00497033190368
0.00497033191125
0.00497033195101
0.00497033198475
0.00497033211147
0.00497057094384
0.00497056706325
0.00497056422968
0.00497056215918
0.00497056064726
0.0049705595449
0.00497055874307
0.0049705581605
0.00497055773538
0.00497055741697
0.00497055715933
0.00497055692468
0.00497055671582
0.00497055658465
0.00497055654674
0.00497055657423
0.00497055664276
0.00497055672493
0.00497055678508
0.00497055691199
0.00497078385107
0.00497078222882
0.0049707811934
0.00497078057541
0.0049707802476
0.00497078011586
0.00497078011202
0.00497078018624
0.00497078030121
0.00497078042504
0.00497078052705
0.00497078058762
0.00497078063323
0.00497078072003
0.00497078085436
0.00497078101376
0.00497078118035
0.00497078133168
0.00497078143585
0.00497078157312
0.0049709935715
0.00497099490957
0.00497099624391
0.00497099754312
0.00497099877747
0.00497099992438
0.00497100096973
0.00497100190541
0.00497100272645
0.00497100342597
0.00497100399482
0.00497100443915
0.0049710048117
0.00497100517103
0.00497100552057
0.00497100584656
0.00497100613794
0.004971006378
0.00497100653939
0.00497100669651
0.00497120313182
0.00497120762145
0.00497121151288
0.00497121490012
0.00497121784707
0.00497122040245
0.00497122260733
0.00497122449671
0.0049712260992
0.00497122743464
0.0049712285191
0.00497122938947
0.00497123012322
0.00497123077975
0.00497123136486
0.00497123187445
0.00497123230426
0.00497123264335
0.00497123286929
0.00497123305384
0.00497141525368
0.00497142270723
0.00497142904547
0.00497143445591
0.0049714390775
0.00497144301914
0.00497144637013
0.00497144920383
0.00497145157932
0.00497145354217
0.00497145513587
0.00497145642997
0.00497145752213
0.00497145847159
0.00497145929011
0.00497145998276
0.00497146055143
0.00497146099054
0.00497146128245
0.00497146149961
0.00497163205514
0.00497164207322
0.00497165057529
0.00497165779981
0.00497166393549
0.00497166913597
0.00497167352867
0.00497167721848
0.00497168029059
0.00497168281516
0.00497168486478
0.004971686541
0.00497168795563
0.00497168916778
0.00497169019686
0.00497169105575
0.00497169175152
0.00497169228295
0.0049716926367
0.00497169288911
0.00497185489974
0.00497186712033
0.00497187748823
0.00497188627434
0.00497189370568
0.00497189997349
0.00497190523844
0.00497190963343
0.00497191326805
0.004971916238
0.00497191864709
0.00497192062621
0.00497192229552
0.00497192371476
0.00497192491105
0.00497192590327
0.00497192670226
0.00497192730974
0.00497192771571
0.00497192800341
0.00497208488248
0.00497209913019
0.00497211110747
0.00497212117441
0.00497212962169
0.00497213669025
0.00497214257957
0.00497214745301
0.00497215144686
0.00497215468558
0.00497215730613
0.00497215946412
0.00497216128304
0.0049721628238
0.00497216411966
0.00497216519326
0.00497216605726
0.00497216671433
0.00497216715628
0.00497216747594
0.00497232438411
0.00497234016123
0.00497235321834
0.00497236405083
0.0049723730324
0.00497238046156
0.00497238657872
0.00497239157783
0.0049723956225
0.00497239886724
0.00497240148021
0.00497240363373
0.00497240544917
0.00497240698735
0.0049724082843
0.00497240936325
0.00497241023593
0.00497241090321
0.00497241135643
0.00497241170013
0.0049725768916
0.00497259289846
0.00497260591109
0.00497261654496
0.00497262523286
0.00497263231084
0.00497263804423
0.0049726426458
0.00497264629878
0.00497264918147
0.00497265148353
0.00497265338093
0.00497265498553
0.00497265635363
0.00497265751858
0.00497265849985
0.00497265930448
0.00497265992789
0.0049726603579
0.00497266071165
0.00497284549158
0.00497285957614
0.00497287076333
0.00497287974346
0.00497288694039
0.00497289267504
0.00497289719951
0.00497290071853
0.00497290341576
0.0049729054763
0.00497290709217
0.00497290842485
0.00497290956653
0.00497291056139
0.00497291143287
0.00497291219113
0.00497291283394
0.00497291334702
0.00497291371086
0.0049729140543
0.00497313171583
0.00497314095489
0.0049731479749
0.00497315345588
0.00497315769444
0.00497316090638
0.00497316326858
0.00497316493492
0.00497316605737
0.00497316679951
0.0049731673282
0.00497316776901
0.00497316818225
0.0049731685901
0.00497316899807
0.00497316940093
0.00497316978238
0.00497317011415
0.00497317036529
0.00497317067311
0.00497343396366
0.0049734351014
0.00497343543646
0.00497343549774
0.00497343530194
0.00497343484184
0.00497343414083
0.0049734332482
0.00497343224299
0.00497343123173
0.00497343032525
0.00497342959236
0.00497342904939
0.00497342868695
0.00497342848527
0.0049734284184
0.00497342845186
0.00497342854001
0.00497342863692
0.00497342888262
0.00497374574049
0.0049737362384
0.00497372799924
0.0049737212312
0.0049737155555
0.00497371064014
0.0049737062875
0.00497370239518
0.00497369893176
0.00497369591483
0.00497369337417
0.00497369130746
0.00497368967913
0.0049736884419
0.00497368754638
0.00497368694272
0.00497368657631
0.00497368638271
0.00497368629896
0.00497368646002
0.00497405593345
0.00497403508872
0.00497401786654
0.00497400398109
0.00497399264778
0.00497398318047
0.00497397513777
0.00497396824704
0.00497396234908
0.00497395735755
0.00497395321114
0.00497394983395
0.00497394713841
0.00497394503939
0.00497394345811
0.00497394232146
0.0049739415556
0.00497394107879
0.00497394081154
0.00497394087586
0.00497435116641
0.00497432092691
0.00497429625486
)
;

boundaryField
{
    emptyPatch
    {
        type            empty;
    }
    minY
    {
        type            calculated;
        value           nonuniform List<scalar> 
40
(
0.00496540033678
0.00496545481425
0.00496546348928
0.00496547407931
0.00496548460315
0.00496549459523
0.00496550399071
0.00496551270136
0.00496552064744
0.00496552784779
0.00496553432298
0.00496554011483
0.00496554529112
0.00496554991648
0.00496555404368
0.00496555771387
0.00496556095854
0.00496556379906
0.00496556624746
0.00496556830779
0.00496556993873
0.00496557109491
0.00496557180298
0.00496557211613
0.00496557207531
0.00496557171055
0.004965571043
0.00496557008614
0.00496556884737
0.00496556732862
0.00496556552676
0.00496556343206
0.00496556102479
0.00496555826912
0.00496555511331
0.00496555152919
0.00496554757149
0.00496554315535
0.00496553714537
0.00496547633569
)
;
    }
    maxY
    {
        type            calculated;
        value           nonuniform List<scalar> 0();
    }
    water_to_cooler
    {
        type            calculated;
        value           nonuniform List<scalar> 
37
(
0.00496558236079
0.0049658692443
0.00496610018302
0.00496632295416
0.00496654394425
0.00496676402651
0.00496698384239
0.00496720362382
0.00496742349938
0.00496764357349
0.00496786397366
0.00496808486245
0.00496830642805
0.00496852885493
0.00496875227877
0.00496897673719
0.00496920212985
0.00496942820842
0.00496965460728
0.00496988092096
0.00497010681021
0.00497033211147
0.00497055691199
0.00497078157312
0.00497100669651
0.00497123305384
0.00497146149961
0.00497169288911
0.00497192800341
0.00497216747594
0.00497241170013
0.00497266071165
0.0049729140543
0.00497317067311
0.00497342888262
0.00497368646002
0.00497394087586
)
;
    }
    water_to_heater
    {
        type            calculated;
        value           nonuniform List<scalar> 
61
(
0.00496548805293
0.00496576320623
0.0049658042323
0.00496604760306
0.00496608863847
0.0049662928394
0.00496633388295
0.00496653544019
0.00496675601447
0.00496695162381
0.00496699970327
0.00496720304176
0.00496725085258
0.00496746952395
0.00496751597349
0.00496768850906
0.00496790317289
0.00496802888044
0.00496807341782
0.00496822988295
0.00496827481289
0.00496841199707
0.00496845656222
0.0049686305066
0.00496882243342
0.00496901467338
0.00496905969335
0.00496928451926
0.00496932950522
0.00496959228089
0.00496963819652
0.00496995015015
0.00497030175068
0.00497052061968
0.00497056142917
0.00497070069595
0.00497073941011
0.00497085355763
0.00497089185851
0.00497104342599
0.0049711867076
0.00497132090236
0.0049713596126
0.00497147015856
0.00497150837186
0.00497166908854
0.00497170782706
0.0049718604758
0.00497205596686
0.00497221861999
0.00497225718326
0.00497243528067
0.00497247407716
0.00497269812348
0.00497274136593
0.00497309821475
0.00497382502596
0.00497460253376
0.00497465259956
0.00497506458384
0.0049751064129
)
;
    }
    procBoundary2to3
    {
        type            processor;
        value           nonuniform List<scalar> 
41
(
0.00497525241524
0.00497523564161
0.00497521971855
0.00497521416273
0.00497521432851
0.00497521338199
0.00497520024225
0.00497516633455
0.00497511778066
0.00497506166463
0.00497500322039
0.00497494627435
0.0049748911895
0.00497483959782
0.00497479371758
0.00497475670906
0.00497472886252
0.00497470422933
0.0049746827731
0.00497465663333
0.00497427640923
0.00497426032191
0.00497424703545
0.00497423590999
0.00497422652787
0.00497421861684
0.00497421199621
0.00497420652373
0.00497420206116
0.00497419847856
0.00497419565976
0.00497419350254
0.00497419191491
0.00497419080828
0.00497419008747
0.00497418965972
0.00497418962613
0.00497461987609
0.00497458478083
0.00497427640923
0.0049745558324
)
;
    }
}

