/*--------------------------------*- C++ -*----------------------------------*\
| =========                 |                                                 |
| \\      /  F ield         | OpenFOAM: The Open Source CFD Toolbox           |
|  \\    /   O peration     | Version:  2312                                  |
|   \\  /    A nd           | Website:  www.openfoam.com                      |
|    \\/     M anipulation  |                                                 |
\*---------------------------------------------------------------------------*/
FoamFile
{
    version     2.0;
    format      ascii;
    arch        "LSB;label=32;scalar=64";
    class       volScalarField;
    location    "55";
    object      alphat.water;
}
// * * * * * * * * * * * * * * * * * * * * * * * * * * * * * * * * * * * * * //

dimensions      [1 -1 -1 0 0 0 0];

internalField   nonuniform List<scalar> 
1875
(
0.749461
0.847854
0.953313
1.04348
1.12204
1.18586
1.23776
1.27917
1.31316
1.3423
1.36784
1.3892
1.40719
1.42317
1.43027
1.43069
1.42084
1.39524
1.349
1.28219
1.19434
1.0835
0.939671
0.736359
0.474922
0.993128
1.16502
1.30373
1.39991
1.4624
1.50044
1.52399
1.53562
1.53827
1.53391
1.52722
1.51674
1.50591
1.4962
1.48835
1.48565
1.48212
1.46573
1.44155
1.38827
1.30847
1.19996
1.0534
0.862721
0.65547
1.40209
1.60511
1.73762
1.81087
1.84358
1.84959
1.83815
1.81631
1.78774
1.75469
1.72053
1.68585
1.65133
1.62103
1.59328
1.56458
1.53582
1.50529
1.47343
1.42453
1.35086
1.25231
1.12283
0.969587
0.825432
1.85581
2.0042
2.06419
2.07328
2.05253
2.01524
1.96996
1.92256
1.87772
1.83466
1.79337
1.75183
1.71033
1.66976
1.62985
1.59026
1.55076
1.51068
1.46909
1.41468
1.34181
1.25158
1.14165
1.01592
0.89383
2.24492
2.27497
2.2502
2.19742
2.12909
2.0564
1.98655
1.92343
1.86805
1.81962
1.77575
1.73457
1.69408
1.65287
1.61211
1.57192
1.53159
1.49225
1.44614
1.38936
1.3213
1.2392
1.14325
1.04198
0.938801
2.45379
2.4555
2.37477
2.26235
2.14123
2.0277
1.93067
1.85249
1.79073
1.74199
1.70072
1.66294
1.62693
1.59216
1.55689
1.52013
1.48291
1.44588
1.39862
1.34502
1.28302
1.20913
1.12377
1.0295
0.924878
2.72232
2.63253
2.47
2.29222
2.12143
1.9723
1.85034
1.75604
1.68746
1.63903
1.60139
1.56804
1.53788
1.50924
1.47998
1.45138
1.42502
1.38972
1.34752
1.29771
1.24163
1.17443
1.1012
1.02272
0.938123
3.01907
2.81222
2.55637
2.3113
2.09559
1.91216
1.76653
1.66117
1.59094
1.54852
1.51171
1.48031
1.45823
1.43881
1.41916
1.40151
1.37449
1.34107
1.30274
1.26023
1.21114
1.15133
1.08745
1.01584
0.935041
3.35162
2.99618
2.64046
2.33412
2.07853
1.85976
1.69644
1.5829
1.52106
1.47989
1.45537
1.44224
1.42984
1.41753
1.40392
1.38572
1.36526
1.34151
1.3118
1.27425
1.22736
1.17188
1.10935
1.03968
0.964144
3.61192
3.12851
2.70072
2.35668
2.07697
1.84558
1.68042
1.57337
1.51729
1.49116
1.477
1.47235
1.47107
1.47056
1.46901
1.46276
1.45031
1.43036
1.40201
1.3633
1.31611
1.25879
1.19154
1.11381
1.0307
3.69243
3.16456
2.72545
2.37729
2.09723
1.86857
1.70782
1.61076
1.56604
1.55568
1.56242
1.57502
1.59009
1.60381
1.6138
1.61662
1.61004
1.59398
1.56639
1.52653
1.47393
1.40805
1.32902
1.23681
1.14225
3.4904
3.07162
2.70089
2.39155
2.13588
1.92732
1.78085
1.69668
1.66451
1.66807
1.69004
1.71813
1.74727
1.77335
1.79242
1.80218
1.80258
1.79081
1.76506
1.724
1.66624
1.59056
1.49731
1.38274
1.26115
3.20728
2.93302
2.65691
2.40388
2.18456
2.00337
1.8745
1.80207
1.77885
1.79042
1.82173
1.85998
1.89868
1.93407
1.96239
1.98138
1.9906
1.98672
1.96723
1.93031
1.8729
1.79183
1.68424
1.5453
1.38489
3.02175
2.83522
2.63037
2.42982
2.24692
2.09258
1.97932
1.91386
1.89243
1.90404
1.93668
1.97894
2.02322
2.06562
2.10297
2.13259
2.15275
2.1611
2.15457
2.13039
2.0853
2.01515
1.91489
1.77655
1.59725
3.00921
2.82923
2.65012
2.48235
2.32708
2.1936
2.09171
2.02906
2.00517
2.0114
2.03823
2.07728
2.12183
2.16734
2.21009
2.24737
2.27709
2.29803
2.30763
2.30213
2.27713
2.22991
2.15742
2.0544
1.90921
2.99817
2.84048
2.6901
2.55009
2.419
2.3034
2.21096
2.14823
2.11761
2.11453
2.1326
2.16493
2.2055
2.24962
2.29409
2.33617
2.37325
2.40256
2.42169
2.42821
2.41948
2.39097
2.33918
2.26616
2.17471
2.9791
2.85404
2.73528
2.62142
2.51286
2.41437
2.33082
2.26691
2.22894
2.21507
2.22169
2.24408
2.27761
2.31814
2.36201
2.40627
2.4485
2.48571
2.51472
2.53164
2.53217
2.5124
2.46886
2.3993
2.30319
2.95922
2.84242
2.74748
2.66121
2.58163
2.50457
2.43453
2.37448
2.33302
2.31023
2.30605
2.31828
2.34357
2.37859
2.42012
2.46484
2.51051
2.55386
2.59145
2.61906
2.63144
2.62342
2.58751
2.52318
2.43099
2.70863
2.69066
2.66011
2.61978
2.57746
2.53474
2.48907
2.4443
2.40911
2.38588
2.37634
2.3809
2.39958
2.43001
2.46942
2.51452
2.56334
2.61237
2.65807
2.69615
2.72111
2.72678
2.70611
2.65509
2.57575
2.32387
2.43259
2.48845
2.5155
2.51824
2.50684
2.48979
2.46638
2.4451
2.42846
2.42155
2.42679
2.44279
2.47078
2.50872
2.55571
2.60841
2.66356
2.71763
2.76639
2.80453
2.82573
2.82252
2.79166
2.73595
2.20439
2.29387
2.36109
2.40879
2.43892
2.45636
2.46247
2.45962
2.45294
2.44717
2.44492
2.4512
2.46962
2.49893
2.53848
2.58919
2.64724
2.70951
2.77252
2.83224
2.88373
2.9211
2.93571
2.92576
2.88921
2.07006
2.18732
2.27954
2.3465
2.39384
2.42288
2.44058
2.45087
2.45621
2.45989
2.46453
2.47433
2.49406
2.52581
2.5685
2.62279
2.68593
2.75502
2.82663
2.89701
2.96175
3.01601
3.05246
3.07096
3.07249
2.02628
2.1683
2.28186
2.36594
2.42286
2.45912
2.4785
2.48809
2.49231
2.49481
2.50022
2.51206
2.53159
2.56301
2.6075
2.66432
2.73126
2.80561
2.88416
2.96339
3.03933
3.10794
3.16283
3.20367
3.22811
2.09268
2.25606
2.38492
2.47832
2.53912
2.57326
2.58668
2.58668
2.58043
2.57403
2.57234
2.57874
2.59515
2.62433
2.6672
2.7235
2.79061
2.86676
2.94933
3.0345
3.11901
3.19995
3.27316
3.34253
3.40718
2.26368
2.44869
2.5843
2.67615
2.73094
2.755
2.75646
2.74116
2.71927
2.69809
2.6829
2.67793
2.686
2.70869
2.74664
2.79952
2.86471
2.93978
3.02255
3.10945
3.19774
3.28528
3.36874
3.45217
3.53084
2.59456
2.76181
2.87309
2.94312
2.97712
2.98169
2.96451
2.93133
2.89097
2.8516
2.81997
2.80105
2.79781
2.81166
2.84256
2.88948
2.94985
3.02076
3.09994
3.18436
3.27201
3.36207
3.45338
3.55244
3.65975
3.07194
3.1693
3.22443
3.24904
3.24769
3.2242
3.1834
3.1305
3.07204
3.01555
2.9682
2.93549
2.92062
2.92462
2.94708
2.98618
3.03903
3.10252
3.17388
3.25066
3.3313
3.41549
3.5032
3.59991
3.70575
3.59076
3.59408
3.57822
3.54986
3.509
3.45567
3.39169
3.32
3.24531
3.17439
3.11415
3.06984
3.0445
3.03881
3.05172
3.08106
3.12379
3.17654
3.23618
3.30045
3.36813
3.43979
3.51699
3.60495
3.70795
4.00917
3.93462
3.86837
3.80424
3.73565
3.66068
3.57911
3.49269
3.40548
3.32346
3.25285
3.19862
3.16357
3.14787
3.15048
3.16866
3.19894
3.23767
3.28154
3.32834
3.37684
3.42802
3.48355
3.54482
3.61329
4.21164
4.15383
4.08523
4.0113
3.92987
3.84117
3.74663
3.64845
3.55079
3.45957
3.38055
3.31803
3.27422
3.24934
3.24143
3.24745
3.26391
3.28688
3.31296
3.33931
3.36505
3.39147
3.42142
3.45937
3.51501
4.43053
4.3645
4.28708
4.20346
4.11055
4.00989
3.90376
3.79506
3.68838
3.58942
3.50332
3.43374
3.38196
3.34776
3.32925
3.32365
3.32694
3.33501
3.34372
3.34976
3.35085
3.34529
3.33136
3.3053
3.26583
4.65447
4.57862
4.48998
4.39508
4.29013
4.17732
4.05965
3.94087
3.82595
3.72023
3.62815
3.55232
3.4936
3.45142
3.42452
3.40951
3.40272
3.39998
3.3973
3.39072
3.37669
3.35132
3.30696
3.23262
3.11799
4.90083
4.8078
4.70359
4.59465
4.47632
4.35089
4.22175
4.0934
3.97096
3.8591
3.7614
3.67974
3.61531
3.56839
3.53699
3.51678
3.50486
3.49745
3.49091
3.48175
3.46613
3.43847
3.38979
3.31199
3.20426
5.15819
5.04966
4.92968
4.80589
4.67381
4.53584
4.39598
4.25926
4.13053
4.01373
3.91172
3.82654
3.75946
3.70951
3.67535
3.65385
3.64157
3.63526
3.63165
3.6273
3.61741
3.5939
3.54644
3.4667
3.35105
5.44311
5.31168
5.17251
5.03242
4.88607
4.73609
4.58693
4.44356
4.31018
4.18994
4.08519
3.9986
3.93079
3.88028
3.84542
3.82435
3.8142
3.81201
3.81488
3.81941
3.81983
3.80682
3.76995
3.7025
3.59925
5.73045
5.58331
5.42802
5.27327
5.11383
4.95345
4.7969
4.64846
4.51169
4.38965
4.28461
4.19749
4.1288
4.07823
4.04431
4.02495
4.01777
4.02032
4.0301
4.04386
4.05576
4.05724
4.04031
4.0028
3.94192
6.04591
5.87435
5.69949
5.52915
5.3574
5.18809
5.02559
4.87363
4.73513
4.61222
4.5066
4.4193
4.35082
4.30057
4.26732
4.24909
4.2438
4.24927
4.26315
4.2823
4.30177
4.31448
4.31491
4.30703
4.29617
6.3519
6.16766
5.97871
5.79573
5.61422
5.43827
5.2717
5.11728
4.97731
4.85361
4.7476
4.66014
4.59156
4.54121
4.50771
4.48922
4.48377
4.48923
4.50323
4.52251
4.54267
4.55684
4.55787
4.54809
4.52695
6.68391
6.47588
6.26887
6.07268
5.88252
5.70106
5.53101
5.37448
5.23325
5.1088
5.00229
4.91434
4.84507
4.79374
4.75886
4.73866
4.73123
4.73449
4.7461
4.76302
4.78067
4.79318
4.79189
4.7802
4.75694
6.99108
6.77539
6.55807
6.35282
6.15647
5.97088
5.79806
5.6397
5.49724
5.37189
5.26453
5.17556
5.10494
5.05181
5.0146
4.99165
4.98111
4.98098
4.98901
5.00238
5.01742
5.02884
5.02897
5.02359
5.01044
7.3223
7.08385
6.8508
6.63521
6.43259
6.24298
6.06745
5.9072
5.76334
5.63677
5.5281
5.43756
5.36496
5.30933
5.26909
5.24271
5.22845
5.2244
5.22844
5.23791
5.25055
5.26172
5.26486
5.26969
5.27299
7.61191
7.37126
7.13218
6.91085
6.704
6.51125
6.33333
6.17122
6.02576
5.89768
5.78731
5.69468
5.61955
5.56084
5.51705
5.48675
5.46835
5.46016
5.4604
5.46694
5.47741
5.48948
5.49967
5.51925
5.54932
7.92543
7.66257
7.40947
7.17959
6.96756
6.77136
6.59092
6.4269
6.27988
6.14988
6.03738
5.94232
5.86436
5.80225
5.75459
5.72005
5.69719
5.68445
5.6803
5.68296
5.68958
5.69881
5.70898
5.72742
5.75072
8.18606
7.92301
7.66549
7.43117
7.21596
7.01739
6.83501
6.66933
6.5208
6.38924
6.27524
6.17777
6.09643
6.03074
5.97924
5.94056
5.91338
5.896
5.8872
5.88564
5.88922
5.89755
5.91088
5.93696
5.97613
8.46788
8.17848
7.90677
7.6648
7.44601
7.24548
7.06161
6.89448
6.74441
6.61217
6.49618
6.3968
6.31362
6.24496
6.18958
6.14691
6.11566
6.09415
6.0811
6.07546
6.07551
6.08077
6.09147
6.11231
6.13984
8.62957
8.36766
8.10716
7.86807
7.65072
7.45146
7.26824
7.10133
6.95064
6.8166
6.6987
6.59778
6.51311
6.44243
6.38478
6.3388
6.30323
6.27814
6.26234
6.25386
6.25163
6.25569
6.26746
6.29332
6.33382
8.86717
8.57558
8.30116
8.0548
7.8353
7.63651
7.45429
7.28813
7.13804
7.00361
6.88637
6.78448
6.69717
6.62446
6.5652
6.51714
6.47948
6.45149
6.43218
6.42112
6.41612
6.41702
6.4247
6.44306
6.46868
9.00834
8.72445
8.45427
8.21114
7.9941
7.79805
7.61865
7.45436
7.30624
7.17453
7.0581
6.95652
6.86915
6.79518
6.73343
6.6834
6.64472
6.61519
6.59399
6.5805
6.5735
6.57317
6.58137
6.60393
6.64166
9.08485
8.82854
8.57531
8.34142
8.12989
7.93886
7.76439
7.60465
7.45957
7.32925
7.21323
7.11277
7.02707
6.95359
6.89149
6.84059
6.79964
6.76881
6.74698
6.7317
6.72231
6.719
6.72265
6.73674
6.75784
9.20359
8.94287
8.69011
8.4584
8.2501
8.06342
7.89418
7.73935
7.59809
7.4705
7.35811
7.25947
7.1739
7.10096
7.04004
6.99002
6.9494
6.91778
6.89387
6.87751
6.86717
6.86326
6.86776
6.8863
6.91968
9.29717
9.03495
8.78521
8.55853
8.35568
8.17416
8.01008
7.86114
7.72548
7.6032
7.49407
7.39803
7.31462
7.24347
7.18322
7.13296
7.09322
7.0617
7.03714
7.01857
7.00648
6.99993
7.00119
7.01264
7.03116
9.30173
9.07729
8.85244
8.64125
8.44917
8.27609
8.11954
7.97715
7.84735
7.72964
7.62355
7.5306
7.4503
7.38165
7.32299
7.27381
7.23352
7.20196
7.17767
7.15861
7.1452
7.13868
7.14047
7.15637
7.18965
9.34302
9.13702
8.92731
8.72753
8.54459
8.37839
8.22865
8.09213
7.96793
7.85467
7.75368
7.66407
7.58572
7.51781
7.46076
7.41379
7.37485
7.34321
7.31736
7.29775
7.28284
7.27306
7.26842
7.2723
7.27969
9.41986
9.22126
9.02014
8.82828
8.65197
8.49091
8.34473
8.21333
8.09325
7.9846
7.88664
7.79956
7.72334
7.65747
7.60158
7.5547
7.51694
7.48559
7.45952
7.43844
7.42333
7.41329
7.41088
7.41959
7.43829
9.52966
9.33546
9.13756
8.94906
8.77551
8.61755
8.47379
8.34415
8.22649
8.1196
8.02277
7.93735
7.86304
7.79955
7.74513
7.69914
7.66062
7.62914
7.60353
7.58212
7.56514
7.55382
7.54768
7.55079
7.56365
9.66661
9.47568
9.27717
9.08855
8.91483
8.75629
8.61307
8.48312
8.36683
8.26105
8.16678
8.08275
8.00891
7.94484
7.8911
7.84678
7.8093
7.77786
7.75151
7.73032
7.71362
7.70187
7.69568
7.70217
7.72297
9.84713
9.64173
9.43642
9.24437
9.06875
8.90863
8.76307
8.63222
8.51454
8.40974
8.31572
8.23207
8.15873
8.09544
8.04194
7.99711
7.96017
7.92905
7.90293
7.88158
7.86545
7.85275
7.84402
7.84023
7.8372
10.0385
9.82242
9.61067
9.41462
9.23454
9.06992
8.92075
8.78699
8.6672
8.56032
8.46446
8.38033
8.30748
8.24529
8.19243
8.14793
8.11087
8.08066
8.05656
8.03764
8.02292
8.01318
8.00774
8.01075
8.02315
10.225
10.008
9.79042
9.58892
9.40235
9.23104
9.07699
8.93894
8.81663
8.70744
8.61152
8.52693
8.45325
8.39034
8.33819
8.29561
8.26107
8.23309
8.21123
8.19465
8.18245
8.17421
8.16901
8.17031
8.1747
10.4528
10.2118
9.97641
9.76107
9.56441
9.38627
9.22597
9.0827
8.95564
8.84471
8.74729
8.66212
8.58852
8.52701
8.47651
8.43562
8.40323
8.37841
8.36058
8.34877
8.3433
8.34273
8.34751
8.36171
8.38595
10.6583
10.3987
10.1458
9.91547
9.70623
9.51799
9.35037
9.20216
9.07197
8.95845
8.85938
8.77467
8.70334
8.64377
8.59513
8.55659
8.52707
8.50702
8.49588
8.49299
8.49685
8.5069
8.52191
8.54263
8.56224
10.8859
10.5745
10.2838
10.0282
9.80162
9.60161
9.42757
9.27682
9.14689
9.03401
8.93763
8.85548
8.78647
8.72904
8.68276
8.64787
8.62391
8.61031
8.60746
8.61566
8.6345
8.6643
8.70553
8.76137
8.82953
11.0399
10.6702
10.3368
10.0535
9.81259
9.60828
9.43498
9.28817
9.16341
9.05795
8.9684
8.89181
8.8267
8.77343
8.73112
8.69925
8.67829
8.66875
8.67223
8.69056
8.72576
8.7794
8.85235
8.94394
9.03884
11.0367
10.6048
10.2301
9.92921
9.68799
9.4941
9.33777
9.21044
9.10526
9.01722
8.94168
8.87651
8.81995
8.77139
8.73074
8.69778
8.67367
8.66075
8.6625
8.68375
8.73055
8.81047
8.93257
9.10647
9.32456
10.8518
10.2757
9.85733
9.56854
9.36558
9.21978
9.11279
9.03127
8.96628
8.91065
8.86096
8.8147
8.77034
8.72689
8.68439
8.64375
8.60635
8.57503
8.55484
8.55335
8.58182
8.65624
8.79976
9.04373
9.40491
9.81694
9.29409
9.01403
8.87687
8.81491
8.79078
8.7837
8.78206
8.77906
8.77171
8.75796
8.73668
8.70731
8.66948
8.62319
8.56827
8.50509
8.43573
8.3639
8.29627
8.24428
8.22794
8.28231
8.47035
8.88377
7.43126
7.54474
7.76301
7.98555
8.18013
8.33996
8.46623
8.56237
8.63194
8.67798
8.70254
8.70728
8.69324
8.66058
8.60898
8.53779
8.44519
8.32907
8.18749
8.01862
7.82142
7.59786
7.3583
7.13795
7.03664
4.61533
5.85304
6.74503
7.35421
7.77786
8.082
8.3051
8.46995
8.59076
8.6748
8.72694
8.75069
8.74849
8.72082
8.6677
8.58785
8.47806
8.33252
8.14335
7.89905
7.58034
7.15557
6.56716
5.72288
4.55313
8.23818
7.85049
7.86941
8.01207
8.20044
8.39404
8.57176
8.72448
8.84926
8.94356
9.00648
9.03964
9.04616
9.02692
8.98278
8.91249
8.81407
8.68489
8.52334
8.33243
8.12518
7.93623
7.82988
7.91398
8.5657
22.2034
12.0544
9.68716
8.8895
8.63708
8.64209
8.76234
8.92434
9.10345
9.24887
9.3328
9.36219
9.36048
9.33897
9.3031
9.24917
9.17557
9.08078
8.96461
8.84404
8.78126
8.93637
9.73328
12.329
23.4035
43.1747
16.2938
10.6294
8.78298
8.04877
7.717
7.8543
8.1863
8.82256
9.26086
9.60435
9.57265
9.44964
9.36066
9.31327
9.2808
9.23142
9.16003
9.0359
8.88103
8.81751
9.06978
10.3301
16.5343
40.5916
26.5699
15.2368
6.67564
3.06574
1.50362
0.883943
0.90352
1.07127
1.7666
3.76002
5.78698
7.43088
8.36026
8.60735
8.54319
8.20705
8.19847
8.35845
8.65979
8.76826
8.63911
9.07893
11.4059
20.2059
40.7787
16.3386
13.648
7.58166
4.28473
1.82387
0.264261
0.254724
0.491531
0.822449
2.09835
4.86008
6.96418
8.09175
7.86067
5.71982
3.99427
3.86171
4.35678
5.79599
7.29195
8.04169
8.6232
11.216
18.06
27.7778
13.0642
13.0629
8.97674
6.96089
1.87516
0.189586
0.25438
1.77676
2.87314
4.0315
6.0129
6.8819
6.80032
3.33849
0.647473
0.303277
0.360264
0.741436
2.00549
4.72816
6.84403
8.14705
10.5391
15.7968
19.3694
10.089
11.2659
9.41548
4.06263
0.109794
0.00152687
0.281945
3.80949
4.86008
5.50061
5.85346
5.34827
2.41309
0.255785
0.00212821
0.0014994
0.00180247
0.00629457
0.171818
1.39975
3.85779
5.91565
8.8214
11.5745
10.6019
)
;

boundaryField
{
    inlet
    {
        type            calculated;
        value           nonuniform List<scalar> 
25
(
0.000866617
0.000866617
0.000866617
0.000866617
0.000866617
0.000866617
0.000866617
0.000866617
0.000866617
0.000866617
0.000866617
0.000866617
0.000866617
0.000866617
0.000866617
0.000866617
0.000866617
0.000866617
0.000866617
0.000866617
0.000866617
0.000866617
0.000866617
0.000866617
0.000866617
)
;
    }
    outlet
    {
        type            calculated;
        value           nonuniform List<scalar> 
25
(
0.000866612
0.000866612
0.000866612
0.000866612
0.000866612
0.000866612
0.000866612
0.000866612
0.000866612
0.000866612
0.000866612
0.000866612
0.000866612
0.000866612
0.000866612
0.000866612
0.000866612
0.000866612
0.000866612
0.000866612
0.000866612
0.000866612
8.8214
11.5745
10.6019
)
;
    }
    walls
    {
        type            compressible::alphatWallFunction;
        value           nonuniform List<scalar> 
150
(
0.0203994
0.0237367
0.0245574
0.0248409
0.0251406
0.0256725
0.0262449
0.0268021
0.0272088
0.0274655
0.0276283
0.0276724
0.027658
0.0276392
0.0276388
0.0276792
0.0277367
0.0277231
0.0276307
0.0273785
0.0269832
0.026751
0.0267688
0.0270454
0.0275076
0.0280402
0.0285392
0.02897
0.0293512
0.0296877
0.0300002
0.0303059
0.0306127
0.0309229
0.0312374
0.0315559
0.0318742
0.0321897
0.0324966
0.0327928
0.0330732
0.0333375
0.0335817
0.033806
0.034008
0.0341928
0.0343501
0.0344878
0.0346116
0.0347234
0.0348367
0.0349589
0.0350877
0.0352299
0.0353834
0.0355509
0.0357309
0.0359221
0.0361282
0.0363443
0.0365739
0.0368293
0.0371229
0.0374756
0.0379215
0.0385317
0.0394237
0.0406513
0.040549
0.0396952
0.0375696
0.0351861
0.0335279
0.0329419
0.0314668
0.0162127
0.020058
0.0214081
0.0220756
0.0224276
0.0225823
0.022548
0.0225184
0.0225985
0.0230198
0.0238235
0.0246734
0.0253236
0.025767
0.0261441
0.0264808
0.0267636
0.0270174
0.0272724
0.0275366
0.0278023
0.0280477
0.0282678
0.0284558
0.0286106
0.0287247
0.028786
0.0287894
0.0287464
0.028692
0.0286883
0.0287674
0.0289426
0.0292314
0.0295973
0.0300111
0.0304334
0.0308513
0.0312689
0.0316658
0.0319958
0.0322532
0.0324928
0.0327125
0.0329187
0.0331102
0.0332928
0.0334648
0.033632
0.0337937
0.0339553
0.0341154
0.0342802
0.0344466
0.0346169
0.0347974
0.0349916
0.0351934
0.0354173
0.0356674
0.0359502
0.0362752
0.0366625
0.0371322
0.0377281
0.0385293
0.0396645
0.0411462
0.0411331
0.0402741
0.0377937
0.0360027
0.0343822
0.0337023
0.0322761
)
;
    }
    defaultFaces
    {
        type            empty;
    }
}


// ************************************************************************* //
