/*--------------------------------*- C++ -*----------------------------------*\
| =========                 |                                                 |
| \\      /  F ield         | OpenFOAM: The Open Source CFD Toolbox           |
|  \\    /   O peration     | Version:  2312                                  |
|   \\  /    A nd           | Website:  www.openfoam.com                      |
|    \\/     M anipulation  |                                                 |
\*---------------------------------------------------------------------------*/
FoamFile
{
    version     2.0;
    format      ascii;
    arch        "LSB;label=32;scalar=64";
    class       volScalarField;
    location    "0.875/water";
    object      Ct2;
}
// * * * * * * * * * * * * * * * * * * * * * * * * * * * * * * * * * * * * * //

dimensions      [0 0 0 0 0 0 0];

internalField   nonuniform List<scalar> 
1503
(
1
1.00000206894
1.44124566608
2.82467639921
6.60826171645
8.51557920987
8.90792891847
8.96385385872
8.96961718033
8.96881524452
8.96882365321
8.96900217
8.96926510552
8.96953746048
8.96979065841
8.97001145743
8.97019389036
8.97033538834
8.97043549395
8.97049612176
1
1
1.00000046884
1.41195809242
2.09033070043
4.79993604755
7.57329291351
8.68159191809
8.93771330116
8.96309632103
8.95929877123
8.95644415917
8.95490931245
8.95413440577
8.95374526674
8.95354171782
8.95342737911
8.95335891876
8.95331766057
8.9532953504
1
1
1
1.06784417032
1.45747557028
2.39759887228
5.1544709154
7.73617916511
8.75858682911
8.95695449452
8.96521244651
8.96167110895
8.95935361142
8.9580857336
8.95746153814
8.95717854395
8.95706000867
8.95701502174
8.95700063666
8.95699783389
1
1
1
1
1.27848095851
1.54271261338
2.88420983232
5.94788704355
8.2197387465
8.89399768503
8.96680998886
8.96398326611
8.96075596594
8.95867657833
8.95750182443
8.95689475131
8.9566003606
8.95646371567
8.95640197699
8.95637462663
1
1
1
1
1.00000120548
1.37006131888
1.68255485869
3.64100881736
7.00891339294
8.67593070066
8.95817907331
8.96627522618
8.96270314993
8.96005700641
8.95838855696
8.95744151945
8.95694252758
8.95669228632
8.95656978418
8.95650995738
1
1
1
1
1
1.00041236833
1.40183997138
1.92944501329
4.78444442665
8.03125778465
8.9061570763
8.96759728768
8.96440448386
8.96137049912
8.95926937392
8.95797536361
8.95724296499
8.95685221762
8.95665070157
8.95654795634
1
1
1
1
1
1
1.01240226111
1.42470342311
2.4238782616
6.3189595302
8.68570329368
8.96338831506
8.9658881026
8.9626316849
8.96018864422
8.95857603707
8.95760575059
8.95706078649
8.95676869257
8.95661647039
1
1
1
1
1
1
1
1.11073579484
1.49826969008
3.54453578528
7.86250122847
8.9269025549
8.96702371178
8.96377361361
8.96106842572
8.95917572212
8.95797633245
8.95727270499
8.95688351996
8.95667855872
1
1
1
1
1
1
1
1.00000000452
1.3312103887
1.81169613084
5.71971516657
8.73601191124
8.96600877538
8.96478967409
8.96187948544
8.95974446007
8.9583335982
8.95747644712
8.95699137415
8.95673416196
1
1
1
1
1
1
1
1
1.00142772615
1.42092646723
3.04819569376
7.98995345899
8.94971478179
8.96574346949
8.96264784277
8.96028716815
8.95867942587
8.95767650431
8.95709744557
8.95678919263
1
1
1
1
1
1
1
1
1
1.20015522133
1.71416724405
6.04508789805
8.84475891957
8.96642713404
8.96349864532
8.96086909158
8.95905234747
8.95790096251
8.95722654808
8.9568655893
1
1
1
1
1
1
1
1
1
1.00003990914
1.41355532001
3.28574230779
8.29769354587
8.95963307121
8.96458028472
8.9615957697
8.95952676762
8.95820611745
8.95742260238
8.95699757039
1
1
1
1
1
1
1
1
1
1
1.09581636062
1.67859587008
6.19548224754
8.86660256027
8.96583647863
8.96259375799
8.96019033893
8.95865370521
8.95772966815
8.95721646298
1
1
1
1
1
1
1
1
1
1
1.00000000009
1.38119083024
2.74859122822
8.10285011262
8.95666063278
8.96391704841
8.96108715671
8.95927069257
8.95816270795
8.95752965764
1
1
1
1
1
1
1
1
1
1
1
1.00014097681
1.46630173916
5.12915057768
8.81290423674
8.96512812762
8.96218516452
8.96002891875
8.958694153
8.95791189349
1
1
1
1
1
1
1
1
1
1
1
1
1.13235491661
2.09511393726
7.83630207305
8.95477477175
8.96340813175
8.96086947276
8.9592731392
8.95831926821
1
1
1
1
1
1
1
1
1
1
1
1
1.00000000029
1.4278209452
5.12387382135
8.85404197234
8.9644704109
8.96174686989
8.9598557065
8.958710602
1
1
1
1
1
1
1
1
1
1
1
1
1
1.22171786643
2.64883171676
8.42985547569
8.96297248946
8.96263371992
8.96041263068
8.95905642177
1
1
1
1
1
1
1
1
1
1
1
1
1
1.00348059895
1.74460347214
7.52617518225
8.95289082877
8.96351606433
8.96093719457
8.95934730638
1
1
1
1
1
1
1
1
1
1
1
1
1
1.00000202312
1.49938467895
6.3922792048
8.92820779091
8.96442071561
8.96146793811
8.95960954672
1
1
1
1
1
1
1
1
1
1
1
1
1
1.00000000003
1.42428556001
5.19973594671
8.87936968601
8.96539074357
8.96208255482
8.95990248159
1
1
1
1
1
1
1
1
1
1
1
1
1
1
1.37498893901
3.72695448678
8.74653233982
8.96620050595
8.96287157243
8.96029861637
1
1
1
1
1
1
1
1
1
1
1
1
1
1
1.03504469486
2.15815840578
8.2286387554
8.96410746433
8.96390035145
8.96085958943
1
1
1
1
1
1
1
1
1
1
1
1
1
1
1
1.44793002348
6.35175575203
8.93493854254
8.96515486667
8.96160870083
1
1
1
1
1
1
1
1
1
1
1
1
1
1
1
1.08702432207
3.06321066665
8.69309638339
8.96583282455
8.96252978061
1
1
1
1
1
1
1
1
1
1
1
1
1
1
1
1
1.54327033175
7.39505858918
8.95444981957
8.96358900323
1
1
1
1
1
1
1
1
1
1
1
1
1
1
1
1
1.3241111584
4.36219231304
8.85020370825
8.96470988804
1
1
1
1
1
1
1
1
1
1
1
1
1
1
1
1
1.00026243915
2.09344251399
8.34039044162
8.96373350161
1
1
1
1
1
1
1
1
1
1
1
1
1
1
1
1
1
1.47286026125
6.90775303619
8.94741555584
1
1
1
1
1
1
1
1
1
1
1
1
1
1
1
1
1
1.36651721128
4.66502252514
8.87267619726
1
1
1
1
1
1
1
1
1
1
1
1
1
1
1
1
1
1.02750044319
2.68191725795
8.61573021467
1
1
1
1
1
1
1
1
1
1
1
1
1
1
1
1
1
1.00000000292
1.6916330545
7.86280441651
1
1
1
1
1
1
1
1
1
1
1
1
1
1
1
1
1
1
1.42266804623
6.21830365229
1
1
1
1
1
1
1
1
1
1
1
1
1
1
1
1
1
1
1.29320221291
4.07293523334
1
1
1
1
1
1
1
1
1
1
1
1
1
1
1
1
1
1
1.01734759449
2.51841379255
1
1
1
1
1
1
1
1
1
1
1
1
1
1
1
1
1
1
1.00000832145
1.78720336129
1
1
1
1
1
1
1
1
1
1
1
1
1
1
1
1
1
1
1.00000000001
1.50704162155
1
1
1
1
1
1
1
1
1
1
1
1
1
1
1
1
1
1
1
1.41897966238
8.97052225511
8.97052006335
8.97049488732
8.970450915
8.97039084482
8.97031592879
8.97022647275
8.97012259532
8.97000528817
8.96987830285
8.96975183279
8.96965026601
8.96962799604
8.96979830747
8.9703599668
8.97150037713
8.97280865982
8.97351160419
8.97357730047
8.97360850685
8.95328713421
8.9532895364
8.95330036445
8.95331840494
8.95334398361
8.95338012948
8.95343512706
8.95352803312
8.9536995698
8.95403159435
8.95467725002
8.95589550671
8.95805477365
8.96150002661
8.9660914405
8.97050062852
8.97290111346
8.9734965388
8.97358421642
8.97360076998
8.95699848655
8.95699934675
8.95700000963
8.9570016859
8.95700791261
8.95702701972
8.95707699419
8.95719422074
8.95744728185
8.95795483845
8.95889979651
8.96051666606
8.96300495571
8.96630886132
8.9697976778
8.97231802474
8.97333749337
8.97354788929
8.9735830639
8.9736050247
8.95636330798
8.95636001299
8.95636262255
8.95637318045
8.95639928578
8.95645815587
8.95658400281
8.9568390839
8.95732666841
8.9581991161
8.9596454366
8.96183231206
8.96477145717
8.96812345076
8.97109361905
8.97285173357
8.97343926652
8.97354996111
8.97358099021
8.97360343363
8.95648171723
8.95647117762
8.95647420261
8.95649431186
8.95654459838
8.95665277809
8.95686953232
8.95727821958
8.95800096006
8.95919091738
8.96099556702
8.96347611278
8.96648399069
8.96954499763
8.97192262573
8.97313261899
8.97348189466
8.97354944998
8.97357953743
8.97360321809
8.95649783915
8.9564788375
8.95648393472
8.95651874787
8.95660307238
8.95677607211
8.95710369081
8.95768409746
8.95864420716
8.96011735323
8.96219247553
8.96483282061
8.96778226811
8.97052150596
8.97242852164
8.97328006171
8.97349759222
8.9735480734
8.9735790643
8.97360360284
8.95654253456
8.95651601214
8.95652644091
8.95658208243
8.95671004666
8.95696043089
8.95741095537
8.95816641264
8.95934581901
8.96105014323
8.96330759682
8.96600329182
8.96881776559
8.97123565803
8.9727600923
8.97336184852
8.97350338203
8.97354760948
8.97357924545
8.973604609
8.95658112203
8.95654992697
8.95657097296
8.95665530672
8.95683726307
8.95717623668
8.95775727857
8.95868422167
8.96005945977
8.96194685386
8.96431989758
8.96700608935
8.96965232017
8.97176986084
8.97298216582
8.97340678988
8.97350573203
8.97354783881
8.97357987077
8.97360605189
8.95661519509
8.95658364235
8.95662172717
8.95674316229
8.95698875983
8.95742481545
8.95813910692
8.95922839789
8.96077344948
8.96280118458
8.96523914349
8.9678740109
8.97033723957
8.97217706033
8.97313178617
8.9734312209
8.97350728373
8.97354848053
8.97358082024
8.9736078076
8.95665113771
8.95662342031
8.95668446942
8.95685037432
8.95716718787
8.95770537655
8.95855128983
8.95979028235
8.96147937964
8.96361134619
8.96607645115
8.96863277525
8.97090676122
8.9724895492
8.97323153958
8.97344475041
8.97350882431
8.97354931589
8.97358203185
8.97360978839
8.95670764267
8.95668479179
8.95677182584
8.95698656813
8.95737866295
8.95801994142
8.95899185692
8.96036559014
8.96217424482
8.96438019738
8.96684378038
8.96930261507
8.9713841031
8.97272854878
8.97329692889
8.97345288471
8.97351045734
8.97355025319
8.97358346155
8.97361193491
8.95681098687
8.95678774437
8.95689870216
8.95716216033
8.95762926762
8.95837043878
8.95945944212
8.96095170177
8.96285726909
8.96511189343
8.96755152838
8.96989831711
8.97178480339
8.97290921228
8.97333927248
8.97345850455
8.97351209445
8.97355127168
8.97358506922
8.97361420487
8.95698320088
8.95694756164
8.95707528084
8.9573831253
8.95792127088
8.95875602842
8.95995127037
8.96154586269
8.96352809292
8.96581028519
8.96820778959
8.97043008115
8.97211945839
8.9730434345
8.97336680629
8.97346294777
8.97351364221
8.97355236918
8.9735868137
8.97361656419
8.95722712893
8.95716428752
8.95729965345
8.95764595709
8.9582497967
8.95917093595
8.96046165499
8.96214394689
8.96418565009
8.96647807145
8.96881816981
8.97090443728
8.97239577818
8.9731412213
8.97338521324
8.97346673609
8.97351504556
8.97355353087
8.97358864976
8.97361898073
8.95752095861
8.95741946359
8.95755607673
8.95793697144
8.95860279554
8.95960474553
8.96098230156
8.96274057375
8.96482809003
8.96711671503
8.96938601201
8.97132519537
8.97262009022
8.97321119498
8.97339812317
8.97347000856
8.97351627826
8.97355472152
8.97359052705
8.97362142086
8.95782831922
8.95768361518
8.95782073974
8.95823686923
8.95896465748
8.96004515537
8.96150424161
8.96333029724
8.96545339791
8.9677267626
8.96991277591
8.97169437446
8.9727983302
8.97326064483
8.97340766574
8.9734727576
8.97351732395
8.97355589215
8.97359239275
8.97362384929
8.95811361671
8.95792750849
8.95807022085
8.95852715674
8.95932103332
8.96048145919
8.96202016973
8.9639090079
8.96606011503
8.9683081844
8.97039842547
8.97201314055
8.97293658985
8.97329545068
8.97341499398
8.97347494829
8.9735181672
8.97355699266
8.97359419788
8.97362623164
8.95835071045
8.95812976339
8.95828782201
8.95879519153
8.95966265491
8.96090724604
8.96252617228
8.96447488614
8.96664775045
8.96886053872
8.97084184201
8.97228276886
8.97304126918
8.97332008864
8.9734207029
8.97347657274
8.9735187976
8.97355798501
8.97359590547
8.97362853881
8.95853076725
8.95828351745
8.95846884679
8.95903811355
8.95998806514
8.96132212404
8.96302266313
8.96502877546
8.96721682501
8.96938300401
8.97124138397
8.9725055177
8.97311888106
8.97333778712
8.97342512053
8.97347767011
8.97351922124
8.97355885418
8.97359749822
8.97363075193
8.95867251007
8.95840301696
8.95862469532
8.95926520691
8.96030479433
8.96173212082
8.96351431665
8.96557388294
8.96776855123
8.96987437143
8.97159562545
8.97268515935
8.97317563967
8.97335078933
8.97342848346
8.97347832828
8.9735194711
8.97355961403
8.97359898329
8.97363286615
8.95882031029
8.95852176657
8.95878090526
8.95949590472
8.96062746927
8.96214801606
8.96400869532
8.9661147392
8.96830420241
8.97033308586
8.97190413096
8.97282695636
8.97321704033
8.97336063382
8.97343102203
8.97347867464
8.97351960956
8.97356030643
8.97360039206
8.97363489223
8.95902953358
8.9586816459
8.95896894669
8.9597536178
8.96097325465
8.96258207054
8.96451399206
8.96665574302
8.96882439315
8.9707574003
8.97216799453
8.9729371151
8.97324759473
8.97336838396
8.97343298229
8.97347885887
8.97351972064
8.97356099281
8.97360177422
8.97363685478
8.95934831038
8.95891903807
8.959215962
8.96005839193
8.96135676471
8.96304460911
8.96503681353
8.96719982344
8.96932852237
8.97114561246
8.97238991656
8.97302200041
8.97327076518
8.97337478282
8.9734346109
8.97347903097
8.97351989477
8.97356174078
8.97360318767
8.973638788
8.9597993013
8.95925245211
8.95953650734
8.96042152841
8.96178661573
8.9635418171
8.96558076331
8.96774757994
8.96981448517
8.97149627525
8.97257382791
8.97308744702
8.97328904931
8.973380346
8.97343612666
8.97347931995
8.97352021177
8.97356260982
8.97360468714
8.97364072996
8.96037824925
8.95968172861
8.95993230384
8.96084559332
8.96226544599
8.96407563598
8.96614620037
8.96829703228
8.97027868365
8.97180835862
8.97272432163
8.97313836198
8.97330414579
8.97338541999
8.97343769755
8.97347981932
8.97352072834
8.97356364094
8.97360631507
8.97364271734
8.96107174656
8.9601994636
8.96039950461
8.96132888884
8.96279246997
8.96464502476
8.96673070486
8.9688437687
8.97071631202
8.97208143438
8.97284617217
8.97317861856
8.97331714573
8.97339022548
8.97343943169
8.97348058184
8.97352147256
8.97356485181
8.97360809655
8.97364478181
8.96187189468
8.96080067612
8.9609347494
8.96186898179
8.96336534794
8.96524681077
8.96732940683
8.96938122433
8.97112191461
8.97231593643
8.97294404182
8.97321113462
8.97332871261
8.97339489164
8.97344138017
8.97348162118
8.97352244381
8.97356623638
8.97361003756
8.97364694783
8.96277390567
8.96148316798
8.96153519398
8.96246252136
8.96397994733
8.9658755255
8.96793503614
8.96990115831
8.9714902312
8.97251342223
8.97302230669
8.97323802381
8.97333922667
8.97339947892
8.97344354376
8.97348291518
8.97352361403
8.97356776553
8.97361212461
8.97364923111
8.96378243587
8.96224269625
8.96219530298
8.963103321
8.96462937953
8.9665231465
8.96853824757
8.9703945544
8.97181719526
8.97267666389
8.97308491251
8.97326075481
8.97334888459
8.97340398936
8.97344587729
8.97348440699
8.97352492763
8.97356938677
8.97361432377
8.9736516367
8.96490674653
8.96307006421
8.96290584042
8.96378213483
8.9653042703
8.96717971914
8.969128562
8.97085284724
8.97210073357
8.97280944167
8.97313523703
8.97328029214
8.97335775705
8.97340836692
8.97344828899
8.97348600264
8.97352629885
8.97357102198
8.97361657828
8.97365415603
8.96573425869
8.96395277984
8.96365577134
8.96448827437
8.96599410036
8.96783452236
8.96969550166
8.97126900224
8.97234103311
8.97291607856
8.97317598898
8.97329721001
8.9733658139
8.97341249199
8.97345063606
8.97348756634
8.97352760778
8.97357256425
8.97361880537
8.97365676278
8.96323979576
8.96487632483
8.96443263005
8.96520994259
8.96668766492
8.96847659027
8.97022920746
8.97163802618
8.97254022082
8.97300088526
8.9732091712
8.97331177703
8.97337292892
8.97341617392
8.97345271852
8.97348891503
8.97352869622
8.97357387529
8.97362089345
8.97365940839
8.94353967982
8.96583187341
8.96521796504
8.96593195763
8.96737212299
8.96909440761
8.97072053766
8.97195700482
8.97270173641
8.97306771457
8.97323612324
8.97332402451
8.97337888262
8.97341915015
8.97345427856
8.97348981782
8.97352936766
8.97357478633
8.97362270242
8.97366201927
8.86252849236
8.96676670125
8.96598675536
8.96663619515
8.96803354962
8.96967630388
8.97116149344
8.97222514521
8.97282976471
8.97311974966
8.97325764527
8.97333381888
8.97338338099
8.97342110085
8.97345501193
8.97349000496
8.97352939461
8.97357510469
8.97362406875
8.97366449786
8.62148148901
8.96762302814
8.96671772055
8.96730748215
8.96865993279
8.97021197031
8.97154623812
8.97244394519
8.97292885021
8.97315951205
8.9732741752
8.97334094503
8.97338609569
8.97342168086
8.97345459316
8.97348918772
8.97352853388
8.97357462608
8.97362481492
8.97366672831
8.08712875639
8.96809543796
8.96740052805
8.96793661515
8.9692424679
8.9706933771
8.97187194571
8.97261709468
8.97300356439
8.97318896165
8.97328595006
8.97334517493
8.97338670466
8.97342055252
8.97345270197
8.97348707951
8.97352654301
8.97357314714
8.97362475856
8.97366858298
7.20527498409
8.96610058116
8.96803385201
8.96851895589
8.96977477605
8.97111506018
8.97213913191
8.97274991497
8.97305816285
8.97320959144
8.97329310414
8.9733463004
8.97338491476
8.97341740589
8.97344904133
8.9734834116
8.97352319348
8.97357047595
8.97362372047
8.97366993116
6.09508712574
8.95874183589
8.96861492064
)
;

boundaryField
{
    emptyPatch
    {
        type            empty;
    }
    minY
    {
        type            calculated;
        value           nonuniform List<scalar> 
40
(
8.97363301803
8.97363389426
8.97363403702
8.97363420558
8.97363437136
8.9736345266
8.97363467013
8.97363480043
8.97363491625
8.97363501812
8.97363510668
8.97363518283
8.97363524784
8.9736353029
8.97363534902
8.97363538704
8.97363541765
8.9736354414
8.9736354587
8.97363546984
8.97363547492
8.9736354743
8.97363546874
8.9736354589
8.97363544525
8.97363542808
8.97363540758
8.97363538381
8.97363535675
8.97363532629
8.97363529229
8.97363525447
8.97363521242
8.97363516549
8.97363511278
8.97363505375
8.97363498922
8.97363491776
8.97363482121
8.97363384992
)
;
    }
    maxY
    {
        type            calculated;
        value           nonuniform List<scalar> 0();
    }
    water_to_cooler
    {
        type            calculated;
        value           nonuniform List<scalar> 
37
(
8.97363554291
8.97364011518
8.97364378552
8.97364731694
8.97365081122
8.97365428215
8.97365773966
8.97366118671
8.97366462378
8.97366804983
8.97367146293
8.97367486065
8.97367824063
8.97368160129
8.97368494253
8.97368826622
8.97369157615
8.97369487751
8.97369817587
8.97370147585
8.97370477983
8.97370808705
8.97371139323
8.97371469098
8.97371797056
8.97372122103
8.97372443123
8.97372759072
8.97373069066
8.97373372467
8.97373668963
8.97373958655
8.97374242116
8.97374520433
8.97374795199
8.97375068473
8.97375342724
)
;
    }
    water_to_heater
    {
        type            calculated;
        value           uniform 1;
    }
    procBoundary2to3
    {
        type            processor;
        value           nonuniform List<scalar> 
41
(
1
1
1
1
1
1
1
1
1
1
1
1
1
1
1
1
1
1
1
1.37777927225
8.96905022646
8.97025146399
8.97147414583
8.97235127863
8.97284842127
8.97309627366
8.97322247958
8.97329569807
8.97334412662
8.97338045865
8.97341195896
8.97344333977
8.97347793676
8.97351827318
8.97356643077
8.97362150932
8.97367059491
4.96975817743
8.94396226744
8.96905022646
8.96913640885
)
;
    }
}


// ************************************************************************* //
