/*--------------------------------*- C++ -*----------------------------------*\
| =========                 |                                                 |
| \\      /  F ield         | OpenFOAM: The Open Source CFD Toolbox           |
|  \\    /   O peration     | Version:  2312                                  |
|   \\  /    A nd           | Website:  www.openfoam.com                      |
|    \\/     M anipulation  |                                                 |
\*---------------------------------------------------------------------------*/
FoamFile
{
    version     2.0;
    format      ascii;
    arch        "LSB;label=32;scalar=64";
    class       volScalarField;
    location    "0.655/water";
    object      k.gas;
}
// * * * * * * * * * * * * * * * * * * * * * * * * * * * * * * * * * * * * * //

dimensions      [0 2 -2 0 0 0 0];

internalField   nonuniform List<scalar> 
1496
(
2.07781838056
1.02231608347
0.513573806913
0.251336411553
0.134368830568
0.0916360735581
0.0715095479421
0.0545281993695
0.0391065548257
0.0273990774673
0.019718653339
0.0152737232313
0.0128422633579
0.0112995943807
0.010033642243
0.00890268381418
0.00788206779037
0.00670730273539
0.0056701435135
0.00548209110856
2.03902288575
1.02083197697
0.519519410969
0.260687843368
0.133869850358
0.0834968382032
0.0615235791252
0.0467771296505
0.0348822673909
0.0258743418545
0.0197710394453
0.0160612441159
0.0138428045188
0.0122346844527
0.0108675982415
0.00960975039425
0.0082953436243
0.00685874811648
0.0059874788394
0.00578475808033
2.09359334408
1.02332526659
0.519425278008
0.266936148809
0.137425652423
0.0816354925096
0.0575094100449
0.0435751635275
0.0335009730278
0.0260272916915
0.020816973438
0.0174913280337
0.0152540676797
0.0135308552363
0.0120102908159
0.0104261978969
0.00863572264392
0.00719281843339
0.00642023875034
0.00608135596642
2.16926287727
1.03734240059
0.525751576757
0.278341434416
0.147115132057
0.0864783296776
0.0595082341688
0.0449561352609
0.0352381700421
0.0281705940343
0.0231799210429
0.0198213933996
0.0174465999086
0.0155646136759
0.013640732947
0.0113496460411
0.00919920578613
0.00776248943248
0.00691468608734
0.00637287782314
2.21260433729
1.05226877306
0.544951680418
0.299687046406
0.16450275415
0.09794676889
0.0668170787629
0.050303710157
0.0398039026431
0.0323515418704
0.0270384122993
0.0233379412798
0.0206917487089
0.0183156769943
0.015446577656
0.0124359373293
0.010033457257
0.00845192810455
0.00739161498027
0.00660804372894
2.19075454515
1.07389432826
0.581093543803
0.328733219213
0.186198208523
0.112809732281
0.0767546151702
0.0575423897398
0.0456468290154
0.0373470957174
0.0312822543371
0.0268562363568
0.0236196916077
0.0205092257704
0.0167929345682
0.0133726639167
0.0107963957882
0.0090204970555
0.00772517063771
0.00668984068576
2.16525505737
1.12440957569
0.610188642077
0.339193795127
0.194904100556
0.119446398295
0.0812775192309
0.0609247153193
0.0484102402215
0.0395728810937
0.0329624782884
0.0281736903795
0.0249184206505
0.0216530660996
0.0171892587951
0.0136356399932
0.0110774114226
0.00922983497898
0.00779907945013
0.00658880970749
2.38818768609
1.19056316554
0.578981984976
0.304870485374
0.175698256276
0.107789574584
0.072825065786
0.0553519922908
0.0447777840384
0.0373310783283
0.031732901694
0.0276675237158
0.0248047900598
0.0214222776945
0.0166822977477
0.0133608052786
0.0109584805584
0.00912605233571
0.00762331971119
0.00630201991009
2.79137928518
1.1828234108
0.518747016944
0.263298808297
0.153731813116
0.0950606858498
0.0613755241011
0.046628951421
0.0384218850533
0.0329508366656
0.0288092707611
0.0255242529319
0.0227329489329
0.0193809648389
0.0154922913556
0.0126595221884
0.0105002874308
0.00874263362682
0.00721411984418
0.00584000935473
3.05869473276
1.2253129119
0.511329615936
0.251803524932
0.150787315979
0.094228253287
0.0549740919017
0.0403724638005
0.0329927582108
0.0282393483816
0.024707218039
0.0218697776463
0.0192735153442
0.0164675097656
0.0137175966978
0.0114968397958
0.00965145751191
0.00801901235735
0.00652035018154
0.00519278399148
3.22067048414
1.29552130143
0.546468550716
0.269127476392
0.163871860943
0.103463352777
0.0554710381515
0.0384813010734
0.0301171071015
0.0248522572187
0.0211736576549
0.0183825266166
0.0160381741776
0.0138507247766
0.0118568151415
0.0101208930748
0.0085355227244
0.00701314554363
0.00559279801279
0.00443156079279
3.22526586868
1.33249842404
0.582580192158
0.294878366355
0.183102930169
0.116881489915
0.0625693348985
0.0413065072392
0.0308905826718
0.0242088546968
0.0195567852587
0.0162590354545
0.0138323425241
0.01190209024
0.0102640422312
0.00877540077655
0.00730907588265
0.00584874908852
0.0045569378619
0.0037522747131
3.10740932638
1.32153498171
0.598221497862
0.311862824243
0.196312612759
0.126356486023
0.0710354130331
0.0465289195736
0.0339716379673
0.0257056521701
0.0197575414891
0.0155431613893
0.0126405857657
0.0105857284178
0.00897219876128
0.00750397135699
0.00603321259243
0.0046347200103
0.00364285606366
0.00333947332562
2.97357046298
1.27996888536
0.590447150767
0.314057767583
0.199499240563
0.127875235206
0.0761076185523
0.051105427746
0.0373819862142
0.027984455741
0.0209161702069
0.015714141233
0.0121176279015
0.00967799674923
0.00786167648419
0.00627038244359
0.00478338202314
0.00359816704857
0.00306384105509
0.00306979020064
2.88025339197
1.23511922448
0.570246649173
0.304742655517
0.19362895477
0.121553615679
0.0770739432532
0.0538251918698
0.0399900025938
0.0300184107811
0.0221837097069
0.0161626351074
0.011875214705
0.00896834834188
0.00686893889354
0.00515181421238
0.0037616055009
0.00292700375356
0.00275813997574
0.00241742020098
2.83836769663
1.20595344349
0.54933869486
0.289695493589
0.179980174539
0.112216107624
0.0751318842308
0.0546883563811
0.0414619924378
0.0313453265642
0.0230697635878
0.0164816820359
0.0116597706696
0.00834906525326
0.00601009903124
0.00426200183626
0.00308938741769
0.00259743797572
0.00249496283381
0.00164505365439
2.85690395435
1.19377396568
0.52858492711
0.269545672144
0.157945085732
0.101388017141
0.0715505478463
0.0541060346651
0.0418182291369
0.0318305894255
0.023364246704
0.016453623526
0.0113000076071
0.00773903900058
0.00529540812844
0.00364898162761
0.00276008511088
0.00248124995138
0.0019536507746
0.00118639387974
2.94602874399
1.20627687579
0.516268492213
0.247276633519
0.138546839981
0.0911454072868
0.0672296226719
0.0524492165196
0.0411743604386
0.0314884203544
0.0230303720761
0.0160140701909
0.0107442719409
0.00712313653949
0.00473188859841
0.00330481381709
0.00268519190289
0.00237441429919
0.00152043245406
0.00100486966917
3.10549167924
1.24437067342
0.512488220277
0.224107797641
0.122230036084
0.0819806761753
0.0625244984979
0.0499346150769
0.0396466391813
0.030393478434
0.0221260775478
0.0152102875133
0.0100344320586
0.00653223909365
0.00433636959983
0.00320674888762
0.00276375689481
0.002085976571
0.00132050137132
0.000961292075255
3.35720236649
1.30040909207
0.507153336452
0.208564562444
0.108658881426
0.0735632194143
0.0574781305562
0.0466947415706
0.0373630566354
0.0286602431549
0.0207535149763
0.0141376397216
0.00924751313356
0.00601449005895
0.00413274820206
0.00330335690707
0.00280720140872
0.00185208879557
0.00127846966399
0.000934757051203
3.75259530136
1.39181033923
0.515582759421
0.199600169195
0.0976665340584
0.0657310450647
0.0521987533833
0.0429300173872
0.0345227146796
0.0264593906755
0.0190556175155
0.0129141788521
0.00846315700992
0.00561801058499
0.0041224392925
0.00348219916572
0.00263031658137
0.00174593442515
0.00129188320172
0.000913937266561
4.28756669272
1.5787917851
0.575987071893
0.204286587651
0.0898372105649
0.0586401801825
0.0469490772342
0.0389320551032
0.031386649557
0.0239976949987
0.0172033556492
0.0116669573692
0.00775671518108
0.00538491957762
0.00425803545509
0.00354961965424
0.00242358910475
0.00173007097725
0.00128973656747
0.000890095026993
5.03924357641
1.78487187738
0.66060004839
0.223143862224
0.0861495927269
0.0527372946673
0.0420940493445
0.0350271958061
0.0282269778892
0.021493765326
0.0153726639532
0.0105129127761
0.00719903844513
0.00533521355699
0.00440966668178
0.00333426098159
0.00231567811454
0.00174914798938
0.00126823499781
0.000826946417206
5.94286981277
2.00809395202
0.761393669396
0.258335780441
0.0885836246097
0.0486909565382
0.0380039822435
0.0315050617003
0.0252800104967
0.0191618967808
0.0137217931739
0.0095503546
0.00685546415147
0.00541581304839
0.00437236606101
0.00310143180651
0.00229763454879
0.00175621873679
0.00123586410209
0.000751829485792
6.47109375982
2.23903088541
0.881045945752
0.3109470841
0.0989675783333
0.0471066167158
0.0349644844954
0.0285806331056
0.0227496009244
0.0171590821052
0.0123576356089
0.00885431865657
0.00674451685592
0.00545992668512
0.00409975528418
0.00300240355127
0.00231930222804
0.00173198660645
0.00118386151985
0.000683548078043
6.80033668007
2.39526299143
0.973700383531
0.36038953031
0.114485675155
0.0481871267552
0.0331948426716
0.0264377732468
0.0207580378778
0.0155593815518
0.0113321103005
0.00847141596226
0.00676474880709
0.00532329891626
0.00389420250988
0.00302888787611
0.0023587402049
0.00171200333741
0.00114826413826
0.000665433348688
6.81459028096
2.45262526329
1.00478277089
0.38732664715
0.129323627504
0.0515881238239
0.0328235535649
0.0251167660981
0.0192824612807
0.0143496326694
0.0106618833183
0.00836371954006
0.00675995580118
0.00506419741297
0.00387164617522
0.00313075182625
0.00241689731113
0.00171729586536
0.00114875028186
0.000709596557684
6.46044928253
2.34881204662
0.974465597624
0.390792776698
0.140496821137
0.0566753734103
0.0336659998792
0.024428964237
0.0182113870761
0.0135025888506
0.0103284021299
0.00840574715792
0.0066463673691
0.00494060533426
0.00399815479237
0.00328120716628
0.0025078409119
0.00176853865912
0.00120467782085
0.000807548843766
5.92585746753
2.15129875153
0.908907081761
0.379423433142
0.147655488581
0.0620491287345
0.0350938507319
0.0241324243216
0.0174973645388
0.0130123643825
0.0102642431123
0.00847461679745
0.00649749532635
0.00500539344108
0.00421217215952
0.00347680839001
0.00264996904959
0.00188295852977
0.00132602921312
0.00096110991105
5.32798972089
1.93151735217
0.83292184651
0.362356202583
0.150774746877
0.0663054776483
0.0366490068412
0.0241712082293
0.0171652725214
0.0128670302071
0.0103868018387
0.00851723678869
0.00646510811259
0.0052073494062
0.0044788519875
0.00371789226503
0.00285511292928
0.00206753447323
0.00151254157691
0.00117185014684
4.73932868128
1.72667631676
0.762113541209
0.343028476714
0.149821241105
0.0692456534955
0.038272339313
0.02460097429
0.0172612018869
0.0130721107079
0.0106199800587
0.00855599509034
0.0065681761074
0.00549062271402
0.00478071957387
0.00399772068705
0.0031164099849
0.00231438430882
0.00175160696047
0.00142576805978
4.15213563171
1.52906196909
0.690247422426
0.319064554975
0.146111105635
0.0715723295041
0.0402487654147
0.0256193864987
0.0179270280666
0.0136129710296
0.0109417788837
0.00862687728728
0.00679529259014
0.00582364495651
0.00509898491735
0.00429877772856
0.00340880509935
0.00260020301708
0.0020210002702
0.00169606177536
3.4820498107
1.32350478217
0.614541774526
0.293452893996
0.143148821787
0.0748622643502
0.0433106492488
0.0276952484529
0.0192715128012
0.0145167601948
0.0113645146341
0.00880940753298
0.007137435247
0.00618182521775
0.00540772496148
0.00458978974439
0.00369767080554
0.00288967206122
0.00228787546286
0.00195511598858
2.83427701815
1.15466155762
0.554750602771
0.279637031236
0.146699668595
0.081627363896
0.0487359980773
0.0311976460436
0.0214878798837
0.0157888060398
0.0119175754717
0.00921527948297
0.00758044221477
0.00652970176595
0.00566685395146
0.00482072747268
0.00394794114836
0.00315079867299
0.00252654126124
0.0021801272171
2.50196703401
1.10273619236
0.552518642659
0.292256571406
0.162513169023
0.0944417276163
0.0573765768404
0.0366290141425
0.0246593764391
0.0174038768294
0.0128051720662
0.00994969865946
0.00815150603867
0.00689144396221
0.00588661747435
0.00499598490095
0.00414934193304
0.00337060202505
0.00272924169106
0.00236463329244
2.47655380146
1.17720064185
0.607236935923
0.33098779355
0.190208143767
0.113453041225
0.0697963771291
0.0442249213854
0.0289169648656
0.0197652283206
0.0143613823445
0.0110736047319
0.00891625011304
0.00737420346902
0.00618381923798
0.00520176449311
0.00434298359993
0.00357085062103
0.00291123647279
0.00251600021735
2.6338447027
1.28495746279
0.663796536983
0.362487403459
0.209978706628
0.127858528141
0.080314281245
0.0515170764103
0.0337775211836
0.0230006851883
0.0165658798825
0.0125655783627
0.00991723388553
0.00804464239993
0.00664934765168
0.0055535199023
0.0046349249189
0.0038343257239
0.00314272437774
0.00269698921173
0.00498770054138
0.00416782559747
0.00254277691796
0.00142133471053
0.00352566209085
0.0053941977286
0.00466512096847
0.00543883216149
0.00943251373294
0.0141292492449
0.021556505671
0.0253691214358
0.00662167347088
0.00618034832695
0.0052868705641
0.0273799685168
0.00561486958779
0.00550696887393
0.00543720692455
0.00536524579997
0.00502050377483
0.00419515800847
0.00269203181662
0.00163558229386
0.0047198645829
0.00626419542291
0.00531991225105
0.00590983102154
0.00922887284224
0.0132520245511
0.0228893347434
0.0104267152001
0.00694264034884
0.00625458824322
0.00544620586459
0.0277003711589
0.00575028860301
0.00555582902023
0.00540888895597
0.00523120474987
0.0048043330683
0.00403452631772
0.00276125121884
0.001834110796
0.00456456381128
0.00735390465803
0.00621613555242
0.0065653651185
0.00912109244581
0.012705501599
0.025397702771
0.0086204032798
0.00702795026395
0.00609660077463
0.00558750927067
0.0278814322904
0.00582699086812
0.00546835867655
0.00518339145852
0.00487950054306
0.00438997332432
0.00370778070162
0.00272002460077
0.00199414542359
0.00340073692115
0.00867778419929
0.00745900206916
0.00752115098803
0.00932699866654
0.0129516877058
0.0303549808476
0.00738165967147
0.00682140045235
0.0058871382275
0.00578142381362
0.0282739795925
0.00589348515387
0.00536922746934
0.00492292055963
0.00449005351454
0.00396195509993
0.00336882270713
0.00264486356222
0.0021229558153
0.00273762969788
0.0102196702639
0.00927972841671
0.00897068183373
0.0101588350938
0.0147896541966
0.0383288405616
0.00856050265874
0.00627121903624
0.0059000107327
0.00609488598078
0.0282219182194
0.0059015506397
0.00522873344575
0.00465041576074
0.00412997207342
0.00360997466113
0.00312043932973
0.00262409571438
0.00229439901643
0.00279631833431
0.011233738897
0.0120451263128
0.0112947808759
0.0123457484313
0.0200050255722
0.0111881867999
0.0078738539155
0.00579045286439
0.00612285488494
0.00649443895921
0.0291407533026
0.00578872273052
0.00495690489927
0.00425345332694
0.00368770909018
0.00323481824941
0.00291016164117
0.00269762386519
0.00269294508021
0.00354202138845
0.0078839799497
0.0142502576472
0.0144054952533
0.0168768581669
0.0189620322318
0.00858070399384
0.00620277416592
0.005600136242
0.00635682211933
0.00686685970315
0.0304585596515
0.00553643036304
0.00459551473919
0.00383136064814
0.00329685724809
0.00299506818744
0.0029539165426
0.00319179489076
0.00371258379513
0.00412904207442
0.0056357194963
0.00703003811673
0.00796856797425
0.00741087258577
0.00762472373509
0.00671579614131
0.00504710504606
0.00515992919486
0.00635580190943
0.00698515650851
0.0317252618686
0.00515351014267
0.00418226606331
0.00347327038537
0.00310298782291
0.0031247287058
0.00366384785292
0.00476932555095
0.00622470017128
0.00741768361185
0.00763810870088
0.00715433886852
0.00766087424862
0.0101052335403
0.00895768242373
0.00510795960422
0.00386147683747
0.00433450779538
0.0059997968919
0.00675753706855
0.0392979180443
0.00468115120387
0.0037941799535
0.00330398914634
0.00333027667503
0.00409529506073
0.00582705855972
0.00785540117838
0.00946143097546
0.0102932606033
0.00996287818591
0.00938723018694
0.0101914318093
0.012674953763
0.00713696852099
0.00356484027828
0.00314364360334
0.00382698129309
0.0054297482077
0.00654978828875
0.054195047785
0.00416644668006
0.00357408603939
0.00356834116489
0.00433615412409
0.00580400547225
0.00812524976878
0.0101617333812
0.0105888705875
0.0103401707019
0.00962434546017
0.0102355831211
0.0113806108806
0.0121569079467
0.00384869983022
0.00287288562216
0.00314063474875
0.00402084618068
0.00532320785649
0.00652519205197
0.055493716411
0.00377058855099
0.00370407439667
0.00420523132113
0.00513460910901
0.00697837107557
0.00995411714137
0.0115632017481
0.0114248384543
0.0110351563503
0.0101448497837
0.00923516401246
0.0102737086784
0.00614094253307
0.0032853364496
0.00291254839888
0.00346272294704
0.00447616849904
0.00571257763127
0.00670503712304
0.056226435107
0.00360933967013
0.00379759340997
0.00410835211542
0.00537646962909
0.00770711158279
0.00990325203387
0.0114443404309
0.012498785955
0.0126529522631
0.0110231775192
0.00617523672958
0.00765707522911
0.00338230192971
0.00296835050616
0.0030417034714
0.00387536757812
0.00500366561099
0.00624879913975
0.0068745652099
0.0519417827575
0.00336658867629
0.00304719557106
0.0035488650039
0.00472333095961
0.00602133726899
0.00755249557985
0.0121987883043
0.0148402387409
0.0162378496591
0.0153986300919
0.00485393467068
0.00520495544129
0.00288558622635
0.00276695810895
0.0031319652249
0.00424085433917
0.00543020038144
0.00668755195511
0.00694935241881
0.0365872426533
0.0024531056623
0.00215825659545
0.00246077593395
0.00301644570987
0.00373028844399
0.00465712885865
0.0127970257058
0.0172199557709
0.0215904148928
0.0230911061009
0.00515089773012
0.00401238138061
0.00236228664373
0.00242694106699
0.00313088466202
0.00433943589348
0.00557338024725
0.00685540828459
0.00708776436197
0.0180105062193
0.0016338547869
0.00143489362893
0.00148730366531
0.00170079535403
0.00215061674807
0.00281321222339
0.0105003193138
0.0197702291433
0.0263946123501
0.0290330097684
0.00398544143168
0.00295217538811
0.00170836465904
0.00207084383253
0.00295310098346
0.00412022392129
0.00539519296848
0.00665426382986
0.00714280025084
0.013137548874
0.00112121900799
0.000982084862632
0.00100904761658
0.00120075628558
0.00157598731253
0.00214755219616
0.0118009392209
0.0206655833595
0.0265073102012
0.02848453014
0.00374197560608
0.00181572844153
0.00104240526527
0.00181107694939
0.00279871459299
0.00380156940386
0.00502966800161
0.00625166522231
0.00708255994294
0.0118793064917
0.00088305753789
0.000790276843816
0.000802939318127
0.000991852023408
0.00163841459522
0.00457111967098
0.0126809143102
0.0183866953087
0.0222376945241
0.0233994036629
0.00372603954445
0.00105245302079
0.000700192415961
0.00149392463139
0.00290304466661
0.00350935395415
0.00470134377682
0.00597728003714
0.00712464949437
0.0106249420904
0.000794846883161
0.000666386491004
0.000630597973936
0.00126785184723
0.00402604150981
0.00779622177149
0.0114742769116
0.0146961604225
0.0171437512453
0.0174532700787
0.0033643264833
0.000821763497504
0.000641487022581
0.00129582011541
0.00289687415184
0.00340756387621
0.00468136387847
0.00597129593446
0.00726500349888
0.0109458708767
0.000717691966506
0.000552100511701
0.000490902549793
0.00329127229657
0.00652081558834
0.00836019434571
0.0102373177584
0.0118893953452
0.0131926507178
0.012985791541
0.00256837528214
0.000758784570117
0.000734253437634
0.00133051509186
0.00293264924403
0.00372908308754
0.00498981985292
0.00618095684775
0.00731213975541
0.0121659677334
0.000684425694207
0.000429306977557
0.00144280385833
0.00516514819053
0.00706890893643
0.00819675685223
0.0090274097489
0.00973334078575
0.0103929477548
0.00987779264854
0.00188939808832
0.000793919084851
0.000909709466154
0.00148606645658
0.00315408703044
0.00415363238967
0.00547956433515
0.00654772934257
0.0071949105703
0.0134404537002
0.000592718344991
0.000240162828332
0.00290549330634
0.00548356262206
0.00695329088411
0.00763503354562
0.00792105101286
0.00811693903165
0.00829652222012
0.00769745302904
0.00148979420799
0.000905885944721
0.00112426548925
0.00172191502387
0.00353233231248
0.00463880468422
0.00610961148721
0.00691786961735
0.00701222238881
0.0383084177653
0.000443445550476
0.000601481153582
0.00345151920068
0.00548256203539
0.00661429277947
0.00704513098588
0.00704268474861
0.00680916072532
0.00656566328313
0.00584594479706
0.00131699050585
0.00109099886534
0.00137807614284
0.00210113165223
0.00410780827174
0.00517334877656
0.00685575159426
0.00717290463387
0.00661850755491
0.0680621506875
0.000193721112673
0.000992338473708
0.00325192042156
0.00506677843445
0.00623733295439
0.00670757188563
0.00654070775602
0.00586658033624
0.00497988480641
0.00354012933846
0.00133541626367
0.00132461591551
0.00166327306155
0.00303644118146
0.00492100098293
0.00623014697559
0.00748010578009
0.00737614811875
0.00633386674729
0.0677723917484
9.93610273061e-05
0.000950220803113
0.00295041989652
0.00480252655171
0.00620047502108
0.00686304783763
0.00669892166804
0.00547830432208
0.00311002264307
0.00185128881898
0.00144220498676
0.00145908109033
0.00192298711951
0.00358189118367
0.00593856829993
0.00686663786321
0.00752304790539
0.00741972352638
0.0065450167878
0.0714727928502
0.000123899939069
0.000725284242377
0.00240596803079
0.00436894657791
0.00610932413118
0.00719343888047
0.00726556286939
0.00574446870148
0.00216162394214
0.0014901155346
0.00141241752411
0.00143482694209
0.00255622067762
0.00363307455572
0.00447663703189
0.00602177706535
0.00686612008972
0.00701276063526
0.00690720788057
0.0776035520155
0.000259761211215
0.000516997783943
0.00190538275439
0.00377534204235
0.00567887106067
0.00714849011395
0.00778275570238
0.00635220865807
0.00269224980142
0.00160710923846
0.00107134555645
0.00151287673482
0.00214561556848
0.00284219551088
0.00325031769366
0.0048513100214
0.00614867156734
0.00660076028784
0.00694161145489
0.0755700708464
0.000440196174966
0.000467409889539
0.00132096551656
0.00309890586972
0.00497754535428
0.00670489533227
0.00793909472621
0.00712620312773
0.00303534964373
0.00150433726154
0.000709302789275
0.00110901994859
0.00151453441175
0.00193885763039
0.00211842480683
0.00351640551744
0.00613066491133
0.00698131881605
0.00633676776068
0.0398384390873
0.000639448729999
0.00069439457021
0.000967179105865
0.00215989477024
0.00399457882882
0.00592755151291
0.00770433053257
0.00813764781237
0.00361224213057
0.00196441406883
0.000897522603426
0.000710826959394
0.00106555750578
0.00143461564358
0.00213086180767
0.00388021634224
0.00612319806698
0.00783496333306
0.00577036423383
0.0314567644495
0.000859384949547
0.000950173386276
0.00117292150249
0.00152627337053
0.00271412678744
0.00441212600356
0.00676695246784
0.00966050344353
0.00604476958931
0.00253117961617
0.00166903638955
0.00113699701789
0.000955959836414
0.00135377255934
0.00225035040422
0.00467058718749
0.00798254605966
0.00895701826199
0.00538797340879
0.0522476107773
0.00108632063879
0.0012136126851
0.00142870674092
0.00176762570648
0.00228983484041
0.00336184059492
0.00532674365868
0.00947496333959
0.00775531550028
0.00350923393254
0.00212221635782
0.00183131485776
0.00174665781822
0.00171728515066
0.00267192328154
0.0052550749735
0.00969826050611
0.0104292990672
0.00506016823249
0.05174559812
0.00132685529263
0.00140928315988
0.00159464258174
0.00185028702088
0.00247439436444
0.0037354725402
0.00524984734307
0.00744470140441
0.00664297872864
0.00452108651719
0.00291558739248
0.0019352778365
0.00189555827917
0.002350798909
0.00336146364096
0.00574896721962
0.0112835020139
0.0113871024413
0.00488109973212
0.0469710462713
0.00158317958469
0.00155255344056
0.00151012269618
0.00159733659158
0.00206265379187
0.00309389801512
0.00451890000825
0.00511561089194
0.00459187161445
0.00402080368389
0.0029133249408
0.00206382006236
0.00218434369017
0.00291707279084
0.00464097271111
0.00840031676367
0.0140285923352
0.0124770069089
0.00475320856862
0.0379357164923
0.00184562044463
0.00176923176819
0.00158648544997
0.00150754076233
0.00180786869781
0.00313636019953
0.00411765277174
0.00360964813583
0.00328280011421
0.00318194061596
0.00224187682196
0.00215084245787
0.00258497477922
0.00423878619907
0.00786214961746
0.0131075076953
0.0173387794558
0.011783777605
0.00454949075885
0.0319321997591
0.00208548040481
0.002004385699
0.00176109732409
0.00160269145886
0.00207895370082
0.00404549123244
0.0037987656333
0.00307838960765
0.00287350442868
0.00316126714547
0.00227440489334
0.00240002340349
0.00298047141532
0.0064200163083
0.0123014061942
0.0176397381461
0.0177290997525
0.00955188831863
0.00440765422624
0.0218963915173
0.0022895145765
0.00223883894045
0.00202418286997
0.00188790526131
0.00241241290694
0.00445103644358
0.0040495310807
0.0033599730747
0.0032094851985
0.00403854519217
0.00243260385232
0.00246297991706
0.00340550610052
0.00870555653935
0.01542869814
0.018541796357
0.0152289742127
0.00746147098744
0.00418375276847
0.013077013565
0.0024582304827
0.00248561437397
0.00235548856133
0.00225844044429
0.0025820517714
0.00435003263921
0.00452661736797
0.00411984075011
0.00408879243537
0.00545421997018
0.00259229499943
0.0024699300531
0.00396571168808
0.00907464866192
0.0151205346218
0.0171462974678
0.0117452845361
0.00496018813329
0.0038595878397
0.0106235428596
0.00263966461721
0.00276518289138
0.00273552000679
0.00266598839989
0.00296444940587
0.00451263634918
0.00505068397607
0.0049461673055
0.00516363516305
0.00724206148143
0.00290994818802
0.00245089925798
0.00395630368309
0.0079879241514
0.0132395121588
0.0152693526388
0.00841846991345
0.00320544416347
0.00371532758472
0.0156724223305
)
;

boundaryField
{
    emptyPatch
    {
        type            empty;
    }
    minY
    {
        type            fixedValue;
        value           nonuniform List<scalar> 0();
    }
    maxY
    {
        type            inletOutlet;
        inletValue      uniform 1e-05;
        value           nonuniform List<scalar> 
40
(
2.6338447027
1.28495746279
0.663796536983
0.362487403459
0.209978706628
0.127858528141
0.080314281245
0.0515170764103
0.0337775211836
0.0230006851883
0.0165658798825
0.0125655783627
0.00991723388553
0.00804464239993
0.00664934765168
0.0055535199023
0.0046349249189
0.0038343257239
0.00314272437774
0.00269698921173
0.00263966461721
0.00276518289138
0.00273552000679
0.00266598839989
0.00296444940587
0.00451263634918
0.00505068397607
0.0049461673055
0.00516363516305
0.00724206148143
0.00290994818802
0.00245089925798
0.00395630368309
0.0079879241514
0.0132395121588
0.0152693526388
0.00841846991345
0.00320544416347
0.00371532758472
0.0156724223305
)
;
    }
    water_to_cooler
    {
        type            kqRWallFunction;
        value           nonuniform List<scalar> 
38
(
0.0273799685168
0.0277003711589
0.0278814322904
0.0282739795925
0.0282219182194
0.0291407533026
0.0304585596515
0.0317252618686
0.0392979180443
0.054195047785
0.055493716411
0.056226435107
0.0519417827575
0.0365872426533
0.0180105062193
0.013137548874
0.0118793064917
0.0106249420904
0.0109458708767
0.0121659677334
0.0134404537002
0.0383084177653
0.0680621506875
0.0677723917484
0.0714727928502
0.0776035520155
0.0755700708464
0.0398384390873
0.0314567644495
0.0522476107773
0.05174559812
0.0469710462713
0.0379357164923
0.0319321997591
0.0218963915173
0.013077013565
0.0106235428596
0.0156724223305
)
;
    }
    water_to_heater
    {
        type            kqRWallFunction;
        value           nonuniform List<scalar> 
59
(
2.07781838056
2.07781838056
2.03902288575
2.09359334408
2.16926287727
2.16926287727
2.21260433729
2.21260433729
2.19075454515
2.19075454515
2.16525505737
2.38818768609
2.79137928518
2.79137928518
3.05869473276
3.05869473276
3.22067048414
3.22067048414
3.22526586868
3.10740932638
2.97357046298
2.97357046298
2.88025339197
2.88025339197
2.83836769663
2.83836769663
2.85690395435
2.94602874399
3.10549167924
3.10549167924
3.35720236649
3.35720236649
3.75259530136
3.75259530136
4.28756669272
5.03924357641
5.94286981277
5.94286981277
6.47109375982
6.47109375982
6.80033668007
6.80033668007
6.81459028096
6.46044928253
5.92585746753
5.92585746753
5.32798972089
5.32798972089
4.73932868128
4.73932868128
4.15213563171
3.4820498107
2.83427701815
2.83427701815
2.50196703401
2.50196703401
2.47655380146
2.47655380146
2.6338447027
)
;
    }
    procBoundary0to1
    {
        type            processor;
        value           nonuniform List<scalar> 
41
(
2.09789908466
1.0012598285
0.495612643933
0.244412631831
0.141839231889
0.105374464117
0.0864281507483
0.0662913677426
0.0454156502207
0.0299463906016
0.0202548337503
0.0148812072355
0.0121080605503
0.0105371727382
0.00933836788226
0.00827519325233
0.00736860878006
0.00651918989803
0.00543403084208
0.00513963218596
0.00479296806446
0.00405321797974
0.00247316776976
0.00132337981324
0.00106468283294
0.00365970537719
0.00418964903074
0.00505374157534
0.00949408382758
0.0149839150901
0.020801712762
0.0370786405573
0.00612409755944
0.0058697812741
0.0051061259861
0.0272278663661
0.00531293238707
0.00517905626605
0.00515648081148
0.00521024831558
0.00521024831558
)
;
    }
}


// ************************************************************************* //
