/*--------------------------------*- C++ -*----------------------------------*\
| =========                 |                                                 |
| \\      /  F ield         | OpenFOAM: The Open Source CFD Toolbox           |
|  \\    /   O peration     | Version:  2312                                  |
|   \\  /    A nd           | Website:  www.openfoam.com                      |
|    \\/     M anipulation  |                                                 |
\*---------------------------------------------------------------------------*/
FoamFile
{
    version     2.0;
    format      ascii;
    arch        "LSB;label=32;scalar=64";
    class       volScalarField;
    location    "0.265/water";
    object      d.gas;
}
// * * * * * * * * * * * * * * * * * * * * * * * * * * * * * * * * * * * * * //

dimensions      [0 1 0 0 0 0 0];

internalField   nonuniform List<scalar> 
6000
(
0.00496923357767
0.00496929583606
0.00496931245606
0.00496932526131
0.00496933627116
0.00496934621065
0.00496935542168
0.0049693638973
0.00496937155818
0.00496937842953
0.00496938454062
0.00496938994305
0.00496939470946
0.00496939891102
0.00496940260344
0.00496940583378
0.00496940863644
0.00496941103891
0.0049694130565
0.00496941469931
0.00496954157087
0.0049695721973
0.00496956987129
0.0049695701306
0.0049695753165
0.00496958016209
0.00496958486432
0.00496958950613
0.00496959419675
0.00496959882841
0.00496960317845
0.0049696071647
0.00496961082231
0.00496961419235
0.00496961728646
0.00496962010078
0.0049696226219
0.00496962483657
0.0049696267282
0.00496962828203
0.00496981710317
0.00496984863932
0.00496983654975
0.00496982754541
0.00496982578106
0.0049698246933
0.00496982420724
0.00496982449086
0.00496982546099
0.00496982698901
0.00496982886055
0.00496983082918
0.00496983276363
0.00496983464631
0.00496983647922
0.00496983825215
0.00496983993692
0.00496984149861
0.00496984289637
0.00496984409364
0.00497005363241
0.00497007514445
0.00497006197979
0.00497005612056
0.00497005677067
0.00497005672956
0.00497005597133
0.00497005522458
0.00497005480289
0.00497005477695
0.00497005512185
0.0049700557149
0.00497005641454
0.00497005715654
0.00497005793141
0.00497005874183
0.00497005957735
0.00497006041687
0.00497006122766
0.00497006197725
0.00497029019071
0.00497030443599
0.00497028665366
0.0049702801203
0.00497028112661
0.0049702819426
0.00497028164407
0.00497028085422
0.00497028011585
0.00497027959236
0.00497027930812
0.00497027923176
0.00497027928084
0.00497027939185
0.00497027954666
0.00497027975377
0.00497028001928
0.00497028034212
0.00497028070879
0.00497028110342
0.0049705175093
0.0049705318369
0.0049705130157
0.0049705050411
0.00497050441303
0.00497050490242
0.00497050482769
0.004970504052
0.00497050307702
0.00497050224241
0.0049705016052
0.00497050115816
0.00497050085268
0.00497050063337
0.00497050047229
0.00497050037199
0.00497050034182
0.00497050039035
0.00497050051657
0.00497050071731
0.00497074703259
0.00497076095432
0.00497074156227
0.00497073232754
0.00497072910883
0.00497072761364
0.00497072665811
0.00497072557843
0.00497072430227
0.0049707231497
0.00497072223523
0.0049707215441
0.0049707210377
0.00497072066555
0.00497072038724
0.00497072019218
0.00497072008294
0.00497072006724
0.00497072014694
0.00497072032324
0.00497094739275
0.00497096730593
0.00497095683493
0.00497095103213
0.00497094883315
0.00497094697729
0.00497094547797
0.00497094426293
0.004970943
0.00497094177735
0.00497094079038
0.00497094005741
0.00497093955269
0.00497093923084
0.00497093904246
0.00497093896359
0.00497093898633
0.00497093911195
0.00497093933862
0.00497093966607
0.00497118091325
0.00497119873552
0.00497118127807
0.00497117286333
0.00497116890254
0.00497116531794
0.00497116250867
0.00497116056248
0.0049711591212
0.00497115786562
0.00497115690578
0.00497115631141
0.00497115604803
0.00497115604205
0.00497115621535
0.00497115651999
0.00497115693086
0.00497115743709
0.00497115802832
0.00497115869968
0.00497137282763
0.00497139328233
0.00497137902187
0.00497137404328
0.00497137325539
0.00497137222959
0.00497137105411
0.00497137024275
0.00497136978429
0.00497136941871
0.00497136922729
0.00497136940673
0.00497136996918
0.00497137080599
0.00497137179891
0.00497137288222
0.00497137402165
0.00497137519884
0.00497137639982
0.00497137761342
0.00497157729444
0.00497160179883
0.00497158414658
0.0049715771775
0.0049715761015
0.00497157589527
0.00497157598156
0.00497157633876
0.00497157683519
0.00497157741632
0.00497157831148
0.0049715798036
0.00497158181008
0.00497158408017
0.00497158640136
0.00497158868197
0.00497159088813
0.00497159300319
0.00497159501371
0.00497159690987
0.00497174834494
0.00497178068184
0.0049717716524
0.00497176897145
0.00497177220526
0.00497177602067
0.00497177905484
0.00497178115354
0.00497178266118
0.0049717841284
0.00497178621234
0.00497178936508
0.00497179334894
0.00497179759378
0.00497180166112
0.00497180542588
0.00497180887963
0.00497181202702
0.00497181487394
0.00497181743073
0.00497194579901
0.00497198801035
0.00497198247347
0.00497198031877
0.00497198446506
0.00497198897734
0.00497199232725
0.00497199407515
0.00497199498303
0.00497199623018
0.00497199878748
0.00497200309383
0.00497200877907
0.00497201491395
0.00497202059995
0.00497202564502
0.0049720300846
0.00497203396862
0.00497203733907
0.00497204023834
0.00497217398154
0.00497221676037
0.00497220931196
0.00497220898579
0.00497221467514
0.00497221929448
0.00497222156467
0.00497222183073
0.00497222146817
0.00497222181236
0.00497222362671
0.00497222763354
0.00497223374483
0.00497224069047
0.00497224698393
0.0049722523191
0.00497225681434
0.00497226058057
0.00497226370196
0.00497226625463
0.00497242031146
0.00497246675338
0.0049724598257
0.00497246022304
0.00497246600099
0.00497247001234
0.00497247085994
0.00497246969911
0.00497246839131
0.00497246761823
0.00497246749279
0.00497246913811
0.00497247336511
0.00497247892114
0.00497248383658
0.00497248761872
0.00497249053589
0.00497249278549
0.0049724944779
0.00497249570019
0.00497269781438
0.00497274792713
0.00497274051186
0.00497274057584
0.00497274527453
0.00497274700755
0.00497274540543
0.00497274263663
0.00497274005226
0.00497273712363
0.00497273356684
0.00497273066726
0.0049727297831
0.00497273057701
0.00497273128669
0.00497273114894
0.00497273049386
0.00497272961872
0.00497272861728
0.00497272752684
0.00497301996158
0.00497306963644
0.0049730575249
0.00497305194135
0.00497304977065
0.00497304523483
0.00497303902569
0.00497303279333
0.00497302662952
0.00497301963468
0.00497301161844
0.00497300377046
0.0049729965794
0.00497298989963
0.00497298387305
0.00497297801037
0.0049729724413
0.00497296744581
0.00497296305647
0.00497295919197
0.00497334353362
0.00497337458474
0.00497335486957
0.0049733420121
0.00497333285965
0.00497332280175
0.00497331209836
0.00497330155446
0.00497329112522
0.004973280801
0.00497327097149
0.00497326174605
0.00497325264799
0.00497324162444
0.00497322978911
0.00497321880965
0.00497320900459
0.00497320052197
0.00497319332902
0.00497318724072
0.00497355941283
0.0049735734716
0.00497355472384
0.00497354660695
0.004973541699
0.00497353519716
0.00497352680378
0.00497351747615
0.00497350844119
0.00497350036613
0.0049734928164
0.00497348552331
0.00497347824342
0.00497346926579
0.00497345707472
0.00497344449354
0.00497343324524
0.00497342362027
0.00497341552202
0.00497340875941
0.00497373911651
0.00497374746686
0.00497372466382
0.0049737171402
0.00497371446308
0.00497371076745
0.00497370542612
0.00497369955753
0.0049736939084
0.00497368900892
0.0049736850196
0.00497367993286
0.0049736742464
0.0049736688015
0.00497366123241
0.00497365167582
0.00497364260242
0.00497363482327
0.0049736282542
0.0049736227785
0.00497388305772
0.00497389367281
0.00497387505845
0.00497387138348
0.00497387196245
0.00497387166917
0.00497386992747
0.00497386717245
0.00497386432434
0.00497386345717
0.00497386265268
0.00497386049552
0.00497385702832
0.00497385283068
0.00497384918166
0.00497384455449
0.00497384006789
0.00497383636365
0.00497383326141
0.00497383068703
0.00497405271399
0.00497406777414
0.00497404830581
0.00497404174131
0.00497404046768
0.00497403920524
0.00497403680546
0.00497403413824
0.00497403434728
0.0049740376182
0.00497403993255
0.00497403991418
0.00497403741758
0.00497403359649
0.00497403168126
0.00497403122822
0.00497403174388
0.00497403303845
0.00497403433951
0.00497403551682
0.00497419070339
0.00497421488008
0.00497420617612
0.00497420286622
0.00497420332744
0.00497420332728
0.00497420236217
0.00497420319268
0.0049742098104
0.00497421737393
0.00497421901332
0.00497422082297
0.00497422066432
0.00497421804881
0.00497421699553
0.00497421930462
0.00497422420049
0.00497423029852
0.00497423594538
0.00497424090171
0.00497437733033
0.00497440219906
0.0049743839117
0.00497437771965
0.00497437708799
0.0049743768836
0.00497437773062
0.00497438469804
0.00497439715376
0.0049744005488
0.00497440521112
0.00497440952757
0.00497441178046
0.0049744120426
0.00497441121988
0.00497441495735
0.00497442322283
0.00497443313629
0.00497444225781
0.00497445028368
0.00497454647598
0.00497457516169
0.0049745575586
0.00497455400641
0.00497455650669
0.00497456003176
0.00497456687792
0.00497458154487
0.00497459121385
0.00497460003529
0.004974604516
0.00497461090746
0.00497462052429
0.00497462122943
0.00497461951387
0.00497462330881
0.00497463332701
0.00497464538057
0.00497465649422
0.00497466631325
0.00497475461842
0.0049747883606
0.00497476528484
0.00497475929413
0.00497476166119
0.00497476701677
0.00497477867169
0.00497479388936
0.00497480693503
0.00497481287943
0.00497482212177
0.00497483544682
0.00497484595582
0.00497484857626
0.00497484494279
0.00497484756032
0.00497485679763
0.00497486871812
0.00497488010242
0.00497489025839
0.00497494833481
0.00497498906212
0.00497497136064
0.00497496851154
0.00497497525397
0.00497498607537
0.00497500310688
0.0049750220919
0.00497503060851
0.00497504272226
0.00497505555385
0.0049750764599
0.00497508870002
0.00497508319412
0.00497508037523
0.00497508268522
0.00497509039001
0.00497510126249
0.00497511216489
0.00497512180984
0.00497516284293
0.00497521630637
0.00497520493184
0.00497520398021
0.00497521314386
0.00497522683598
0.00497524585148
0.00497525950028
0.00497527530552
0.00497528854226
0.00497531046989
0.00497532822748
0.00497532541513
0.00497532681216
0.00497532725393
0.00497532833079
0.00497533311011
0.00497534211678
0.00497535210723
0.00497536068295
0.00497542075006
0.00497547637293
0.00497546224267
0.00497546305388
0.00497547336153
0.00497548684079
0.00497550287031
0.00497552199984
0.00497553734443
0.00497555712956
0.00497557999846
0.00497558026059
0.00497558317113
0.0049755851831
0.00497558613958
0.00497558361779
0.00497558571783
0.00497559238379
0.00497560073488
0.00497560738367
0.00497569404226
0.00497576121306
0.00497574906146
0.00497574968359
0.0049757597496
0.00497577464467
0.00497579565628
0.00497581874084
0.00497583927719
0.00497585735372
0.00497585872596
0.00497585856859
0.00497585938141
0.00497586150458
0.0049758578533
0.00497585518286
0.00497585396146
0.00497585594574
0.00497586005111
0.00497586278194
0.00497608931955
0.00497616694939
0.0049761417438
0.00497613236747
0.00497613479628
0.00497614603623
0.00497616141354
0.00497617203889
0.00497617422214
0.00497616879671
0.00497616293791
0.00497615871596
0.00497615685324
0.00497615327128
0.00497614948909
0.00497614240496
0.00497613691795
0.00497613272101
0.00497612944649
0.00497612575946
0.0049766604464
0.0049767146099
0.00497666986474
0.00497664232443
0.0049766177599
0.00497659768303
0.00497657879022
0.00497655593232
0.00497653039594
0.00497650712697
0.00497648864522
0.00497647462691
0.00497646296112
0.00497645371366
0.00497644335349
0.00497643340929
0.0049764246869
0.0049764155033
0.00497640365193
0.00497639183245
0.00497710779565
0.00497710810094
0.00497708335324
0.00497706581693
0.00497704244492
0.00497700644988
0.0049769649844
0.00497692312971
0.00497688328009
0.00497684693281
0.00497681595184
0.00497678900543
0.00497676494998
0.00497674502485
0.00497672927571
0.00497671735293
0.00497670696215
0.00497669407842
0.00497667483379
0.00497665430925
0.00497729786983
0.004977286362
0.00497726814288
0.0049772650791
0.00497726472114
0.00497725524829
0.00497723169478
0.004977200415
0.00497716657874
0.00497713280932
0.00497710047649
0.0049770695719
0.00497704004267
0.00497701437237
0.0049769953032
0.00497698271513
0.00497697058283
0.00497695416367
0.00497693172113
0.00497690462855
0.0049774684663
0.00497744365078
0.00497741957423
0.00497741300955
0.00497741498919
0.00497741733901
0.00497741142385
0.00497739561121
0.00497737407146
0.00497734953652
0.00497732379159
0.00497729765838
0.00497727121097
0.00497724676136
0.00497722804616
0.0049772147123
0.00497719681342
0.00497718056483
0.00497716151599
0.00497713398782
0.00497760282285
0.00497758062202
0.0049775565899
0.004977549933
0.00497755011559
0.00497755338065
0.00497755361024
0.00497754615906
0.00497753326332
0.0049775170273
0.0049774993197
0.00497748058185
0.00497746007262
0.00497743998762
0.0049774242896
0.00497740963388
0.00497739341687
0.00497738016706
0.00497736350866
0.00497733970349
0.0049777389789
0.00497771591358
0.00497769249098
0.0049776839899
0.00497768222301
0.00497768335768
0.00497768267625
0.0049776769242
0.00497766741967
0.00497765641535
0.0049776455619
0.00497763361635
0.00497761819575
0.0049776041974
0.00497759324824
0.00497758280732
0.00497756938596
0.00497755526867
0.00497754069826
0.00497752258441
0.00497783633718
0.00497782323381
0.00497780740863
0.00497780117891
0.00497780035923
0.00497780060364
0.00497779977418
0.00497779536834
0.00497778869124
0.00497778184035
0.00497777613521
0.00497776858234
0.00497775938144
0.00497774933439
0.00497774310461
0.00497773660664
0.00497772753234
0.00497771614326
0.00497770208906
0.00497768840092
0.00497796207286
0.00497794633269
0.00497792496839
0.0049779171504
0.00497791501979
0.00497791514496
0.00497791405595
0.00497791040295
0.00497790525111
0.00497790064518
0.00497789886917
0.00497789677095
0.00497788921129
0.00497788339614
0.00497788340794
0.00497788300571
0.00497787788801
0.00497786597358
0.00497785372263
0.00497784350867
0.0049780619285
0.00497805081414
0.00497802955303
0.00497802262
0.00497802182538
0.00497802147436
0.00497802046283
0.00497801754944
0.00497801407036
0.00497801324019
0.00497801735097
0.00497801701135
0.0049780156033
0.0049780129207
0.00497801565274
0.00497802300166
0.00497802101812
0.00497801208702
0.00497800165088
0.00497799384595
0.00497817051838
0.00497816205928
0.00497813938972
0.00497813163262
0.00497812912478
0.00497812795486
0.00497812595916
0.00497812319433
0.00497812174321
0.00497812627627
0.00497813436657
0.00497813924593
0.00497813855252
0.00497814074225
0.00497815184429
0.00497816216972
0.00497816360202
0.00497815636129
0.00497814868819
0.00497814311614
0.00497825909913
0.0049782581447
0.00497824071634
0.0049782344197
0.00497823364803
0.00497823235283
0.00497823077616
0.00497822997967
0.00497823283774
0.00497824481408
0.0049782583687
0.00497826186727
0.0049782675484
0.00497827268859
0.00497828365517
0.0049783024903
0.00497830612838
0.00497830317175
0.00497829887476
0.00497829490227
0.00497835505825
0.00497836046165
0.00497834664442
0.00497834180188
0.00497833987512
0.00497833858952
0.00497833842118
0.00497834088777
0.00497835076363
0.00497837016379
0.00497838112374
0.0049783905548
0.00497839694483
0.00497840668065
0.00497842872357
0.00497844640336
0.00497845437608
0.00497845670406
0.00497845440031
0.0049784502612
0.0049784586478
0.00497846380932
0.00497844693847
0.00497844235806
0.00497844127296
0.00497844234333
0.00497844637297
0.00497845523922
0.0049784766932
0.00497849810547
0.00497851408752
0.00497852401632
0.00497853761971
0.00497855263869
0.00497857196182
0.00497859768703
0.00497861036168
0.00497861637348
0.00497861381298
0.00497860962311
0.00497857935012
0.00497858470647
0.00497855902977
0.00497855299077
0.004978553467
0.00497855848199
0.00497856749618
0.00497858654832
0.00497861568313
0.00497863957626
0.00497865294483
0.00497866961632
0.00497868478261
0.00497870151683
0.00497873419403
0.00497875650177
0.00497877385062
0.0049787796256
0.00497877873777
0.00497877538095
0.00497871006135
0.00497871868795
0.00497868708056
0.00497868132638
0.0049786861019
0.00497869614526
0.00497871263976
0.00497874428902
0.00497877689304
0.00497879314924
0.00497881287227
0.00497882947352
0.00497884806626
0.00497887719828
0.00497890296177
0.00497892803955
0.00497894614112
0.00497895631332
0.00497895589943
0.00497895253825
0.00497886352296
0.00497888059556
0.00497884611749
0.00497884047513
0.00497884832675
0.00497886273778
0.00497888935763
0.00497892650502
0.00497894722055
0.00497896957665
0.00497898727779
0.00497900841874
0.00497903281655
0.00497905712096
0.00497909074871
0.00497911610962
0.00497913933708
0.00497914637813
0.004979149301
0.0049791513711
0.0049790210345
0.00497904905477
0.00497902142849
0.00497901849267
0.0049790300477
0.0049790504618
0.00497908606073
0.00497911459264
0.00497913949197
0.00497915684932
0.00497917935528
0.0049792037171
0.00497922787832
0.00497926458068
0.00497929217778
0.00497932206236
0.00497934447787
0.00497935885318
0.00497936605394
0.00497936888639
0.00497919899595
0.00497923605848
0.00497920044509
0.00497920199562
0.00497922093158
0.00497925120843
0.00497928812968
0.00497931931846
0.00497933782003
0.00497936224531
0.00497938719193
0.00497941243886
0.00497944916331
0.0049794769593
0.00497951205358
0.00497954517629
0.00497957265782
0.00497958415702
0.00497959603474
0.00497959901323
0.00497938278787
0.00497943268094
0.00497939799265
0.00497940621644
0.00497943305527
0.00497947033151
0.0049795115971
0.00497953287666
0.00497955979773
0.0049795845438
0.00497961167887
0.00497965655534
0.00497968654756
0.00497972191154
0.00497975359566
0.0049797891739
0.00497981488942
0.0049798339328
0.00497984460435
0.00497984850165
0.00497957846105
0.00497965525685
0.00497963708094
0.00497964961443
0.00497967826669
0.00497971800799
0.00497975378825
0.00497978639833
0.00497982238658
0.00497985979136
0.00497991250044
0.00497993717227
0.00497996488998
0.00497999301181
0.00498002444057
0.00498005913333
0.00498008716079
0.00498010639706
0.00498011978282
0.00498012676957
0.00497990486626
0.00498001493902
0.00498000620734
0.00498001165931
0.00498003371935
0.00498006877312
0.00498011130622
0.00498016158256
0.00498021098921
0.00498024821046
0.00498025611501
0.00498026865764
0.00498028930605
0.00498031200101
0.00498033611337
0.00498036247359
0.00498038517695
0.00498040515535
0.00498041040089
0.00498041477825
0.00498052108178
0.00498064945913
0.00498064780067
0.00498065050084
0.00498066255006
0.00498068003539
0.00498070642006
0.00498072936962
0.00498072636193
0.00498070140367
0.00498068227371
0.00498067919808
0.00498068244625
0.00498068641616
0.00498069120228
0.00498069915019
0.00498070854056
0.00498071518008
0.00498071664036
0.00498071427132
0.00498128061996
0.00498137999118
0.00498135293527
0.00498135023875
0.00498135573383
0.00498135397678
0.00498133806035
0.0049813012889
0.00498124784384
0.00498119446163
0.00498115407376
0.00498112561402
0.0049811025081
0.004981081603
0.00498106290085
0.00498104806641
0.00498103666684
0.00498102826874
0.00498102227931
0.00498101567592
0.00498176858791
0.00498180767446
0.00498176262586
0.00498175510722
0.00498175748117
0.00498175469943
0.00498173722578
0.00498170268765
0.00498165745016
0.00498160966254
0.00498156373046
0.0049815203513
0.00498148055438
0.00498144314274
0.00498140819382
0.00498137642581
0.00498134784449
0.00498132379027
0.004981315684
0.00498130231572
0.00498200124686
0.00498200493745
0.00498196683072
0.00498196278706
0.00498196799892
0.00498197194551
0.00498196829573
0.00498195424113
0.00498193083908
0.00498190074493
0.00498186515078
0.00498182495135
0.00498178341455
0.00498174253259
0.00498170298083
0.00498166532077
0.00498163024706
0.00498160082106
0.00498158532805
0.00498156974327
0.00498216852048
0.00498216829882
0.00498213832618
0.00498213585053
0.00498214191371
0.00498214746545
0.00498214819562
0.00498214192707
0.00498212808799
0.00498210787248
0.00498208296699
0.00498205341118
0.00498201964136
0.00498198403944
0.00498194811059
0.00498191264468
0.00498187884198
0.00498185044939
0.00498183359337
0.00498181097926
0.00498229336646
0.00498230607082
0.00498229425656
0.00498229775658
0.00498230626866
0.00498231258154
0.00498231358011
0.00498230831229
0.00498229668591
0.00498227994204
0.00498226046688
0.00498223862524
0.00498221328726
0.00498218518702
0.0049821554722
0.00498212510875
0.00498209531265
0.00498207120404
0.00498204928115
0.00498203473133
0.0049824628251
0.00498247862333
0.00498245776526
0.00498245901528
0.0049824661698
0.004982470764
0.00498247003826
0.0049824639853
0.00498245272234
0.00498243715532
0.00498242001066
0.00498240231669
0.00498238319505
0.0049823620508
0.00498233853222
0.00498231332336
0.00498228786908
0.00498226894286
0.00498225562372
0.0049822383298
0.00498258519291
0.00498260980966
0.00498259339004
0.00498259828126
0.0049826071318
0.00498261140811
0.00498260991874
0.00498260404811
0.00498259370571
0.00498257946635
0.00498256423132
0.00498254982777
0.00498253642505
0.00498252223597
0.00498250477308
0.00498248449325
0.00498246406488
0.00498245131013
0.00498244120764
0.00498243473489
0.00498271032993
0.00498274751105
0.00498272865944
0.00498273097634
0.00498273759285
0.0049827395657
0.00498273657644
0.00498273046324
0.00498272082769
0.00498270813303
0.00498269540282
0.00498268494231
0.00498267762772
0.00498267034058
0.00498265832201
0.00498264308978
0.00498262884924
0.00498262360066
0.00498262902124
0.00498261958215
0.00498279422988
0.00498284592107
0.0049828381518
0.00498284415134
0.00498285208095
0.00498285385989
0.00498285065986
0.0049828446174
0.00498283575626
0.00498282488064
0.0049828149505
0.00498280878466
0.004982808239
0.00498280843721
0.004982803104
0.00498279493276
0.00498278864711
0.00498279285154
0.00498280513278
0.00498280951233
0.00498289465372
0.00498296091346
0.00498295435421
0.00498295707941
0.00498296219714
0.00498296149974
0.00498295666147
0.0049829495297
0.00498294034087
0.00498293030576
0.00498292299927
0.00498292264514
0.00498293188833
0.00498294233676
0.0049829462657
0.00498294679741
0.00498294990375
0.00498296533574
0.00498299595991
0.00498299680442
0.00498300550909
0.00498307430765
0.00498306092939
0.0049830630182
0.00498306792493
0.00498306600313
0.0049830595155
0.00498305085638
0.00498304113107
0.00498303277072
0.00498303043909
0.00498303977386
0.00498306231598
0.00498308385104
0.00498309732563
0.00498310726534
0.00498312132761
0.00498314989273
0.00498318700045
0.00498320518193
0.00498314180901
0.00498321377041
0.00498319074809
0.00498319011572
0.00498319376008
0.00498319036512
0.00498318171062
0.00498317101751
0.00498316108458
0.0049831556495
0.0049831603607
0.00498318214859
0.00498321685048
0.00498324646194
0.00498326804198
0.00498328680491
0.00498331197042
0.00498335323619
0.00498340920446
0.00498342078998
0.00498331837396
0.0049833899766
0.00498336035221
0.00498335745339
0.00498336000788
0.00498335544574
0.00498334432924
0.00498333138721
0.00498332166003
0.00498331964972
0.00498333222175
0.0049833652212
0.00498340609103
0.00498343866834
0.00498346532434
0.00498349134928
0.00498352554825
0.00498357821182
0.00498363274266
0.00498366114304
0.00498352307898
0.00498359887843
0.00498357254789
0.00498357053031
0.0049835745962
0.00498357113887
0.00498355827711
0.00498354351325
0.00498353400595
0.00498353519102
0.00498355464887
0.00498359152905
0.0049836294833
0.00498365940303
0.00498368662572
0.00498371633454
0.00498375603973
0.00498381226816
0.00498387478266
0.00498389792303
0.00498375432574
0.00498384017489
0.00498382434154
0.00498382472901
0.00498383106327
0.00498382966
0.00498381700429
0.00498380186317
0.00498379334197
0.00498379734037
0.00498381843496
0.00498384920669
0.00498387709775
0.00498390080191
0.00498392499443
0.00498395434888
0.00498399036441
0.00498404189889
0.00498409503969
0.00498412914648
0.00498404004553
0.00498412720056
0.00498410153642
0.00498410217636
0.00498411066092
0.00498410856263
0.00498409547058
0.0049840810932
0.00498407400363
0.0049840785992
0.00498409492904
0.00498411511609
0.00498413237741
0.00498414839051
0.00498416619997
0.00498418774736
0.00498421383597
0.00498425333219
0.0049842984017
0.00498432205089
0.00498437823152
0.0049844635656
0.00498442540021
0.00498442558035
0.00498443077083
0.00498441893634
0.00498439755564
0.00498437800627
0.00498436567324
0.00498436292629
0.00498436833004
0.00498437626258
0.0049843823905
0.00498438798866
0.00498439499162
0.00498440418034
0.00498441564109
0.00498443772561
0.00498446690267
0.00498448685395
0.0049847329695
0.0049848074368
0.00498477091716
0.00498476871348
0.0049847612538
0.00498474219599
0.00498471388521
0.00498468482064
0.00498466054781
0.00498464327986
0.00498463285937
0.00498462548655
0.00498461756484
0.00498461001886
0.0049846041857
0.00498460015335
0.00498459882838
0.00498460367406
0.0049846164704
0.00498462332259
0.0049849922449
0.00498504051088
0.00498500901037
0.0049849958401
0.00498498782587
0.00498497639687
0.00498495669105
0.00498493048591
0.00498490259772
0.00498487726251
0.00498485673174
0.00498483896315
0.00498482101393
0.00498480435316
0.00498478960165
0.00498477690277
0.00498476598604
0.0049847590624
0.00498476123771
0.00498476629945
0.00498510575152
0.0049851123698
0.00498509623268
0.00498508887103
0.00498508474418
0.0049850812831
0.00498507447633
0.00498506127133
0.0049850429103
0.00498502351616
0.0049850072412
0.00498499241316
0.00498497608271
0.00498495921147
0.0049849441927
0.00498493060108
0.00498491871149
0.00498490896948
0.00498490728612
0.00498491426558
0.00498514869773
0.00498514816759
0.0049851371444
0.00498513368501
0.00498513247559
0.0049851317135
0.00498512978349
0.00498512449842
0.00498511572337
0.00498510678215
0.00498510161222
0.00498509787165
0.00498508927374
0.00498508041431
0.00498507216822
0.00498506485921
0.00498505887382
0.00498505450443
0.00498505685506
0.00498506873899
0.00498519481237
0.00498518521542
0.00498517039109
0.00498516739915
0.00498516680742
0.00498516715003
0.00498516732357
0.00498516594073
0.00498516267064
0.00498516141308
0.00498516869722
0.00498517810719
0.00498518206285
0.00498518354139
0.0049851863052
0.00498519046187
0.00498519483976
0.00498520012851
0.0049852103265
0.00498523066856
0.00498525023228
0.00498521524196
0.00498519669225
0.0049851955668
0.0049851967301
0.00498519823855
0.00498519919339
0.00498519871116
0.00498519826435
0.00498520752536
0.00498523339842
0.00498525863207
0.00498527250117
0.00498528753061
0.00498530329139
0.00498531924148
0.00498533702094
0.0049853546415
0.00498537715625
0.00498540774606
0.00498531514682
0.00498523689835
0.00498521951447
0.00498522446792
0.0049852303853
0.00498523528695
0.00498523827444
0.00498524009186
0.0049852480329
0.00498527939969
0.00498532508134
0.00498535547501
0.00498538297284
0.00498540983433
0.00498543767785
0.00498546785344
0.00498549720636
0.00498552858044
0.00498556205883
0.0049856027599
0.00498538849333
0.00498528330919
0.0049852661334
0.00498528023718
0.00498529307211
0.00498530335667
0.00498531086682
0.00498532059846
0.0049853515451
0.00498540821694
0.00498545596708
0.0049854937812
0.00498552917025
0.00498556632728
0.00498560764107
0.00498564768461
0.0049856899593
0.00498572831501
0.00498576961216
0.00498581808606
0.00498548385389
0.00498538949733
0.00498533973782
0.00498536407091
0.00498539135746
0.00498541379548
0.0049854383015
0.00498547893866
0.00498554321117
0.00498559957483
0.00498564393703
0.00498568370189
0.00498572638751
0.00498577871792
0.00498582749641
0.00498587390186
0.0049859139936
0.00498595567864
0.00498600256569
0.004986056032
0.0049856269397
0.00498557533839
0.00498550307628
0.00498553767002
0.00498558797148
0.0049856379662
0.00498569546772
0.00498576170856
0.00498580813631
0.00498585179313
0.00498589088139
0.00498593681704
0.0049859982853
0.00498605069048
0.00498609393346
0.00498613183927
0.00498617154953
0.00498621537004
0.00498626173246
0.00498631185916
0.00498586985142
0.0049858792274
0.00498579860569
0.00498583949687
0.00498590849488
0.0049859714206
0.00498602980307
0.00498607526214
0.00498611983287
0.00498616979157
0.00498622640054
0.0049862969122
0.00498634197846
0.00498637588911
0.00498640756939
0.00498644120561
0.00498647598241
0.00498651136723
0.00498654721444
0.00498658295994
0.00498654946485
0.00498659501481
0.00498646486879
0.00498646888979
0.00498651179744
0.00498655372476
0.00498659799275
0.00498664347568
0.00498669732626
0.00498674037365
0.00498677480523
0.00498678372379
0.00498678732672
0.00498679501354
0.00498680719946
0.0049868207243
0.00498683367457
0.00498684603233
0.00498685779756
0.00498687041705
0.00498791834462
0.00498795849692
0.00498783811774
0.00498779586065
0.00498777806291
0.00498776149529
0.0049877379572
0.0049877018429
0.0049876445957
0.00498757390473
0.0049874964057
0.00498742570168
0.00498736709592
0.00498732101287
0.00498728470924
0.00498725402451
0.0049872267637
0.00498720202327
0.0049871798836
0.00498716073826
0.0049885093137
0.00498852659553
0.00498848409707
0.00498845884263
0.00498844200913
0.00498841970775
0.00498838035056
0.00498831958637
0.00498824202862
0.00498815781605
0.00498807205246
0.00498798616663
0.00498789981414
0.00498781378215
0.00498773229731
0.00498765856407
0.00498759247278
0.00498753326131
0.00498748035926
0.00498743390483
0.00498842088323
0.00498842172465
0.00498842219954
0.00498842254163
0.00498842269415
0.00498842261039
0.00498842120017
0.00498841261102
0.00498839000026
0.00498835435358
0.004988308741
0.00498825458509
0.00498819112203
0.00498811691625
0.00498803376607
0.00498794811691
0.00498786705029
0.00498779277802
0.00498772484736
0.00498766319097
0.00498843758397
0.00498843764873
0.00498843761297
0.00498843755635
0.00498843748681
0.00498843740184
0.00498843730441
0.00498843707037
0.00498843106542
0.00498841480961
0.00498838888349
0.00498835429663
0.00498831076297
0.00498825692979
0.00498819264293
0.00498812031526
0.00498804602741
0.00498797431645
0.0049879060684
0.00498784173126
0.00498845322134
0.004988453298
0.00498845329876
0.00498845324715