/*--------------------------------*- C++ -*----------------------------------*\
| =========                 |                                                 |
| \\      /  F ield         | OpenFOAM: The Open Source CFD Toolbox           |
|  \\    /   O peration     | Version:  2312                                  |
|   \\  /    A nd           | Website:  www.openfoam.com                      |
|    \\/     M anipulation  |                                                 |
\*---------------------------------------------------------------------------*/
FoamFile
{
    version     2.0;
    format      ascii;
    arch        "LSB;label=32;scalar=64";
    class       volVectorField;
    location    "0.075/water";
    object      U.gas;
}
// * * * * * * * * * * * * * * * * * * * * * * * * * * * * * * * * * * * * * //

dimensions      [0 1 -1 0 0 0 0];

internalField   nonuniform List<vector> 
1497
(
(0.123052011863 1.62257251404 0)
(0.13973225034 1.25627571132 0)
(0.149125327789 1.01889366661 0)
(0.155219240576 0.865894731485 0)
(0.158479235961 0.770821660551 0)
(0.157222248004 0.710631859918 0)
(0.151156444732 0.667503407013 0)
(0.142613220669 0.627819836901 0)
(0.135541198094 0.586657661387 0)
(0.132475680307 0.554479647028 0)
(0.13217153839 0.537582881621 0)
(0.131061210962 0.529538400062 0)
(0.126123487144 0.526413907119 0)
(0.0376484514896 1.04943570981 0)
(0.0879156001591 1.36055149324 0)
(0.101751792613 1.58159198032 0)
(0.102026245961 1.68585104767 0)
(0.0990453381686 1.74810655164 0)
(0.0949820725187 1.7806426041 0)
(0.095050289648 1.76299341965 0)
(0.114960746044 1.52400689567 0)
(0.140644041976 1.23069645037 0)
(0.153665353014 1.0201175514 0)
(0.162651696762 0.87673912362 0)
(0.167879242057 0.784530582344 0)
(0.167201252946 0.725082781882 0)
(0.160319311824 0.682235901711 0)
(0.150090870999 0.642833139039 0)
(0.141622519538 0.60248960611 0)
(0.138201444932 0.572294982303 0)
(0.138175378163 0.556532795222 0)
(0.137104068899 0.549026538684 0)
(0.131606064878 0.545907986449 0)
(0.0334372906256 1.08756709915 0)
(0.070661169667 1.23804097594 0)
(0.0876901105102 1.47814590368 0)
(0.0988010742025 1.67457444116 0)
(0.0925372897344 1.75623423583 0)
(0.0864154433518 1.78183479025 0)
(0.0967273751347 1.70755742506 0)
(0.121422953106 1.42940158605 0)
(0.142605390471 1.20163469142 0)
(0.157871414351 1.01853246713 0)
(0.169314207503 0.887685018496 0)
(0.176052577124 0.800806822929 0)
(0.175311139112 0.743244362332 0)
(0.166977780939 0.700908032143 0)
(0.154777315792 0.66129899756 0)
(0.145048504769 0.62123058288 0)
(0.141519453746 0.592953961258 0)
(0.141792999481 0.578105025813 0)
(0.140508085432 0.570824015806 0)
(0.134211464929 0.567323113552 0)
(0.0326645519838 1.17807423759 0)
(0.0631961283042 1.20991583709 0)
(0.0648293919149 1.3703034969 0)
(0.0685315471489 1.67123769139 0)
(0.0641272703585 1.78420493551 0)
(0.0669128468374 1.75824217509 0)
(0.0939788577453 1.5970706745 0)
(0.12563620295 1.37004304928 0)
(0.146343460756 1.17661449463 0)
(0.162704500514 1.01749380804 0)
(0.175654897133 0.900467333395 0)
(0.182540673428 0.820567441853 0)
(0.180269043278 0.76534479921 0)
(0.169711107291 0.72348566015 0)
(0.155601943946 0.68303116714 0)
(0.145042021997 0.642666670437 0)
(0.141689183278 0.616085365356 0)
(0.142156557353 0.601802703907 0)
(0.140282245039 0.594334602064 0)
(0.132990726247 0.590022984546 0)
(0.0362509283937 1.27699395122 0)
(0.067178012396 1.23875687904 0)
(0.0571156584104 1.35228627123 0)
(0.0536380990236 1.66700432445 0)
(0.0609398149566 1.78692359019 0)
(0.0809006023127 1.69173070251 0)
(0.106687436761 1.50566799294 0)
(0.129478294127 1.32595424571 0)
(0.149576283109 1.15802235846 0)
(0.166680404457 1.01924200942 0)
(0.17960955433 0.916263540949 0)
(0.184379611047 0.843930798317 0)
(0.179578067724 0.79114147245 0)
(0.16723019101 0.749631384808 0)
(0.15189992603 0.707461443656 0)
(0.140995988401 0.666306460133 0)
(0.137989863845 0.640748373114 0)
(0.138407780468 0.626569456072 0)
(0.135569649524 0.618440389996 0)
(0.127276190534 0.612949532735 0)
(0.0396494839295 1.35820712304 0)
(0.0726519339293 1.29284705933 0)
(0.0584689782805 1.38720651794 0)
(0.0512606296744 1.66760960011 0)
(0.0592010521409 1.75381357011 0)
(0.078746847016 1.62692707406 0)
(0.103345448749 1.45749595874 0)
(0.127138686388 1.29216520756 0)
(0.147996929358 1.14393309944 0)
(0.165583454585 1.02331823207 0)
(0.176450085513 0.934072456438 0)
(0.177948547444 0.869268356866 0)
(0.171761900165 0.819455168694 0)
(0.159012720577 0.778204756935 0)
(0.143292137544 0.73327387451 0)
(0.132548989188 0.690722345474 0)
(0.129942779607 0.665237646431 0)
(0.129932894224 0.650721213962 0)
(0.125920352648 0.641545958378 0)
(0.116918084313 0.634710711045 0)
(0.0417065215853 1.421101828 0)
(0.0763889358417 1.35225920749 0)
(0.0616541706898 1.4358427549 0)
(0.0515473653682 1.68308957404 0)
(0.054696884415 1.72730722311 0)
(0.0714884191159 1.58302274395 0)
(0.0952816446105 1.4145033916 0)
(0.119312914672 1.26197543686 0)
(0.140591426297 1.13072930505 0)
(0.156562739708 1.0271580208 0)
(0.163875231847 0.950953083125 0)
(0.163698275926 0.893732008327 0)
(0.158271319866 0.847866455638 0)
(0.146259008366 0.807286077913 0)
(0.130676376746 0.758543445992 0)
(0.120204124035 0.713419864254 0)
(0.117811602703 0.687326523411 0)
(0.116910173906 0.672181988413 0)
(0.111721413125 0.66185253295 0)
(0.102528403686 0.653808501951 0)
(0.0420182549274 1.47228994326 0)
(0.0778343975861 1.4080792089 0)
(0.0649306737356 1.48155503141 0)
(0.0551351737582 1.7087946447 0)
(0.0554499532199 1.7136937515 0)
(0.0677965020914 1.55004483151 0)
(0.0880157149669 1.37878263269 0)
(0.109900702641 1.23418004872 0)
(0.128691329837 1.11681419536 0)
(0.140725352422 1.02875560028 0)
(0.145593576058 0.964370089534 0)
(0.146513675123 0.915007130049 0)
(0.143276138695 0.874502367495 0)
(0.132149765344 0.836001938961 0)
(0.116256787867 0.781796789111 0)
(0.105687424429 0.732218167465 0)
(0.102832023765 0.704984672969 0)
(0.100439009418 0.689045971275 0)
(0.0942546383578 0.677815705405 0)
(0.0854455950626 0.668976186741 0)
(0.0456591506542 1.50977023728 0)
(0.0869631123581 1.4517569035 0)
(0.0755343311753 1.51933111262 0)
(0.0653006415187 1.73249446748 0)
(0.063622007911 1.71042865707 0)
(0.0710614528162 1.53134326271 0)
(0.0856023775574 1.35376518092 0)
(0.102402601077 1.21201097886 0)
(0.116149366246 1.10392389425 0)
(0.124560677768 1.02847812843 0)
(0.129662623933 0.974161625115 0)
(0.133295161956 0.93293813908 0)
(0.132259777316 0.900267234965 0)
(0.12011697731 0.865499011392 0)
(0.101973195678 0.802418355011 0)
(0.0905653493428 0.745703503263 0)
(0.0863675312705 0.716652805116 0)
(0.0821721859783 0.699997910542 0)
(0.0754355353032 0.688458150051 0)
(0.0675043171916 0.67943358804 0)
(0.0487952565408 1.52853732265 0)
(0.0941612836047 1.47716140496 0)
(0.083964064472 1.54780397901 0)
(0.0750159619189 1.74773931682 0)
(0.0730909891527 1.71515518997 0)
(0.0766047030078 1.52774804335 0)
(0.0857581606296 1.34261268621 0)
(0.0976793692235 1.19920519696 0)
(0.107724645378 1.09535816625 0)
(0.115036838053 1.02809179518 0)
(0.122076751775 0.981570127009 0)
(0.128921837159 0.94899803192 0)
(0.127207821343 0.927327016042 0)
(0.10911286862 0.895290923449 0)
(0.0875047893898 0.819660764612 0)
(0.0760073161351 0.752924192145 0)
(0.0704663143027 0.721552690924 0)
(0.0646560567338 0.704661064731 0)
(0.0577645445781 0.693580317205 0)
(0.0508796943635 0.685068466328 0)
(0.0509270767832 1.53069661572 0)
(0.0995522347817 1.48432655746 0)
(0.0913073174216 1.56431869145 0)
(0.0844558090652 1.74847227745 0)
(0.0831603824817 1.7218006616 0)
(0.0838653373248 1.53538610067 0)
(0.0887804526046 1.34379176297 0)
(0.0972730086902 1.19590459241 0)
(0.105585875625 1.09200909228 0)
(0.113562207193 1.02800565489 0)
(0.123343748122 0.987043659144 0)
(0.131019594603 0.96422715047 0)
(0.121515016705 0.954365264225 0)
(0.0959411671404 0.920990507651 0)
(0.0754266312433 0.832468126712 0)
(0.0653624801958 0.753929972211 0)
(0.0585189724115 0.720082469586 0)
(0.0511522536873 0.703617516556 0)
(0.043967088075 0.693791212561 0)
(0.0377753044711 0.68650059361 0)
(0.0523035117117 1.51647940587 0)
(0.102874375384 1.47588655958 0)
(0.0954067625378 1.57031270554 0)
(0.0901256198816 1.73343244146 0)
(0.0908486526665 1.7215857609 0)
(0.0915547909641 1.54493302977 0)
(0.0946293306646 1.35053389924 0)
(0.101233104926 1.19817193754 0)
(0.10907801586 1.09217888215 0)
(0.118252482807 1.02805205524 0)
(0.12908451405 0.991270170081 0)
(0.129557021092 0.977903443506 0)
(0.109224727127 0.976862082633 0)
(0.0847939808063 0.939478560291 0)
(0.0704574782045 0.841218506261 0)
(0.0615083689744 0.751159197051 0)
(0.0534694518755 0.714608120788 0)
(0.0446753265726 0.698861590567 0)
(0.0365842158953 0.690750226077 0)
(0.0301172321447 0.685149480487 0)
(0.0503146440857 1.49850444589 0)
(0.0982654067244 1.46241335723 0)
(0.0907520326386 1.5715657139 0)
(0.0869277870977 1.70847438863 0)
(0.0895032721385 1.71025001312 0)
(0.0926422836874 1.54720891434 0)
(0.0980673408102 1.35485258991 0)
(0.10609277434 1.20108474623 0)
(0.115258508118 1.09413599823 0)
(0.124927635276 1.02927685166 0)
(0.130144297421 0.9954757778 0)
(0.120095644588 0.989901228169 0)
(0.0992767756565 0.994492635618 0)
(0.0827536642986 0.953260817761 0)
(0.0720832057861 0.848874408976 0)
(0.0634666502778 0.749471013038 0)
(0.0550678546334 0.709549339338 0)
(0.0454893183565 0.69399024328 0)
(0.036090451425 0.687212754717 0)
(0.0283557440491 0.683125488326 0)
(0.0508458379226 1.48520843506 0)
(0.0977986589045 1.45446086018 0)
(0.0886141730217 1.57347090294 0)
(0.0837466427371 1.68546093129 0)
(0.0850723308608 1.6958786516 0)
(0.0889962852289 1.54293992503 0)
(0.0970263251616 1.35441459909 0)
(0.107480357818 1.20209342945 0)
(0.117725296946 1.0965019788 0)
(0.125359953447 1.0326174316 0)
(0.125456315579 1.00175770831 0)
(0.114607557727 1.00315127668 0)
(0.0990703506958 1.01139004212 0)
(0.0861662697343 0.966900309286 0)
(0.076036196621 0.858335295041 0)
(0.0676076964597 0.752117515478 0)
(0.0596361057154 0.708250110607 0)
(0.0501266762049 0.691944187521 0)
(0.0398114662534 0.685564461812 0)
(0.0306465363595 0.682295107957 0)
(0.0510068789781 1.47491246036 0)
(0.0955774290448 1.45640117246 0)
(0.0848004755737 1.57651580639 0)
(0.079892871049 1.67028037291 0)
(0.0798020544396 1.68573495332 0)
(0.0833395951503 1.53746903233 0)
(0.0919487861527 1.35144739506 0)
(0.103418441337 1.20157133158 0)
(0.113997463177 1.09884847547 0)
(0.121181316189 1.03797174312 0)
(0.122105889655 1.01102495227 0)
(0.114154835414 1.01848140418 0)
(0.100923493831 1.02900296663 0)
(0.088741617822 0.981730074401 0)
(0.0789783266808 0.869514243964 0)
(0.0710304442602 0.758264847504 0)
(0.0637873190944 0.710698232335 0)
(0.0548756878304 0.693109357207 0)
(0.0443707607756 0.686410880871 0)
(0.0343188907066 0.683314484107 0)
(0.0502299320721 1.47033225963 0)
(0.092725128926 1.46838034151 0)
(0.0811482924057 1.57865157761 0)
(0.0763278744788 1.65920747725 0)
(0.0756004873919 1.67781287582 0)
(0.0786528966778 1.53217370037 0)
(0.0869708132091 1.34758331699 0)
(0.0984668168091 1.20033391767 0)
(0.109306061214 1.10112181255 0)
(0.117428971241 1.04394197159 0)
(0.119879690009 1.02089903374 0)
(0.113007129924 1.0336663748 0)
(0.10071981013 1.04542004115 0)
(0.0894726523721 0.996139978538 0)
(0.0803398053882 0.880564546041 0)
(0.0730572522038 0.765555099398 0)
(0.066529017938 0.71510864667 0)
(0.0583356797676 0.696262498948 0)
(0.0481101226557 0.689021751762 0)
(0.0377561708199 0.685801593053 0)
(0.0477068787018 1.47471024443 0)
(0.0878908587872 1.48384213818 0)
(0.0775209320446 1.57859344079 0)
(0.0736657579931 1.64878840289 0)
(0.0728566111687 1.66939893768 0)
(0.075816114327 1.52661897538 0)
(0.0839829622488 1.34347529734 0)
(0.0953897518776 1.1986955328 0)
(0.106432615285 1.10294739954 0)
(0.115106629225 1.04920287648 0)
(0.118045397614 1.0298020101 0)
(0.111300912448 1.04790244718 0)
(0.099660649477 1.05929961565 0)
(0.0893503236226 1.00858314579 0)
(0.0808816767871 0.89019752265 0)
(0.074247992717 0.772513660889 0)
(0.0683196522509 0.720028948815 0)
(0.060761659314 0.700219156839 0)
(0.050958350426 0.692515117044 0)
(0.04062193662 0.689139211651 0)
(0.0437116494725 1.49358368141 0)
(0.0813054860637 1.49844242827 0)
(0.0729811972593 1.57489905832 0)
(0.0701753600156 1.6364568963 0)
(0.070313116253 1.65834081618 0)
(0.0740430945613 1.51972087318 0)
(0.0824782844212 1.33912619111 0)
(0.0939709777556 1.19693357416 0)
(0.105226543099 1.1044392527 0)
(0.114277055959 1.05380931995 0)
(0.11713579274 1.03819493898 0)
(0.110065404014 1.06156880673 0)
(0.0988508847575 1.07091535491 0)
(0.0892922014503 1.01884292792 0)
(0.0813931967254 0.898249057232 0)
(0.0752671705817 0.778732837559 0)
(0.0698202822508 0.724891880044 0)
(0.0627808658503 0.704432888758 0)
(0.0533786645483 0.696422903056 0)
(0.0431558307979 0.692953514901 0)
(0.0446945307674 1.51737339698 0)
(0.0844811924404 1.50838496788 0)
(0.0768579518133 1.56943780572 0)
(0.0729408700658 1.62436509423 0)
(0.0719469531265 1.64688243036 0)
(0.0749838187873 1.51245205969 0)
(0.0831922693237 1.33498415363 0)
(0.0946274686167 1.19558057996 0)
(0.105975728914 1.10621095818 0)
(0.115101198997 1.05843879703 0)
(0.117344417052 1.04698689406 0)
(0.109592367397 1.07509303898 0)
(0.098824967951 1.08116512861 0)
(0.0899113291798 1.02750718793 0)
(0.0822373468611 0.905056907697 0)
(0.0764204624293 0.784358553376 0)
(0.0713959177387 0.729706875958 0)
(0.0647998068029 0.70884828715 0)
(0.0557385334029 0.700658442484 0)
(0.0456204289463 0.697149939735 0)
(0.0461194753833 1.53283028402 0)
(0.0883569643691 1.51073599684 0)
(0.0811936630679 1.56458621547 0)
(0.0759889815219 1.61604311264 0)
(0.0738122526909 1.63853730744 0)
(0.0763086834183 1.50608801558 0)
(0.0845497088747 1.33132084362 0)
(0.0961962072983 1.19489606407 0)
(0.107726480089 1.10871200365 0)
(0.11672498726 1.06367544965 0)
(0.118012165339 1.05676158586 0)
(0.109775499336 1.08862311488 0)
(0.0995891526131 1.09082178795 0)
(0.0908752227006 1.03515136374 0)
(0.0832453609738 0.910944360777 0)
(0.0777766508304 0.789608527075 0)
(0.073130012005 0.734648623209 0)
(0.066921164751 0.713593115281 0)
(0.0581487125217 0.705305445252 0)
(0.0481033969715 0.701778405018 0)
(0.0469258808838 1.5405633351 0)
(0.0905443230866 1.50745294412 0)
(0.0836494524246 1.56065517085 0)
(0.0776767418358 1.61154892811 0)
(0.0745528711619 1.63315674613 0)
(0.076801238598 1.49978042892 0)
(0.0855934674261 1.32736130008 0)
(0.0977322043918 1.19442267381 0)
(0.109511260524 1.11188221765 0)
(0.118206931992 1.06969579491 0)
(0.118575013752 1.06747502243 0)
(0.110129692629 1.1020198192 0)
(0.100466596535 1.10036733935 0)
(0.0918748690948 1.04222900167 0)
(0.0842896063109 0.916041336579 0)
(0.0791553951377 0.794587193176 0)
(0.0749315538719 0.739864371352 0)
(0.0690862453498 0.718795778886 0)
(0.060551309473 0.710463962715 0)
(0.0505435058796 0.706914986104 0)
(0.0467454330726 1.54289892386 0)
(0.0906201931835 1.5011657338 0)
(0.0837600236882 1.55877042696 0)
(0.0769053924793 1.61138414053 0)
(0.0733867084095 1.62999805518 0)
(0.0762209759004 1.49287300028 0)
(0.0859503798967 1.32261854207 0)
(0.098684649575 1.19378561509 0)
(0.110611489788 1.1155637047 0)
(0.118940825414 1.07643501793 0)
(0.118746358373 1.07881609694 0)
(0.110538891001 1.11527665842 0)
(0.101280462039 1.11020796316 0)
(0.0924648350918 1.04901256292 0)
(0.0849782003082 0.920399515117 0)
(0.0803936468987 0.79939224991 0)
(0.0766388299827 0.745497272529 0)
(0.071134685546 0.724560119232 0)
(0.062792023168 0.716206243488 0)
(0.0527953723357 0.712609538802 0)
(0.0444137745354 1.54991037103 0)
(0.0855944791921 1.49743192791 0)
(0.0785996235343 1.55847433285 0)
(0.0723338783814 1.61374896954 0)
(0.0698914682278 1.6264587457 0)
(0.0741729663121 1.48458495789 0)
(0.085122290056 1.31682876343 0)
(0.0984605548184 1.19277650419 0)
(0.110504387054 1.11960046426 0)
(0.118736153485 1.08371200105 0)
(0.11855907104 1.0904782088 0)
(0.110628495393 1.1284515706 0)
(0.1013798586 1.12052241936 0)
(0.0924756010814 1.05555732341 0)
(0.0853753290935 0.92411934974 0)
(0.0813570123997 0.804147547277 0)
(0.078018565216 0.75161942214 0)
(0.0728040303664 0.73092487184 0)
(0.0646218505472 0.722546569233 0)
(0.0546402764429 0.718855729741 0)
(0.0449192290409 1.56139545003 0)
(0.0867491935113 1.49665725739 0)
(0.0791927640444 1.55946991379 0)
(0.0718502708544 1.61775958043 0)
(0.0690538263427 1.62262345399 0)
(0.073473418416 1.47589335751 0)
(0.0846962726335 1.3107617928 0)
(0.0980970308084 1.19177736703 0)
(0.110030146503 1.12406600731 0)
(0.118298876076 1.09146630593 0)
(0.118234237661 1.10228396061 0)
(0.110389294497 1.14157299718 0)
(0.100996485796 1.13124295513 0)
(0.0920921138123 1.06173274462 0)
(0.085535027071 0.927273737471 0)
(0.0820424005355 0.80890669528 0)
(0.0789648722629 0.758130448626 0)
(0.0739171768005 0.737786117692 0)
(0.0658279383336 0.729390256851 0)
(0.0558680751447 0.725565683619 0)
(0.045425400144 1.56958603004 0)
(0.0877852440848 1.49542934049 0)
(0.0800419787714 1.56085089145 0)
(0.0724847904779 1.62286793697 0)
(0.069544193362 1.61992016295 0)
(0.073743953048 1.46839668399 0)
(0.0848249804561 1.30564521595 0)
(0.097919462347 1.19149105682 0)
(0.109585566667 1.12915315757 0)
(0.117955552693 1.09977111363 0)
(0.117999025805 1.11430867489 0)
(0.109938486695 1.15474239832 0)
(0.10024477607 1.14220242861 0)
(0.0916255032978 1.06739366819 0)
(0.0856716799817 0.92990847164 0)
(0.0824747413478 0.813683071214 0)
(0.0795009700186 0.764841841821 0)
(0.0744628813327 0.744939988627 0)
(0.0663530824043 0.736560535497 0)
(0.0563900216267 0.732595915905 0)
(0.0456847600844 1.57508976824 0)
(0.0885561830785 1.49361582472 0)
(0.0811830855417 1.56023658913 0)
(0.0737578684758 1.6272402048 0)
(0.0709268223866 1.6173797654 0)
(0.0751273321753 1.46234600516 0)
(0.0858999402633 1.30220246313 0)
(0.0984187065991 1.19249205772 0)
(0.109687352266 1.13503749526 0)
(0.118120409111 1.10877082627 0)
(0.118054313343 1.12684880704 0)
(0.109592168617 1.16811945524 0)
(0.0996701783615 1.15328862778 0)
(0.0912526697417 1.07246275998 0)
(0.0857127222495 0.932093212378 0)
(0.0827111094368 0.818552407358 0)
(0.079706795822 0.771649229092 0)
(0.0745249297909 0.752243194843 0)
(0.0662667509555 0.743919100357 0)
(0.0562407582942 0.739827328576 0)
(0.0450797599511 1.57832638081 0)
(0.0875471413225 1.49146557772 0)
(0.0811217053311 1.55594717711 0)
(0.0746718686388 1.63098355189 0)
(0.0725256204057 1.61403398599 0)
(0.0773417390908 1.45767131943 0)
(0.0880650483383 1.30098628486 0)
(0.0999495531255 1.19539239703 0)
(0.110711338078 1.14204817151 0)
(0.119049430879 1.11879284075 0)
(0.118617615631 1.1404051468 0)
(0.109465610714 1.18205126582 0)
(0.0991155123918 1.16461134506 0)
(0.090899862319 1.07707873667 0)
(0.0857604316242 0.93411131242 0)
(0.0828118481115 0.82372861606 0)
(0.0796248058431 0.778623770358 0)
(0.0741446319474 0.75971152155 0)
(0.0656094630142 0.751447881531 0)
(0.0554423152966 0.747218425297 0)
(0.042499081593 1.58913110843 0)
(0.0824603576442 1.4926261876 0)
(0.0771841089615 1.54735114137 0)
(0.0726761425128 1.63126553315 0)
(0.0726701742182 1.60704517691 0)
(0.0793391403183 1.45330793809 0)
(0.0905865177019 1.30174908548 0)
(0.102076022291 1.2003241894 0)
(0.112409745774 1.1503862033 0)
(0.12049394774 1.13016260875 0)
(0.119351576297 1.15548638166 0)
(0.109376052152 1.19707094356 0)
(0.0986513851112 1.17657675722 0)
(0.0905587853952 1.0816503906 0)
(0.0856905654674 0.936384352857 0)
(0.0826630731458 0.829472252983 0)
(0.0791346845797 0.785941496452 0)
(0.0731986311469 0.767463582743 0)
(0.0642606365153 0.759205933784 0)
(0.0538799671954 0.754774225917 0)
(0.0430203764929 1.60728198607 0)
(0.0839362547695 1.49796882759 0)
(0.0780859407923 1.5388870266 0)
(0.0733766024114 1.62617244886 0)
(0.0748805700889 1.597147928 0)
(0.082534453048 1.44980516078 0)
(0.0938982819599 1.30449921068 0)
(0.104902019006 1.20731919512 0)
(0.114736436595 1.16034283671 0)
(0.122253106583 1.14329044954 0)
(0.120109966138 1.1726140231 0)
(0.109190937619 1.21391109289 0)
(0.0979500281248 1.18978739337 0)
(0.0899461707147 1.08670215201 0)
(0.0852966825321 0.93933719572 0)
(0.0819882127873 0.835960762127 0)
(0.0779289201275 0.793765975098 0)
(0.0713634419705 0.775599653239 0)
(0.0619020944216 0.76721997985 0)
(0.0512712315847 0.762459764319 0)
(0.0442826366174 1.62292193664 0)
(0.086801292869 1.5059452397 0)
(0.0802537031188 1.53624506234 0)
(0.0750958356507 1.61992675875 0)
(0.0772954318046 1.59012642335 0)
(0.0851216045935 1.4492434138 0)
(0.0963827229446 1.30940339102 0)
(0.106954806829 1.21627989649 0)
(0.11630054708 1.17217455114 0)
(0.123077661601 1.15855617214 0)
(0.119835467478 1.19227847644 0)
(0.108143130696 1.233339972 0)
(0.0965639636078 1.2048638098 0)
(0.0886148046236 1.09276399501 0)
(0.08400710877 0.94325896587 0)
(0.0802084103967 0.843179168498 0)
(0.0754306960993 0.802103596931 0)
(0.0680765421984 0.784050606265 0)
(0.0580206939992 0.775348682188 0)
(0.0471973336218 0.770090514091 0)
(0.0461070996252 1.63382033651 0)
(0.0903434218714 1.51824803992 0)
(0.0832843774752 1.5412643175 0)
(0.0769867344489 1.62126076453 0)
(0.0776866793169 1.59229971926 0)
(0.0846951869965 1.45265863416 0)
(0.0958152390139 1.31549574064 0)
(0.106114432228 1.22631668795 0)
(0.115095962496 1.18546237403 0)
(0.12117798053 1.17575599415 0)
(0.117178850459 1.21450512243 0)
(0.105163890062 1.25565506983 0)
(0.0934238485007 1.2217623199 0)
(0.0856786959787 1.09994221188 0)
(0.0810809212211 0.948001548331 0)
(0.0765762890474 0.850741540444 0)
(0.0708870664628 0.810560462361 0)
(0.0626248332259 0.792366893451 0)
(0.0520266935489 0.783121281401 0)
(0.0412326107916 0.777214118113 0)
(0.0471230520081 1.64008494529 0)
(0.0921969815472 1.5360937213 0)
(0.0849795349326 1.55504090476 0)
(0.0763452290438 1.64130154827 0)
(0.0731147536163 1.60989664069 0)
(0.0785161487715 1.45993818031 0)
(0.0896730055053 1.3208365549 0)
(0.0999615258411 1.23582266876 0)
(0.108823828651 1.19890998885 0)
(0.114678228383 1.19379921941 0)
(0.110751987552 1.23855110818 0)
(0.09900455477 1.28017169872 0)
(0.0877133134753 1.23954040701 0)
(0.0805893658153 1.10775153191 0)
(0.075812100865 0.95281081202 0)
(0.070410414409 0.857597419299 0)
(0.0636326974756 0.818058383096 0)
(0.0544519344914 0.79951463057 0)
(0.0435631640831 0.789616993979 0)
(0.0332110447237 0.78304114953 0)
(0.046611057924 1.65050237643 0)
(0.0913590956678 1.56009672948 0)
(0.0835811565085 1.58113613338 0)
(0.0700678500929 1.69196652305 0)
(0.0606666129712 1.64681795555 0)
(0.0638233343976 1.4698801467 0)
(0.0749132333101 1.32289688523 0)
(0.0856068948067 1.2422607864 0)
(0.0952467826022 1.21009529704 0)
(0.102161832422 1.21042107288 0)
(0.0994995940811 1.26241286293 0)
(0.0891302689444 1.30478144054 0)
(0.0792400635314 1.25641886005 0)
(0.0728101116126 1.11475845423 0)
(0.0676416729073 0.956396628794 0)
(0.061417446293 0.862065845548 0)
(0.0536372193752 0.822959790543 0)
(0.0437424275387 0.804029698931 0)
(0.0330006423178 0.793610588104 0)
(0.0235907759321 0.786573364625 0)
(0.0511211311408 1.65522449129 0)
(0.102267811485 1.57747836387 0)
(0.0917654454789 1.62500710155 0)
(0.0656026787254 1.78820325436 0)
(0.0445737146174 1.70418243147 0)
(0.0425050419563 1.48360887349 0)
(0.0517405174622 1.32087110148 0)
(0.0632095160123 1.24245105495 0)
(0.0752387891286 1.21539258477 0)
(0.0848069286055 1.22224694812 0)
(0.0846245937587 1.28270974357 0)
(0.0766451285383 1.3262755732 0)
(0.0685769760009 1.270089632 0)
(0.0628876089795 1.11907222125 0)
(0.0575932049629 0.957495315701 0)
(0.0507847232925 0.862248110593 0)
(0.0421398099677 0.823400034022 0)
(0.0317796049091 0.804323175326 0)
(0.0216409626462 0.793835080055 0)
(0.0136093530779 0.786831534262 0)
(0.0564389022049 1.62839141667 0)
(0.11204916357 1.56920212628 0)
(0.0951611009314 1.68286477237 0)
(0.0604894607427 1.91760857853 0)
(0.0333583573148 1.77163789518 0)
(0.0241254326657 1.50384820268 0)
(0.0280656584505 1.31753178034 0)
(0.0400332163266 1.23420852929 0)
(0.0559480641 1.21089790835 0)
(0.0689867161496 1.22584235134 0)
(0.0713298912721 1.29555567888 0)
(0.0652724366881 1.34198396475 0)
(0.0585147556632 1.27826335303 0)
(0.0535859866672 1.11882541516 0)
(0.0482848386756 0.954689883262 0)
(0.0410580126865 0.856105212925 0)
(0.0318031292718 0.817361743627 0)
(0.02122975061 0.798800634562 0)
(0.0119253514834 0.78916570808 0)
(0.00538699731256 0.783071989695 0)
(0.0557422854755 1.5750462921 0)
(0.104004167173 1.54368994579 0)
(0.0818510123213 1.74191958691 0)
(0.0633368330696 1.99652933846 0)
(0.0493082694411 1.83672321286 0)
(0.0329529096589 1.53287055865 0)
(0.0277932709088 1.31996598473 0)
(0.0355977891311 1.22245395812 0)
(0.0516853452429 1.1980735281 0)
(0.0648885845093 1.2206451375 0)
(0.0665379300057 1.29820875058 0)
(0.0599659425383 1.34932406794 0)
(0.0531323073677 1.27842646592 0)
(0.0484602817784 1.11249006854 0)
(0.0431239650226 0.946870892769 0)
(0.0361069825456 0.84386398333 0)
(0.0271218057176 0.804529224446 0)
(0.0166694949686 0.787244688347 0)
(0.00777679984974 0.779580169904 0)
(0.00204216609112 0.775476848666 0)
(0.0497639363154 1.52403036804 0)
(0.0901395239737 1.52494358317 0)
(0.078269642587 1.7653743903 0)
(0.0790078976393 1.98875313883 0)
(0.0762778716772 1.88678679069 0)
(0.0633172537964 1.56797809199 0)
(0.0547558379081 1.3315965999 0)
(0.057106588101 1.21612349722 0)
(0.0667985891173 1.18492892746 0)
(0.0732953100534 1.21070792595 0)
(0.0702171084679 1.29230634297 0)
(0.0633517503912 1.34508241744 0)
(0.0576099215957 1.27113024017 0)
(0.0523882675042 1.10228376641 0)
(0.0467556959127 0.936568296051 0)
(0.0402783686276 0.830431961268 0)
(0.0322045857818 0.788988211391 0)
(0.0222193449436 0.772939332673 0)
(0.0129393411613 0.767580879865 0)
(0.00654022261152 0.766028439798 0)
(0.04534818389 1.49419935676 0)
(0.0844500913688 1.51897204582 0)
(0.077755416602 1.75107773899 0)
(0.0805013544438 1.94847560833 0)
(0.0841876975482 1.90070450371 0)
(0.0825734972501 1.59169455821 0)
(0.0810586779894 1.3430751075 0)
(0.0842292112908 1.21558955107 0)
(0.0887112871547 1.17754370481 0)
(0.0886420141763 1.20378712533 0)
(0.0820431788844 1.28676360357 0)
(0.0762330755826 1.33429142213 0)
(0.0724779271638 1.26437005177 0)
(0.0666447033605 1.09621267091 0)
(0.060145781318 0.930455570621 0)
(0.05368952048 0.822236038772 0)
(0.0463851869066 0.777521704852 0)
(0.0371723460098 0.761629299677 0)
(0.027381771231 0.757651613785 0)
(0.0192681766913 0.758104824342 0)
(0.11749080094 0.525746990161 0)
(0.107479440403 0.526126709304 0)
(0.0974612222974 0.526916375098 0)
(0.0874749470392 0.528014883997 0)
(0.077299208284 0.529597140758 0)
(0.0672886651448 0.531390094221 0)
(0.058364170079 0.532647101966 0)
(0.0510529901976 0.533038778368 0)
(0.045320350804 0.532394156218 0)
(0.0409379854597 0.530348404174 0)
(0.0369367488026 0.524345518825 0)
(0.0274960852573 0.508789013525 0)
(0.0177484769608 0.507867744637 0)
(0.014766313068 0.507698384053 0)
(0.0142194482807 0.500130748963 0)
(0.0133630810948 0.474862603352 0)
(0.0105462970183 0.44110182803 0)
(0.00674355246166 0.403939341342 0)
(0.000284624647734 0.365124251428 0)
(-0.00216048230687 0.32775860145 0)
(0.122146196095 0.544870748091 0)
(0.111374881548 0.544735473379 0)
(0.100686959876 0.544990133708 0)
(0.0900284371712 0.545641269897 0)
(0.0792262504979 0.546901434489 0)
(0.0688433789096 0.548290903809 0)
(0.0598172389325 0.549058770824 0)
(0.0525197029083 0.548931080619 0)
(0.0468071160518 0.5477067064 0)
(0.0425154889878 0.545177153879 0)
(0.0385312084696 0.537041336426 0)
(0.029680005555 0.522196994421 0)
(0.0210524524003 0.522625854191 0)
(0.018124967999 0.522293726644 0)
(0.0167996168913 0.514137738756 0)
(0.0152778920971 0.488125221313 0)
(0.0119759086175 0.454012616241 0)
(0.0077993698449 0.416544864307 0)
(0.00109366540748 0.377298117349 0)
(-0.00179079750668 0.339215475866 0)
(0.123897618069 0.565572871062 0)
(0.112477137082 0.564642422355 0)
(0.101267536895 0.56413479267 0)
(0.0900860252033 0.564187628035 0)
(0.0788784446563 0.56497667226 0)
(0.0684157345936 0.565778330247 0)
(0.0595534405393 0.565931849329 0)
(0.0524747693749 0.565196315645 0)
(0.0469165494991 0.56334832002 0)
(0.0428371059109 0.560227257063 0)
(0.0388320351491 0.549316553519 0)
(0.0312168725072 0.53791834799 0)
(0.0239026277474 0.538504019849 0)
(0.0205323960014 0.537986878059 0)
(0.0185547597477 0.529217070134 0)
(0.0165015420557 0.502451150715 0)
(0.0128787025437 0.467979555643 0)
(0.00850152048535 0.430209055016 0)
(0.00182275533739 0.390552484171 0)
(-0.00136635688806 0.351794514832 0)
(0.121937437742 0.587235389516 0)
(0.110116605511 0.5852527731 0)
(0.0986486299125 0.583789583831 0)
(0.0872138410011 0.583128178208 0)
(0.0759601479685 0.583272955836 0)
(0.0658021575388 0.583327932163 0)
(0.0574025624443 0.58278766293 0)
(0.0507555651154 0.5814103897 0)
(0.0454802864515 0.57898482658 0)
(0.0418362981704 0.574835597804 0)
(0.0378726505114 0.560460510744 0)
(0.0315383969161 0.554596921843 0)
(0.0256279440214 0.554925340628 0)
(0.0218406240512 0.554201120286 0)
(0.0193934223404 0.544797951399 0)
(0.0169804131532 0.517281199929 0)
(0.0132173023779 0.482449540391 0)
(0.00881441711978 0.444379670491 0)
(0.00236614156771 0.404334731672 0)
(-0.000973259877535 0.364945226681 0)
(0.115794096818 0.608892956445 0)
(0.10396081125 0.605685098529 0)
(0.09260061588 0.603169137796 0)
(0.0813052074614 0.601729657391 0)
(0.0704719883031 0.601071491572 0)
(0.0610283355074 0.600312771445 0)
(0.053373204841 0.599078974213 0)
(0.0473402424715 0.597112961077 0)
(0.0424542680159 0.594274197175 0)
(0.0396911841122 0.589053581247 0)
(0.0365683614871 0.572690394435 0)
(0.0311481304927 0.571174147241 0)
(0.0259884078816 0.571252552853 0)
(0.0220035828058 0.570302560499 0)
(0.0192941458922 0.560262836359 0)
(0.0167105066372 0.532019230478 0)
(0.0129842549629 0.496836822945 0)
(0.00872639937952 0.458477258551 0)
(0.00270211753274 0.418067866621 0)
(-0.000630929193353 0.378100650706 0)
(0.105509262874 0.629325146848 0)
(0.0941551375607 0.624873729875 0)
(0.0833414271577 0.621352437795 0)