/*--------------------------------*- C++ -*----------------------------------*\
| =========                 |                                                 |
| \\      /  F ield         | OpenFOAM: The Open Source CFD Toolbox           |
|  \\    /   O peration     | Version:  2312                                  |
|   \\  /    A nd           | Website:  www.openfoam.com                      |
|    \\/     M anipulation  |                                                 |
\*---------------------------------------------------------------------------*/
FoamFile
{
    version     2.0;
    format      ascii;
    arch        "LSB;label=32;scalar=64";
    class       volScalarField;
    location    "0.79/water";
    object      alphat.gas;
}
// * * * * * * * * * * * * * * * * * * * * * * * * * * * * * * * * * * * * * //

dimensions      [1 -1 -1 0 0 0 0];

internalField   nonuniform List<scalar> 
1503
(
1.92581100655e-07
7.97045112852e-08
3.45778301521e-08
2.36972320866e-08
9.60176198994e-08
7.22680128289e-07
3.04796124104e-06
6.83017327418e-06
1.02522124852e-05
1.24055111489e-05
1.35273356764e-05
1.40474766356e-05
1.42642908295e-05
1.43415426549e-05
1.43599841031e-05
1.43565766448e-05
1.43470464272e-05
1.43374565587e-05
1.43297562915e-05
1.43243014178e-05
8.96722595442e-07
6.37389114614e-07
3.27070903017e-07
1.74861758653e-07
7.37123642911e-08
5.63409335078e-08
1.24679357782e-07
7.43102065352e-07
3.18460059453e-06
7.16126049913e-06
1.05497786907e-05
1.25996917726e-05
1.36395248524e-05
1.4107552719e-05
1.42928892021e-05
1.43512522456e-05
1.43582761778e-05
1.43479778908e-05
1.43344789863e-05
1.43230209237e-05
1.23757443786e-06
1.07090485278e-06
7.11924056692e-07
4.01336169763e-07
2.19224920262e-07
1.04293150497e-07
7.53408184201e-08
1.87858580114e-07
1.01780727497e-06
3.58193027905e-06
7.27341639478e-06
1.04424003468e-05
1.24766777708e-05
1.35770403409e-05
1.41008304591e-05
1.43184655269e-05
1.43905148024e-05
1.44008696154e-05
1.43895165917e-05
1.43739456822e-05
1.47070596446e-06
1.33093775836e-06
9.7978399853e-07
6.18189651579e-07
4.11968223565e-07
1.91101856436e-07
1.0124049627e-07
9.95076015221e-08
3.88796087209e-07
1.78732194327e-06
4.78112867318e-06
8.24482213899e-06
1.09963993597e-05
1.27487399063e-05
1.37110528645e-05
1.41770464402e-05
1.43719769681e-05
1.44347447907e-05
1.44407531878e-05
1.44271766165e-05
1.64351472785e-06
1.52416332463e-06
1.17495366343e-06
8.05974063212e-07
4.8844775473e-07
3.26019921963e-07
1.39455653537e-07
9.05895833443e-08
1.83356582702e-07
9.11470164625e-07
3.10044656459e-06
6.36267125473e-06
9.47196495716e-06
1.17484851857e-05
1.31569650536e-05
1.3922573506e-05
1.42895392437e-05
1.44385440144e-05
1.44813507309e-05
1.44793575905e-05
1.75194018732e-06
1.66186835836e-06
1.32415577225e-06
9.53965447511e-07
6.28228595693e-07
3.59068265658e-07
2.18800505593e-07
9.45214830774e-08
1.08252434685e-07
4.61732755645e-07
1.96915468695e-06
4.83638159831e-06
8.04530525489e-06
1.06873454476e-05
1.24915734872e-05
1.35679979379e-05
1.41377116427e-05
1.44013163778e-05
1.45003317477e-05
1.45209060847e-05
1.79195443545e-06
1.72718340253e-06
1.4144671602e-06
1.058800786e-06
7.37098988383e-07
4.64035518107e-07
2.45306023583e-07
1.28610991441e-07
7.35749226795e-08
2.25042895358e-07
1.19114518989e-06
3.60594273798e-06
6.76373581399e-06
9.63938214561e-06
1.17688162751e-05
1.31394300338e-05
1.39237254656e-05
1.432135331e-05
1.44931245523e-05
1.45470099589e-05
1.80045981475e-06
1.75166196239e-06
1.45946164283e-06
1.12252622482e-06
8.13834361449e-07
5.47668267632e-07
3.22057805352e-07
1.63193975995e-07
7.10862996243e-08
1.00002985656e-07
6.47375311395e-07
2.60122314924e-06
5.62918486393e-06
8.64531878974e-06
1.1031038487e-05
1.26642381452e-05
1.3659778559e-05
1.42012988866e-05
1.44579993447e-05
1.45545830679e-05
1.80391333757e-06
1.7603730476e-06
1.4783886117e-06
1.15652929385e-06
8.64163572489e-07
6.11503554373e-07
3.91428806491e-07
2.0391175488e-07
9.84780024372e-08
5.17517076723e-08
2.73216238593e-07
1.7373006978e-06
4.60925337884e-06
7.71571577006e-06
1.03039944226e-05
1.21647377496e-05
1.33587581678e-05
1.40459388335e-05
1.4395066376e-05
1.45416631721e-05
1.79969921218e-06
1.75982318511e-06
1.48209650429e-06
1.17137243748e-06
8.95949559968e-07
6.59540063437e-07
4.49008771129e-07
2.59472432326e-07
1.08830904722e-07
5.080794008e-08
8.99199762934e-08
9.63211125623e-07
3.64587504983e-06
6.82691674949e-06
9.58717794926e-06
1.1649417108e-05
1.30285385868e-05
1.38591693074e-05
1.43046097324e-05
1.45067054584e-05
1.78792334122e-06
1.74890822655e-06
1.47301379649e-06
1.17373573867e-06
9.16866455455e-07
6.96780667142e-07
4.95961114595e-07
3.08100231793e-07
1.43755239525e-07
4.78651054097e-08
4.32268435866e-08
3.72999716342e-07
2.64791189306e-06
5.90286041928e-06
8.83779248315e-06
1.11024375276e-05
1.26654737569e-05
1.36399291469e-05
1.4185712081e-05
1.44493510789e-05
1.76715725912e-06
1.72919319763e-06
1.45746253812e-06
1.17315270533e-06
9.35207482075e-07
7.2826782605e-07
5.34244097721e-07
3.48947444983e-07
1.76238590221e-07
5.70955847766e-08
3.43073219138e-08
1.18862565979e-07
1.59159064589e-06
4.81912174095e-06
7.96052820807e-06
1.04755962324e-05
1.22500814344e-05
1.33835517942e-05
1.40391098963e-05
1.43704621459e-05
1.75219580719e-06
1.71561703363e-06
1.45281549604e-06
1.18433041237e-06
9.59360066462e-07
7.57889352687e-07
5.66471964433e-07
3.8338529534e-07
2.05744384727e-07
7.04315122637e-08
2.56779906852e-08
4.74698069057e-08
6.84939369219e-07
3.48015147821e-06
6.84083725497e-06
9.7070071654e-06
1.17604580661e-05
1.30850110994e-05
1.38650228892e-05
1.42716275898e-05
1.75445747273e-06
1.72058403306e-06
1.47717843789e-06
1.21981520058e-06
9.93617960066e-07
7.87145497472e-07
5.95171017864e-07
4.14337862772e-07
2.34923258354e-07
8.8427840392e-08
2.82464960012e-08
2.97012238546e-08
2.07001733588e-07
2.05765518531e-06
5.44852736808e-06
8.74181131028e-06
1.11664978083e-05
1.27333897561e-05
1.36617131289e-05
1.41543369368e-05
1.81372800186e-06
1.80487343724e-06
1.56815182213e-06
1.28851953315e-06
1.03459481375e-06
8.13820348597e-07
6.21100518107e-07
4.44017973661e-07
2.68331937223e-07
1.14272873436e-07
3.48932139399e-08
2.20412085808e-08
5.99426831423e-08
9.31273799907e-07
3.88008325876e-06
7.54300039545e-06
1.04337697906e-05
1.23127452204e-05
1.34245280514e-05
1.40188157718e-05
1.96600743519e-06
1.97068196931e-06
1.69453366724e-06
1.35621741289e-06
1.06478994344e-06
8.32948542111e-07
6.43378464262e-07
4.75155993302e-07
3.09549037625e-07
1.48398512299e-07
4.52756492514e-08
1.9499255033e-08
3.04854682618e-08
2.8729878852e-07
2.35184935447e-06
6.12940579204e-06
9.53819509415e-06
1.18057419418e-05
1.31456852124e-05
1.3862948734e-05
2.10984046824e-06
2.07987078789e-06
1.75208154063e-06
1.38242578016e-06
1.07639586506e-06
8.42771925018e-07
6.60767087726e-07
5.06731454098e-07
3.54935765428e-07
1.90362103823e-07
6.03075731451e-08
2.14198953248e-08
2.00544143376e-08
6.8118183384e-08
1.07677323758e-06
4.58083047509e-06
8.4692642559e-06
1.11947302941e-05
1.28141242566e-05
1.36816662116e-05
2.12401095347e-06
2.10114171366e-06
1.77502193233e-06
1.39688955649e-06
1.08249192976e-06
8.47913568069e-07
6.73428033717e-07
5.3304645356e-07
3.95826972809e-07
2.33445090685e-07
7.9722782371e-08
2.42830129517e-08
1.85615441844e-08
3.78425566091e-08
2.9304641635e-07
3.02188935603e-06
7.24896878022e-06
1.04677811879e-05
1.2417207513e-05
1.34673868228e-05
2.15891636829e-06
2.13225441328e-06
1.79618084164e-06
1.40878272802e-06
1.08788139403e-06
8.51975407662e-07
6.82858628722e-07
5.5345084031e-07
4.28472979891e-07
2.69681093476e-07
9.81308815216e-08
2.72841483041e-08
1.81699481277e-08
2.38355398803e-08
8.6510249141e-08
1.54959906644e-06
5.92953697817e-06
9.62157267055e-06
1.19421096758e-05
1.321090604e-05
2.17100402414e-06
2.14787342235e-06
1.80906746798e-06
1.41661893503e-06
1.09107072917e-06
8.54362018919e-07
6.89385024721e-07
5.6891321971e-07
4.54171058762e-07
2.97629010813e-07
1.11899943463e-07
2.913316407e-08
1.76395876258e-08
2.12309297263e-08
5.45729070443e-08
5.26818267875e-07
4.5334888462e-06
8.65913600319e-06
1.13767057876e-05
1.29021848126e-05
2.17640429638e-06
2.15688323936e-06
1.81665568269e-06
1.41998026168e-06
1.09107156801e-06
8.544623393e-07
6.94226859066e-07
5.82882497773e-07
4.76529126776e-07
3.18158145347e-07
1.20550896609e-07
2.99057251113e-08
1.70663520305e-08
1.92121556271e-08
3.22825418875e-08
1.88237124378e-07
3.16114075644e-06
7.59710421606e-06
1.07100777713e-05
1.25304399768e-05
2.17282696128e-06
2.16480419891e-06
1.82323431856e-06
1.42134062683e-06
1.0898694173e-06
8.54694523655e-07
7.00800902773e-07
5.99198622015e-07
4.97071699835e-07
3.32403966165e-07
1.26259398291e-07
3.04359947702e-08
1.67013075944e-08
1.77931798063e-08
2.54714810061e-08
1.03400267588e-07
1.93954303237e-06
6.41425696091e-06
9.92250295283e-06
1.20819630335e-05
2.17583326107e-06
2.17504460087e-06
1.82943709472e-06
1.42308892081e-06
1.09092433433e-06
8.5872098226e-07
7.12287186326e-07
6.18124504781e-07
5.14554178512e-07
3.42294958597e-07
1.31602087782e-07
3.15565336884e-08
1.66946297223e-08
1.70716347263e-08
2.14093046189e-08
6.3586120522e-08
1.04638407735e-06
5.11974815348e-06
8.99271278152e-06
1.15403484451e-05
2.18581336104e-06
2.18429082283e-06
1.83256983334e-06
1.42466564961e-06
1.09501890648e-06
8.67837756345e-07
7.28726420746e-07
6.37333792723e-07
5.28705102127e-07
3.49785789065e-07
1.38416668183e-07
3.38080559562e-08
1.70306812672e-08
1.6960979981e-08
1.9592694581e-08
4.29747059889e-08
5.12325862288e-07
3.80463412445e-06
7.91467816666e-06
1.08902661208e-05
2.20744080907e-06
2.19498035786e-06
1.83509587171e-06
1.42649132248e-06
1.10170892491e-06
8.8145962398e-07
7.47686009953e-07
6.5510359637e-07
5.39754304337e-07
3.55215753591e-07
1.46221341638e-07
3.68676292825e-08
1.75197406507e-08
1.72252864545e-08
1.92243992514e-08
3.24354602531e-08
2.24705507305e-07
2.56748293446e-06
6.69520122659e-06
1.01192212924e-05
2.21992364325e-06
2.19609694687e-06
1.83033318734e-06
1.42537689636e-06
1.11004345944e-06
8.98608950974e-07
7.67666520661e-07
6.71086271204e-07
5.46591123713e-07
3.57326209758e-07
1.52671600418e-07
3.97529284054e-08
1.80532956371e-08
1.7643417777e-08
1.95098528719e-08
2.29472530076e-08
9.1818429676e-08
1.52667916374e-06
5.38223012122e-06
9.22463766038e-06
2.21871296213e-06
2.17851947812e-06
1.81186849934e-06
1.42155736098e-06
1.12311816828e-06
9.20681038524e-07
7.88933842288e-07
6.84231033193e-07
5.47164422692e-07
3.54892999079e-07
1.56095724453e-07
4.30217174415e-08
1.86487329248e-08
1.78753576693e-08
1.9929025741e-08
2.23734929701e-08
4.91992586834e-08
7.82554719356e-07
4.08421039518e-06
8.21995221606e-06
2.19175230834e-06
2.13806725754e-06
1.7880997308e-06
1.42726029217e-06
1.14867697274e-06
9.49931726541e-07
8.10851958154e-07
6.91365037584e-07
5.395995409e-07
3.46886995945e-07
1.60226103252e-07
4.78513571279e-08
1.93249726069e-08
1.79188071064e-08
2.00622322319e-08
2.23092720988e-08
3.69796921857e-08
3.22977635568e-07
2.88705767957e-06
7.12081949199e-06
2.1539484488e-06
2.10315615552e-06
1.7949866556e-06
1.46533980154e-06
1.19353275071e-06
9.85107297769e-07
8.28638617635e-07
6.87053464121e-07
5.24770283121e-07
3.43240743926e-07
1.70321687601e-07
5.43739401881e-08
2.02822178687e-08
1.78937725994e-08
1.98492814281e-08
2.19724738494e-08
2.57083315942e-08
1.15635301836e-07
1.83648294513e-06
5.94315758581e-06
2.17783609194e-06
2.15849872487e-06
1.88008017999e-06
1.55017173719e-06
1.25313034412e-06
1.01672481441e-06
8.33834100428e-07
6.75025042712e-07
5.1652645665e-07
3.5212401792e-07
1.87875604641e-07
6.37888351343e-08
2.18451955418e-08
1.79050147013e-08
1.95374915261e-08
2.1405078964e-08
2.39219548913e-08
5.8053784619e-08
9.89830269632e-07
4.72784871381e-06
2.27824281558e-06
2.29607641284e-06
2.02027674494e-06
1.65195949789e-06
1.31036039221e-06
1.04229863218e-06
8.36396080293e-07
6.70655834845e-07
5.24153076176e-07
3.7671011749e-07
2.16428076599e-07
7.84331689276e-08
2.45163877312e-08
1.80868616824e-08
1.93163303717e-08
2.08377521049e-08
2.26194893023e-08
4.14455205771e-08
4.11567583569e-07
3.52652417789e-06
2.40641458859e-06
2.46111738996e-06
2.15840747607e-06
1.74746265786e-06
1.3766318285e-06
1.07958738161e-06
8.51739194995e-07
6.81732189792e-07
5.47195963677e-07
4.15600029487e-07
2.5844879024e-07
1.01426335836e-07
2.90495691141e-08
1.85615497971e-08
1.92758443595e-08
2.04592334105e-08
2.16500296863e-08
2.68105963134e-08
1.43526853091e-07
2.3755361224e-06
2.52405754073e-06
2.58198955257e-06
2.24186269524e-06
1.82956660489e-06
1.45401102495e-06
1.12977371933e-06
8.79480103008e-07
7.02882179964e-07
5.76827551707e-07
4.60537798931e-07
3.10201268789e-07
1.34228932108e-07
3.6308808197e-08
1.94300161018e-08
1.94238623648e-08
2.03056751434e-08
2.09853057941e-08
2.42423403091e-08
7.00184683804e-08
1.33991432834e-06
2.59121403667e-06
2.64097731972e-06
2.29173880752e-06
1.89066114955e-06
1.51811225543e-06
1.17750113855e-06
9.07725895772e-07
7.2381566701e-07
6.03200414958e-07
5.00864193059e-07
3.61799386127e-07
1.73418132183e-07
4.66555071528e-08
2.07538691596e-08
1.96917618149e-08
2.02946683759e-08
2.05396165329e-08
2.27118263536e-08
4.92845698361e-08
5.6943258332e-07
2.63741121093e-06
2.69610856523e-06
2.35048092267e-06
1.94701925206e-06
1.56446840571e-06
1.20971092432e-06
9.26051300687e-07
7.37369034643e-07
6.21261223364e-07
5.30086521543e-07
4.03114172172e-07
2.11285255182e-07
5.93751646596e-08
2.25642217755e-08
1.99969814005e-08
2.03548299248e-08
2.01695625538e-08
2.15813785006e-08
3.17206535849e-08
2.01340621745e-07
2.67418435611e-06
2.74879817702e-06
2.41274870944e-06
2.00269237747e-06
1.60279949318e-06
1.22871759218e-06
9.34115974248e-07
7.44226286274e-07
6.32662094943e-07
5.48950443559e-07
4.29374655365e-07
2.38775058927e-07
7.21194352757e-08
2.48572011114e-08
2.03150590403e-08
2.04017451966e-08
1.98614534048e-08
2.06644278358e-08
2.77460839089e-08
9.95582146237e-08
2.69400192904e-06
2.78817697958e-06
2.4681242687e-06
2.05414824188e-06
1.63238037238e-06
1.23605462348e-06
9.34154693177e-07
7.46994587856e-07
6.40785497878e-07
5.61702382549e-07
4.44447233198e-07
2.53757662977e-07
8.08199450183e-08
2.69352071186e-08
2.06365309715e-08
2.04477241574e-08
1.96684576814e-08
1.99163460706e-08
2.48067078095e-08
7.26298881599e-08
2.70100464906e-06
2.81791148163e-06
2.51474191822e-06
2.09793076972e-06
1.65154990897e-06
1.23259924201e-06
9.27945201302e-07
7.47304843179e-07
6.47620743303e-07
5.70717961702e-07
4.5120238935e-07
2.58546445868e-07
8.48630203476e-08
2.83256022911e-08
2.09094408445e-08
2.05080034211e-08
1.95654607522e-08
1.93573220994e-08
2.25769523504e-08
4.94467596443e-08
1.43210074937e-05
1.4319544225e-05
1.43194709087e-05
1.4320467826e-05
1.43222455234e-05
1.43242804178e-05
1.43252747724e-05
1.43219579533e-05
1.43064138635e-05
1.42602634468e-05
1.41424782997e-05
1.38653330974e-05
1.32520213084e-05
1.1981354013e-05
9.59656025218e-06
5.89924466777e-06
2.11487513778e-06
3.51126062986e-07
1.09752451393e-07
4.9919193529e-07
1.43153464435e-05
1.43115038022e-05
1.43106462233e-05
1.43117536071e-05
1.43133642733e-05
1.4312550793e-05
1.43027877998e-05
1.42696876114e-05
1.41828878498e-05
1.398180755e-05
1.35538031786e-05
1.27093878121e-05
1.11801325985e-05
8.71539318888e-06
5.41670660085e-06
2.24780221971e-06
5.38199299095e-07
1.41190013566e-07
2.578351998e-07
9.91639545983e-07
1.4361335407e-05
1.43537445577e-05
1.43502685449e-05
1.43486580631e-05
1.4344856771e-05
1.43307440537e-05
1.42897001482e-05
1.41889035305e-05
1.39674106925e-05
1.35209883205e-05
1.26906582879e-05
1.12751334011e-05
9.10775821103e-06
6.24792605865e-06
3.25218959224e-06
1.11446333954e-06
2.76483797095e-07
1.74113744686e-07
5.19139011911e-07
1.44805534523e-06
1.44110825206e-05
1.43989160734e-05
1.43904909739e-05
1.43818264516e-05
1.43646477452e-05
1.4322820274e-05
1.42259126218e-05
1.40198249732e-05
1.36160347759e-05
1.28852367262e-05
1.16685807974e-05
9.8282996898e-06
7.36001586735e-06
4.55666103502e-06
2.09089579784e-06
6.5539315758e-07
2.12680764862e-07
2.86429154824e-07
8.58200634133e-07
1.82083721727e-06
1.44633799332e-05
1.44467635876e-05
1.44310572192e-05
1.44101415283e-05
1.43700799529e-05
1.42847335353e-05
1.4108602465e-05
1.37686620718e-05
1.31595263584e-05
1.21505783374e-05
1.0617928293e-05
8.5135149572e-06
5.96982856678e-06
3.39600695179e-06
1.41874983043e-06
4.42291605198e-07
2.24860046508e-07
4.73171842197e-07
1.20228672844e-06
2.09073202022e-06
1.45098510487e-05
1.44894901418e-05
1.4464141684e-05
1.44252832835e-05
1.4352370224e-05
1.4208578378e-05
1.39346600698e-05
1.34445760147e-05
1.26289169923e-05
1.13745127614e-05
9.60827971687e-06
7.36661099097e-06
4.87416579745e-06
2.57812328591e-06
1.00645589722e-06
3.43399814232e-07
2.9160761472e-07
7.1366749189e-07
1.49533051697e-06
2.27337664342e-06
1.45460921365e-05
1.4522944569e-05
1.44855058575e-05
1.44228085523e-05
1.43074241227e-05
1.4092506204e-05
1.37082528195e-05
1.30628137406e-05
1.20537934152e-05
1.05963416156e-05
8.67019459009e-06
6.37942270539e-06
4.00334030576e-06
1.9854971949e-06
7.45834117833e-07
3.10659286559e-07
4.09065248551e-07
9.70596804632e-07
1.72049821789e-06
2.39322877229e-06
1.4568831951e-05
1.45439384582e-05
1.44919712419e-05
1.43996954759e-05
1.42332315018e-05
1.39374538015e-05
1.34361387153e-05
1.26384191163e-05
1.14566398796e-05
9.83851416482e-06
7.81152720698e-06
5.52982089053e-06
3.30177441656e-06
1.54734113651e-06
5.82195762771e-07
3.25579648411e-07
5.69474318255e-07
1.21021302798e-06
1.88579145164e-06
2.46960435183e-06
1.45756309331e-05
1.45500997173e-05
1.44813150347e-05
1.43542124705e-05
1.41295066628e-05
1.37462233741e-05
1.31259896937e-05
1.21844220573e-05
1.08530855998e-05
9.11220209033e-06
7.02949186471e-06
4.79470305543e-06
2.72948685838e-06
1.22074878502e-06
4.85877945176e-07
3.81095815587e-07
7.56840283972e-07
1.41483046634e-06
2.00520148073e-06
2.51594861975e-06
1.45648004017e-05
1.45397727485e-05
1.44521266654e-05
1.42856591686e-05
1.39971758953e-05
1.35225852017e-05
1.27852506802e-05
1.17112367763e-05
1.02532813562e-05
8.42178047564e-06
6.3172101526e-06
4.15435381292e-06
2.25888443261e-06
9.78930534433e-07
4.3997347574e-07
4.73036955201e-07
9.51727962593e-07
1.58151109026e-06
2.09077843533e-06
2.5414832793e-06
1.45356569145e-05
1.45122032446e-05
1.44038997463e-05
1.41943093143e-05
1.38380954643e-05
1.32707724549e-05
1.24206722059e-05
1.12268590749e-05
9.66349295929e-06
7.76791067048e-06
5.66698439512e-06
3.59339195498e-06
1.87124281268e-06
8.04237246968e-07
4.34660203839e-07
5.95464924739e-07
1.13797668893e-06
1.71485279522e-06
2.15153628778e-06
2.55257712388e-06
1.44886961566e-05
1.44676949523e-05
1.43371011449e-05
1.40813399342e-05
1.36548120919e-05
1.29951436608e-05
1.20381348381e-05
1.07372665498e-05
9.08736583384e-06
7.14940830595e-06
5.07176123956e-06
3.1004546313e-06
1.55379411772e-06
6.84233215189e-07
4.64101449544e-07
7.39404731854e-07
1.30623388358e-06
1.82125403435e-06
2.19407674375e-06
2.55365077021e-06
1.44254697988e-05
1.44075442894e-05
1.4253057927e-05
1.39486192573e-05
1.34502486845e-05
1.26998577491e-05
1.16425232155e-05
1.02467328425e-05
8.52674256318e-06
6.56424844082e-06
4.52564262133e-06
2.66745141124e-06
1.29747219258e-06
6.09680624107e-07
5.24191232476e-07
8.94274082757e-07
1.45353920971e-06
1.90643021622e-06
2.22320498097e-06
2.54776768213e-06
1.43480284193e-05
1.43336052599e-05
1.41535467545e-05
1.37982677701e-05
1.32272400798e-05
1.23884681035e-05
1.12375283627e-05
9.75796343528e-06
7.98209690721e-06
6.01002370039e-06
4.0239161148e-06
2.28869775475e-06
1.09525577509e-06
5.73598592036e-07
6.10803490401e-07
1.0503220328e-06
1.58091592304e-06
1.97494065163e-06
2.24238100795e-06
2.53701168258e-06
1.42579544374e-05
1.42475182824e-05
1.40401394454e-05
1.36320618619e-05
1.29879907201e-05
1.2063495946e-05
1.08254318061e-05
9.27214094056e-06
7.45276593066e-06
5.48414405184e-06
3.5629082948e-06
1.96010304035e-06
9.41140564801e-07
5.70771516883e-07
7.1884024331e-07
1.2004575851e-06
1.69101434559e-06
2.03036485669e-06
2.25407932152e-06
2.52274038821e-06
1.4155343428e-05
1.41499086267e-05
1.39135749091e-05
1.34509217829e-05
1.27336671558e-05
1.17261662422e-05
1.040703595e-05
8.78905376176e-06
6.9371916426e-06
4.98402074518e-06
3.13987363201e-06
1.67854961408e-06
8.29731807412e-07
5.97279922551e-07
8.42243638595e-07
1.34076918963e-06
1.78669403094e-06
2.07552367736e-06
2.26007981158e-06
2.50577995447e-06
1.40382162668e-05
1.40399665682e-05
1.37734866623e-05
1.32547447016e-05
1.24643309866e-05
1.13764679708e-05
9.98187600458e-06
8.30744105412e-06
6.43332039174e-06
4.50738697701e-06
2.75302595261e-06
1.44151347399e-06
7.56266188732e-07
6.4988814875e-07
9.74707696268e-07
1.4699592547e-06
1.8704661171e-06
2.11263601169e-06
2.26169580798e-06
2.48659939828e-06
1.3902679731e-05
1.39156035917e-05
1.3618598126e-05
1.30426430166e-05
1.21792400284e-05
1.1013547789e-05
9.54871894677e-06
7.82557198901e-06
5.93919574617e-06
4.05278468588e-06
2.40168321698e-06
1.24686194759e-06
7.16749019948e-07
7.25386920831e-07
1.11057841192e-06
1.58832972066e-06
1.9443934202e-06
2.14343786604e-06
2.25994611684e-06
2.46547676425e-06
1.37435174736e-05
1.37739206972e-05
1.34471547376e-05
1.28133936021e-05
1.18773566866e-05
1.06363034183e-05
9.10624085072e-06
7.34197436196e-06
5.45367167879e-06
3.62011775023e-06
2.08636605119e-06
1.09269991021e-06
7.07946660241e-07
8.20119652896e-07
1.24549674772e-06
1.69686854846e-06
2.01013839411e-06
2.16928194082e-06
2.25567462145e-06
2.4426482214e-06
1.35546614798e-05
1.36115359637e-05
1.32572499057e-05
1.25658405498e-05
1.15578588954e-05
1.02440003029e-05
8.6537213443e-06
6.85615842652e-06
4.97708214756e-06
3.21106178805e-06
1.80862830071e-06
9.77167320003e-07
7.27140789082e-07
9.29870478515e-07
1.37659238605e-06
1.79668466156e-06
2.06902961777e-06
2.19121771186e-06
2.2496177647e-06
2.41841906006e-06
1.33291951854e-05
1.34245847706e-05
1.30469267679e-05
1.22991416424e-05
1.12205210799e-05
9.83674968061e-06
8.19157165181e-06
6.36913885523e-06
4.51164904854e-06
2.82907893894e-06
1.57047890811e-06
8.9820047221e-07
7.71719679244e-07
1.05012460999e-06
1.50229439013e-06
1.88877717939e-06
2.12212455099e-06
2.21005131296e-06
2.24242388188e-06
2.39321683803e-06
1.30588150871e-05
1.32085620841e-05
1.2814170237e-05
1.20128563611e-05
1.08658607525e-05
9.41568099125e-06
7.72150571878e-06
5.88356313272e-06
4.06143276752e-06
2.47886914967e-06
1.37349141753e-06
8.53366455322e-07
8.38786341696e-07
1.1765449962e-06
1.62196125458e-06
1.97400721707e-06
2.1702720988e-06
2.22638914902e-06
2.23463648834e-06
2.36758016811e-06
1.27338521231e-05
1.29583969562e-05
1.25569169363e-05
1.1706853577e-05
1.04949545995e-05
8.98269722391e-06
7.24626217735e-06
5.40337838659e-06
3.63177350313e-06
2.16532205461e-06
1.21796418868e-06
8.39860140487e-07
9.24967921218e-07
1.30544063528e-06
1.73552178128e-06
2.05314308939e-06
2.21417089121e-06
2.24067112783e-06
2.22666110637e-06
2.34209576938e-06
1.23445655383e-05
1.26690191551e-05
1.22731595219e-05
1.13810742875e-05
1.01089862691e-05
8.53992296692e-06
6.76902388934e-06
4.93319441158e-06
3.22839699656e-06
1.89232356086e-06
1.10255402755e-06
8.54634885922e-07
1.02650720607e-06
1.4340517984e-06
1.84322096666e-06
2.12690210281e-06
2.25441322789e-06
2.2531985202e-06
2.21873672939e-06
2.31731177167e-06
1.18827710158e-05
1.2336250343e-05
1.19611914734e-05
1.10353389468e-05
9.70881791231e-06
8.08918770861e-06
6.29287807954e-06
4.47765735149e-06
2.85651626932e-06
1.66190430024e-06
1.02454018398e-06
8.94557446864e-07
1.13956770454e-06
1.56059224842e-06
1.94547009882e-06
2.19596317679e-06
2.29150997727e-06
2.26416040442e-06
2.21092743064e-06
2.29365950067e-06
1.13439572947e-05
1.19577442196e-05
1.16200040152e-05
1.06694231138e-05
9.29490087942e-06
7.6318703337e-06
5.82061276942e-06
4.04109808934e-06
2.52023148257e-06
1.47404436434e-06
9.8048899611e-07
9.56501581669e-07
1.26059116671e-06
1.68409482179e-06
2.04275863253e-06
2.26095574097e-06
2.32590132408e-06
2.27366111974e-06
2.20313812295e-06
2.27140584003e-06
1.07281156811e-05
1.15333224233e-05
1.12496098447e-05
1.02833656903e-05
8.86756304358e-06
7.16916289517e-06
5.35491028038e-06
3.62752227334e-06
2.22233841641e-06
1.32708051789e-06
9.66913067719e-07
1.03736762113e-06
1.38656188306e-06
1.80416237435e-06
2.1355941218e-06
2.32244291212e-06
2.35796404263e-06
2.28174919156e-06
2.19514676267e-06
2.25063835875e-06
1.00357672489e-05
1.10637418404e-05
1.08508171061e-05
9.87768540772e-06
8.4274274367e-06
6.70256018786e-06
4.89877330905e-06
3.24079333923e-06
1.96442203502e-06
1.21838044698e-06
9.80640674528e-07
1.13407245916e-06
1.51511932604e-06
1.92072747228e-06
2.22446197141e-06
2.38091542439e-06
2.38802399381e-06
2.28844590985e-06
2.18663893787e-06
2.23126554618e-06
9.2635540476e-06
1.05486350251e-05
1.04245799008e-05
9.45340722455e-06
7.97575814648e-06
6.23431771493e-06
4.45589050465e-06
2.88471890682e-06
1.74699606939e-06
1.14494092063e-06
1.01885969697e-06
1.24357623337e-06
1.64454609318e-06
2.03388749128e-06
2.30980992019e-06
2.43680219865e-06
2.41637510962e-06
2.29377084928e-06
2.17723438012e-06
2.21300805355e-06
8.40706725944e-06
9.98611753538e-06
9.97174233814e-06
9.01209832988e-06
7.51465439758e-06
5.7676536845e-06
4.03065661673e-06
2.56281895089e-06
1.56956613812e-06
1.10376748309e-06
1.07898186801e-06
1.36298968034e-06
1.7736926582e-06
2.14382872493e-06
2.3920555496e-06
2.49049036727e-06
2.44329859005e-06
2.29776257941e-06
2.16650586393e-06
2.19536880159e-06
7.46467354783e-06
9.37401450734e-06
9.49335554357e-06
8.55591168671e-06
7.04697848629e-06
5.30654414106e-06
3.62774658512e-06
2.27783357783e-06
1.43070666997e-06
1.09207722656e-06
1.15850784586e-06
1.48974710619e-06
1.9018859006e-06
2.25080973731e-06
2.47160222005e-06
2.54234081783e-06
2.46907381962e-06
2.30049508884e-06
2.15400257377e-06
2.17759447574e-06
6.43805109687e-06
8.71019571364e-06
8.99078339288e-06
8.08735396403e-06
6.57590529269e-06
4.85513380575e-06
3.25142685717e-06
2.03128257382e-06
1.32830253862e-06
1.10740746956e-06
1.25499457143e-06
1.62177435323e-06
2.02883585583e-06
2.35515823608e-06
2.5488444046e-06
2.5926882358e-06
2.49397592863e-06
2.30209104597e-06
2.13929279404e-06
2.15866316641e-06
5.34524934274e-06
7.99403930279e-06
8.4655460797e-06
7.60870994443e-06
6.10421778253e-06
4.41706498212e-06
2.90501321314e-06
1.82340578096e-06
1.25997780077e-06
1.14766161133e-06
1.36611648819e-06
1.75756921362e-06
2.15453233206e-06
2.45724701575e-06
2.62415175064e-06
2.64182476522e-06
2.51826166692e-06
2.3027314267e-06
2.12203185093e-06
2.13734057587e-06
4.22955345999e-06
7.23195267512e-06
7.91999793102e-06
7.12157889324e-06
5.63377914475e-06
3.9951850163e-06
2.5908336974e-06
1.65356062064e-06
1.22356180662e-06
1.21107016337e-06
1.48974375192e-06
1.89614962343e-06
2.27912227177e-06
2.55744036902e-06
2.69783652385e-06
2.68997748539e-06
2.54215182336e-06
2.30265876682e-06
2.10204302562e-06
2.11232926968e-06
3.11866229089e-06
6.4385827231e-06
7.35782235957e-06
6.62679158661e-06
5.16563605197e-06
3.59195320087e-06
2.31072837542e-06
1.52084206811e-06
1.21737930485e-06
1.29604084781e-06
1.62396245502e-06
2.03688686498e-06
2.40277652393e-06
2.65602806159e-06
2.77012224855e-06
2.7372958147e-06
2.56582150486e-06
2.3021715459e-06
2.07938340071e-06
2.08249270214e-06
2.01546072675e-06
5.62944412836e-06
6.78291821984e-06
6.12481624549e-06
4.70103686779e-06
3.2105051815e-06
2.06674364455e-06
1.42455937742e-06
1.2402267083e-06
1.40091975432e-06
1.76701740935e-06
2.17929459612e-06
2.52557756677e-06
2.75317891579e-06
2.84113544041e-06
2.78386248366e-06
2.58940738548e-06
2.3016104136e-06
2.05436307143e-06
2.04708128791e-06
1.05629393412e-06
4.80949207204e-06
6.19838584604e-06
5.61706173533e-06
4.24326953805e-06
2.85581893685e-06
1.86146859996e-06
1.364312904e-06
1.2910544346e-06
1.5237607327e-06
1.91723068506e-06
2.32286976276e-06
2.6474714247e-06
2.84894352482e-06
2.91093226753e-06
2.82972662539e-06
2.61302417195e-06
2.301322188e-06
2.02745254405e-06
2.00575490835e-06
4.6672893151e-07
3.97360707903e-06
5.60929040973e-06
)
;

boundaryField
{
    emptyPatch
    {
        type            empty;
    }
    minY
    {
        type            zeroGradient;
    }
    maxY
    {
        type            calculated;
        value           nonuniform List<scalar> 0();
    }
    water_to_cooler
    {
        type            compressible::alphatWallBoilingWallFunction;
        phaseType       vapor;
        relax           constant 1;
        partitioningModel
        {
            type            Lavieville;
            alphaCrit       0.2;
        }
        otherPhase      liquid;
        dmdt            uniform 0;
        dDep            uniform 1e-05;
        qQuenching      uniform 0;
        alphatConv      uniform 0;
        value           uniform 3.01273722487e-05;
    }
    water_to_heater
    {
        type            compressible::alphatWallBoilingWallFunction;
        phaseType       vapor;
        relax           constant 1;
        partitioningModel
        {
            type            Lavieville;
            alphaCrit       0.2;
        }
        otherPhase      liquid;
        dmdt            uniform 0;
        dDep            uniform 1e-05;
        qQuenching      uniform 0;
        alphatConv      uniform 0;
        value           nonuniform List<scalar> 
61
(
5.41316600886e-11
1.04322269197e-07
1.04322269197e-07
1.0432142965e-07
1.0432142965e-07
1.04322269197e-07
1.04322269197e-07
7.84345526771e-08
4.79372329876e-08
4.04794900366e-08
4.04794900366e-08
4.01000823464e-08
4.01000823464e-08
4.13086756195e-08
4.13086756195e-08
3.99722502411e-08
4.13456825401e-08
3.98193251958e-08
3.98193251958e-08
4.07966049236e-08
4.07966049236e-08
3.96530192928e-08
3.96530192928e-08
3.23590813613e-08
2.65221386544e-08
4.46796923337e-08
4.46796923337e-08
1.09343277145e-07
1.09343277145e-07
1.16696249098e-07
1.16696249098e-07
1.09907460011e-07
1.19662749455e-07
1.10134723661e-07
1.10134723661e-07
1.19627557756e-07
1.19627557756e-07
1.10134723661e-07
1.10134723661e-07
1.16825551745e-07
1.09907460011e-07
1.13170566187e-07
1.13170566187e-07
1.09636764458e-07
1.09636764458e-07
9.88663708671e-08
9.88663708671e-08
5.68677605058e-08
3.478620522e-08
3.85583894987e-08
3.85583894987e-08