/*--------------------------------*- C++ -*----------------------------------*\
| =========                 |                                                 |
| \\      /  F ield         | OpenFOAM: The Open Source CFD Toolbox           |
|  \\    /   O peration     | Version:  2312                                  |
|   \\  /    A nd           | Website:  www.openfoam.com                      |
|    \\/     M anipulation  |                                                 |
\*---------------------------------------------------------------------------*/
FoamFile
{
    version     2.0;
    format      ascii;
    arch        "LSB;label=32;scalar=64";
    class       volVectorField;
    location    "0.53/water";
    object      U.gas;
}
// * * * * * * * * * * * * * * * * * * * * * * * * * * * * * * * * * * * * * //

dimensions      [0 1 -1 0 0 0 0];

internalField   nonuniform List<vector> 
1497
(
(0.0958233127033 1.20190279082 0)
(0.103709415627 1.21436528316 0)
(0.113301567669 1.21651536303 0)
(0.126125195947 1.19149854705 0)
(0.142087603158 1.13815079523 0)
(0.159780106107 1.07192794176 0)
(0.175005300108 1.00940491851 0)
(0.1828700668 0.955822948121 0)
(0.183585577031 0.909656306579 0)
(0.182025254381 0.86979898101 0)
(0.182107945701 0.833775429417 0)
(0.184615142744 0.797739698505 0)
(0.188134460325 0.758607085327 0)
(0.0432717085802 1.90636746166 0)
(0.0892563091059 1.60371034586 0)
(0.0845845738332 1.45748447964 0)
(0.0739072006787 1.35769144864 0)
(0.0703212877687 1.27871069208 0)
(0.0720476989015 1.22817676156 0)
(0.0774116303982 1.21023264773 0)
(0.0844440013816 1.20953409376 0)
(0.0926307625094 1.21237807844 0)
(0.103047751908 1.20362506682 0)
(0.116262997332 1.17398367298 0)
(0.131936321321 1.12527012381 0)
(0.147860421524 1.06919530647 0)
(0.159152637633 1.01542390921 0)
(0.163067632726 0.965843174219 0)
(0.162307950439 0.920629500378 0)
(0.160693962174 0.879926232153 0)
(0.160473556228 0.841838530299 0)
(0.162348001032 0.803231573177 0)
(0.165435803714 0.76182601177 0)
(0.044185168191 1.92568571643 0)
(0.0895368943279 1.64721833292 0)
(0.0812939101804 1.51292694029 0)
(0.0662555417096 1.4144164053 0)
(0.0588068352112 1.32343202899 0)
(0.0578979993992 1.26116709695 0)
(0.0613510714232 1.23452421009 0)
(0.0674446878473 1.22477412295 0)
(0.0756615676575 1.21538890745 0)
(0.0862229282547 1.19498959841 0)
(0.0989504700657 1.16093838626 0)
(0.112483753116 1.11584486165 0)
(0.123726528539 1.06630595638 0)
(0.129903188015 1.01726639172 0)
(0.131646866302 0.96992642021 0)
(0.13126944176 0.925245482912 0)
(0.130518749214 0.883693119898 0)
(0.131019583398 0.844081583888 0)
(0.133452599592 0.803978044179 0)
(0.137024091025 0.761584600427 0)
(0.0492946746177 1.95794009098 0)
(0.0947924810466 1.7125895251 0)
(0.0764568486822 1.59531805718 0)
(0.052360260213 1.49624172297 0)
(0.0384330580615 1.38608574478 0)
(0.0334670929073 1.30518757617 0)
(0.0347553582895 1.26439996783 0)
(0.0401974398841 1.24157780827 0)
(0.0484053844784 1.21749618721 0)
(0.0584211201591 1.18424690407 0)
(0.0692097667843 1.14501109531 0)
(0.0790055596136 1.10118308887 0)
(0.0862150051255 1.05524902189 0)
(0.0909234890186 1.00947171993 0)
(0.0939847198253 0.964464917085 0)
(0.0958658103445 0.920762500528 0)
(0.0974039155884 0.879210981909 0)
(0.0998878254054 0.839309224423 0)
(0.103787332714 0.799147658865 0)
(0.108327769574 0.757190240238 0)
(0.0552403581151 1.96652990997 0)
(0.0977666548469 1.77466233417 0)
(0.0690098959822 1.68125261416 0)
(0.0411136315326 1.57953773369 0)
(0.0210805618861 1.45124028089 0)
(0.00848273994476 1.35114136735 0)
(0.0036289641264 1.29249097237 0)
(0.00580784508333 1.25312187409 0)
(0.0126711276259 1.21251470003 0)
(0.0216895564017 1.16558078399 0)
(0.0310346700456 1.11905196835 0)
(0.0394701789922 1.07494028333 0)
(0.0467339175207 1.03221323396 0)
(0.0534424283303 0.990221964709 0)
(0.0595529785303 0.948364588671 0)
(0.064626308434 0.906826107664 0)
(0.0691048018161 0.866665343358 0)
(0.0738686678124 0.827932682516 0)
(0.0791785536987 0.78920145177 0)
(0.084384885205 0.749086975671 0)
(0.0577387894372 1.88644304465 0)
(0.100617678243 1.793976076 0)
(0.0762068270952 1.72653911726 0)
(0.0580218250027 1.62632582003 0)
(0.0396945960814 1.49551076856 0)
(0.0206911507201 1.38621695122 0)
(0.00471866232223 1.31297930604 0)
(-0.00447472788501 1.25655860712 0)
(-0.00583829482292 1.19939174694 0)
(-0.00151667787265 1.13945694747 0)
(0.00531866510008 1.08418948546 0)
(0.0127573035372 1.03741692318 0)
(0.0206175963705 0.998283603398 0)
(0.0293236215008 0.961158553039 0)
(0.0381876330038 0.923762485962 0)
(0.0459685254432 0.885873200456 0)
(0.0525882980725 0.848578044848 0)
(0.0586259567412 0.812382394947 0)
(0.064267903738 0.776370205073 0)
(0.0689889048328 0.739279494594 0)
(0.0715668548903 1.60694533598 0)
(0.139903893177 1.73183650431 0)
(0.132515044116 1.7189135679 0)
(0.120545474657 1.6460423141 0)
(0.100722188565 1.5380332071 0)
(0.0753977156991 1.42810005997 0)
(0.0498459510092 1.34027491711 0)
(0.0292277654777 1.26186830975 0)
(0.0167842407005 1.1872871851 0)
(0.0120564726926 1.11503194916 0)
(0.0126781252493 1.05119995695 0)
(0.0161955704459 0.999155421313 0)
(0.0216406689032 0.961267897793 0)
(0.02924365535 0.929161529311 0)
(0.0379889574912 0.896963334403 0)
(0.0459004028695 0.86354294123 0)
(0.0523054997452 0.829910652694 0)
(0.0574972273833 0.796973431747 0)
(0.0616382406599 0.764302695055 0)
(0.0642065087756 0.730726372875 0)
(0.0291083632334 1.42689456847 0)
(0.0875011838387 1.50873479407 0)
(0.137729456308 1.57720674429 0)
(0.160855698452 1.62671056829 0)
(0.156676701548 1.58162319354 0)
(0.134221354623 1.51277591629 0)
(0.0977432155962 1.42661926839 0)
(0.0679942265431 1.28772866386 0)
(0.0538919381412 1.18933972036 0)
(0.0472253350055 1.10491803509 0)
(0.0452414919146 1.0333185675 0)
(0.0462836817714 0.975587872738 0)
(0.0492231315416 0.935179416904 0)
(0.0537598155361 0.905708497279 0)
(0.0592105684927 0.877353124731 0)
(0.0641025860331 0.847500440876 0)
(0.0675982399874 0.816889860908 0)
(0.069675261758 0.786700314279 0)
(0.0703722754381 0.756832945895 0)
(0.0690372161484 0.7260222769 0)
(0.00773384734161 1.6076307284 0)
(0.02110601107 1.32607948747 0)
(0.0405113601613 1.37431879408 0)
(0.072506924817 1.50389609602 0)
(0.0965375447058 1.56501766723 0)
(0.102762546266 1.56255728957 0)
(0.0984431141232 1.50897497745 0)
(0.0890679352442 1.32471662554 0)
(0.0825231840531 1.20491834559 0)
(0.0802914311676 1.11173033533 0)
(0.0807574729555 1.03464236471 0)
(0.0831517156995 0.972489860981 0)
(0.0865539981398 0.928508418928 0)
(0.0896661007731 0.898897873325 0)
(0.0916425078476 0.871808751983 0)
(0.0923801482072 0.843401571116 0)
(0.0917448847881 0.814075617606 0)
(0.0895310355287 0.785123942148 0)
(0.0854068572135 0.756414276903 0)
(0.078870302651 0.726537533365 0)
(0.0110984102328 1.90790927769 0)
(0.0112584861981 1.36534211553 0)
(0.00425509986107 1.27718389321 0)
(0.0172234434926 1.366985964 0)
(0.0392736927606 1.47350299128 0)
(0.0644864439864 1.5042448916 0)
(0.0879949745463 1.48105470367 0)
(0.101745001526 1.33837098517 0)
(0.105202893004 1.22175485449 0)
(0.107665536104 1.12779612173 0)
(0.11111853692 1.04923685605 0)
(0.115759913434 0.985174957147 0)
(0.120878231959 0.93943021848 0)
(0.124065396634 0.908922876364 0)
(0.123767783261 0.881170889127 0)
(0.12098658567 0.85224363751 0)
(0.116479674736 0.822411539048 0)
(0.109721456905 0.792856258941 0)
(0.100080116794 0.763018469525 0)
(0.0886415669066 0.732415329381 0)
(0.02881099639 2.12855642312 0)
(0.0381182091866 1.50622064007 0)
(0.0121245322683 1.27857635376 0)
(0.0102682375536 1.30486053703 0)
(0.0252794934402 1.37810622381 0)
(0.0487188968109 1.41042093968 0)
(0.0751902143153 1.39900991875 0)
(0.0977514381326 1.31733537222 0)
(0.112713621243 1.22701020216 0)
(0.122888753825 1.14343363596 0)
(0.131389620298 1.06949390476 0)
(0.140037844332 1.00785935266 0)
(0.148243851377 0.964009282506 0)
(0.152062840726 0.932879212018 0)
(0.149811002204 0.903121642564 0)
(0.144129122717 0.872185673653 0)
(0.136023199128 0.840109878969 0)
(0.124134443579 0.807413288173 0)
(0.109599814225 0.774378658881 0)
(0.0957397370198 0.742314427761 0)
(0.0455143833832 2.21035733245 0)
(0.0717326106278 1.66918995936 0)
(0.0375446533683 1.35704292869 0)
(0.0191785563122 1.29988912013 0)
(0.0221651113479 1.33124472301 0)
(0.0404447356925 1.34735568217 0)
(0.0657196060826 1.33791588142 0)
(0.0907927603943 1.28714452092 0)
(0.111760595959 1.22361413354 0)
(0.128865424988 1.15709125635 0)
(0.143859510026 1.09389941237 0)
(0.157997729803 1.04000380019 0)
(0.168301270992 1.00044290897 0)
(0.170237616841 0.967626594446 0)
(0.165519048028 0.934870705715 0)
(0.157522638065 0.900318641881 0)
(0.144859099191 0.862662017858 0)
(0.127747114784 0.823607163483 0)
(0.11161464025 0.786683873247 0)
(0.0991177336732 0.752850820496 0)
(0.0529151693708 2.21516684117 0)
(0.0906847681109 1.80469301149 0)
(0.0581372430767 1.47989600903 0)
(0.0309656092436 1.35185380498 0)
(0.0226818557201 1.3300031401 0)
(0.0340121072598 1.32121263121 0)
(0.057222390769 1.30627940813 0)
(0.0837391851351 1.27116841707 0)
(0.108753124981 1.2262138872 0)
(0.131348659256 1.17581062077 0)
(0.151690424938 1.12532610739 0)
(0.167347681637 1.08059465294 0)
(0.174054715717 1.04316576314 0)
(0.172660688226 1.00813144823 0)
(0.166641306005 0.971672640588 0)
(0.154579278348 0.929715988423 0)
(0.135932995109 0.881381113699 0)
(0.117980973839 0.834486144256 0)
(0.106859759389 0.794401596664 0)
(0.100657887138 0.758918838452 0)
(0.0579646455275 2.20558409605 0)
(0.104603486889 1.89975426965 0)
(0.0754747158813 1.60897752623 0)
(0.045190133243 1.43580227904 0)
(0.0301683353724 1.35933445563 0)
(0.0341342515304 1.31943409927 0)
(0.0524891408872 1.29353001877 0)
(0.077669170689 1.26669232367 0)
(0.10391291634 1.23488640495 0)
(0.127976387848 1.19724550532 0)
(0.146698957939 1.15712867137 0)
(0.157596523046 1.11889755422 0)
(0.161193234693 1.08287514656 0)
(0.158252636815 1.04595096683 0)
(0.146632356077 1.00256411968 0)
(0.12722887108 0.948031304972 0)
(0.108941917163 0.886026849711 0)
(0.100334051629 0.832098197068 0)
(0.100924603169 0.790112765862 0)
(0.10560186749 0.753523467992 0)
(0.062545827721 2.19693939493 0)
(0.113044041228 1.9687050182 0)
(0.0832031121672 1.72813239849 0)
(0.052963613264 1.52652736612 0)
(0.0364790929236 1.40057532963 0)
(0.0360640561207 1.32867174131 0)
(0.0487020583676 1.28843348746 0)
(0.0691201091374 1.26380913786 0)
(0.0916362521231 1.2397769612 0)
(0.111669242168 1.21022551391 0)
(0.126357313709 1.17719188637 0)
(0.133691155226 1.14371069587 0)
(0.13115338222 1.10878070508 0)
(0.117758759556 1.06658014006 0)
(0.0984927662113 1.0118383461 0)
(0.0833541674342 0.942788199931 0)
(0.0797074307217 0.868314558449 0)
(0.0871221746684 0.809719858904 0)
(0.101309971643 0.766836236775 0)
(0.1182610721 0.72914279122 0)
(0.0705321683022 2.1745890793 0)
(0.119979099986 2.04037306093 0)
(0.0795968266949 1.84072775649 0)
(0.0489007991885 1.60408938645 0)
(0.0330362914612 1.43497002062 0)
(0.0301307586305 1.33557384962 0)
(0.0378122285996 1.28211435015 0)
(0.052183414147 1.25512277969 0)
(0.0682370220713 1.23362376968 0)
(0.0810305591752 1.20678083098 0)
(0.0861109722884 1.17689560751 0)
(0.0807755272147 1.14531934149 0)
(0.0670331908149 1.10789831617 0)
(0.0526280427268 1.05649261285 0)
(0.0465919470325 0.9884711689 0)
(0.0524019404431 0.908059497966 0)
(0.0668922964937 0.827224924676 0)
(0.0866777501349 0.767924948308 0)
(0.11066122024 0.724421527958 0)
(0.136501819854 0.684897636673 0)
(0.0634351181477 2.08594355892 0)
(0.0947596453273 2.1239792388 0)
(0.048413139369 1.92645415338 0)
(0.026228752194 1.64277824461 0)
(0.0141486757827 1.43801023171 0)
(0.00944771863903 1.3193054466 0)
(0.0106456193425 1.25989086245 0)
(0.0146633148385 1.232158656 0)
(0.0179388756541 1.21083609093 0)
(0.0176977305255 1.18351315894 0)
(0.0131328959267 1.15367576308 0)
(0.00705137686924 1.11988452168 0)
(0.00526988943699 1.07522525102 0)
(0.0124246207779 1.01303597023 0)
(0.0282555037425 0.935879144901 0)
(0.0490765191779 0.852090044472 0)
(0.0719393294445 0.773373604719 0)
(0.0974005130215 0.717113487933 0)
(0.125495799088 0.67293577181 0)
(0.154021157592 0.631218139421 0)
(0.0526220821316 1.89083541434 0)
(0.0851175677828 2.17890114198 0)
(0.0420652024086 2.02838770439 0)
(0.00141374804582 1.69727663579 0)
(-0.0264734930105 1.43825966574 0)
(-0.0405860654097 1.28856794678 0)
(-0.0454393617369 1.22336732617 0)
(-0.046287152625 1.19735239979 0)
(-0.0456364337741 1.17605358429 0)
(-0.0432784030055 1.14635296745 0)
(-0.0375705481012 1.11286685398 0)
(-0.0265758023814 1.0724243236 0)
(-0.00934812146414 1.01803546209 0)
(0.0126963625901 0.948810647428 0)
(0.0368143752963 0.871075040278 0)
(0.0613962943562 0.792348311485 0)
(0.0866718474355 0.722582373844 0)
(0.113867570212 0.670745104391 0)
(0.141110432139 0.625937913841 0)
(0.167214224283 0.582299472155 0)
(0.0319780354447 1.70666483326 0)
(0.0627391443185 2.15499716181 0)
(0.056905852579 2.0937761614 0)
(0.0256295847117 1.84412402166 0)
(-0.0409266161202 1.59715903309 0)
(-0.0910822479638 1.29565796069 0)
(-0.0991323319493 1.18507969017 0)
(-0.0909716380916 1.15484229612 0)
(-0.0776060699268 1.13186620079 0)
(-0.0614035609806 1.09813012156 0)
(-0.0421978336845 1.05842537655 0)
(-0.0198574646724 1.01021506069 0)
(0.00457601160197 0.950856825584 0)
(0.029485608769 0.883226136316 0)
(0.054219796177 0.812195230492 0)
(0.0790910114211 0.744186233629 0)
(0.105022818651 0.685671915238 0)
(0.13047256198 0.637043959595 0)
(0.152846996532 0.591457440152 0)
(0.174576617533 0.546777799296 0)
(0.0276299871311 1.60590533784 0)
(0.0565277964076 2.09044269814 0)
(0.0546741080418 2.08517035192 0)
(0.0412001154482 1.97200949014 0)
(0.0107548187058 1.81353052392 0)
(-0.0537593686314 1.48431939671 0)
(-0.0987960672714 1.156711253 0)
(-0.0915010164315 1.10541149268 0)
(-0.0721575791463 1.07611142043 0)
(-0.048556193089 1.03891790914 0)
(-0.0239136807205 0.996063668447 0)
(0.00101044891082 0.946491512393 0)
(0.025621880531 0.890686032424 0)
(0.0497995376245 0.831080001557 0)
(0.0738976885937 0.77124779539 0)
(0.0984683068988 0.71518770175 0)
(0.122058159359 0.664350766855 0)
(0.141359005716 0.61689105718 0)
(0.158020248918 0.571070014606 0)
(0.176937744315 0.527479650795 0)
(0.0251913475109 1.53304987443 0)
(0.0512052355658 2.03306133158 0)
(0.0510809762455 2.07414745532 0)
(0.0434366079393 2.02125255987 0)
(0.0220550097632 1.93123630408 0)
(-0.0161243373517 1.72866174939 0)
(-0.0498203560493 1.17037707198 0)
(-0.0578583446101 1.06976385453 0)
(-0.045363630058 1.023773657 0)
(-0.0228530797061 0.982923030008 0)
(0.00130046489846 0.941381982768 0)
(0.0248955987011 0.896973106001 0)
(0.0480399332901 0.849536881467 0)
(0.0711025183377 0.800273437568 0)
(0.0942133994086 0.75078124297 0)
(0.115600058961 0.702297991069 0)
(0.132079690444 0.654411160491 0)
(0.144953106178 0.607591683065 0)
(0.159233614161 0.563380552776 0)
(0.177442368016 0.523418340759 0)
(0.0269387910049 1.46188063635 0)
(0.057415025341 1.96175976589 0)
(0.0641294693948 2.03553700325 0)
(0.0683409206688 2.02668782269 0)
(0.0664546302851 1.98466741717 0)
(0.0521708791251 1.83967211189 0)
(0.0199258548907 1.26201470666 0)
(-0.00709263218177 1.07401306016 0)
(-0.00868493550994 0.994137872899 0)
(0.00584430022904 0.945511930221 0)
(0.0266228414977 0.906318024091 0)
(0.0483529023173 0.868656827084 0)
(0.0702873666955 0.82921951072 0)
(0.0917822162629 0.787725805656 0)
(0.110464828781 0.743890424807 0)
(0.123997466313 0.698293296985 0)
(0.134016476475 0.651919262537 0)
(0.144536136245 0.60696182299 0)
(0.158869436656 0.566509098895 0)
(0.162282638055 0.527051541311 0)
(0.029411120505 1.36500247082 0)
(0.065919061511 1.85309000291 0)
(0.0801658420499 1.9523959769 0)
(0.0940033444061 1.97031056656 0)
(0.106222993563 1.95550408129 0)
(0.114617938933 1.85701766291 0)
(0.0868172412185 1.44919200018 0)
(0.046394527738 1.12037485579 0)
(0.035639377721 0.993497669013 0)
(0.0399247123469 0.930353222969 0)
(0.0538407964586 0.889930801226 0)
(0.0723511172532 0.856761802737 0)
(0.0911425412175 0.822420909215 0)
(0.106517211859 0.784577478804 0)
(0.117353634761 0.743417275225 0)
(0.125483520154 0.70000432211 0)
(0.133239111418 0.656097849109 0)
(0.143441414142 0.614444038009 0)
(0.148354349357 0.577689923375 0)
(0.123850779867 0.533555171247 0)
(0.0268879692148 1.26747865049 0)
(0.0605871799847 1.72801466442 0)
(0.0742731526441 1.84706410869 0)
(0.087018426773 1.88856317498 0)
(0.0974283628533 1.89515458795 0)
(0.103428057786 1.829468106 0)
(0.0983134400442 1.59224762883 0)
(0.0841105857137 1.18165354878 0)
(0.0745471992077 1.01379390969 0)
(0.0751420374792 0.933567956215 0)
(0.0835838406693 0.887939402774 0)
(0.0960265058883 0.855515585396 0)
(0.107229742216 0.823179977732 0)
(0.115484914217 0.78763470742 0)
(0.122131072929 0.749175656559 0)
(0.127869641766 0.708807053501 0)
(0.133810646783 0.66801216936 0)
(0.139549087125 0.630698712425 0)
(0.12371394223 0.594684481499 0)
(0.0795831994725 0.550782862631 0)
(0.0224445410407 1.20731661289 0)
(0.0503147059443 1.62478406006 0)
(0.0624507243823 1.74974231692 0)
(0.0752932662557 1.81206049404 0)
(0.0869256804795 1.83678662416 0)
(0.0975623424895 1.79559795852 0)
(0.103771674501 1.61491956243 0)
(0.102867646765 1.22473605271 0)
(0.100459937992 1.0420254943 0)
(0.102449712668 0.949977157267 0)
(0.108925713714 0.898375145636 0)
(0.11648092969 0.864516896255 0)
(0.122232489132 0.833042736232 0)
(0.126607916343 0.799683262476 0)
(0.130384307714 0.763920610736 0)
(0.133371197728 0.726458249621 0)
(0.136506083439 0.688769128465 0)
(0.129783420074 0.655551114246 0)
(0.0936953665252 0.620931232102 0)
(0.0436730111525 0.58474387606 0)
(0.0123233067706 1.25108306091 0)
(0.0271847481887 1.57471262689 0)
(0.0355988081548 1.67438406812 0)
(0.0478843610236 1.74515905569 0)
(0.0607606655481 1.77849382166 0)
(0.0746501840759 1.74324077478 0)
(0.0957563556386 1.56256138426 0)
(0.112340362379 1.23831786975 0)
(0.116918122165 1.06963508627 0)
(0.121805331554 0.974806583905 0)
(0.128920965284 0.919715747998 0)
(0.135168895834 0.884705848629 0)
(0.138403691658 0.853845437527 0)
(0.140018782562 0.821976664716 0)
(0.140987709732 0.788117526448 0)
(0.140942368847 0.753032212891 0)
(0.13855962288 0.718486107979 0)
(0.115925048298 0.687505968264 0)
(0.0666101597691 0.659771150059 0)
(0.0174679406182 0.631379913322 0)
(-0.0250705198855 1.62517467921 0)
(-0.050426146968 1.59801061894 0)
(-0.0381589824311 1.59512177522 0)
(-0.0130940198149 1.66702859699 0)
(0.0146568629617 1.69209995942 0)
(0.0537099361992 1.62218014081 0)
(0.0962754069331 1.44773178604 0)
(0.12043806791 1.23507208102 0)
(0.129326196536 1.09491680942 0)
(0.137178279353 1.00485674817 0)
(0.146063648951 0.949778116074 0)
(0.152573496659 0.914798283859 0)
(0.154468553738 0.884190644818 0)
(0.154009767319 0.853034700953 0)
(0.152586803118 0.820387377063 0)
(0.149562994589 0.786865479106 0)
(0.13798840357 0.755120453046 0)
(0.100868151532 0.725121534496 0)
(0.0483754467305 0.70717977168 0)
(0.00394977148268 0.683564364584 0)
(-0.0142543380456 2.19206440244 0)
(-0.0403755213673 1.68823003294 0)
(-0.0453847441202 1.51801440996 0)
(-0.0176937461544 1.53007163136 0)
(0.0278195129246 1.53648109536 0)
(0.0708890045334 1.46870837603 0)
(0.101684539186 1.35378814617 0)
(0.122011169922 1.22651559008 0)
(0.135719277431 1.11721401765 0)
(0.147685364352 1.03747226872 0)
(0.159544651707 0.98646831884 0)
(0.167102575813 0.952760105777 0)
(0.168333655665 0.922047967044 0)
(0.166481555831 0.890962843567 0)
(0.163068190229 0.858735211896 0)
(0.156815181293 0.825888004972 0)
(0.134135376255 0.79432941613 0)
(0.0868193313814 0.766019085875 0)
(0.038401347831 0.754710399935 0)
(0.00126192557778 0.733930523079 0)
(0.0296177706948 2.48365964048 0)
(0.0470957621677 1.79749457294 0)
(0.030994731548 1.50074526131 0)
(0.0322639400058 1.41924549778 0)
(0.0486288083207 1.40313858311 0)
(0.0735580910285 1.37217687356 0)
(0.0998088846564 1.30326010831 0)
(0.12190843574 1.21784524479 0)
(0.139719223765 1.13712783565 0)
(0.156332439706 1.07230244408 0)
(0.170975178217 1.02923889694 0)
(0.178252165926 0.997001760553 0)
(0.178292838083 0.965852959407 0)
(0.175382355499 0.934267822014 0)
(0.170055155369 0.901438352388 0)
(0.157282293671 0.868043957065 0)
(0.122786114851 0.832342949405 0)
(0.0734197007291 0.805554016215 0)
(0.0343551391404 0.794987155538 0)
(0.00535660244533 0.776071455144 0)
(0.0535752331967 2.4606579296 0)
(0.100865097055 1.87208745639 0)
(0.0843148581714 1.54623041771 0)
(0.0706802657985 1.40972508713 0)
(0.0713014194361 1.36097269929 0)
(0.0846015940746 1.3250297912 0)
(0.104679501482 1.27623178406 0)
(0.125760931908 1.21939847522 0)
(0.146303239136 1.16259035974 0)
(0.165855366597 1.11435550045 0)
(0.179218647227 1.07860204247 0)
(0.182799857673 1.046612097 0)
(0.180991751748 1.01496264217 0)
(0.176893918928 0.98236245215 0)
(0.168912190603 0.947927478088 0)
(0.145954129611 0.910845113526 0)
(0.102024910585 0.868163613922 0)
(0.058613352798 0.839704981596 0)
(0.030775976332 0.824658227247 0)
(0.00989596178038 0.805739988443 0)
(0.0606475225973 2.3438472944 0)
(0.122949828552 1.89973112066 0)
(0.113771264095 1.6151833574 0)
(0.0955890546258 1.45354568014 0)
(0.0876105749508 1.37059803276 0)
(0.0931300862571 1.31855766507 0)
(0.108952736659 1.27755419361 0)
(0.129717654012 1.23873160538 0)
(0.151073514563 1.19996234453 0)
(0.166983856054 1.16394326308 0)
(0.173576099311 1.13165423288 0)
(0.174269716227 1.1002626249 0)
(0.172481778268 1.06863998055 0)
(0.16724660613 1.03513891607 0)
(0.152653090809 0.998244237055 0)
(0.117607606845 0.952436120518 0)
(0.0723269538682 0.902727406433 0)
(0.0397054739575 0.867292677663 0)
(0.0210320183562 0.843803424514 0)
(0.00753073482218 0.821435686409 0)
(0.0618164453401 2.24169980592 0)
(0.127791872538 1.90252936933 0)
(0.121166190083 1.67984386215 0)
(0.10211009764 1.52291496602 0)
(0.0916170608873 1.41298905866 0)
(0.0938084783575 1.33930736089 0)
(0.106619353693 1.29933792552 0)
(0.123725995135 1.27109235224 0)
(0.138353391979 1.2427291597 0)
(0.147216520599 1.2134497389 0)
(0.152002024881 1.18465360306 0)
(0.154358443102 1.15620751892 0)
(0.153424903757 1.12654506501 0)
(0.144918043888 1.09301283514 0)
(0.1171287514 1.04959620934 0)
(0.0731060026006 0.992508597028 0)
(0.0360620422636 0.934746630649 0)
(0.014189164163 0.888040566891 0)
(0.00130654616187 0.854353578896 0)
(-0.00604421547796 0.82482699415 0)
(0.0582145987317 2.17361817941 0)
(0.118273587972 1.91206465417 0)
(0.109255213057 1.74392274742 0)
(0.0898362812021 1.60342034944 0)
(0.0786270259968 1.47305838117 0)
(0.0788051362115 1.37698237641 0)
(0.0875233597359 1.33040302885 0)
(0.0989000785827 1.30523927942 0)
(0.109354453296 1.28193140173 0)
(0.11889429665 1.25850928539 0)
(0.12675086229 1.23559171445 0)
(0.130788227579 1.21268326763 0)
(0.12556728582 1.18653212366 0)
(0.100938465913 1.15032378094 0)
(0.0585882684559 1.0959007261 0)
(0.0201929608505 1.02644168568 0)
(-0.00255037098163 0.956773546125 0)
(-0.0163093960372 0.898225365973 0)
(-0.0250101573108 0.855951007725 0)
(-0.0275695505347 0.81902804944 0)
(0.0636037876302 2.11347676099 0)
(0.123110382399 1.91740440399 0)
(0.106045270888 1.79598246459 0)
(0.0843044584973 1.67135566972 0)
(0.0716056645409 1.52915507627 0)
(0.0680188249693 1.41685464255 0)
(0.0716238033698 1.35686239083 0)
(0.0790441331172 1.32674579024 0)
(0.0883486100938 1.30497989122 0)
(0.0976107576106 1.28655008434 0)
(0.101716148397 1.27008067097 0)
(0.0934459785681 1.25455786058 0)
(0.0668111604811 1.23147207221 0)
(0.0269257145833 1.19060220649 0)
(-0.00804142885043 1.12301394832 0)
(-0.0268038488781 1.03867353394 0)
(-0.0353779113523 0.958085731473 0)
(-0.041286799435 0.891068827378 0)
(-0.0453138867522 0.843897042357 0)
(-0.0448793195253 0.804441585725 0)
(0.0667938344665 1.98938582428 0)
(0.127463647874 1.85084252827 0)
(0.119033710645 1.7612421419 0)
(0.115296037892 1.66150601586 0)
(0.111554690309 1.53462314636 0)
(0.106783968486 1.42571246585 0)
(0.102281609753 1.35784284535 0)
(0.0978077164534 1.31958923429 0)
(0.0918601777402 1.29557991885 0)
(0.0813302465704 1.27977678619 0)
(0.0612511858695 1.27027107493 0)
(0.0296314567874 1.26529817116 0)
(-0.00630794458992 1.24588533246 0)
(-0.0327496776049 1.19459095739 0)
(-0.043232542699 1.1114994662 0)
(-0.0441356681618 1.01741555183 0)
(-0.0429604818331 0.933776410936 0)
(-0.0419738197832 0.864890402026 0)
(-0.0416246017196 0.816681007601 0)
(-0.0405140187965 0.780870730373 0)
(0.0762129984133 1.69816732891 0)
(0.159797687093 1.63068831602 0)
(0.176753732103 1.59718191535 0)
(0.19295065567 1.54880883191 0)
(0.198693505006 1.48346294422 0)
(0.190342015121 1.41174795018 0)
(0.172134472909 1.35189608192 0)
(0.147856522752 1.31161459369 0)
(0.117692877892 1.28684079949 0)
(0.0816514460693 1.27367909351 0)
(0.0417096559064 1.27047478614 0)
(0.0028843064259 1.27264703206 0)
(-0.0236772821867 1.23876709736 0)
(-0.0298368001435 1.15984938357 0)
(-0.0231808468434 1.06552416622 0)
(-0.0149633807915 0.973290213122 0)
(-0.00849093150358 0.894203466836 0)
(-0.0040348578719 0.829647739443 0)
(-0.00239645021891 0.784189026909 0)
(-0.00312799034928 0.75524544532 0)
(0.0804846373316 1.23204110191 0)
(0.163835068961 1.38143541554 0)
(0.172401300296 1.41957637131 0)
(0.183267461054 1.41915750643 0)
(0.191408878061 1.41203091177 0)
(0.191922625933 1.39253998364 0)
(0.181051582274 1.36345181062 0)
(0.159665777432 1.3385042538 0)
(0.130610409495 1.32196959837 0)
(0.0973381820303 1.31284898993 0)
(0.0652553088028 1.30620155322 0)
(0.0421382357061 1.2914936969 0)
(0.0300942211923 1.23185481328 0)
(0.0314144265668 1.11107679711 0)
(0.0419291514416 1.01469494642 0)
(0.0516074496065 0.930359093441 0)
(0.0593957009246 0.858852191205 0)
(0.0651096840034 0.800942784143 0)
(0.0672297078195 0.760657820282 0)
(0.0647356493059 0.738593085143 0)
(0.0441210034791 0.921532102399 0)
(0.0888025711627 1.23756639296 0)
(0.0970825877902 1.2932567695 0)
(0.113181254198 1.3128013268 0)
(0.127241644916 1.33781067658 0)
(0.134850522604 1.3611792638 0)
(0.135539927959 1.37001447819 0)
(0.13063259239 1.3688606224 0)
(0.121754623046 1.36478562145 0)
(0.111114490548 1.35819536804 0)
(0.102029960848 1.34032774031 0)
(0.0980970442963 1.29842008032 0)
(0.101867243161 1.21679701361 0)
(0.111267021968 1.07034795076 0)
(0.121529874292 0.977834039784 0)
(0.130908704133 0.901329197154 0)
(0.139600541778 0.836760770113 0)
(0.147408255923 0.785339604208 0)
(0.152571137381 0.751493321355 0)
(0.152005398434 0.735319080156 0)
(0.192298695305 0.716168896164 0)
(0.198325505554 0.67208851169 0)
(0.202927661888 0.629759244423 0)
(0.198328811171 0.595191176397 0)
(0.18815836527 0.577052041231 0)
(0.182427680045 0.545564615793 0)
(0.178865317519 0.501234232963 0)
(0.172873188588 0.450146885403 0)
(0.164636889899 0.397228274718 0)
(0.154165386965 0.344727067368 0)
(0.140601186961 0.294098661666 0)
(0.122514969026 0.247222998194 0)
(0.102627491436 0.201305699161 0)
(0.0941797738264 0.138386367798 0)
(0.102611499626 0.0647628381087 0)
(0.10575493105 0.00929694818035 0)
(0.0855228465398 -0.018099109216 0)
(0.0504566126597 -0.0325689701737 0)
(0.00926612222345 -0.0677362782086 0)
(-0.00647040233076 -0.117283666963 0)
(0.169284396263 0.717764044497 0)
(0.174710919829 0.672523576817 0)
(0.179898711611 0.627766814709 0)
(0.177954084496 0.587843460314 0)
(0.17106364051 0.566952391454 0)
(0.165490939865 0.544212932019 0)
(0.160731090586 0.507552998969 0)
(0.154939827689 0.463582371908 0)
(0.146506078712 0.416733453338 0)
(0.135287274902 0.369697987526 0)
(0.12029822935 0.324285875541 0)
(0.101121078777 0.282211476047 0)
(0.0828352584123 0.24127504702 0)
(0.0802405258224 0.173794935468 0)
(0.0972477781893 0.0961966227847 0)
(0.114299666818 0.035174483168 0)
(0.0998912046074 0.00569475472128 0)
(0.0569429003575 0.00398338801688 0)
(0.0103363878782 -0.0267995819912 0)
(-0.00645069586914 -0.0795209550247 0)
(0.141109279003 0.717173445313 0)
(0.146205056165 0.672152449465 0)
(0.151733205458 0.627267049601 0)
(0.153296062503 0.585265151154 0)
(0.149306909304 0.558284133595 0)
(0.143221030305 0.542721472657 0)
(0.137820900209 0.51434804674 0)
(0.131635442142 0.476415935502 0)
(0.12225008497 0.434511790431 0)
(0.109525555604 0.391932782844 0)
(0.0930043063424 0.350902850501 0)
(0.0731201023067 0.313093008118 0)
(0.0583362843215 0.272466029654 0)
(0.0642649650305 0.200323761956 0)
(0.0904659796467 0.127389735351 0)
(0.118098017228 0.0668412009719 0)
(0.107514826508 0.0358099382829 0)
(0.0595633915294 0.0348262146723 0)
(0.00802480445043 0.00754362760738 0)
(-0.00882738507862 -0.0386810890742 0)
(0.112933352562 0.713773820152 0)
(0.118011366639 0.670227757254 0)
(0.123584286826 0.626821540238 0)
(0.12686321427 0.585115035933 0)
(0.12412359238 0.552393970518 0)
(0.118252122357 0.538966361432 0)
(0.112190745758 0.519616654839 0)
(0.1045419943 0.486953355705 0)
(0.0942911417407 0.448949438018 0)
(0.0807075120319 0.409930093894 0)
(0.0638254147839 0.372810197337 0)
(0.0455306296964 0.338391931655 0)
(0.0380117363138 0.290706728849 0)
(0.055307579523 0.221612461561 0)
(0.0901902025575 0.155164505791 0)
(0.121567526311 0.0990805221435 0)
(0.11021773936 0.0715529626776 0)
(0.0613325726567 0.0604134103825 0)
(0.0092976075481 0.0366645890971 0)
(-0.0087514819535 0.0026536516071 0)
(0.0891118401857 0.707909323428 0)
(0.0938266163106 0.666797387031 0)
(0.098620402644 0.62580325063 0)
(0.101163193261 0.585759097565 0)
(0.0980531943248 0.550411900775 0)
(0.0913122301727 0.534261926644 0)
(0.0840961068146 0.520945968386 0)
(0.0761091242444 0.492789701789 0)
(0.0662321568513 0.457626765996 0)
(0.0534890637343 0.421484373306 0)
(0.038397035275 0.388034637661 0)
(0.024725471796 0.354304722252 0)
(0.026006773368 0.301273573724 0)
(0.0563372705448 0.242842076436 0)
(0.0995758872335 0.182926466403 0)
(0.126836117246 0.131741550721 0)
(0.109067183662 0.104736416185 0)
(0.060715611017 0.0854230537371 0)
(0.012538636452 0.0645588007565 0)
(-0.00623254875188 0.0378068893165 0)
(0.0725960103055 0.701315806872 0)
(0.0757127231178 0.663340193694 0)