/*--------------------------------*- C++ -*----------------------------------*\
| =========                 |                                                 |
| \\      /  F ield         | OpenFOAM: The Open Source CFD Toolbox           |
|  \\    /   O peration     | Version:  2312                                  |
|   \\  /    A nd           | Website:  www.openfoam.com                      |
|    \\/     M anipulation  |                                                 |
\*---------------------------------------------------------------------------*/
FoamFile
{
    version     2.0;
    format      ascii;
    arch        "LSB;label=32;scalar=64";
    class       volVectorField;
    location    "0.725/water";
    object      U.gas;
}
// * * * * * * * * * * * * * * * * * * * * * * * * * * * * * * * * * * * * * //

dimensions      [0 1 -1 0 0 0 0];

internalField   nonuniform List<vector> 
1504
(
(0.045615134101 1.40376035254 0)
(0.0867284428821 1.4163119429 0)
(0.0803941258836 1.44571352442 0)
(0.0772704743724 1.47421300589 0)
(0.0738151562038 1.46839269844 0)
(0.0671679061414 1.35756243139 0)
(0.0603637927855 1.15280045519 0)
(0.0581738106484 0.983276043552 0)
(0.0596996801091 0.866447829794 0)
(0.062922432215 0.786982034179 0)
(0.0668131091032 0.738020415368 0)
(0.0707988074362 0.702165447424 0)
(0.0738631788323 0.6673515425 0)
(0.0751041290216 0.633204551364 0)
(0.0742839053129 0.603339745102 0)
(0.0713068518464 0.588742723534 0)
(0.0642663972128 0.569175263247 0)
(0.0535579217489 0.530585340708 0)
(0.0424111546522 0.478410064348 0)
(0.0304137794294 0.454682618886 0)
(0.0463271418015 1.41568915787 0)
(0.0883239273145 1.41672499084 0)
(0.0817670964285 1.44133802672 0)
(0.0779295472007 1.4705204621 0)
(0.0742582369747 1.47498112303 0)
(0.0699422575211 1.38347046434 0)
(0.0678119626298 1.17520751683 0)
(0.0697101555519 0.997996012678 0)
(0.0738975148877 0.87620927208 0)
(0.0787526034554 0.795038037205 0)
(0.0832785127356 0.745521849197 0)
(0.086931937158 0.709015675745 0)
(0.0892368350299 0.6742039395 0)
(0.0897157729227 0.640122021114 0)
(0.0883010240996 0.609750824543 0)
(0.0843292614228 0.592220983336 0)
(0.0756990296942 0.575397473505 0)
(0.0637470572965 0.540429576876 0)
(0.0523853736346 0.486327141485 0)
(0.041208067204 0.457517411916 0)
(0.04651080683 1.4206735557 0)
(0.0890051215736 1.4142301751 0)
(0.0822586939986 1.43670861621 0)
(0.0773871908584 1.466583813 0)
(0.0732003619358 1.47610061265 0)
(0.0708277513342 1.39038628846 0)
(0.0727599701113 1.18179597117 0)
(0.0783559883183 1.00502617476 0)
(0.0853613533676 0.883858060356 0)
(0.0922637865607 0.804401644632 0)
(0.0975891309295 0.756026131205 0)
(0.100962922121 0.719332713308 0)
(0.10262041884 0.684680463056 0)
(0.102469292602 0.650988872048 0)
(0.100620431583 0.620585672292 0)
(0.0959294426069 0.600175854946 0)
(0.0863642191604 0.58482167267 0)
(0.0736587657284 0.552833712509 0)
(0.0616626509771 0.498679055454 0)
(0.0504792365699 0.463982166674 0)
(0.0455832918786 1.42004556894 0)
(0.08761071876 1.40839926745 0)
(0.0808836787446 1.43378464619 0)
(0.0750703782052 1.46557147268 0)
(0.0700880122224 1.47587741412 0)
(0.0696319806397 1.38036368748 0)
(0.0760133012308 1.17433051146 0)
(0.0856180359499 1.00491840621 0)
(0.0957464941458 0.889277268261 0)
(0.104452683758 0.814727293703 0)
(0.110029416621 0.768516316772 0)
(0.112945321437 0.73206454069 0)
(0.11393540976 0.697682096819 0)
(0.112996749119 0.664502167177 0)
(0.110617000454 0.634366138748 0)
(0.105645424233 0.611797796868 0)
(0.0959532245016 0.596766209682 0)
(0.0829382472138 0.567667624169 0)
(0.0700094098558 0.514910033029 0)
(0.0580545657399 0.473303743403 0)
(0.0425380840498 1.42584474077 0)
(0.0826548805078 1.40019985582 0)
(0.0767476393465 1.43377530682 0)
(0.0703516353562 1.46828881149 0)
(0.06572468781 1.47426358536 0)
(0.0684497575189 1.35544578317 0)
(0.0795424791032 1.15674608481 0)
(0.0928716685936 0.999907640624 0)
(0.105469655225 0.893407085975 0)
(0.114999951856 0.826036215163 0)
(0.120188210751 0.782331133415 0)
(0.122554908636 0.74650692377 0)
(0.122851171267 0.712492001153 0)
(0.12097251045 0.679834448989 0)
(0.117980745603 0.650053675516 0)
(0.113032697346 0.625991646571 0)
(0.10387792129 0.610519650568 0)
(0.0909832993875 0.584685438567 0)
(0.0768774947474 0.534309468933 0)
(0.0636845719271 0.484851442353 0)
(0.0422860764553 1.43781843584 0)
(0.0836419674964 1.39069340293 0)
(0.0780782480408 1.43731828962 0)
(0.069909179578 1.47538493017 0)
(0.0655818822871 1.4674537944 0)
(0.0711576418415 1.32071274759 0)
(0.0854792706443 1.13436806469 0)
(0.100999714116 0.9927258366 0)
(0.114619613415 0.897547915965 0)
(0.123737645476 0.838247788018 0)
(0.128089728418 0.797164250022 0)
(0.129816296785 0.762256777438 0)
(0.12919671358 0.728643236163 0)
(0.126205225145 0.696433377422 0)
(0.122442442768 0.666904799534 0)
(0.117671369504 0.641619376058 0)
(0.109611101039 0.625395119469 0)
(0.0971004813291 0.603532822443 0)
(0.0816970828522 0.556098531897 0)
(0.0672665430729 0.49828440064 0)
(0.0425867939197 1.44870516492 0)
(0.0840965206264 1.38618511448 0)
(0.0780348584669 1.44382168571 0)
(0.0690444239346 1.48687623588 0)
(0.0668734413955 1.45043454591 0)
(0.0764244285503 1.28356021187 0)
(0.0927220397516 1.11212977151 0)
(0.109163308353 0.986105030152 0)
(0.122447057788 0.903387999586 0)
(0.130172543496 0.851620462417 0)
(0.133513028149 0.813218756071 0)
(0.134491937489 0.779289933682 0)
(0.132699342969 0.745966028795 0)
(0.128399238348 0.713967482641 0)
(0.123751687283 0.684435716718 0)
(0.119367644427 0.657941637699 0)
(0.11280942475 0.640949163985 0)
(0.100804082275 0.623805743358 0)
(0.0842538261597 0.579511596522 0)
(0.0689782258864 0.513656347485 0)
(0.0427083441705 1.46522398747 0)
(0.0827790438251 1.39842376954 0)
(0.0751998339704 1.45446485611 0)
(0.0675074510867 1.49857829124 0)
(0.0693194009287 1.4242541 0)
(0.082285619555 1.24965754933 0)
(0.0994421047112 1.09297987133 0)
(0.115745402854 0.982080605698 0)
(0.127551139897 0.912015262014 0)
(0.133405261401 0.866500972958 0)
(0.135768832347 0.830667072737 0)
(0.135890859947 0.797561328908 0)
(0.132779199038 0.764246617955 0)
(0.12708381897 0.731983635998 0)
(0.121703575707 0.702030258226 0)
(0.118247784359 0.67452876708 0)
(0.113528064908 0.656883566905 0)
(0.101949710313 0.644823514484 0)
(0.0847403007694 0.603521423993 0)
(0.0693917681947 0.531010852306 0)
(0.0417957077985 1.49504743578 0)
(0.0792413670764 1.43316208777 0)
(0.0700878532977 1.47457844467 0)
(0.0650083169527 1.50646049157 0)
(0.0709387182177 1.39655234505 0)
(0.0858565809931 1.22096920183 0)
(0.103196394076 1.07768350106 0)
(0.118284486537 0.981530430197 0)
(0.127730520219 0.923001438761 0)
(0.132084873623 0.882624225215 0)
(0.133958875835 0.849068234737 0)
(0.133284685208 0.816558239309 0)
(0.128778527656 0.782765275028 0)
(0.121630218359 0.749322432255 0)
(0.116264512711 0.718654716717 0)
(0.114899373268 0.690773770311 0)
(0.112072681998 0.672727995376 0)
(0.100667454763 0.665384990372 0)
(0.083704712766 0.626932881125 0)
(0.0691363904262 0.550024672806 0)
(0.0394094487756 1.54825321975 0)
(0.0734750447235 1.49201111965 0)
(0.0627334667893 1.50894757139 0)
(0.0586592752853 1.51068161599 0)
(0.0673721473674 1.3693289781 0)
(0.0838124231073 1.19504960225 0)
(0.100925367517 1.06463437759 0)
(0.11397944534 0.983337190486 0)
(0.121387053412 0.934410019058 0)
(0.125479450312 0.898581830647 0)
(0.127643554564 0.867218180266 0)
(0.126262688313 0.835179894902 0)
(0.119795655839 0.799696144309 0)
(0.11162015856 0.764088813141 0)
(0.108287176686 0.733141205077 0)
(0.110190613384 0.70559678091 0)
(0.108820893187 0.687579596094 0)
(0.0978547952926 0.684103080904 0)
(0.0823689109818 0.648818706682 0)
(0.0689985921665 0.570275971105 0)
(0.0404680240202 1.62797750601 0)
(0.0744657086891 1.57059851138 0)
(0.059500690438 1.56058954308 0)
(0.0518813343455 1.51388309962 0)
(0.0603604338559 1.34080855401 0)
(0.0766795222008 1.16923917557 0)
(0.0920858511656 1.05165357771 0)
(0.102841816811 0.984606844195 0)
(0.109875332378 0.943438632563 0)
(0.115302754051 0.912045141574 0)
(0.118044808362 0.883305366076 0)
(0.114328041862 0.85093938889 0)
(0.105337613929 0.81182973868 0)
(0.0990197486094 0.774520080881 0)
(0.100327614542 0.74435403259 0)
(0.105495798161 0.717590587059 0)
(0.105066939268 0.700149759261 0)
(0.0952961447534 0.699705232254 0)
(0.0819248541955 0.668485124464 0)
(0.0694926157078 0.59124929452 0)
(0.0391693548923 1.74456121983 0)
(0.0654551073555 1.66352443077 0)
(0.0440635409278 1.61588948633 0)
(0.0380931832595 1.5056362046 0)
(0.0483127871181 1.30648250984 0)
(0.0638185288924 1.14059976301 0)
(0.0771457572319 1.0356372762 0)
(0.0873461167989 0.980726637514 0)
(0.0967912188603 0.94619018357 0)
(0.104550176505 0.919811267878 0)
(0.105047679763 0.893879551341 0)
(0.097219686727 0.859447772651 0)
(0.0896604788286 0.816382668267 0)
(0.0894339769187 0.779684586285 0)
(0.0957682443201 0.751306845461 0)
(0.102768447263 0.725598019825 0)
(0.102780087616 0.709378709353 0)
(0.0944713265876 0.711355804118 0)
(0.0831191470026 0.685171832835 0)
(0.0712924371308 0.612529942748 0)
(0.0234800599689 1.9491225471 0)
(0.0303066372082 1.76625525537 0)
(0.0139311515175 1.63036874758 0)
(0.0212179560278 1.46217275403 0)
(0.0361376654784 1.25845518409 0)
(0.0512226964658 1.10545236515 0)
(0.0641632490344 1.01342005306 0)
(0.0765414677811 0.96800440799 0)
(0.0891801067036 0.939790538316 0)
(0.0952527126114 0.919099143023 0)
(0.0906506195534 0.894951001226 0)
(0.0836885551426 0.858151125741 0)
(0.0829565347483 0.81384548914 0)
(0.0888918791292 0.780264561297 0)
(0.0975777058033 0.754104526247 0)
(0.104247080553 0.729985399464 0)
(0.103999321295 0.71567738487 0)
(0.0964653296936 0.719526079497 0)
(0.0867246627113 0.698645940169 0)
(0.0751781674872 0.63398775902 0)
(0.0272618445335 2.09463925016 0)
(0.0299235687949 1.91298253887 0)
(0.0115931094457 1.58562419168 0)
(0.0265621340879 1.38708746192 0)
(0.0427169563037 1.20213970447 0)
(0.0569617627907 1.06902274311 0)
(0.0701231239915 0.989898853514 0)
(0.0835009917869 0.951159510486 0)
(0.0935938639486 0.928504686386 0)
(0.0935685914241 0.912177145743 0)
(0.088075936008 0.888525113813 0)
(0.0864036746701 0.85103669246 0)
(0.0908630043212 0.809096747815 0)
(0.0991481000165 0.779567640269 0)
(0.107052763614 0.755545149537 0)
(0.11170349485 0.733520579001 0)
(0.109551821777 0.721287618936 0)
(0.101523714474 0.726266449169 0)
(0.0922099967004 0.710258507139 0)
(0.080450324129 0.655242994124 0)
(0.0185056180222 2.14225341187 0)
(0.0391920350982 1.99895245939 0)
(0.0459511511595 1.52574170698 0)
(0.0572937667326 1.3170006036 0)
(0.070451475785 1.15650143763 0)
(0.0832585263967 1.0437938169 0)
(0.0955788543984 0.975862777359 0)
(0.106025340518 0.941022628849 0)
(0.110040416784 0.92193612898 0)
(0.106628003385 0.907081128797 0)
(0.102564939832 0.882938818409 0)
(0.10306693283 0.845773738983 0)
(0.109353923067 0.808658761387 0)
(0.117363047081 0.782504689126 0)
(0.122674073515 0.760195322974 0)
(0.123287696558 0.739576132984 0)
(0.117048868139 0.728654069699 0)
(0.107589945562 0.734172083893 0)
(0.0980464804702 0.723123884973 0)
(0.0859627298874 0.676694481396 0)
(0.0118499280029 2.24768933856 0)
(0.0437724640346 1.8876921021 0)
(0.0704578229583 1.46891045391 0)
(0.0840880745379 1.26620117353 0)
(0.0980767613141 1.12766003792 0)
(0.111994649011 1.03347202348 0)
(0.124325904721 0.975530678165 0)
(0.13200228363 0.94298719237 0)
(0.132335274438 0.925332647991 0)
(0.127009367202 0.90953593527 0)
(0.122289894274 0.88386873324 0)
(0.124021961161 0.847943432098 0)
(0.131594171121 0.816474073259 0)
(0.137874350211 0.792345654322 0)
(0.138883499807 0.77064827034 0)
(0.133329877282 0.749576144728 0)
(0.12284630834 0.738941836768 0)
(0.112973242058 0.744868786204 0)
(0.103583056184 0.739723574926 0)
(0.0907873318951 0.700298298281 0)
(0.0262177205327 2.29965828802 0)
(0.0663152630836 1.7315517788 0)
(0.0882892985131 1.40918747644 0)
(0.104720170202 1.22753580227 0)
(0.121277290177 1.11147965686 0)
(0.136899444046 1.0355558462 0)
(0.148908688998 0.98698045039 0)
(0.154061467153 0.955777709218 0)
(0.150924098079 0.937618131409 0)
(0.143403512096 0.919460958977 0)
(0.139722127726 0.892449653408 0)
(0.144137329278 0.859743694562 0)
(0.151502458011 0.832622880602 0)
(0.153944682828 0.808877329387 0)
(0.148708585224 0.786110940947 0)
(0.137283159168 0.763491793553 0)
(0.125242457191 0.752175505677 0)
(0.116594861883 0.758572207086 0)
(0.107916670827 0.760466540539 0)
(0.09476830276 0.727446137121 0)
(0.0289102176668 2.24585884211 0)
(0.0753481627039 1.6325874095 0)
(0.102274933351 1.35637156322 0)
(0.12182756103 1.2010887898 0)
(0.140946819296 1.10836559818 0)
(0.156506335827 1.04855841132 0)
(0.165639589731 1.00698060621 0)
(0.166572387596 0.976295303399 0)
(0.160620285415 0.955900523595 0)
(0.153975012188 0.935287684718 0)
(0.153731867848 0.90856746741 0)
(0.159377895012 0.880037391338 0)
(0.163191636544 0.854515190726 0)
(0.159643433547 0.829744050723 0)
(0.148851463264 0.804863497498 0)
(0.135003995978 0.781124393168 0)
(0.124245555692 0.76801001853 0)
(0.117855340568 0.774637530858 0)
(0.110244640773 0.784402376953 0)
(0.0971361370739 0.756967077539 0)
(0.0281391498424 2.16231657946 0)
(0.0796972866937 1.54222290218 0)
(0.113928361885 1.31213872487 0)
(0.135901313236 1.18831348855 0)
(0.153790703782 1.11717452305 0)
(0.164964656502 1.06935936503 0)
(0.171682345664 1.03283564519 0)
(0.171458415526 1.00260815685 0)
(0.165654703866 0.979013394749 0)
(0.161624363037 0.956595476042 0)
(0.162693232608 0.931208978482 0)
(0.165110895434 0.905100546139 0)
(0.162601497828 0.87900199899 0)
(0.153350842168 0.852584007161 0)
(0.140324978281 0.826055435997 0)
(0.128360530109 0.801919564395 0)
(0.120782927079 0.786514299516 0)
(0.115875307923 0.791540685322 0)
(0.108151499304 0.809228889918 0)
(0.0948455352409 0.785683913345 0)
(0.0265302718217 2.04404930738 0)
(0.082793111039 1.45996566591 0)
(0.122361279505 1.28323156953 0)
(0.141552862636 1.19042915715 0)
(0.155394484259 1.13619939874 0)
(0.164632972554 1.09745635674 0)
(0.172584139057 1.06491544177 0)
(0.175128410213 1.03470962288 0)
(0.171306530125 1.0076802623 0)
(0.165967791175 0.982952083521 0)
(0.162359124833 0.957927105289 0)
(0.157760872574 0.931784187263 0)
(0.149227105007 0.904565251053 0)
(0.13741901711 0.876767848291 0)
(0.126076625817 0.849492205746 0)
(0.118553183848 0.824936235574 0)
(0.113468439145 0.806471197413 0)
(0.107456247529 0.806609577251 0)
(0.0988012059403 0.831966278734 0)
(0.0868351722441 0.811182725827 0)
(0.0263753310811 1.87132492053 0)
(0.0910788268138 1.409328783 0)
(0.132337819049 1.28437455606 0)
(0.14282952645 1.21405101291 0)
(0.155957288505 1.17112150824 0)
(0.16664605252 1.13782736643 0)
(0.174051903179 1.10584185957 0)
(0.174974976184 1.07325800413 0)
(0.169699833429 1.04242637022 0)
(0.16047322622 1.01431666223 0)
(0.149542914996 0.987549175607 0)
(0.138050662342 0.960225102342 0)
(0.12592416732 0.931720463075 0)
(0.114492751014 0.902684963836 0)
(0.106594494879 0.874375059173 0)
(0.102021151134 0.84763639902 0)
(0.0968032036722 0.824150767476 0)
(0.0898024448252 0.816787763169 0)
(0.0830605900552 0.848432965402 0)
(0.075367730182 0.831198704212 0)
(0.0281592050267 1.77997012093 0)
(0.099574295874 1.42855114509 0)
(0.141114538924 1.33377996897 0)
(0.145842844742 1.27309107101 0)
(0.156899984093 1.23324284918 0)
(0.164513913697 1.19808708235 0)
(0.166858821842 1.16016945991 0)
(0.161827681491 1.12085272241 0)
(0.150466804527 1.08438273346 0)
(0.135327484033 1.0517458074 0)
(0.119234206207 1.02134793306 0)
(0.104266958786 0.991153824914 0)
(0.0916953505809 0.959992959676 0)
(0.08243148306 0.928265372722 0)
(0.0763963334103 0.89679398996 0)
(0.0721747274764 0.865650240719 0)
(0.0677464670269 0.836393120991 0)
(0.0637923259308 0.820629766596 0)
(0.062950142985 0.852891807422 0)
(0.0618166806339 0.84257666854 0)
(0.0361782725044 1.88335120657 0)
(0.112713837573 1.55248824846 0)
(0.145658986462 1.45275933533 0)
(0.137594874289 1.38491080282 0)
(0.136125497963 1.33547624379 0)
(0.133104677352 1.28578118525 0)
(0.125813632947 1.23069763041 0)
(0.112921980356 1.17702517906 0)
(0.0959069840337 1.13021805684 0)
(0.0778403420947 1.09007092469 0)
(0.0616617261949 1.05369800365 0)
(0.0491418482814 1.01829730676 0)
(0.0403978745089 0.982418352754 0)
(0.0344496489983 0.946064901219 0)
(0.0305903707307 0.910007389159 0)
(0.0289263238217 0.874731057437 0)
(0.0290203333327 0.841238429886 0)
(0.0320199048275 0.81827557415 0)
(0.0399298292446 0.84110565806 0)
(0.0466817153686 0.842211524404 0)
(0.0528209540448 2.07023118687 0)
(0.11633633411 1.76984878858 0)
(0.105870768942 1.63894625958 0)
(0.0697235737362 1.54630553353 0)
(0.0445940485919 1.46752584172 0)
(0.0268778156223 1.38271560067 0)
(0.0128547263381 1.2940713172 0)
(0.000367969061097 1.21639968827 0)
(-0.0107221282714 1.15512653363 0)
(-0.0194247377801 1.10650175678 0)
(-0.0250980590757 1.06436786185 0)
(-0.0277210792556 1.0244137003 0)
(-0.0279385048235 0.984604414603 0)
(-0.0265714418127 0.944946643215 0)
(-0.0238099539245 0.906513218944 0)
(-0.0190951003256 0.8700883391 0)
(-0.0120536861398 0.835632527501 0)
(-0.000927645511031 0.808684725705 0)
(0.0157500860253 0.815307359119 0)
(0.0311064498946 0.826604464803 0)
(0.0591303878159 2.17332513851 0)
(0.0806993297467 2.00123052873 0)
(0.0119831737606 1.83107902396 0)
(-0.0446888357902 1.6969409392 0)
(-0.0882518019697 1.57561032039 0)
(-0.11667194708 1.4441839386 0)
(-0.13053896077 1.31255233671 0)
(-0.13338464623 1.20659287481 0)
(-0.129901002422 1.12956223566 0)
(-0.123013763833 1.07509529164 0)
(-0.11415262376 1.03269028169 0)
(-0.103773266008 0.993887028841 0)
(-0.0922773649194 0.955508653343 0)
(-0.0805434562867 0.917691327783 0)
(-0.0688655053763 0.881577340747 0)
(-0.0565782763899 0.848158353847 0)
(-0.0426983371246 0.816785358378 0)
(-0.0258992493777 0.789866296472 0)
(-0.00323982851415 0.7830141445 0)
(0.0201804860763 0.794359016952 0)
(0.0550575835603 2.07664101512 0)
(0.0621083551474 2.21567887084 0)
(-0.0190441712601 2.01027137563 0)
(-0.0798529542612 1.81833873053 0)
(-0.1291604465 1.64763669166 0)
(-0.164659711651 1.46560171381 0)
(-0.183441658756 1.286288686 0)
(-0.186835073167 1.15290474915 0)
(-0.180333775236 1.06195415345 0)
(-0.168782019779 1.00240051517 0)
(-0.154285086228 0.963762046575 0)
(-0.137256345455 0.932534637927 0)
(-0.118786547273 0.901137972956 0)
(-0.100786337377 0.869870618053 0)
(-0.0840703443052 0.839898478612 0)
(-0.0678662285077 0.812593719812 0)
(-0.0508851869902 0.787022414195 0)
(-0.0318393693041 0.763214178965 0)
(-0.00790997541102 0.749722000728 0)
(0.0179551727938 0.752099532841 0)
(0.0488261851226 1.84622868711 0)
(0.0998413824095 2.26074531735 0)
(0.0892369720005 2.14009377593 0)
(0.0486457606457 1.97896872387 0)
(-0.0180441005603 1.82104345411 0)
(-0.0824719903202 1.54599503985 0)
(-0.118503725827 1.27444273156 0)
(-0.132411211904 1.10301600535 0)
(-0.134748061144 0.996115849921 0)
(-0.130698909946 0.929277894667 0)
(-0.123096733353 0.890347846036 0)
(-0.111038577558 0.866769058302 0)
(-0.0950080155176 0.843098399814 0)
(-0.0784801739585 0.818922834592 0)
(-0.0633469968766 0.79538800011 0)
(-0.0489811485777 0.774220851845 0)
(-0.0339333216132 0.754490924564 0)
(-0.0165505305067 0.734846305617 0)
(0.00383201530943 0.719149709502 0)
(0.0262681816097 0.712611959639 0)
(0.0424828401595 1.64111470566 0)
(0.0904819841412 2.13919835917 0)
(0.0972930389062 2.15847514724 0)
(0.0941198739067 2.09139129607 0)
(0.079114598542 1.99602242262 0)
(0.0359397885364 1.74868486698 0)
(-0.0134617233634 1.33888829492 0)
(-0.0387786931031 1.10858057899 0)
(-0.0501708390419 0.97241559085 0)
(-0.0530579507197 0.891515655563 0)
(-0.0521905046784 0.844531372464 0)
(-0.0477949410875 0.82167183152 0)
(-0.0388243003462 0.801537097743 0)
(-0.028164286147 0.781168103222 0)
(-0.0184303040949 0.761335574335 0)
(-0.00932403282626 0.743789318228 0)
(0.000530600310662 0.727858170934 0)
(0.0127168798646 0.711673101157 0)
(0.0280065461739 0.695876055873 0)
(0.0455235171316 0.684114468789 0)
(0.0415967537201 1.49668791936 0)
(0.0896933954649 2.01353811236 0)
(0.100200697276 2.10365440436 0)
(0.105059650446 2.09294794812 0)
(0.101716192339 2.04429537092 0)
(0.0881703726344 1.91111793317 0)
(0.0643652995878 1.45181399699 0)
(0.0404641266354 1.1672680708 0)
(0.0266215048483 0.994885257596 0)
(0.0211030012234 0.893541097427 0)
(0.0199996687905 0.834161701297 0)
(0.0212632321932 0.805035481592 0)
(0.0250326884002 0.783143942407 0)
(0.0299964806707 0.762520096846 0)
(0.034348028812 0.743048757098 0)
(0.0380761029383 0.726105583269 0)
(0.0423713257373 0.711335209225 0)
(0.0488603415314 0.696862296078 0)
(0.059193319139 0.681527131556 0)
(0.0716789544486 0.666526634484 0)
(0.044364423731 1.37734281894 0)
(0.0942948916604 1.88040921365 0)
(0.105359013496 2.01770272158 0)
(0.115011381036 2.05026752207 0)
(0.122269539596 2.0385734535 0)
(0.124930777375 1.94479245166 0)
(0.112320507288 1.56128907224 0)
(0.0933139707819 1.2378132896 0)
(0.0830150737274 1.03903067389 0)
(0.0789437209378 0.919223934307 0)
(0.0789768082228 0.847721033215 0)
(0.0804518727068 0.81006484029 0)
(0.0821570659593 0.783389425531 0)
(0.0837093199249 0.759893293514 0)
(0.0845137057189 0.738511003084 0)
(0.0844789042845 0.720078750546 0)
(0.0845915078563 0.704405522455 0)
(0.0864307452699 0.689816471605 0)
(0.0918091089491 0.674440228362 0)
(0.0995796120794 0.65736366014 0)
(0.0438086004982 1.27425734125 0)
(0.0921051811512 1.75449727643 0)
(0.102382031094 1.91624898094 0)
(0.113486593541 1.97800704064 0)
(0.123849964466 1.9876037634 0)
(0.133158530622 1.92202941331 0)
(0.133746953285 1.63248065441 0)
(0.127113772563 1.29250955502 0)
(0.12283203663 1.08343580051 0)
(0.122306354344 0.952293206997 0)
(0.124930724382 0.871852684119 0)
(0.12795757555 0.82674396848 0)
(0.129287780415 0.794741375487 0)
(0.129169533378 0.767469048868 0)
(0.128014426154 0.743245364319 0)
(0.125724077587 0.722409095774 0)
(0.123084056725 0.704794636467 0)
(0.121532138212 0.688956752167 0)
(0.122854865816 0.672898585088 0)
(0.127155023576 0.654700422222 0)
(0.0421796069183 1.18795067108 0)
(0.0873485531051 1.64485106313 0)
(0.095143724974 1.81617679061 0)
(0.105112686325 1.89666333675 0)
(0.115908637685 1.9200359969 0)
(0.127768682254 1.86963911524 0)
(0.140496766472 1.62952988551 0)
(0.148293097164 1.3210306591 0)
(0.150881470512 1.11797892233 0)
(0.154829815217 0.983832218804 0)
(0.160767788845 0.898742444992 0)
(0.165855393688 0.848445127895 0)
(0.167555944826 0.811865945914 0)
(0.166753502481 0.780940858757 0)
(0.164599395962 0.753753776072 0)
(0.1610356789 0.730276686756 0)
(0.156713225539 0.710298142359 0)
(0.152943971207 0.692580527309 0)
(0.151401832888 0.675237660277 0)
(0.153037330023 0.656014660883 0)
(0.0389939405678 1.12827138573 0)
(0.0790393678173 1.56195627788 0)
(0.0842994568902 1.72668684433 0)
(0.0942679194263 1.81402859074 0)
(0.106961980604 1.84290152482 0)
(0.123395491974 1.79633960915 0)
(0.144580929168 1.56664475132 0)
(0.161339937858 1.32309546125 0)
(0.170407428849 1.1391370001 0)
(0.179100914442 1.00973468577 0)
(0.188632090801 0.924608843943 0)
(0.195989314331 0.871755353368 0)
(0.19838663989 0.831873906056 0)
(0.197378375123 0.797882266755 0)
(0.194719222124 0.767967600296 0)
(0.190379754068 0.741876236733 0)
(0.184987407626 0.71934643306 0)
(0.179785266641 0.699271006816 0)
(0.176335578089 0.679931124279 0)
(0.175949553591 0.659107398032 0)
(0.0250766058286 1.16934943713 0)
(0.0521040736918 1.51357423454 0)
(0.0605585277651 1.64201544667 0)
(0.0749764132228 1.72843355616 0)
(0.0932893626123 1.75208708505 0)
(0.12049990259 1.68572358205 0)
(0.149009187866 1.48917733321 0)
(0.16867091537 1.30565252197 0)
(0.183169799617 1.14756927911 0)
(0.19650844071 1.02899971936 0)
(0.209750441331 0.948355119425 0)
(0.219268624401 0.895459546854 0)
(0.222249897823 0.853532824501 0)
(0.221133880329 0.817193785444 0)
(0.218085375917 0.784928497952 0)
(0.21313438217 0.756351099245 0)
(0.20691218841 0.731165377513 0)
(0.200657684431 0.708352718939 0)
(0.19589750048 0.686323922783 0)
(0.193969905902 0.663015962164 0)
(0.000948890888522 1.43136157035 0)
(0.00553573401531 1.49302416819 0)
(0.0196698645579 1.54605286422 0)
(0.0460367269975 1.61291105436 0)
(0.0807124193256 1.62283249804 0)
(0.118045733228 1.54792909457 0)
(0.148857179497 1.41886180472 0)
(0.171138349827 1.27763716483 0)
(0.190002924483 1.1466379867 0)
(0.207927286096 1.04304902261 0)
(0.22480289854 0.970711728311 0)
(0.235625413463 0.919465783067 0)
(0.238430940827 0.876422808288 0)
(0.237062148814 0.838465406002 0)
(0.233555112898 0.804273746357 0)
(0.227916458583 0.77339704911 0)
(0.2208771476 0.745532397064 0)
(0.213684932408 0.719710394578 0)
(0.207847738195 0.694426906136 0)
(0.204609773701 0.667796378823 0)
(0.0136088730059 1.75341164745 0)
(0.0279839380282 1.49736834773 0)
(0.0359293399627 1.4573252778 0)
(0.0567805254415 1.48483915964 0)
(0.08576796163 1.4855294552 0)
(0.11529404746 1.43383210951 0)
(0.143113358476 1.35256503173 0)
(0.168799179822 1.24537709079 0)
(0.192297706627 1.14082801964 0)
(0.21512930721 1.05520127067 0)
(0.234483848687 0.992930718663 0)
(0.244387774127 0.943733228327 0)
(0.246050465798 0.900398734342 0)
(0.244220487663 0.861510605907 0)
(0.239917245347 0.825829028374 0)
(0.233366439831 0.792911546008 0)
(0.225338661428 0.76245318944 0)
(0.217110128282 0.733515375959 0)
(0.210163923151 0.704589913993 0)
(0.205697487522 0.674042630639 0)
(0.0257845811373 1.94387127976 0)
(0.0491220379298 1.53229450279 0)
(0.0493654273965 1.40436384699 0)
(0.0622245692768 1.39075186985 0)
(0.0852682540321 1.38690236725 0)
(0.112130383753 1.35466219121 0)
(0.14024327681 1.2953815661 0)
(0.168190175737 1.21671956687 0)
(0.195895689041 1.13744574385 0)
(0.221835109899 1.07011248193 0)
(0.239285991336 1.01607866036 0)
(0.245305537762 0.968534834336 0)
(0.245121260119 0.925595520321 0)
(0.242157544537 0.886239320045 0)
(0.236573312215 0.84943307594 0)
(0.228744966995 0.814771363372 0)
(0.219519626113 0.781914425506 0)
(0.209951885119 0.749664146776 0)
(0.201519301491 0.716719528367 0)
(0.195680793245 0.682001935369 0)
(0.0339997502014 2.0464864374 0)
(0.0661164072547 1.58425335666 0)
(0.062607763414 1.38759127809 0)
(0.0681864496001 1.3318903381 0)
(0.0868795505007 1.31920692857 0)
(0.11240111988 1.29750293778 0)
(0.141673677858 1.25707905549 0)
(-0.0482026863948 0.474075298356 0)
(-0.0429373760619 0.474611137745 0)
(-0.0385675446379 0.47433918575 0)
(-0.0347748686266 0.472791867969 0)
(-0.0312830463576 0.469162841224 0)
(-0.0278622061944 0.462542020247 0)
(-0.0244164912388 0.452544264344 0)
(-0.0210129916718 0.439723379089 0)
(-0.0177622051665 0.425088668318 0)
(-0.0147202682949 0.409444179221 0)
(-0.0119028169578 0.393247029392 0)
(-0.00931446047588 0.37669994488 0)
(-0.00697279897738 0.359822358547 0)
(-0.00493836408227 0.342452173354 0)
(-0.00328657935451 0.324236154916 0)
(-0.00171550283252 0.305045704058 0)
(-0.00043355287782 0.286463473653 0)
(0.0180438546896 0.448602322989 0)
(0.0027165096049 0.450823189875 0)
(-0.0268251849757 0.466483144154 0)
(-0.0444023154551 0.467107974144 0)
(-0.0399088599835 0.468083187455 0)
(-0.0360449602139 0.46800820685 0)
(-0.0325919855815 0.466353017971 0)
(-0.0293287957795 0.462296963042 0)
(-0.0260782490682 0.45507529174 0)
(-0.0228027883289 0.444590764406 0)
(-0.0195949879992 0.431579349447 0)
(-0.0165502896555 0.417012046561 0)
(-0.0137084944473 0.401591848336 0)
(-0.0110794407863 0.385708821125 0)
(-0.00866607081356 0.369532823938 0)
(-0.00648557779893 0.353072826717 0)
(-0.00459586490643 0.336169407667 0)
(-0.00307732145332 0.318454717787 0)
(-0.00169823595544 0.299701759062 0)
(-0.000488020720193 0.281391045571 0)
(0.0301699171812 0.448257775563 0)
(0.0188659609047 0.447434878593 0)
(-0.0132210619342 0.460868178213 0)
(-0.0376176633005 0.462147161544 0)
(-0.0345535802987 0.463150279304 0)
(-0.0315022530729 0.462954166046 0)
(-0.028647239806 0.460912826365 0)
(-0.0258376173295 0.456219282377 0)
(-0.022960774512 0.448295574954 0)
(-0.0200399005208 0.437313899955 0)
(-0.0171870127434 0.424119074917 0)
(-0.0144856303741 0.409610555961 0)
(-0.0119669997443 0.394396167226 0)
(-0.00964009531448 0.378807480492 0)
(-0.00750940093752 0.362985521218 0)
(-0.00559072835568 0.34693044698 0)
(-0.00394235412245 0.330486840556 0)
(-0.00264615011691 0.313277397013 0)
(-0.00153796545456 0.294972286099 0)
(-0.000490254023536 0.276896168703 0)
(0.0397921315124 0.450640610602 0)
(0.029803233566 0.447587976069 0)
(0.000378092750796 0.454667680849 0)
(-0.026506555609 0.459182561545 0)
(-0.0278927794898 0.459861875491 0)
(-0.0257591976043 0.459270509624 0)
(-0.0236120247693 0.456599329973 0)
(-0.0213662408879 0.45109825572 0)
(-0.0189757452746 0.442408332079 0)
(-0.0165173943259 0.430932602535 0)
(-0.0141137002589 0.417558572028 0)
(-0.011838170158 0.403096299966 0)
(-0.0097186500405 0.38806702373 0)
(-0.00776583785808 0.37275130271 0)
(-0.00598663646 0.357264898875 0)
(-0.00439906350946 0.341600386002 0)
(-0.00305765396853 0.325607700557 0)
(-0.0020463322312 0.308905036643 0)
(-0.00127030965022 0.291060665713 0)
(-0.000453177571116 0.273192764247 0)
(0.0471143997442 0.455122194786 0)
(0.037480687955 0.449989301991 0)
(0.0157759437659 0.450380841228 0)
(-0.0113196233097 0.457765578765 0)
(-0.0207001812415 0.458036133691 0)
(-0.0194928523894 0.456848682038 0)
(-0.0180726096732 0.453367723515 0)
(-0.0164245107781 0.446952140754 0)
(-0.0145669063204 0.437480407568 0)
(-0.0126186792274 0.425534358652 0)
(-0.0107045588547 0.411992182099 0)
(-0.00889058982867 0.397568875692 0)
(-0.00720442123178 0.382709125182 0)
(-0.00565966417731 0.367649342406 0)
(-0.00426644771258 0.352483458785 0)
(-0.00304265272232 0.337197485196 0)
(-0.00204260248713 0.321647977106 0)
(-0.00134949780379 0.305453559946 0)
(-0.000927482360376 0.288086284492 0)
(-0.000382349730083 0.270412715722 0)
(0.0523901980683 0.461299841874 0)
(0.0429458125327 0.453906426029 0)
(0.0275783055943 0.451444897148 0)
(0.00148784247367 0.457543749262 0)
(-0.0135195932844 0.457489958406 0)
(-0.0132173809799 0.455549161518 0)