/*--------------------------------*- C++ -*----------------------------------*\
| =========                 |                                                 |
| \\      /  F ield         | OpenFOAM: The Open Source CFD Toolbox           |
|  \\    /   O peration     | Version:  2312                                  |
|   \\  /    A nd           | Website:  www.openfoam.com                      |
|    \\/     M anipulation  |                                                 |
\*---------------------------------------------------------------------------*/
FoamFile
{
    version     2.0;
    format      ascii;
    arch        "LSB;label=32;scalar=64";
    class       volScalarField;
    location    "0.215/water";
    object      d.gas;
}
// * * * * * * * * * * * * * * * * * * * * * * * * * * * * * * * * * * * * * //

dimensions      [0 1 0 0 0 0 0];

internalField   nonuniform List<scalar> 
1496
(
0.00499492447032
0.00499492431156
0.00499492399308
0.00499492362911
0.00499492321304
0.0049949227166
0.00499492209463
0.00499492172717
0.00499492043797
0.00499491612169
0.00499490863301
0.00499489668773
0.00499487781578
0.00499484998233
0.00499481166902
0.00499476533228
0.00499471584252
0.00499466284489
0.00499461919119
0.0049946091292
0.00499494461633
0.00499494429785
0.00499494360172
0.0049949423511
0.00499494120421
0.00499494056828
0.00499493975573
0.00499493779877
0.00499493363196
0.00499492582245
0.00499491466263
0.00499489881574
0.00499487593804
0.004994844264
0.0049948029124
0.00499475705131
0.00499470448333
0.00499465602882
0.00499461803296
0.00499482011384
0.00499497929785
0.00499497897641
0.00499497834872
0.00499497615577
0.00499497325058
0.00499497179655
0.00499496788466
0.00499496008505
0.00499495038755
0.00499493777439
0.00499492166409
0.00499490093525
0.00499487431338
0.00499484113402
0.0049948056561
0.00499476584162
0.00499472398901
0.00499468209819
0.00499481683531
0.0049950856997
0.00499503128317
0.00499503128954
0.00499502399895
0.00499500470188
0.00499499654206
0.00499499049482
0.00499498395211
0.00499497499755
0.00499496333819
0.00499494899354
0.00499493210032
0.00499491255529
0.00499489084358
0.00499487154065
0.004994854505
0.00499483472177
0.00499481085816
0.00499497265872
0.00499532356503
0.00499520288412
0.00499508681905
0.00499508700776
0.00499502551285
0.00499499744639
0.00499499599218
0.00499499745214
0.00499499480948
0.00499498889385
0.00499498125116
0.0049949728161
0.00499496564441
0.00499495995683
0.00499496243911
0.00499497193759
0.00499497992131
0.00499500359564
0.00499525570533
0.00499557058669
0.00499546585528
0.00499538155634
0.0049951353489
0.00499513557898
0.00499502210209
0.00499498540362
0.00499499507145
0.0049950091385
0.00499501792334
0.00499502580206
0.00499503516602
0.00499504807088
0.00499506681078
0.00499509616708
0.00499513025231
0.00499516106245
0.00499527849786
0.00499563895428
0.00499580342031
0.00499569889308
0.00499563267765
0.00499558745752
0.00499517503003
0.00499517517147
0.0049950555521
0.00499502134687
0.0049950414659
0.00499507189077
0.00499510709895
0.00499514842437
0.00499519300964
0.00499524056719
0.00499529313723
0.00499534720954
0.00499541299791
0.00499565602415
0.00499599114871
0.00499597074972
0.004995893665
0.00499584501042
0.00499581227095
0.00499578088792
0.00499521017234
0.00499520986495
0.00499511794757
0.00499510043175
0.00499513794878
0.00499520899509
0.00499529515336
0.00499536943296
0.00499543137902
0.00499549451298
0.00499556098553
0.00499567450287
0.00499601935726
0.00499619940557
0.00499610599388
0.00499606260198
0.00499602764908
0.00499600459715
0.00499598056457
0.0049959505265
0.00499524888052
0.00499524377762
0.00499516844666
0.00499517592442
0.00499526737873
0.00499539188708
0.00499549314114
0.00499556869035
0.00499565148594
0.00499573703763
0.00499590804547
0.00499630445652
0.00499632748162
0.00499624571547
0.0049962157917
0.00499619472018
0.00499617740446
0.00499615684607
0.00499613071484
0.00499609782963
0.00499527340908
0.00499532682733
0.00499527672199
0.00499533645506
0.0049954797299
0.00499560907201
0.00499570229658
0.00499580851643
0.00499592641465
0.00499616995786
0.00499652820272
0.00499645089603
0.00499639488104
0.00499637243502
0.0049963592565
0.00499634517754
0.00499632700225
0.00499630342305
0.00499627824072
0.00499623646617
0.00499530829921
0.0049954109783
0.00499543598682
0.00499557221744
0.0049957363729
0.00499585179108
0.00499598026849
0.00499614142754
0.00499645497157
0.00499669810922
0.00499658843112
0.00499654888211
0.00499653438556
0.00499652531902
0.00499651311621
0.0049964968878
0.00499647497312
0.00499644894466
0.00499641760496
0.0049963712924
0.00499556342043
0.00499569961582
0.00499578579619
0.00499593003687
0.00499604624039
0.00499618029743
0.0049963844101
0.00499672717324
0.00499684256994
0.00499674077248
0.00499670886641
0.00499670032801
0.00499669442016
0.00499668515141
0.00499667230617
0.00499665396649
0.00499662971608
0.00499659763637
0.004996556128
0.0049965152871
0.00499586462396
0.00499599485589
0.00499613464967
0.00499627371917
0.0049964440276
0.00499667247367
0.00499693407818
0.00499698739538
0.00499690157535
0.00499687697572
0.00499687133924
0.00499686791928
0.00499686231701
0.00499685423623
0.00499684142475
0.00499682361612
0.00499679727259
0.00499676072942
0.00499671070228
0.00499668866327
0.00499601222039
0.00499621934815
0.00499644248152
0.00499663309552
0.00499681391921
0.00499698133856
0.00499707443935
0.00499704842604
0.0049970287202
0.00499703223385
0.00499703702995
0.00499703911208
0.00499703943267
0.00499703522896
0.00499702730289
0.00499701247904
0.00499698903188
0.0049969436124
0.00499689852594
0.00499689759792
0.0049956515238
0.00499614814548
0.00499634600449
0.00499649903741
0.00499669925716
0.0049969271796
0.00499709123697
0.00499715792368
0.00499718749283
0.00499720592509
0.00499721884576
0.00499723004903
0.00499723494541
0.00499723727537
0.00499723346628
0.00499722350088
0.00499720314278
0.00499715606912
0.00499712936524
0.00499713769545
0.00499533874433
0.00499613382331
0.00499587101233
0.00499608940196
0.00499645701258
0.0049968421619
0.00499714110683
0.00499730685563
0.00499737764188
0.00499741130337
0.00499743520358
0.00499744836205
0.00499745901235
0.00499746206594
0.00499746176998
0.00499745327434
0.00499743424411
0.00499739819329
0.00499738693196
0.00499739305127
0.00499770828728
0.00499758480667
0.0049970726133
0.00499704501801
0.00499714985485
0.0049973152442
0.00499747587092
0.00499759937031
0.00499766791389
0.00499769556224
0.00499770424142
0.00499771111859
0.00499771026425
0.00499770966198
0.00499770370775
0.00499769653445
0.00499767613452
0.00499765382381
0.0049976474335
0.00499764754119
0.00499947781893
0.00499947763763
0.00499943374275
0.0049992813118
0.00499900431195
0.00499869656573
0.00499844394719
0.00499822607496
0.00499808871754
0.0049980232465
0.00499798725999
0.0049979642497
0.00499795133002
0.00499794024527
0.00499793193263
0.0049979202894
0.00499790050149
0.00499788951032
0.00499788726121
0.00499788678281
0.00499954426641
0.00499954515956
0.00499954711372
0.00499954806548
0.00499953857103
0.0049994714925
0.00499923750648
0.00499893855123
0.0049986504726
0.00499841889294
0.00499827616987
0.00499819962762
0.0049981543874
0.00499812858742
0.00499811233571
0.00499810290399
0.00499809183146
0.00499809502251
0.0049981017687
0.00499810790464
0.00499958251768
0.00499958271092
0.00499958336424
0.00499958432571
0.00499958578024
0.00499958644383
0.00499958146076
0.00499948344454
0.00499923263781
0.00499896163864
0.00499872348285
0.00499854245981
0.00499842851936
0.00499836386562
0.00499832717149
0.00499830770654
0.00499830222418
0.00499831095762
0.00499832125374
0.00499833114228
0.00499961096968
0.0049996110622
0.00499961137977
0.00499961185751
0.00499961247563
0.00499961333387
0.00499961431811
0.00499961488292
0.00499958956274
0.00499944991331
0.00499923253802
0.00499902081513
0.00499884339995
0.00499870939235
0.0049986275648
0.00499858524467
0.00499857176081
0.00499857020387
0.00499857185092
0.00499857451698
0.00499963483063
0.00499963487349
0.00499963506603
0.00499963542239
0.00499963595481
0.00499963664004
0.00499963753662
0.00499963881921
0.00499963948576
0.004999632422
0.00499956883918
0.00499943759967
0.00499928887363
0.00499913641325
0.00499901221052
0.00499892560765
0.00499888203492
0.00499885705556
0.00499883941345
0.0049988257354
0.00499965568077
0.00499965567262
0.00499965577602
0.00499965600884
0.00499965632687
0.00499965666906
0.00499965703396
0.00499965739664
0.00499965780014
0.00499965944937
0.00499965429732
0.00499962012823
0.00499954939012
0.00499945003294
0.00499934149499
0.00499924372842
0.00499917320453
0.00499912272434
0.00499908459398
0.00499905415444
0.00499967556413
0.00499967555636
0.00499967568969
0.00499967593876
0.00499967623128
0.00499967651026
0.00499967679165
0.0049996771301
0.00499967756135
0.00499967855204
0.00499968010815
0.00499967000105
0.00499964222423
0.00499959510341
0.00499953156615
0.00499946132604
0.00499939017773
0.00499932977761
0.00499928050311
0.00499924028744
0.0049996953096
0.00499969534987
0.0049996955378
0.00499969580306
0.00499969605884
0.00499969628883
0.00499969648566
0.00499969666618
0.00499969687092
0.0049996970637
0.00499969770148
0.00499969260796
0.00499967837822
0.00499965389353
0.00499961945004
0.0049995738725
0.00499952241285
0.00499947111865
0.00499942370449
0.00499938190694
0.00499971500159
0.00499971515439
0.00499971539684
0.0049997156686
0.00499971591874
0.00499971616649
0.00499971639095
0.00499971658507
0.00499971677617
0.00499971645342
0.0049997170059
0.00499971357987
0.00499970327785
0.00499968578534
0.00499966153012
0.0049996331236
0.00499960218514
0.00499956871316
0.00499953177231
0.00499949619226
0.00499973435317
0.00499973470975
0.00499973502279
0.00499973531306
0.00499973558763
0.00499973587975
0.00499973618731
0.00499973647321
0.00499973672622
0.0049997359674
0.00499973635297
0.0049997342457
0.00499972704639
0.00499971402885
0.00499969643499
0.0049996782722
0.00499966216874
0.00499964320724
0.00499961905694
0.00499959411287
0.00499975352782
0.00499975391127
0.00499975416962
0.00499975441026
0.00499975466978
0.004999754969
0.0049997553302
0.0049997556955
0.00499975603521
0.00499975636039
0.00499975556929
0.00499975256003
0.00499974649907
0.00499973617057
0.00499972353019
0.00499971576259
0.0049997126438
0.00499970367152
0.00499969067777
0.00499967883343
0.00499977145111
0.00499977180078
0.00499977202312
0.0049997722458
0.00499977251426
0.00499977283592
0.00499977322263
0.00499977365969
0.00499977410695
0.00499977633196
0.00499977667808
0.00499977197228
0.00499976479669
0.00499975592258
0.00499975033349
0.00499975567731
0.0049997617661
0.00499975676657
0.00499975177406
0.00499974990151
0.00499978766816
0.00499978799934
0.00499978822112
0.00499978846832
0.00499978878697
0.00499978915122
0.00499978956167
0.00499979003491
0.00499979054571
0.00499979306721
0.00499979637226
0.00499979367862
0.00499978759151
0.00499978429285
0.00499979029317
0.004999802729
0.00499980346193
0.00499980271883
0.00499980146029
0.00499980401475
0.00499980231873
0.00499980262737
0.00499980288091
0.00499980319483
0.00499980358779
0.00499980400047
0.00499980443214
0.00499980489371
0.00499980539399
0.00499980671051
0.00499981052479
0.00499981081556
0.00499980812223
0.00499981043157
0.00499982260983
0.00499983132796
0.00499983324914
0.00499983265063
0.0049998349343
0.00499984271613
0.0049998154281
0.00499981579308
0.00499981631636
0.00499981686444
0.00499981736221
0.00499981781327
0.00499981824616
0.00499981868398
0.00499981916764
0.00499981977773
0.00499982111715
0.00499981967935
0.00499981748505
0.0049998213949
0.00499983327842
0.00499984398906
0.00499984495784
0.004999848562
0.00499985191301
0.0049998613624
0.00499982427334
0.00499983291731
0.00499983077098
0.00499983095339
0.00499983114133
0.00499983133638
0.00499983153192
0.00499983173223
0.00499983197791
0.00499983233889
0.00499983051965
0.00499982667094
0.00499982183666
0.00499982370056
0.00499983541599
0.00499984531346
0.00499984996267
0.0049998513162
0.00499985774636
0.00499988030769
0.00499983017455
0.00499985686169
0.00499984640351
0.00499984409079
0.00499984409617
0.004999844114
0.00499984413725
0.00499984418075
0.00499984427849
0.00499984445879
0.00499983990266
0.00499983350372
0.00499982555759
0.00499982374918
0.00499983429931
0.00499984777291
0.00499984940136
0.00499985599469
0.00499986664628
0.00499990132603
0.00499984308041
0.00499987470058
0.00499986159383
0.00499985732788
0.00499985674621
0.00499985660043
0.00499985649567
0.00499985643865
0.00499985644393
0.0049998556868
0.00499984919865
0.0049998398728
0.00499982972192
0.00499982719377
0.00499983848807
0.00499984967253
0.00499985571759
0.00499986112026
0.0049998906401
0.00499994207876
0.00499987075795
0.00499988867703
0.00499987272743
0.00499987087477
0.00499987100876
0.00499987067053
0.00499987046115
0.00499987043834
0.00499987023147
0.00499986728439
0.00499985978973
0.00499984927771
0.00499983843196
0.00499983767117
0.00499985285056
0.00499986940762
0.00499987552164
0.00499990297091
0.00499996530944
0.0049999605105
0.00499992134602
0.0049999334233
0.00499992293459
0.00499993213171
0.00499994727551
0.00499996275815
0.00499997408606
0.0049999795224
0.00499997777342
0.00499996885797
0.00499995389644
0.00499993511755
0.00499991787218
0.00499991378175
0.00499992302196
0.00499993266502
0.00499995138513
0.00499998437301
0.00499998005516
0.00499995542507
0.00499471321789
0.00499471780295
0.00499472022349
0.00499471948836
0.00499471571693
0.00499471223494
0.00499471085452
0.0049947122296
0.00499471584313
0.00499471978866
0.00499472311725
0.00499472561753
0.004994727363
0.00499472845916
0.00499472900338
0.0049947289294
0.004994852756
0.0049947977799
0.00499475954755
0.00499475800432
0.00499476809965
0.00499477738788
0.00499478273728
0.004994783592
0.0049947810223
0.00499477952099
0.00499478074763
0.00499478493068
0.00499479097281
0.00499479676827
0.00499480153262
0.00499480515422
0.00499480776132
0.00499480948741
0.0049948104539
0.00499481064143
0.00499491596856
0.00499483123156
0.00499481626217
0.00499482708581
0.00499484535023
0.004994859537
0.00499486746658
0.00499486938301
0.00499486766961
0.00499486765983
0.00499487097628
0.00499487733155
0.00499488507875
0.00499489214853
0.00499489785852
0.0049949021994
0.00499490537037
0.00499490752084
0.00499490878513
0.00499490919744
0.00499495572418
0.00499491207355
0.00499491175277
0.0049949333265
0.00499495763535
0.00499497499178
0.00499498326586
0.00499498497436
0.00499498310776
0.00499498335157
0.00499498735261
0.00499499443734
0.00499500251006
0.00499500973935
0.00499501550837
0.00499501990302
0.00499502314427
0.00499502537516
0.00499502672338
0.00499502726583
0.00499511764935
0.00499507488704
0.00499507295245
0.00499509103015
0.00499511254324
0.00499512719372
0.00499513277538
0.00499513232189
0.00499512867814
0.00499512751288
0.00499513036374
0.00499513636476
0.00499514326073
0.00499514943102
0.00499515434714
0.00499515810907
0.00499516090406
0.00499516285059
0.00499516405018
0.00499516460137
0.00499531844816
0.00499527890073
0.0049952740646
0.00499528249573
0.00499529541426
0.004995304255
0.00499530541936
0.00499530261012
0.00499529687944
0.00499529355223
0.00499529418276
0.00499529786994
0.00499530262685
0.00499530701415
0.00499531052542
0.00499531321845
0.00499531523372
0.00499531665524
0.00499531754784
0.00499531800838
0.00499552938255
0.00499549529826
0.00499548499696
0.00499548319197
0.00499548646196
0.00499548993492
0.00499548889413
0.00499548440107
0.00499547670232
0.00499547128696
0.00499546967639
0.00499547098879
0.00499547350696
0.00499547602331
0.00499547806126
0.00499547962601
0.00499548081237
0.00499548166672
0.00499548221705
0.00499548253999
0.0049957294227
0.00499570190359
0.00499568692059
0.00499567734402
0.00499567322079
0.00499567345765
0.0049956706418
0.00499566515005
0.00499565684886
0.00499565062946
0.00499564788003
0.00499564772966
0.00499564875785
0.00499565000708
0.0049956510241
0.00499565179171
0.00499565238365
0.00499565282236
0.00499565311283
0.00499565330781
0.00499590609195
0.00499588698921
0.0049958717993
0.00499585963395
0.00499585235705
0.00499585086171
0.00499584835788
0.00499584250297
0.00499583371584
0.00499582737654
0.00499582436067
0.00499582375269
0.00499582425771
0.0049958250385
0.00499582565599
0.00499582610339
0.0049958264523
0.00499582671371
0.00499582688428
0.00499582699774
0.00499606086075
0.00499605271513
0.00499604237476
0.00499603279805
0.00499602683905
0.00499602593664
0.00499602248636
0.00499601540112
0.00499600652149
0.00499600077518
0.0049959983464
0.00499599819399
0.00499599903165
0.00499600007442
0.00499600086284
0.00499600143795
0.00499600188015
0.00499600219845
0.00499600239192
0.00499600248579
0.00499620943228
0.00499621028831
0.004996206651
0.00499620197918
0.00499620043788
0.00499619932719
0.00499619560757
0.00499618779272
0.00499617879376
0.00499617402856
0.00499617263363
0.00499617341661
0.0049961750834
0.00499617674876
0.00499617799095
0.00499617893371
0.00499617965421
0.00499618016279
0.0049961804659
0.00499618059062
0.00499636211407
0.00499636967333
0.00499637148503
0.00499637329605
0.00499637666462
0.00499637710556
0.00499637228418
0.00499636246868
0.0049963546431
0.00499635124874
0.004996351082
0.00499635292048
0.00499635547167
0.00499635767794
0.00499635935699
0.00499636067664
0.00499636169244
0.00499636241092
0.00499636284431
0.00499636302663
0.00499652688765
0.00499653946802
0.00499654663224
0.00499655306987
0.00499656000157
0.00499655905922
0.0049965534494
0.00499654356728
0.0049965375208
0.00499653551944
0.00499653659704
0.0049965393704
0.00499654246267
0.00499654496005
0.00499654693486
0.00499654852579
0.00499654976525
0.004996550654
0.0049965512025
0.0049965514511
0.00499671258764
0.00499672742305
0.00499673499737
0.00499674446683
0.00499675362258
0.00499675320639
0.00499674676645
0.00499673533984
0.00499673025665
0.00499672921765
0.00499673112126
0.00499673432418
0.00499673744314
0.00499673994833
0.00499674201585
0.00499674372083
0.0049967450721
0.00499674606429
0.00499674669821
0.00499674701404
0.00499692194611
0.00499693349307
0.00499694184165
0.00499695182769
0.00499696054122
0.00499695622677
0.00499694643719
0.00499693613129
0.00499693235009
0.00499693224068
0.00499693460907
0.00499693779587
0.00499694063261
0.00499694298554
0.0049969450032
0.00499694670834
0.00499694809157
0.00499694914326
0.00499694984986
0.00499695024345
0.00499715388191
0.00499716119212
0.0049971634919
0.00499717025438
0.00499717638814
0.00499716771443
0.00499715446506
0.0049971461665
0.00499714350297
0.00499714417511
0.00499714668417
0.00499714952663
0.00499715196395
0.00499715408185
0.00499715596117
0.00499715758847
0.00499715894986
0.0049971600392
0.00499716082159
0.00499716131487
0.00499739903395
0.004997398804
0.00499739924265
0.00499740392964
0.00499740600162
0.00499739279802
0.00499737529733
0.0049973681672
0.00499736570117
0.0049973662489
0.00499736813488
0.00499737009178
0.00499737182634
0.00499737346683
0.00499737499695
0.00499737638152
0.0049973776107
0.00499737867972
0.0049973795168
0.00499738012139
0.00499764634151
0.00499764477819
0.00499764105196
0.00499764406923
0.00499764547132
0.00499762756165
0.00499761101434
0.0049976037515
0.00499760015443
0.00499759913413
0.0049975991967
0.00499759950508
0.00499760001985
0.0049976007301
0.00499760155156
0.00499760242947
0.00499760334885
0.00499760428656
0.00499760511232
0.00499760580831
0.00499788544265
0.00499788211123
0.00499788317286
0.00499789194617
0.00499788910878
0.00499787050481
0.00499785729436
0.00499784951509
0.00499784387481
0.00499784000509
0.00499783731657
0.00499783546082
0.00499783431308
0.00499783371073
0.00499783352929
0.00499783368877
0.0049978341515
0.00499783485268
0.00499783558904
0.00499783633261
0.00499811225356
0.00499811719491
0.00499812104692
0.00499813199986
0.00499813197547
0.00499811663486
0.00499810576184
0.00499809725171
0.0049980896101
0.00499808306723
0.0049980779086
0.00499807402475
0.00499807115369
0.00499806913543
0.00499806784022
0.00499806718014
0.00499806709675
0.00499806747864
0.00499806805102
0.00499806879069
0.00499833980102
0.00499834464962
0.00499835514875
0.00499837721739
0.00499836846872
0.00499836011766
0.00499835298852
0.00499834491397
0.00499833611116
0.00499832725448
0.00499831938287
0.00499831303675
0.00499830805471
0.00499830424872
0.0049983014944
0.00499829971014
0.0049982988221
0.00499829867377
0.00499829892479
0.00499829956812
0.00499857706608
0.00499858274048
0.0049985919555
0.00499860794418
0.00499860666776
0.00499859959181
0.00499859789067
0.00499859286903
0.00499858416671
0.00499857259122
0.00499856036954
0.00499854963597
0.00499854112465
0.00499853453899
0.00499852957916
0.00499852608736
0.00499852393726
0.00499852291062
0.00499852260187
0.0049985230046
0.00499881506247
0.00499880652508
0.00499881339946
0.00499883601844
0.00499882024908
0.00499881535584
0.00499881640425
0.00499881511973
0.00499881027722
0.00499880048091
0.00499878699031
0.00499877256458
0.00499875997548
0.00499875010449
0.0049987426701
0.00499873729901
0.0049987337406
0.00499873170361
0.00499873073527
0.00499873079552
0.00499902898714
0.00499901242639
0.00499901846589
0.00499901630203
0.00499900150306
0.0049989937902
0.00499898982937
0.00499898995883
0.00499898731657
0.00499898221032
0.00499897375594
0.00499896245042
0.00499894996238
0.00499893883327
0.00499893005053
0.00499892358411
0.0049989191691
0.00499891647285
0.00499891504658
0.00499891479808
0.00499920828154
0.00499918238673
0.0049991836857
0.0049991755468
0.00499915169165
0.00499913791622
0.00499913272769
0.00499912690321
0.00499912428653
0.00499912123666
0.00499911684307
0.00499911019209
0.00499910180912
0.00499909309767
0.00499908570102
0.00499907993413
0.00499907580479
0.00499907319759
0.00499907176734
0.00499907138603
0.0049993483132
0.00499932942927
0.00499933234223
0.00499930580031
0.0049992808918
0.00499926524843
0.00499924917944
0.00499924011754
0.00499923630911
0.00499923511249
0.00499923289906
0.00499922869058
0.00499922338584
0.00499921783492
0.00499921313697
0.00499920971572
0.0049992070709
0.00499920526245
0.00499920424951
0.00499920394408
0.00499946961181
0.00499946056039
0.00499945241155
0.0049994212257
0.0049993948592
0.00499937038218
0.00499935103523
0.00499934048408
0.00499933814245
0.00499933898701
0.00499933849982
0.00499933561402
0.00499933143911
0.00499932741828
0.00499932441609
0.00499932296256
0.0049993220941
0.00499932126984
0.00499932076115
0.00499932061875
0.00499957744073
0.00499957204378
0.00499955430561
0.00499952367353
0.00499949691354
0.00499947323006
0.00499945506542
0.00499944526381
0.00499944328357
0.00499944460048
0.00499944471083
0.00499944181122
0.00499943746829
0.00499943333097
0.00499943039885
0.00499942947994
0.00499942958458
0.00499942934358
0.00499942908119
0.00499942902458
0.00499967343565
0.00499966594992
0.00499964542669
0.00499962215213
0.00499960282545
0.0049995865406
0.0049995726661
0.00499956146505
0.00499955546284
0.00499955327612
0.00499955149129
0.00499954818443
0.00499954371197
0.00499953880248
0.00499953491668
0.00499953317706
0.00499953305384
0.00499953270664
0.00499953227084
0.00499953212314
0.00499975198579
0.00499974675283
0.00499973065016
0.00499971687881
0.00499970783293
0.00499969984532
0.00499968997633
0.00499967747788
0.00499966608231
0.00499965763331
0.00499965275514
0.0049996487701
0.00499964281558
0.0049996370801
0.00499963243921
0.00499962964981
0.00499962874309
0.00499962804254
0.00499962726726
0.0049996269255
0.00499981401437
0.00499981183368
0.00499980017464
0.00499979351422
0.00499978952248
0.00499978553095
0.00499977969892
0.00499977092161
0.00499975858528
0.00499974578142
0.00499973940228
0.0049997342617
0.00499972713508
0.00499972161111
0.00499971665147
0.00499971310352
0.00499971153937
0.00499971058709
0.00499970955025
0.00499970897855
0.00499985605214
0.00499985761574
0.00499984793946
0.00499984318879
0.00499984052829
0.00499983847923
0.00499983564299
0.00499983113163
0.00499982287349
0.00499981234326
0.00499980643455
0.00499980437869
0.00499979680259
0.00499978999232
0.00499978463005
0.00499978061273
0.00499977871202
0.00499977779373
0.00499977671844
0.00499977595381
0.00499988580321
0.0049998864568
0.00499987791446
0.00499987466162
0.00499987357322
0.00499987283963
0.00499987100306
0.00499986750321
0.00499986255727
0.00499985650062
0.00499985240882
0.00499985962574
0.0049998541606
0.00499984391085
0.00499983756947
0.00499983329427
0.00499983142716
0.00499983076772
0.0049998298351
0.00499982894557
0.00499990682474
0.004999904993
0.00499989727735
0.00499989567586
0.00499989599818
0.0049998955666
0.00499989360377
0.00499989081446
0.00499988865559
0.00499988727566
0.00499988742368
0.00499990203655
0.00499990034754
0.00499988711498
0.00499987968749
0.00499987524802
0.00499987363373
0.00499987325925
0.0049998724839
0.00499987144274
0.00499992611563
0.00499991428226
0.00499990965148
0.00499991100761
0.00499991274049
0.00499991296965
0.00499991245282
0.00499991231866
0.0049999142119
0.00499991731789
0.00499992061622
0.00499993829203
0.0049999418585
0.00499992737767
0.00499991854163
0.00499991321246
0.00499991093935
0.0049999096136
0.00499990804364
0.00499990617771
0.00499993198157
0.00499992034483
0.00499992204642
0.00499992717369
0.00499993043505
0.00499993231838
0.00499993402921
0.00499993694577
0.00499994337438
0.00499995131889
0.00499995729241
0.00499997644878
0.00499998619361
0.00499997132827
0.00499996076764
0.00499995404752
0.00499995057689
0.00499994701483
0.00499994228945
0.00499993675319
0.00499993541547
0.00499993222094
0.00499993968102
0.0049999466052
0.00499995083378
0.0049999540257
0.00499995776632
0.00499996459618
0.00499997647922
0.00499998942291
0.00500000065662
0.00500002623772
0.00500004032148
0.00500002195432
0.00500000711989
0.00499999629453
0.00499998955785
0.00499998942855
0.00499999286058
0.00499998295857
0.00499995022288
0.00499995734318
0.0049999679338
0.004999973056
0.00499997545018
0.00499997753131
0.00499998134248
0.00499999063495
0.00500000702371
0.00500002954254
0.0050000618911
0.00500013209794
0.00500015137556
0.00500009868351
0.00500006658367
0.00500003945072
0.00500001025408
0.00499998422006
0.00499997532963
0.00499999224962
)
;

boundaryField
{
    emptyPatch
    {
        type            empty;
    }
    minY
    {
        type            calculated;
        value           nonuniform List<scalar> 0();
    }
    maxY
    {
        type            calculated;
        value           nonuniform List<scalar> 
40
(
0.005
0.005
0.005
0.005
0.005
0.005
0.005
0.005
0.005
0.005
0.005
0.005
0.005
0.005
0.005
0.005
0.005
0.005
0.005
0.005
0.005
0.005
0.005
0.005
0.005
0.005
0.005
0.005
0.005
0.005
0.005
0.00500038822678
0.00500015518635
0.00500009645605
0.00500010813144
0.0050001451842
0.00500013279794
0.0050000209509
0.00500000000244
0.00500001143684
)
;
    }
    water_to_cooler
    {
        type            calculated;
        value           nonuniform List<scalar> 
38
(
0.0049947289294
0.00499481064143
0.00499490919744
0.00499502726583
0.00499516460137
0.00499531800838
0.00499548253999
0.00499565330781
0.00499582699774
0.00499600248579
0.00499618059062
0.00499636302663
0.0049965514511
0.00499674701404
0.00499695024345
0.00499716131487
0.00499738012139
0.00499760580831
0.00499783633261
0.00499806879069
0.00499829956812
0.0049985230046
0.00499873079552
0.00499891479808
0.00499907138603
0.00499920394408
0.00499932061875
0.00499942902458
0.00499953212314
0.0049996269255
0.00499970897855
0.00499977595381
0.00499982894557
0.00499987144274
0.00499990617771
0.00499993675324
0.00499998297233
0.00499999256189
)
;
    }
    water_to_heater
    {
        type            calculated;
        value           nonuniform List<scalar> 
59
(
0.00499492004961
0.00499492961934
0.00499494227271
0.00499497676291
0.00499501906912
0.00499503210685
0.00499507753983
0.00499509129273
0.00499512944293
0.00499514346619
0.00499517264473
0.00499520782941
0.00499523467539
0.00499525038382
0.00499526003455
0.00499528023648
0.0049952956578
0.00499532927181
0.00499555950961
0.00499586161789
0.00499594873071
0.00499603028965
0.00499560761139
0.00499569098052
0.00499531632668
0.00499539595029
0.00499770407493
0.00499947314419
0.00499953050277
0.00499954396436
0.00499957370867
0.00499958537662
0.00499960554791
0.00499961678605
0.00499963239442
0.00499965332169
0.00499966464357
0.00499967607537
0.0049996861094
0.00499969959931
0.00499970759369
0.00499972577097
0.00499973067667
0.00499974927707
0.00499974794024
0.00499977329784
0.00499977041033
0.00499979579711
0.00499979140864
0.00499981680337
0.00499981091192
0.00499981973541
0.00499980637398
0.00499983182035
0.0049998251288
0.00499985103194
0.00499985802442
0.00499988765773
0.00499991583779
)
;
    }
    procBoundary0to1
    {
        type            processor;
        value           nonuniform List<scalar> 
41
(
0.00499490900241
0.00499490892762
0.00499490877928
0.00499490860896
0.00499490845976
0.00499490832104
0.00499490817534
0.00499490801177
0.00499490781822
0.00499490494914
0.00499489906865
0.00499488833358
0.00499487098964
0.00499484569679
0.00499481150094
0.00499476904273
0.0049947222021
0.00499467555131
0.004994628139
0.00499459348848
0.00499467045482
0.00499467040923
0.00499467005071
0.00499466764667
0.00499466270094
0.00499465728436
0.00499465342428
0.00499465209138
0.00499465319996
0.00499465522738
0.00499465705121
0.00499465834779
0.0049946591683
0.00499465959569
0.00499465970021
0.00499465938422
0.00499470521015
0.00499479224722
0.00499472584803
0.00499471146552
0.00499471146552
)
;
    }
}


// ************************************************************************* //
