/*--------------------------------*- C++ -*----------------------------------*\
| =========                 |                                                 |
| \\      /  F ield         | OpenFOAM: The Open Source CFD Toolbox           |
|  \\    /   O peration     | Version:  2312                                  |
|   \\  /    A nd           | Website:  www.openfoam.com                      |
|    \\/     M anipulation  |                                                 |
\*---------------------------------------------------------------------------*/
FoamFile
{
    version     2.0;
    format      ascii;
    arch        "LSB;label=32;scalar=64";
    class       volScalarField;
    location    "0.535/water";
    object      alpha.gas;
}
// * * * * * * * * * * * * * * * * * * * * * * * * * * * * * * * * * * * * * //

dimensions      [0 0 0 0 0 0 0];

internalField   nonuniform List<scalar> 
1504
(
0.678923176036
0.653534520878
0.656177363095
0.634225699049
0.578522303048
0.50106539127
0.415291645817
0.330749577998
0.280613142093
0.277466639979
0.277505473047
0.276842597465
0.277505473047
0.277123376231
0.312957913532
0.370021201541
0.365872772225
0.303191219564
0.179016233762
0.0551344212375
0.673080863358
0.636293574261
0.627681240447
0.588846159118
0.521403209001
0.438731995324
0.3535516743
0.287759322461
0.277509551978
0.277505473047
0.276804132089
0.277505473047
0.276563711457
0.280925199411
0.337030741238
0.373181700442
0.368862402148
0.320152722178
0.206994446832
0.0728058487972
0.678807261769
0.614378215147
0.591903749606
0.537888936539
0.459893074472
0.372963468733
0.297719987491
0.277524443398
0.277505473047
0.276706097998
0.277505473047
0.276319048269
0.277505473047
0.294546051429
0.354728095444
0.373437446086
0.374310462066
0.345258667322
0.245468882737
0.0976244863926
0.673080863358
0.582718184398
0.543602151406
0.477809034614
0.39568833132
0.314000364251
0.277651420659
0.277505473047
0.276658356244
0.277505473047
0.276073576013
0.277505473047
0.276274138085
0.311505536505
0.357949585787
0.372029178087
0.378003132671
0.367694836989
0.284687120541
0.128266669816
0.676357033922
0.534428083433
0.476056560056
0.404810781861
0.333094415822
0.280905667431
0.277505473047
0.276634038637
0.277505473047
0.275851498139
0.277505473047
0.275953622186
0.279217461285
0.318915011224
0.35267491965
0.367570372043
0.378103486942
0.380857553244
0.315586666924
0.162990686107
0.67249318821
0.467524429884
0.402218290561
0.338274238651
0.290235182574
0.277505473047
0.276599971666
0.277505473047
0.275777453697
0.277505473047
0.275767783035
0.277505473047
0.284508994752
0.315060369947
0.33826125436
0.360738510296
0.377730931828
0.384408534022
0.34151029486
0.203416190039
0.642571023056
0.391862332796
0.354471947945
0.317092335401
0.28267801981
0.276875964592
0.277505473047
0.275777453697
0.277505473047
0.275654127664
0.277505473047
0.276193163041
0.28533093432
0.299573388251
0.319219092064
0.3519656211
0.376286997258
0.384797257408
0.366734685346
0.248665610494
0.537800555845
0.352504333764
0.351879926159
0.324439616158
0.287484230235
0.277505473047
0.275945639161
0.277505473047
0.275685484843
0.27944490902
0.280381911043
0.27738392731
0.278675463907
0.280179988773
0.298257906952
0.336537908663
0.370352732855
0.384844929961
0.384854942676
0.292660207716
0.448883821514
0.376528565441
0.3897333335
0.368327846312
0.316292876702
0.284792609886
0.280636576288
0.284001204535
0.291302154892
0.29380248352
0.28172463797
0.271978903007
0.266994586905
0.266489440846
0.275969744949
0.308632176743
0.353179005748
0.382504452602
0.391717747079
0.336112371139
0.46863496544
0.494656476272
0.505973822531
0.479897008374
0.409556668467
0.355344629412
0.332328383049
0.323537277904
0.314279793919
0.295938583165
0.276783840635
0.263930136173
0.259750446419
0.259111828953
0.259681270087
0.273637099105
0.318675607285
0.370003334567
0.394222537225
0.391266896173
0.591050317013
0.646872152346
0.634199671046
0.616988829379
0.569368399639
0.515347066611
0.45925631796
0.402002135359
0.350554280031
0.307545964824
0.278201535988
0.261068996659
0.255399584175
0.254883798483
0.253781270299
0.253323188135
0.275720275878
0.341949911555
0.395735662222
0.397554528048
0.719902914324
0.712764296214
0.703758014564
0.699184460914
0.685743848122
0.661281675163
0.616451758436
0.536071842505
0.43870915609
0.357569133916
0.297007651084
0.262511804366
0.252302448316
0.252145189622
0.251999955256
0.250265215006
0.252774152213
0.304869822486
0.388707657322
0.397780597218
0.732154300131
0.726288498171
0.727539969681
0.727828752473
0.725332810935
0.717863238087
0.69969896213
0.64956271567
0.545802245432
0.436366025394
0.339954779514
0.271740243758
0.250644050665
0.250640273694
0.250994018479
0.250056572074
0.249706038913
0.27048389008
0.36568489603
0.397554528048
0.736271057104
0.730668580994
0.732623489826
0.731780436131
0.731929561432
0.730440683565
0.722997941439
0.694416430956
0.60865036582
0.493677359962
0.380779103478
0.286781134226
0.250092380317
0.250039645614
0.250273769991
0.249958026844
0.24941520713
0.251292776155
0.329547281091
0.397626633496
0.732682673008
0.732586037488
0.732154300131
0.733078599092
0.731780436131
0.732043890491
0.729902747961
0.707179216687
0.632640814508
0.519763274886
0.400263357229
0.295831049362
0.250132371461
0.249728726472
0.250003987922
0.249878573509
0.249286581713
0.249414776
0.295081931482
0.389816632418
0.736746453802
0.732682673008
0.733344041221
0.732144658573
0.732896733561
0.731780436131
0.731549697441
0.710452635338
0.639399135836
0.52682528132
0.403889243877
0.295980513544
0.250167287053
0.249411357093
0.249734561086
0.249759001802
0.249414776
0.249194337277
0.271170596482
0.370300230571
0.733103488263
0.732731417921
0.732337753113
0.732938247778
0.732049850636
0.732605528624
0.731442360419
0.710406172834
0.638328919003
0.524069063404
0.397989127502
0.288278298555
0.249757363614
0.24941520713
0.249332172061
0.249693703269
0.249280189355
0.249414776
0.256376245979
0.348668081877
0.736037622487
0.732631987285
0.732938247778
0.732108024883
0.73295985316
0.731569840972
0.731322243643
0.706666754313
0.627662240467
0.508115255713
0.37844592944
0.273309905743
0.24941520713
0.249139186437
0.249414776
0.24927040376
0.249414776
0.249064299073
0.249414776
0.336361223121
0.732631987285
0.732477570353
0.73211830017
0.732858272113
0.731569840972
0.731994202178
0.730960342153
0.694828161496
0.603344772537
0.478721420119
0.34973918919
0.259622564856
0.249211958312
0.249414776
0.248929429152
0.249414776
0.249116965727
0.249414776
0.249016136247
0.330087111927
0.735026138467
0.731611158832
0.732538617841
0.731569840972
0.731994202178
0.730960342153
0.724987482733
0.670486634811
0.566832601395
0.440082385901
0.31614019198
0.251503363626
0.249414776
0.248864387153
0.249414776
0.24885989271
0.249414776
0.248863308965
0.249414776
0.328554979901
0.732154300131
0.729119546911
0.731569840972
0.731974510638
0.730960342153
0.731010321157
0.706597792955
0.630569495753
0.518388076824
0.392272717073
0.28079129988
0.249414776
0.248965741481
0.249414776
0.248624013504
0.249414776
0.248843276935
0.249414776
0.24884296439
0.331175197433
0.732831723804
0.722753812666
0.731404870488
0.730960342153
0.731077712806
0.723323147523
0.670343786026
0.574961192053
0.457742588882
0.33530255543
0.255013793242
0.249137848743
0.249414776
0.248508275335
0.249414776
0.248588368511
0.249414776
0.248695867996
0.253343021578
0.336740596735
0.731619411025
0.709600971665
0.729746110465
0.730976022411
0.727665818651
0.694895092831
0.614322205242
0.506738580213
0.387659971287
0.279402223882
0.249268174424
0.249414776
0.248480813591
0.249414776
0.248277835393
0.249414776
0.248608578051
0.249414776
0.260316262195
0.34303632407
0.730753806901
0.687433506333
0.718089731133
0.72070034476
0.705708930558
0.644940691892
0.546345677379
0.432331557033
0.316583568563
0.250961901665
0.249414776
0.248527638941
0.249414776
0.248020602222
0.249414776
0.248314440534
0.249414776
0.248604182928
0.268080523849
0.34459134558
0.72320571363
0.657283165079
0.685452972369
0.686488990141
0.65873644884
0.582200832346
0.476171856145
0.360649572597
0.26460938955
0.249414960218
0.248571547356
0.249414776
0.247810023657
0.249414776
0.247943100114
0.249414776
0.248463653384
0.249291595963
0.271616530243
0.341760797489
0.713618039653
0.612480719292
0.634980339034
0.63069064263
0.594872820809
0.515340835327
0.410324204877
0.300975067364
0.24941520713
0.248882403471
0.249414960218
0.247716653215
0.249414776
0.247547793375
0.249414776
0.24814840828
0.249291595963
0.249029415144
0.269227412539
0.331511581227
0.700833681509
0.551994514471
0.573463372732
0.562859030134
0.523799351305
0.448193638943
0.350866481912
0.262008429259
0.249101665977
0.24941520713
0.24773697266
0.249414960218
0.247194324464
0.249414776
0.250087607333
0.261829957571
0.252457483963
0.242943632243
0.254804415327
0.312970525089
0.674540030844
0.492822145695
0.513445647249
0.49899633864
0.458127973412
0.385216518773
0.297998444533
0.249448276391
0.24941520713
0.247988708573
0.24941520713
0.24718822809
0.249414960218
0.255245193407
0.282622463221
0.27025406289
0.246551180938
0.227332200713
0.231339836283
0.286860700221
0.625307189186
0.473133427528
0.474702768853
0.466000385893
0.4188396383
0.337861319711
0.26132002249
0.249462889964
0.248279530989
0.24941520713
0.24718822809
0.24941520713
0.257269911279
0.307134155471
0.295307961466
0.267019658617
0.241255687389
0.217703449503
0.20973563742
0.255741699933
0.572771695486
0.473184684261
0.477016671199
0.471079922128
0.414401287456
0.323999448645
0.255537264065
0.248733007732
0.249462889964
0.24718822809
0.24941520713
0.273675473769
0.32958155713
0.328036349788
0.292713122805
0.265690213979
0.242390982522
0.217452044624
0.204024032377
0.22306726743
0.571201567917
0.51227551549
0.534066761621
0.520876737808
0.444593639508
0.344778227505
0.275715167795
0.257384569694
0.259071290666
0.283505258669
0.333731532501
0.387705301418
0.38570492245
0.334371343385
0.292925418482
0.270082471861
0.251062008269
0.221982941977
0.204039161834
0.204712996169
0.639991561034
0.623293422271
0.632303121282
0.617897713562
0.551489679421
0.452943760388
0.376607217548
0.345631946409
0.369140590027
0.440324301019
0.505522773851
0.506968410548
0.442347344752
0.360018356088
0.305915198992
0.282624421681
0.268521654911
0.235927839851
0.203966902219
0.204039161834
0.690546600487
0.685724826617
0.687625261419
0.684312946682
0.660032677125
0.604543794114
0.536370008657
0.496919177083
0.516859337032
0.56868809158
0.605612005593
0.596507796914
0.528087252236
0.432248584258
0.346960825102
0.30260168295
0.285568200491
0.256154131299
0.208771657754
0.203881353282
0.696571118047
0.690467706348
0.691853570859
0.690167321001
0.690590662637
0.672994470704
0.627263849916
0.581844403289
0.580320504752
0.602895954439
0.628734848995
0.633316475472
0.601392339855
0.521624857352
0.413177981131
0.332594504054
0.298513102054
0.27126620972
0.225251899008
0.204039161834
0.690704962546
0.691835726213
0.690489406726
0.691963392847
0.690167321001
0.68503951174
0.64753376878
0.59970616421
0.5905319038
0.608176029816
0.633580258858
0.63409065805
0.630698207208
0.576993698259
0.4716363896
0.367241287139
0.310302944377
0.279897158011
0.242508155882
0.205245845609
0.696478619818
0.690704962546
0.692040986799
0.690489406726
0.69109530374
0.685937167311
0.647618275534
0.599400335634
0.590004691743
0.607860305148
0.63379172528
0.633616514967
0.634035181232
0.595463776167
0.499866684684
0.39069632806
0.319260658539
0.283967204578
0.252125120842
0.211988404852
0.690923469124
0.691382612023
0.690546600487
0.691845420293
0.690489406726
0.681556018203
0.636075751605
0.587705710801
0.581163803082
0.601701332305
0.633613935535
0.634116369811
0.633616514967
0.596752079549
0.503673697634
0.395706973435
0.321103096518
0.284224519707
0.254529500629
0.218651245294
0.695416221674
0.690752844207
0.691546565513
0.690546600487
0.690605526149
0.663131184066
0.602239470106
1e-15
1e-15
1.02852722661e-15
1.0293558836e-15
1.02852722661e-15
1.02871621435e-15
1.02719482264e-15
1.01294206552e-15
1.00886628821e-15
1.00856711049e-15
1.00929542322e-15
1.0107136327e-15
1.01309618344e-15
1.01952443577e-15
1.04445309903e-15
1.02659448767e-15
1.6891542261e-15
0.00483308404829
3.96661294543e-05
1e-15
1e-15
1e-15
1.02882900223e-15
1.02852722661e-15
1.0289869547e-15
1.02852722661e-15
1.02205517397e-15
1.01142820379e-15
1.00948262729e-15
1.00944518036e-15
1.00996169076e-15
1.01122106816e-15
1.01352744524e-15
1.02022193698e-15
1.04575139139e-15
1.02647639436e-15
1.70493402062e-15
0.00765108966147
8.22246364108e-05
1e-15
1e-15
1e-15
1.02828834748e-15
1.02919019098e-15
1.02852722661e-15
1.02849443455e-15
1.01607585186e-15
1.01013513333e-15
1.00925953286e-15
1.00921662182e-15
1.00968785499e-15
1.01086857802e-15
1.01310069623e-15
1.02025482812e-15
1.04648272628e-15
1.02664860257e-15
1.85641118428e-15
0.0121783876825
0.000167921973784
1e-15
1e-15
1e-15
1.02100098995e-15
1.02852722661e-15
1.0286668929e-15
1.0223440152e-15
1.01146418463e-15
1.00866709488e-15
1.0080825262e-15
1.00803968568e-15
1.0084538049e-15
1.00950678512e-15
1.01159961251e-15
1.01945241249e-15
1.04704979293e-15
1.03335622418e-15
1.87388135765e-15
0.0193152475672
0.000354825719997
1e-15
1e-15
1e-15
1.01234773568e-15
1.02867140761e-15
1.02574739313e-15
1.01392461934e-15
1.00807723842e-15
1.00657432275e-15
1.00605349741e-15
1.0060379686e-15
1.00640387004e-15
1.00732494413e-15
1.00925069419e-15
1.01752305232e-15
1.04789007396e-15
1.04736154315e-15
1.87076300175e-15
0.0301681408442
0.000766270804882
2.21074058184e-07
1e-15
1e-15
1e-15
1.01768987313e-15
1.01524183621e-15
1.00771624313e-15
1.00494602367e-15
1.0039979127e-15
1.00366379771e-15
1.00369379228e-15
1.00399045255e-15
1.004703014e-15
1.00630800046e-15
1.01463504767e-15
1.04907992338e-15
1.06413320792e-15
1.87385681986e-15
0.0467011349197
0.00170806071205
3.54530922956e-06
1e-15
1e-15
1e-15
1.00682081509e-15
1.00658852003e-15
1.00350776581e-15
1.00220655083e-15
1.00174298133e-15
1.00161635541e-15
1.00166826969e-15
1.00186673061e-15
1.00231821897e-15
1.00341975495e-15
1.01201317269e-15
1.05124781269e-15
1.07920292887e-15
1.87076300175e-15
0.0729917745374
0.00416839044256
2.7301283259e-05
9.21380894168e-09
1e-15
1e-15
1e-15
1.00165134697e-15
1.00093614794e-15
1.00048030047e-15
1.00033803373e-15
1.00031381279e-15
1.00034415682e-15
1.00043435695e-15
1.00064943462e-15
1.00126721624e-15
1.01083052231e-15
1.05472949376e-15
1.09356602952e-15
1.87297375553e-15
0.115429242116
0.0111579886879
0.00016772452486
3.70543427111e-07
1e-15
1e-15
1e-15
1.00002049329e-15
1.00001337771e-15
1e-15
1e-15
1e-15
1e-15
1e-15
1.00000206337e-15
1.00011464661e-15
1.01124756979e-15
1.05945475213e-15
1.10960030236e-15
1.87076300175e-15
0.177432097622
0.0297249830245
0.000898398474719
5.14424914831e-06
1.63612296838e-11
1e-15
1e-15
1e-15
1e-15
1e-15
1e-15
1e-15
1e-15
1e-15
1e-15
1e-15
1.01386687792e-15
1.06522067703e-15
1.12845825299e-15
1.87171146866e-15
0.251624698838
0.0697810392541
0.00421028805012
5.24993341932e-05
1.86998887957e-08
1e-15
1e-15
1e-15
1e-15
1e-15
1e-15
1e-15
1e-15
1e-15
1e-15
1e-15
1.01841093584e-15
1.07201640012e-15
1.15082815637e-15
1.87076300175e-15
0.314483919266
0.132623045558
0.0160877795575
0.000404950154955
8.88237028375e-07
1e-15
1e-15
1e-15
1e-15
1e-15
1e-15
1e-15
1e-15
1e-15
1e-15
1e-15
1.02420946214e-15
1.08007121921e-15
1.17628264852e-15
1.86377650104e-15
0.357243383918
0.200675252091
0.0439058345159
0.00227170006727
1.64440458502e-05
1.03522080712e-15
1e-15
1e-15
1e-15
1e-15
1e-15
1e-15
1e-15
1e-15
1e-15
1e-15
1.03102580822e-15
1.08927557547e-15
1.2023033699e-15
1.85329156792e-15
0.382237350542
0.256347143952
0.085668528533
0.00873990676779
0.000159354017949
1.7502859051e-08
1e-15
1e-15
1e-15
1e-15
1e-15
1e-15
1e-15
1e-15
1e-15
1e-15
1.03859076122e-15
1.09931310825e-15
1.22631250564e-15
1.85129894327e-15
0.39595332147
0.297038204882
0.131108918722
0.0224516703211
0.000899310564464
2.03312673774e-06
1e-15
1e-15
1e-15
1e-15
1e-15
1e-15
1e-15
1e-15
1e-15
1.00541444766e-15
1.04681287154e-15
1.10976681821e-15
1.24816734217e-15
1.85543586773e-15
0.404001204278
0.327780795313
0.173652796138
0.042824751049
0.00306436956641
2.5940632788e-05
1.070490561e-15
1e-15
1e-15
1e-15
1e-15
1e-15
1e-15
1e-15
1.00102996588e-15
1.02281756728e-15
1.05597403803e-15
1.1202126597e-15
1.26787432647e-15
1.86481816173e-15
0.409755525808
0.352301859342
0.211436710864
0.0672885620922
0.00743606566465
0.000139776040857
1e-15
1e-15
1e-15
1e-15
1e-15
1.00057840423e-15
1.00392834162e-15
1.01017182255e-15
1.0207719414e-15
1.03301577814e-15
1.06571819588e-15
1.13035284987e-15
1.28500979597e-15
1.87847116611e-15
0.416680096004
0.373425113737
0.244514944652
0.093452791323
0.0144542240229
0.00048757057766
3.66970654126e-07
1e-15
1e-15
1.00694963904e-15
1.01952271152e-15
1.02176276121e-15
1.02301464915e-15
1.02530694268e-15
1.02925323903e-15
1.04212440296e-15
1.07513271222e-15
1.13991507952e-15
1.29958478065e-15
1.8973568295e-15
0.420392075632
0.390753176651
0.274211739011
0.120243612173
0.0242441272442
0.00131021914512
5.18986831089e-06
1.00255045726e-15
1e-15
1.00610880538e-15
1.02557183357e-15
1.02938439829e-15
1.02973937604e-15
1.03121692455e-15
1.03485194262e-15
1.04995209575e-15
1.08312550273e-15
1.14854867087e-15
1.31198725561e-15
1.9249621169e-15
0.420332220643
0.403140924129
0.30026271307
0.147110487643
0.0367552736362
0.00294632236179
2.99545084733e-05
1e-15
1e-15
1e-15
1.02358668063e-15
1.0324182249e-15
1.03364563467e-15
1.03495202969e-15
1.03925550012e-15
1.05570921082e-15
1.08871336684e-15
1.15545276577e-15
1.32294865808e-15
1.9669436898e-15
0.419474573209
0.410703051988
0.320952744262
0.172487611786
0.0516473061673
0.00586111892716
0.000120422505784
1e-15
1e-15
1.00095067094e-15
1.01238518113e-15
1.03173760199e-15
1.03547379568e-15
1.03662506944e-15
1.0419319655e-15
1.05872063201e-15
1.09133440476e-15
1.16032971164e-15
1.33418143522e-15
2.03312641103e-15
0.418486680235
0.413992744702
0.335704899944
0.195458617794
0.0687386859204
0.0106665267737
0.000402809671253
6.10905115398e-07
1e-15
1e-15
1.00025847896e-15
1.02367144659e-15
1.03439082578e-15
1.03616633917e-15
1.04228449981e-15
1.05869651449e-15
1.09108799297e-15
1.16332072684e-15
1.34880879146e-15
2.1135604461e-15
0.417169854701
0.414663062997
0.347695376972
0.218715027198
0.0892587358268
0.0183275138382
0.00121548912162
1.06913029468e-05
1e-15
1e-15
1.00107820531e-15
1.015915695e-15
1.03064574844e-15
1.03307214186e-15
1.03957784428e-15
1.0550439138e-15
1.08770194989e-15
1.1645267687e-15
1.368628669e-15
2.16246604809e-15
0.414373838092
0.415491167005
0.362178868989
0.247015746557
0.116040254544
0.030616028354
0.00336061467682
9.09287089977e-05
8.83174424469e-08
1e-15
1e-15
1e-15
1.01677597289e-15
1.02679632975e-15
1.03305574366e-15
1.04718900249e-15
1.08113332871e-15
1.16406061834e-15
1.39154913808e-15
2.18210956985e-15
0.409484756253
0.420666871391
0.382789003807
0.283447557403
0.152587112907
0.0505135174221
0.00836604048344
0.000522287821472
7.27995992327e-06
1e-15
1e-15
1e-15
1.00531337654e-15
1.01927908779e-15
1.02352480358e-15
1.03605867282e-15
1.07125186733e-15
1.16080423454e-15
1.41043887441e-15
2.19495551812e-15
0.404044749893
0.424492362953
0.411004182044
0.330600954545
0.201338060359
0.0810558536126
0.0186034754481
0.0021778086712
9.88174541697e-05
6.73197195649e-07
1e-15
1e-15
1.00105583237e-15
1.01214412089e-15
1.01326962655e-15
1.02032029678e-15
1.05664492006e-15
1.15221629038e-15
1.40847019158e-15
2.21523130871e-15
0.398360483896
0.424465129162
0.425125613366
0.371479261488
0.254472338586
0.121439007119
0.0363517018874
0.00653234546597
0.000644118529711
2.06485142981e-05
2.62554707509e-08
1e-15
1e-15
1e-15
1.00101222868e-15
1.00488439068e-15
1.03086080359e-15
1.13258633808e-15
1.38876176136e-15
2.2642036619e-15
0.390847524203
0.424347983897
0.425466930906
0.396361259277
0.297831416828
0.163192816095
0.0604200815824
0.014774257148
0.00239077354313
0.000178881124342
1.98324731221e-06
1e-15
1e-15
1e-15
1e-15
1e-15
1.00251864358e-15
1.09627023512e-15
1.32571025212e-15
2.39588654167e-15
0.378646992508
0.423975211801
0.425502523336
0.415258830545
0.32871954772
0.197476665202
0.085643772802
0.0263010270915
0.00579652312044
0.000750843169117
2.61630000932e-05
1.20835809331e-08
1e-15
1e-15
1e-15
1e-15
1e-15
1.03119950896e-15
1.20011898972e-15
2.5653256314e-15
0.357409192885
0.421962326451
0.425622274906
0.425454937784
0.349657000358
0.223295951039
0.107864620042
0.0388468420123
0.0104553559825
0.00188962690362
0.000129122803106
4.18159864385e-07
1e-15
1e-15
1e-15
1.0074298848e-15
1e-15
1.016300765e-15
1.016022581e-15
2.72750285767e-15
0.32233047223
0.41327213436
0.425657755286
0.425812972491
0.36338554571
0.243604733049
0.126312837282
0.0503863112624
0.015325842693
0.00330733495103
0.000333013047091
4.01264268765e-06
4.8155130202e-13
7.22377012644e-12
1.80778545348e-11
1.97104115132e-11
1.14227939786e-12
9.31063505923e-15
1.96289903103e-15
3.10665008095e-14
0.274141480531
0.38852290419
0.425693779548
0.425810142737
0.375267404253
0.262423051103
0.143410585163
0.0612732391629
0.0200679548224
0.00473302555631
0.000598543433366
1.64387647255e-05
3.76916474715e-08
3.12531378483e-07
6.16181865584e-07
6.6098793691e-07
6.3044684195e-08
5.30309906971e-10
1.47417279924e-12
9.54512100868e-12
0.222714830411
0.340885935826
0.423063796078
0.425955949522
0.389276354224
0.285340163434
0.16541172234
0.0761692766594
0.0270946752623
0.0070046271996
0.00108746401458
6.08452594138e-05
1.15346346697e-05
0.000142126147626
0.000467252422983
0.000654265986688
0.000135649810296
4.24016721809e-06
2.01831867777e-08
3.79836206913e-10
0.204039161834
0.279603272749
0.404719845643
0.425981905851
0.409818388293
0.31969684032
0.20184126854
0.104140085288
0.0430120733503
0.013493781397
0.00288646038792
0.000401958513763
0.000252703266034
0.00348849991926
0.0231659936088
0.04524621914
0.0185390505432
0.00199627411454
4.84883225466e-05
8.15083978007e-08
0.203830811874
0.226523427273
0.351694915176
0.426127703424
0.427572307776
0.366697988833
0.259196134995
0.155364368316
0.0797326169583
0.0343955404974
0.0122280851082
0.00384330756062
0.00262999860344
0.0175704193466
0.180305801017
0.368491804216
0.248333031951
0.081705919358
0.00933891703667
4.54267679543e-05
0.204039161834
0.203937025254
0.279732316199
0.400129883355
0.427765710796
0.409131425463
0.338212176124
0.240013268486
0.151778778161
0.0888700286981
0.0502461770449
0.0254809160801
0.0262612980806
0.116935049515
0.460362980795
0.491321960036
0.489650703564
0.452310281579
0.181449782114
0.00226584842237
0.203863353872
0.204039161834
0.226632133423
0.327785794279
0.415344197303
0.453010907976
0.432533248372
0.374475624624
0.298650835946
0.229351409755
0.174696326562
0.139490108704
0.186949223554
0.415373130479
0.491236896803
0.489031913987
0.491317798826
0.48979056212
0.459548251516
0.0182299410189
0.204039161834
0.203800497077
0.204039161834
0.254209155033
0.37772173065
0.462929532311
0.471965253182
0.463031227413
0.446170556236
0.426020807684
0.412356925707
0.433335907643
0.478379066239
0.488692394839
0.488305464757
0.491073938732
0.489051008833
0.49070732685
0.489444419113
0.0475122201041
)
;

boundaryField
{
    emptyPatch
    {
        type            empty;
    }
    minY
    {
        type            fixedValue;
        value           nonuniform List<scalar> 0();
    }
    maxY
    {
        type            inletOutlet;
        phi             phi.gas;
        inletValue      nonuniform List<scalar> 0();
        value           nonuniform List<scalar> 0();
    }
    maxX
    {
        type            zeroGradient;
    }
    water_to_heater
    {
        type            zeroGradient;
    }
    procBoundary3to1
    {
        type            processor;
        value           nonuniform List<scalar> 
41
(
0.556221035073
0.556043851174
0.585036964893
0.628555638212
0.633616514967
0.632492700779
0.589589340223
0.496329003676
0.390513214385
0.317195845187
0.281281590674
0.253459129588
0.220251517492
0.690752844207
0.68272596308
0.690546600487
0.69063368834
0.680504961439
0.624547022344
0.556221035073
0.550873011364
0.203978404275
0.204039161834
0.203677995287
0.219514864243
0.337335846864
0.454152310654
0.473539795568
0.47737521467
0.478563194126
0.477712664551
0.478759705783
0.478089951469
0.478506286072
0.449576552391
0.389816967458
0.399435513392
0.49024788783
0.489051008833
0.490538019508
0.055347351535
)
;
    }
    procBoundary3to2
    {
        type            processor;
        value           nonuniform List<scalar> 
41
(
0.673295358569
0.667544451834
0.671726392858
0.665200377041
0.626609973325
0.555692976597
0.470395702507
0.380265580027
0.301983267982
0.277738630052
0.277329971616
0.277505473047
0.277126171626
0.277738630052
0.298993415875
0.363637533296
0.364392480426
0.294314547733
0.16033900131
0.042505554169
1e-15
1.02163531885e-15
1.02902914724e-15
1.02852722661e-15
1.02910202049e-15
1.02852722661e-15
1.02854245529e-15
1.01455869208e-15
1.00716750387e-15
1.00365187134e-15
1.00516851319e-15
1.00805897283e-15
1.01173440964e-15
1.01846608306e-15
1.04265470495e-15
1.02746178609e-15
1.6713512844e-15
0.00299556974521
1.6852545497e-05
1e-15
1e-15
)
;
    }
}


// ************************************************************************* //
