/*--------------------------------*- C++ -*----------------------------------*\
| =========                 |                                                 |
| \\      /  F ield         | OpenFOAM: The Open Source CFD Toolbox           |
|  \\    /   O peration     | Version:  2312                                  |
|   \\  /    A nd           | Website:  www.openfoam.com                      |
|    \\/     M anipulation  |                                                 |
\*---------------------------------------------------------------------------*/
FoamFile
{
    version     2.0;
    format      ascii;
    arch        "LSB;label=32;scalar=64";
    class       volVectorField;
    location    "95";
    object      U.water;
}
// * * * * * * * * * * * * * * * * * * * * * * * * * * * * * * * * * * * * * //

dimensions      [0 1 -1 0 0 0 0];

internalField   nonuniform List<vector> 
1875
(
(0.0215135 -0.0870402 0)
(0.0496783 -0.0956897 0)
(0.088352 -0.0995278 0)
(0.125632 -0.0987464 0)
(0.161846 -0.0953551 0)
(0.195007 -0.0905189 0)
(0.224779 -0.0846874 0)
(0.250514 -0.0785518 0)
(0.271759 -0.0723266 0)
(0.288069 -0.0659194 0)
(0.299109 -0.0589902 0)
(0.304543 -0.0515573 0)
(0.303797 -0.0438462 0)
(0.297114 -0.0358932 0)
(0.284379 -0.0272308 0)
(0.265506 -0.0181832 0)
(0.240958 -0.00961459 0)
(0.211567 -0.00312909 0)
(0.178864 -0.000144844 0)
(0.144986 -0.00144093 0)
(0.112845 -0.0071718 0)
(0.0845066 -0.0154764 0)
(0.0608549 -0.0230305 0)
(0.0373625 -0.0255082 0)
(0.0170969 -0.0227988 0)
(0.0248055 -0.093155 0)
(0.0567566 -0.0963734 0)
(0.0893024 -0.0958678 0)
(0.118139 -0.0908412 0)
(0.145109 -0.0822041 0)
(0.169695 -0.0710614 0)
(0.191638 -0.0580867 0)
(0.210577 -0.0438134 0)
(0.226162 -0.0285626 0)
(0.238195 -0.0124561 0)
(0.246485 0.00430082 0)
(0.250812 0.0216282 0)
(0.250989 0.0391928 0)
(0.246791 0.0568072 0)
(0.238044 0.0737359 0)
(0.224131 0.0891194 0)
(0.205349 0.102111 0)
(0.182575 0.112031 0)
(0.157067 0.117638 0)
(0.130099 0.11818 0)
(0.102894 0.114372 0)
(0.0769385 0.108996 0)
(0.0531517 0.105773 0)
(0.0292397 0.105214 0)
(0.0122428 0.102351 0)
(0.0185122 -0.196309 0)
(0.0462959 -0.191736 0)
(0.0713446 -0.183076 0)
(0.092598 -0.171759 0)
(0.111802 -0.158044 0)
(0.128944 -0.141947 0)
(0.143719 -0.123614 0)
(0.155854 -0.103204 0)
(0.165238 -0.0810972 0)
(0.17179 -0.0577763 0)
(0.175508 -0.0334834 0)
(0.176395 -0.00838974 0)
(0.17444 0.0172777 0)
(0.169457 0.0431448 0)
(0.161471 0.0686296 0)
(0.15063 0.0925195 0)
(0.136775 0.113105 0)
(0.119914 0.128797 0)
(0.100955 0.136974 0)
(0.0812847 0.137105 0)
(0.061861 0.130064 0)
(0.0438777 0.119416 0)
(0.0286166 0.110506 0)
(0.0160712 0.104778 0)
(0.00749842 0.100711 0)
(0.00601677 -0.223616 0)
(0.0258682 -0.215255 0)
(0.0395251 -0.202135 0)
(0.052436 -0.186903 0)
(0.0641586 -0.169058 0)
(0.0741894 -0.148232 0)
(0.082046 -0.124577 0)
(0.087405 -0.0985766 0)
(0.0902017 -0.0708896 0)
(0.0906413 -0.0420394 0)
(0.0889833 -0.012307 0)
(0.0854143 0.0181682 0)
(0.0800613 0.0491946 0)
(0.0730976 0.0801421 0)
(0.0648499 0.110215 0)
(0.0558293 0.138159 0)
(0.0464735 0.161788 0)
(0.0374043 0.17871 0)
(0.0289862 0.186545 0)
(0.0212599 0.185251 0)
(0.0148694 0.175882 0)
(0.00975276 0.161606 0)
(0.00537881 0.147024 0)
(0.00298796 0.135855 0)
(0.00101658 0.128411 0)
(-0.0017469 -0.244463 0)
(0.00769925 -0.237407 0)
(0.00965428 -0.22534 0)
(0.0124155 -0.209601 0)
(0.0143892 -0.189552 0)
(0.0146408 -0.165361 0)
(0.0128716 -0.137607 0)
(0.00917749 -0.107149 0)
(0.00385296 -0.075122 0)
(-0.00266428 -0.0424263 0)
(-0.00996857 -0.00937349 0)
(-0.0177304 0.0239449 0)
(-0.0255288 0.0573042 0)
(-0.0328675 0.0899513 0)
(-0.0391467 0.120702 0)
(-0.0435343 0.147836 0)
(-0.0452437 0.168759 0)
(-0.0440755 0.180655 0)
(-0.0403831 0.183525 0)
(-0.0344228 0.177553 0)
(-0.0270069 0.164556 0)
(-0.0190642 0.148627 0)
(-0.0112245 0.13454 0)
(-0.00448837 0.123808 0)
(-0.000648312 0.117678 0)
(-0.0105338 -0.241346 0)
(-0.00826979 -0.232311 0)
(-0.0172696 -0.218171 0)
(-0.0250531 -0.200156 0)
(-0.0344132 -0.177173 0)
(-0.0460818 -0.149651 0)
(-0.0594463 -0.118766 0)
(-0.0735973 -0.0858564 0)
(-0.0876462 -0.0522098 0)
(-0.100839 -0.01878 0)
(-0.112585 0.0141223 0)
(-0.122303 0.0463629 0)
(-0.129349 0.0773696 0)
(-0.133057 0.106023 0)
(-0.132823 0.13077 0)
(-0.128256 0.149883 0)
(-0.119342 0.161891 0)
(-0.106848 0.166288 0)
(-0.0915477 0.162797 0)
(-0.0743567 0.152552 0)
(-0.0567612 0.137957 0)
(-0.0402075 0.122939 0)
(-0.0255838 0.111736 0)
(-0.012524 0.106046 0)
(-0.00505284 0.107519 0)
(-0.0192794 -0.218316 0)
(-0.021952 -0.209021 0)
(-0.0412746 -0.194291 0)
(-0.0596167 -0.174838 0)
(-0.0806056 -0.149251 0)
(-0.103847 -0.119261 0)
(-0.127366 -0.0871661 0)
(-0.149505 -0.0548164 0)
(-0.168805 -0.0235676 0)
(-0.184221 0.00580885 0)
(-0.19516 0.0330731 0)
(-0.201316 0.0579793 0)
(-0.202476 0.0801688 0)
(-0.198454 0.0988034 0)
(-0.189364 0.112977 0)
(-0.175554 0.122017 0)
(-0.157776 0.125428 0)
(-0.13691 0.122995 0)
(-0.114061 0.115291 0)
(-0.0907766 0.104151 0)
(-0.0686575 0.0919543 0)
(-0.0489105 0.0816238 0)
(-0.0321519 0.0755978 0)
(-0.0170681 0.0751329 0)
(-0.00914792 0.0807589 0)
(-0.0243418 -0.17682 0)
(-0.0311828 -0.166825 0)
(-0.058378 -0.150222 0)
(-0.0854208 -0.128127 0)
(-0.115197 -0.0997708 0)
(-0.145304 -0.0689583 0)
(-0.17316 -0.0391651 0)
(-0.196872 -0.0124556 0)
(-0.215175 0.0103776 0)
(-0.227702 0.0293017 0)
(-0.234355 0.0446496 0)
(-0.235274 0.0578143 0)
(-0.230418 0.0686466 0)
(-0.220017 0.0762834 0)
(-0.204694 0.0802269 0)
(-0.185409 0.0803924 0)
(-0.163087 0.0769887 0)
(-0.138803 0.070521 0)
(-0.114024 0.0620714 0)
(-0.0901637 0.0532513 0)
(-0.0683458 0.0457304 0)
(-0.0490614 0.0412086 0)
(-0.0326092 0.0410625 0)
(-0.0175631 0.0462902 0)
(-0.0098842 0.0555704 0)
(-0.0263442 -0.12633 0)
(-0.0363048 -0.114392 0)
(-0.0678191 -0.0948427 0)
(-0.0985945 -0.0700103 0)
(-0.130861 -0.0409828 0)
(-0.161073 -0.0131061 0)
(-0.187279 0.00997718 0)
(-0.20795 0.0269 0)
(-0.222546 0.0382535 0)
(-0.230847 0.0453577 0)
(-0.233364 0.0492786 0)
(-0.230584 0.0510745 0)
(-0.221882 0.0488435 0)
(-0.208661 0.0447805 0)
(-0.191788 0.0395141 0)
(-0.171958 0.0331312 0)
(-0.150252 0.0258149 0)
(-0.127839 0.018188 0)
(-0.105798 0.0111236 0)
(-0.0849293 0.00558963 0)
(-0.0657149 0.00249869 0)
(-0.0481929 0.00275694 0)
(-0.0326457 0.00719642 0)
(-0.0177866 0.0166973 0)
(-0.0102929 0.0280538 0)
(-0.026338 -0.0725156 0)
(-0.0382627 -0.0571837 0)
(-0.0701789 -0.0345753 0)
(-0.099501 -0.00844102 0)
(-0.128937 0.0186062 0)
(-0.155237 0.0409436 0)
(-0.177401 0.0554918 0)
(-0.194334 0.0617062 0)
(-0.20565 0.0610625 0)
(-0.211112 0.0553411 0)
(-0.210883 0.0468119 0)
(-0.205677 0.0366465 0)
(-0.196614 0.0256227 0)
(-0.184456 0.0144165 0)
(-0.169733 0.00352692 0)
(-0.153306 -0.00681146 0)
(-0.135913 -0.0161652 0)
(-0.118214 -0.0241172 0)
(-0.100676 -0.0302315 0)
(-0.0835523 -0.0340131 0)
(-0.0669588 -0.0348965 0)
(-0.0508184 -0.0322023 0)
(-0.035526 -0.0251327 0)
(-0.0200738 -0.0125705 0)
(-0.0114175 0.00133985 0)
(-0.0254521 -0.0195121 0)
(-0.0363803 -0.000158451 0)
(-0.0647381 0.0227626 0)
(-0.0899261 0.0473188 0)
(-0.114391 0.0705297 0)
(-0.135854 0.0869542 0)
(-0.153728 0.0937955 0)
(-0.167179 0.090734 0)
(-0.175747 0.0795955 0)
(-0.179478 0.0632749 0)
(-0.179003 0.0447113 0)
(-0.174994 0.0260182 0)
(-0.168206 0.00834885 0)
(-0.159278 -0.00801055 0)
(-0.148767 -0.0228456 0)
(-0.137148 -0.035918 0)
(-0.124755 -0.0471021 0)
(-0.111787 -0.0562482 0)
(-0.0983419 -0.0631337 0)
(-0.084437 -0.067423 0)
(-0.0700754 -0.068644 0)
(-0.0551528 -0.0661534 0)
(-0.0400887 -0.0590982 0)
(-0.0237107 -0.0462593 0)
(-0.0135801 -0.0326553 0)
(-0.02323 0.0292228 0)
(-0.03106 0.0500363 0)
(-0.0537302 0.0728033 0)
(-0.074168 0.0944367 0)
(-0.0934795 0.11324 0)
(-0.110308 0.12411 0)
(-0.124198 0.124318 0)
(-0.134515 0.113558 0)
(-0.141001 0.0941882 0)
(-0.14407 0.0702643 0)
(-0.144413 0.0451695 0)
(-0.142559 0.0209696 0)
(-0.13891 -0.00137742 0)
(-0.133792 -0.0215352 0)
(-0.127486 -0.0394345 0)
(-0.12015 -0.0551091 0)
(-0.111867 -0.0685821 0)
(-0.102679 -0.0798111 0)
(-0.0926044 -0.0886673 0)
(-0.0816334 -0.094912 0)
(-0.0697436 -0.0981674 0)
(-0.0567679 -0.0978651 0)
(-0.042982 -0.093192 0)
(-0.0266676 -0.0827856 0)
(-0.0151857 -0.0712604 0)
(-0.018908 0.0706399 0)
(-0.0240485 0.0915548 0)
(-0.0407008 0.113103 0)
(-0.0553761 0.131516 0)
(-0.0693888 0.146186 0)
(-0.0814659 0.152535 0)
(-0.091461 0.147942 0)
(-0.0989055 0.131824 0)
(-0.103885 0.107227 0)
(-0.10698 0.0785745 0)
(-0.108588 0.0492392 0)
(-0.108946 0.0212292 0)
(-0.108152 -0.0045534 0)
(-0.106248 -0.027843 0)
(-0.103255 -0.0486403 0)
(-0.0991865 -0.0670207 0)
(-0.0940704 -0.083037 0)
(-0.0879458 -0.0966913 0)
(-0.0808554 -0.107924 0)
(-0.072818 -0.116615 0)
(-0.0638319 -0.122571 0)
(-0.0537869 -0.125519 0)
(-0.0427441 -0.125046 0)
(-0.0283836 -0.120102 0)
(-0.0153426 -0.113549 0)
(-0.0120797 0.100324 0)
(-0.0149809 0.120565 0)
(-0.0250047 0.140743 0)
(-0.0337561 0.156877 0)
(-0.0422886 0.168707 0)
(-0.0495435 0.171982 0)
(-0.055801 0.164385 0)
(-0.0608746 0.145354 0)
(-0.0650269 0.118369 0)
(-0.0685251 0.0875059 0)
(-0.0714283 0.0558971 0)
(-0.0736765 0.0254511 0)
(-0.0751383 -0.0029251 0)
(-0.0756893 -0.028888 0)
(-0.0752428 -0.0523557 0)
(-0.073758 -0.0733386 0)
(-0.0712325 -0.0918541 0)
(-0.0676903 -0.107895 0)
(-0.0631713 -0.121433 0)
(-0.0577104 -0.132432 0)
(-0.051392 -0.140847 0)
(-0.0442711 -0.146762 0)
(-0.0363835 -0.150634 0)
(-0.0257635 -0.152438 0)
(-0.0118626 -0.152682 0)
(-0.00467867 0.115511 0)
(-0.0052763 0.13532 0)
(-0.00862753 0.154811 0)
(-0.0115647 0.169785 0)
(-0.0144394 0.180042 0)
(-0.0169145 0.182202 0)
(-0.0194253 0.174204 0)
(-0.0222312 0.155285 0)
(-0.0254976 0.128391 0)
(-0.0291127 0.0971874 0)
(-0.0328649 0.0646463 0)
(-0.0364708 0.032718 0)
(-0.0396552 0.00244294 0)
(-0.0421973 -0.0256917 0)
(-0.0439378 -0.0514857 0)
(-0.0447727 -0.0748593 0)
(-0.0446392 -0.0957656 0)
(-0.0435039 -0.114151 0)
(-0.0413583 -0.129947 0)
(-0.0382237 -0.143078 0)
(-0.0341661 -0.153485 0)
(-0.0292533 -0.161507 0)
(-0.0237607 -0.168187 0)
(-0.0173514 -0.174927 0)
(-0.00602214 -0.180496 0)
(0.00112282 0.116283 0)
(0.00314145 0.136071 0)
(0.00618184 0.155332 0)
(0.00876304 0.170055 0)
(0.0112391 0.180239 0)
(0.0134707 0.183102 0)
(0.0148864 0.17683 0)
(0.0149261 0.160322 0)
(0.0133154 0.135711 0)
(0.0103649 0.106133 0)
(0.00646391 0.0743154 0)
(0.00205571 0.0422285 0)
(-0.00245664 0.0110728 0)
(-0.00674288 -0.0184779 0)
(-0.0105472 -0.046056 0)
(-0.0136793 -0.0714506 0)
(-0.0160018 -0.0945189 0)
(-0.0174161 -0.115135 0)
(-0.0178525 -0.133162 0)
(-0.0172898 -0.148454 0)
(-0.0157273 -0.160904 0)
(-0.0131361 -0.170679 0)
(-0.00993806 -0.178626 0)
(-0.00738359 -0.187006 0)
(-0.000904604 -0.194763 0)
(0.00527607 0.106081 0)
(0.00997087 0.12465 0)
(0.018736 0.143573 0)
(0.026057 0.158675 0)
(0.0332149 0.169585 0)
(0.039792 0.174321 0)
(0.0451761 0.171189 0)
(0.0485159 0.159294 0)
(0.0493292 0.139136 0)
(0.0477759 0.113187 0)
(0.0443754 0.0838643 0)
(0.039711 0.0531259 0)
(0.0343069 0.0223308 0)
(0.0285979 -0.00764247 0)
(0.0229346 -0.0362329 0)
(0.0175937 -0.0630661 0)
(0.012789 -0.0878675 0)
(0.00868095 -0.110406 0)
(0.00538963 -0.130447 0)
(0.00299384 -0.147743 0)
(0.0014989 -0.16209 0)
(0.000925132 -0.173445 0)
(0.000984736 -0.182037 0)
(-6.20538e-05 -0.190621 0)
(0.00243337 -0.199355 0)
(0.00711154 0.0867401 0)
(0.0140532 0.102986 0)
(0.0268828 0.121841 0)
(0.0383395 0.137745 0)
(0.0494395 0.149771 0)
(0.0597853 0.156808 0)
(0.0687688 0.157541 0)
(0.075613 0.15093 0)
(0.0795658 0.136866 0)
(0.0803387 0.116455 0)
(0.0782915 0.0915203 0)
(0.0740557 0.0638894 0)
(0.0682912 0.0350106 0)
(0.0615727 0.00592822 0)
(0.0543719 -0.0226004 0)
(0.0470651 -0.0500127 0)
(0.0399454 -0.0758648 0)
(0.0332314 -0.0997762 0)
(0.0270816 -0.12138 0)
(0.0216172 -0.140294 0)
(0.0168878 -0.156156 0)
(0.0128826 -0.168757 0)
(0.00960794 -0.17797 0)
(0.00541834 -0.186641 0)
(0.00631419 -0.19635 0)
(0.00497625 0.0626601 0)
(0.0136804 0.0752453 0)
(0.0291846 0.0923114 0)
(0.0443873 0.108577 0)
(0.0588959 0.121886 0)
(0.0723656 0.131364 0)
(0.0843861 0.13607 0)
(0.0942612 0.134995 0)
(0.10131 0.127732 0)
(0.105 0.114376 0)
(0.105227 0.0957206 0)
(0.102351 0.0730787 0)
(0.0969706 0.0478197 0)
(0.0898018 0.0211109 0)
(0.0815082 -0.0061132 0)
(0.0726175 -0.0330857 0)
(0.0635373 -0.0591596 0)
(0.054563 -0.0837636 0)
(0.0458961 -0.106362 0)
(0.0376809 -0.126422 0)
(0.030012 -0.143426 0)
(0.0229401 -0.156998 0)
(0.0167067 -0.166788 0)
(0.00974987 -0.175529 0)
(0.00967143 -0.185245 0)
(0.00694863 0.0389828 0)
(0.015965 0.0446371 0)
(0.0320752 0.0576518 0)
(0.0490669 0.0734332 0)
(0.0654179 0.0882108 0)
(0.0804939 0.100399 0)
(0.094052 0.109079 0)
(0.105588 0.113365 0)
(0.114556 0.112594 0)
(0.120459 0.106488 0)
(0.122918 0.0951136 0)
(0.121906 0.0791571 0)
(0.117721 0.059375 0)
(0.110938 0.0366227 0)
(0.102274 0.0120105 0)
(0.0924199 -0.0134662 0)
(0.0819397 -0.0389153 0)
(0.07126 -0.0635293 0)
(0.0606687 -0.0865603 0)
(0.0503549 -0.107304 0)
(0.0404287 -0.125091 0)
(0.030984 -0.13945 0)
(0.0224265 -0.149859 0)
(0.0131634 -0.158875 0)
(0.0119364 -0.168498 0)
(0.0120437 0.0101168 0)
(0.0192304 0.01261 0)
(0.0344273 0.0224744 0)
(0.0509704 0.0373161 0)
(0.0676581 0.0533624 0)
(0.083167 0.0681675 0)
(0.0971214 0.0805126 0)
(0.109187 0.0895699 0)
(0.118926 0.0946324 0)
(0.125959 0.0952729 0)
(0.129852 0.0909468 0)
(0.130416 0.0819492 0)
(0.127827 0.0685185 0)
(0.122362 0.0510129 0)
(0.114424 0.0302467 0)
(0.10464 0.00732117 0)
(0.093676 -0.0166634 0)
(0.0821089 -0.0406389 0)
(0.0703704 -0.0636016 0)
(0.0587553 -0.0846298 0)
(0.0474286 -0.102878 0)
(0.0364906 -0.117783 0)
(0.0264155 -0.128675 0)
(0.0154866 -0.13784 0)
(0.0132907 -0.147311 0)
(0.011889 -0.0169749 0)
(0.0182068 -0.0162155 0)
(0.0316384 -0.00917392 0)
(0.0463586 0.00369832 0)
(0.0622006 0.0198459 0)
(0.0774884 0.0366265 0)
(0.0913887 0.0522274 0)
(0.103468 0.065552 0)
(0.113397 0.0757817 0)
(0.120912 0.0823854 0)
(0.125966 0.0850368 0)
(0.127917 0.082496 0)
(0.126914 0.075027 0)
(0.123112 0.0628764 0)
(0.116722 0.0467638 0)
(0.108098 0.0273524 0)
(0.0977862 0.00570581 0)
(0.0864049 -0.0169481 0)
(0.0744978 -0.0393527 0)
(0.0624885 -0.0603331 0)
(0.0506548 -0.0788189 0)
(0.0391291 -0.0941265 0)
(0.0284041 -0.105422 0)
(0.0165981 -0.114854 0)
(0.0137493 -0.124575 0)
(0.010217 -0.0419586 0)
(0.0158953 -0.0421062 0)
(0.0267706 -0.0366876 0)
(0.0384993 -0.0257672 0)
(0.0518025 -0.0105167 0)
(0.0654895 0.00717992 0)
(0.0784714 0.0253183 0)
(0.0900033 0.042325 0)
(0.0996845 0.0570269 0)
(0.107208 0.06853 0)
(0.112505 0.0760603 0)
(0.115664 0.0792761 0)
(0.116198 0.0777396 0)
(0.114128 0.0714497 0)
(0.109468 0.0601865 0)
(0.102631 0.0448659 0)
(0.09392 0.0262743 0)
(0.0837884 0.0056303 0)
(0.0727531 -0.0156578 0)
(0.0612865 -0.0361822 0)
(0.0497762 -0.0546181 0)
(0.0384399 -0.0700765 0)
(0.0277693 -0.0814913 0)
(0.0162435 -0.0909393 0)
(0.0132971 -0.101025 0)
(0.00798075 -0.0632374 0)
(0.0131405 -0.0632181 0)
(0.0213639 -0.0583228 0)
(0.0298416 -0.04876 0)
(0.0396008 -0.0348736 0)
(0.0503388 -0.0175194 0)
(0.0612488 0.00178354 0)
(0.0714439 0.0213153 0)
(0.0803053 0.0395266 0)
(0.0874663 0.0551338 0)
(0.0927079 0.067105 0)
(0.0959998 0.0749289 0)
(0.0973719 0.0782638 0)
(0.096777 0.0767058 0)
(0.0941534 0.0701673 0)
(0.089448 0.0586893 0)
(0.0829661 0.0433803 0)
(0.0749249 0.0252577 0)
(0.0656975 0.00568201 0)
(0.0556977 -0.0138506 0)
(0.0453467 -0.031846 0)
(0.034971 -0.0472139 0)
(0.0249483 -0.0587937 0)
(0.0145652 -0.0687723 0)
(0.0120824 -0.0791202 0)
(0.00560327 -0.0799508 0)
(0.0105708 -0.0790758 0)
(0.0160679 -0.0737831 0)
(0.021491 -0.064879 0)
(0.0277916 -0.0522272 0)
(0.0351268 -0.0359232 0)
(0.0431782 -0.0167506 0)
(0.0512698 0.00388571 0)
(0.0587144 0.0243218 0)
(0.0650212 0.0429586 0)
(0.0699101 0.058476 0)
(0.0732536 0.0699467 0)
(0.0750835 0.0767127 0)
(0.0754485 0.0785092 0)
(0.0743922 0.075595 0)
(0.0717572 0.0678552 0)
(0.0675666 0.0557895 0)
(0.0619331 0.0404518 0)
(0.0550172 0.0230582 0)
(0.047114 0.0050491 0)
(0.0385917 -0.0120345 0)
(0.0298377 -0.0269196 0)
(0.0211726 -0.0384261 0)
(0.0123696 -0.0490478 0)
(0.010222 -0.0593316 0)
(0.00332595 -0.0927666 0)
(0.00873815 -0.0899499 0)
(0.0110473 -0.0836158 0)
(0.0133602 -0.0749732 0)
(0.016896 -0.0632842 0)
(0.0213131 -0.0481176 0)
(0.0265168 -0.0297319 0)
(0.0321739 -0.00910945 0)
(0.0377676 0.0122524 0)
(0.0428326 0.0326125 0)
(0.0470683 0.050375 0)
(0.0503186 0.0643601 0)
(0.0525031 0.0738206 0)
(0.0536124 0.078307 0)
(0.0536711 0.0778571 0)
(0.0526575 0.072867 0)
(0.050425 0.0635564 0)
(0.0469912 0.0508764 0)
(0.0423736 0.0358184 0)
(0.0367071 0.0196488 0)
(0.0302718 0.00381568 0)
(0.0234298 -0.0103628 0)
(0.0167191 -0.0217263 0)
(0.00994648 -0.0329079 0)
(0.00825221 -0.0432016 0)
(0.00062911 -0.101813 0)
(0.00624549 -0.0961285 0)
(0.00615073 -0.0880205 0)
(0.00637176 -0.0800797 0)
(0.0078966 -0.0694755 0)
(0.0100615 -0.055364 0)
(0.0127933 -0.0379138 0)
(0.0159979 -0.0178673 0)
(0.019519 0.00349799 0)
(0.0231009 0.024467 0)
(0.0264368 0.0433244 0)
(0.0293354 0.0587118 0)
(0.0316693 0.0697599 0)
(0.0333605 0.0759514 0)
(0.0343523 0.0774016 0)
(0.0345602 0.0744633 0)
(0.0338936 0.0674202 0)
(0.0322721 0.057014 0)
(0.0296662 0.0441764 0)
(0.0260948 0.0299386 0)
(0.0217406 0.0155386 0)
(0.0168788 0.00215111 0)
(0.0121836 -0.00908563 0)
(0.00746335 -0.0202043 0)
(0.00616068 -0.0301586 0)
(-0.00209921 -0.105197 0)
(0.00267707 -0.0978138 0)
(0.0016346 -0.0886964 0)
(0.00128722 -0.0814254 0)
(0.00132101 -0.0716891 0)
(0.00166096 -0.0583911 0)
(0.00237214 -0.0417666 0)
(0.003509 -0.0225178 0)
(0.00512517 -0.00187581 0)
(0.00715736 0.0187052 0)
(0.00943418 0.0375934 0)
(0.0117966 0.0533756 0)
(0.0140686 0.0651336 0)
(0.0160853 0.0723152 0)
(0.0177239 0.0749715 0)
(0.0188668 0.0733931 0)
(0.0194079 0.0680295 0)
(0.0192205 0.0594935 0)
(0.0182527 0.0485707 0)
(0.016485 0.036118 0)
(0.0140134 0.0231388 0)
(0.0110164 0.0106017 0)
(0.00804045 -0.000411437 0)
(0.00501308 -0.0112735 0)
(0.00420467 -0.0209439 0)
(-0.00394462 -0.104294 0)
(-0.000817399 -0.0961092 0)
(-0.00242167 -0.0870318 0)
(-0.0031769 -0.0799832 0)
(-0.00420079 -0.070603 0)
(-0.00516193 -0.0579383 0)
(-0.00584906 -0.0421714 0)
(-0.0061255 -0.0239334 0)
(-0.00588407 -0.00434039 0)
(-0.00507758 0.0152629 0)
(-0.00371586 0.0333607 0)
(-0.00191153 0.0486512 0)
(0.00016976 0.0602947 0)
(0.00233855 0.0677344 0)
(0.00440069 0.0709956 0)
(0.00619773 0.0703484 0)
(0.00758441 0.0662173 0)
(0.00844584 0.0591265 0)
(0.00870986 0.0497469 0)
(0.00834737 0.0388077 0)
(0.00739984 0.0271145 0)
(0.00596341 0.0154478 0)
(0.00443156 0.00479826 0)
(0.00284603 -0.00563913 0)
(0.00245133 -0.0148758 0)
(-0.00475538 -0.101007 0)
(-0.00330016 -0.0923432 0)
(-0.00554748 -0.0835362 0)
(-0.00705171 -0.0766819 0)
(-0.00886074 -0.0674703 0)
(-0.0106736 -0.055284 0)
(-0.0122828 -0.0402871 0)
(-0.0135142 -0.023106 0)
(-0.0141825 -0.00478232 0)
(-0.0141632 0.0134609 0)
(-0.0134136 0.0302858 0)
(-0.0120257 0.0445673 0)
(-0.0101358 0.0555385 0)
(-0.00793638 0.062742 0)
(-0.0056585 0.0661743 0)
(-0.00347084 0.0660594 0)
(-0.00152778 0.0627521 0)
(5.18027e-05 0.0567281 0)
(0.00118595 0.0485451 0)
(0.00183108 0.0388165 0)
(0.00199091 0.0282112 0)
(0.00173386 0.0173234 0)
(0.00135137 0.00705387 0)
(0.000964185 -0.00306218 0)
(0.000968048 -0.0119545 0)
(-0.00540706 -0.0960175 0)
(-0.00471026 -0.0871397 0)
(-0.00737709 -0.0788164 0)
(-0.0095609 -0.0720696 0)
(-0.0120554 -0.0629769 0)
(-0.014538 -0.0512158 0)
(-0.0168245 -0.0369597 0)
(-0.0187103 -0.0208683 0)
(-0.019971 -0.00392349 0)
(-0.020451 0.0127622 0)
(-0.0200925 0.0280455 0)
(-0.0189843 0.0409955 0)
(-0.0172639 0.0509652 0)
(-0.015119 0.0576014 0)
(-0.0127732 0.0608856 0)
(-0.0103921 0.0609997 0)
(-0.0081334 0.0582325 0)
(-0.0061147 0.0529816 0)
(-0.00442146 0.0457168 0)
(-0.00312359 0.0369574 0)
(-0.00225633 0.0272389 0)
(-0.00170609 0.0169933 0)
(-0.00122827 0.00709045 0)
(-0.000612931 -0.00264228 0)
(-0.000233544 -0.0111212 0)
(-0.00586886 -0.089372 0)
(-0.00538206 -0.0806716 0)
(-0.00835654 -0.0727511 0)
(-0.0110734 -0.0660996 0)
(-0.0140713 -0.0572239 0)
(-0.017033 -0.0459804 0)
(-0.0197639 -0.032562 0)
(-0.0220256 -0.0176784 0)
(-0.0235974 -0.0022441 0)
(-0.0243428 0.0127212 0)
(-0.0242251 0.0263082 0)
(-0.0233164 0.0378376 0)
(-0.0217477 0.046673 0)
(-0.0197094 0.0525761 0)
(-0.0174049 0.0555226 0)
(-0.01499 0.055649 0)
(-0.0126115 0.0531904 0)
(-0.0103841 0.0484758 0)
(-0.00840564 0.0419043 0)
(-0.0067592 0.0339138 0)
(-0.00547331 0.0248763 0)
(-0.00439666 0.015033 0)
(-0.0033066 0.00525058 0)
(-0.00188761 -0.00435823 0)
(-0.00118665 -0.012524 0)
(-0.00602204 -0.0817586 0)
(-0.00579766 -0.0733665 0)
(-0.00908093 -0.065743 0)
(-0.012146 -0.0592478 0)
(-0.0153876 -0.0507094 0)
(-0.0185657 -0.0400861 0)
(-0.0214632 -0.0276194 0)
(-0.0238243 -0.0140278 0)
(-0.0254571 -0.000181857 0)
(-0.0262707 0.0131343 0)
(-0.0262763 0.025056 0)
(-0.0255066 0.0350536 0)
(-0.0240738 0.0426934 0)
(-0.0221723 0.0477926 0)
(-0.0199795 0.0503039 0)
(-0.0176394 0.050318 0)
(-0.0152852 0.0480223 0)
(-0.0130317 0.0436904 0)
(-0.0109874 0.03766 0)
(-0.00922258 0.0302692 0)
(-0.00767016 0.0217261 0)
(-0.00622462 0.0121137 0)
(-0.00474796 0.00229501 0)
(-0.00275836 -0.00735097 0)
(-0.00177969 -0.0150854 0)
(-0.00603034 -0.0737965 0)
(-0.0060358 -0.0656877 0)
(-0.00964935 -0.0583083 0)
(-0.0129328 -0.0520768 0)
(-0.0162006 -0.0439751 0)
(-0.0193489 -0.0340487 0)
(-0.0221598 -0.0226122 0)
(-0.0243997 -0.0103757 0)
(-0.0259244 0.00194571 0)
(-0.0266712 0.0135754 0)
(-0.0266488 0.024056 0)
(-0.0259079 0.0325493 0)
(-0.0245897 0.0390488 0)
(-0.0228463 0.0433543 0)
(-0.0208138 0.0453999 0)
(-0.0186195 0.0452383 0)
(-0.0163833 0.0430205 0)
(-0.0142206 0.0389758 0)
(-0.0122279 0.0333693 0)
(-0.0104227 0.026395 0)
(-0.00870626 0.0181228 0)
(-0.00705647 0.00866362 0)
(-0.00535379 -0.00132055 0)
(-0.00311394 -0.0110181 0)
(-0.00206068 -0.0183148 0)
(-0.00590223 -0.0663321 0)
(-0.00602574 -0.0583746 0)
(-0.00983959 -0.0511258 0)
(-0.0132066 -0.0452399 0)
(-0.0163629 -0.0376267 0)
(-0.0193231 -0.0284072 0)
(-0.0218835 -0.0179952 0)
(-0.0238717 -0.00705548 0)
(-0.0251928 0.00379697 0)
(-0.0257826 0.013947 0)
(-0.0256605 0.0228546 0)
(-0.0249263 0.0301817 0)
(-0.023722 0.0357117 0)
(-0.0221333 0.039303 0)
(-0.0202742 0.0408918 0)
(-0.0182501 0.0405221 0)
(-0.016172 0.0383216 0)
(-0.014145 0.0344769 0)
(-0.0122274 0.0291591 0)
(-0.0104052 0.0224453 0)
(-0.00862642 0.0143812 0)
(-0.00690417 0.00501837 0)
(-0.00508362 -0.00516816 0)
(-0.00282277 -0.0148819 0)
(-0.00185833 -0.0217364 0)
(-0.00561339 -0.0591299 0)
(-0.00571092 -0.0512208 0)
(-0.00912042 -0.0440062 0)
(-0.012234 -0.0386538 0)
(-0.0152618 -0.0316519 0)
(-0.0180437 -0.0232161 0)
(-0.020377 -0.0138397 0)
(-0.0221451 -0.00412562 0)
(-0.0232768 0.00534265 0)
(-0.0237602 0.0141485 0)
(-0.0236189 0.0217127 0)
(-0.0229678 0.0280209 0)
(-0.0218778 0.0326913 0)
(-0.0204411 0.0356315 0)
(-0.0187513 0.0367825 0)
(-0.0169037 0.0361901 0)
(-0.0150016 0.0339638 0)
(-0.0131303 0.0302369 0)
(-0.0113191 0.0250923 0)
(-0.00956445 0.0185528 0)
(-0.00783935 0.0106262 0)
(-0.00615238 0.00133245 0)
(-0.00435252 -0.00902171 0)
(-0.00225544 -0.0186237 0)
(-0.00142732 -0.0250082 0)
(-0.00505816 -0.0521964 0)
(-0.00511686 -0.0445386 0)
(-0.00788366 -0.0375419 0)
(-0.0105911 -0.0323941 0)
(-0.0134095 -0.0259029 0)
(-0.0159591 -0.0182915 0)
(-0.0180618 -0.00996747 0)
(-0.0196282 -0.00145703 0)
(-0.0206145 0.00677124 0)
(-0.0210224 0.0142663 0)
(-0.0209173 0.0208384 0)
(-0.0203462 0.0261257 0)
(-0.0193705 0.0299951 0)
(-0.01808 0.0323262 0)
(-0.0165557 0.0330643 0)
(-0.0148873 0.0322536 0)
(-0.0131678 0.0299815 0)
(-0.0114626 0.0263256 0)
(-0.00979537 0.0213072 0)
(-0.00817423 0.0149149 0)
(-0.00658578 0.00713401 0)
(-0.00502635 -0.00206805 0)
(-0.00339825 -0.0124763 0)
(-0.00165287 -0.0218246 0)
(-0.000963415 -0.0277146 0)
(-0.00435907 -0.045732 0)
(-0.0044339 -0.0383533 0)
(-0.00678298 -0.0315671 0)
(-0.00912767 -0.0265933 0)
(-0.0115834 -0.0206127 0)
(-0.0137713 -0.013821 0)
(-0.0155604 -0.00649862 0)
(-0.0168788 0.000914526 0)
(-0.0176955 0.00801364 0)
(-0.0180254 0.0144658 0)
(-0.0179023 0.0200016 0)
(-0.0173694 0.0244257 0)
(-0.0164888 0.0275776 0)
(-0.0153286 0.029361 0)
(-0.0139597 0.0297214 0)
(-0.0124642 0.0287054 0)
(-0.0109201 0.0263751 0)
(-0.00937903 0.0227609 0)
(-0.00786784 0.017845 0)
(-0.00640453 0.0115936 0)
(-0.00499076 0.00396797 0)
(-0.00362546 -0.00509021 0)
(-0.00234174 -0.0153854 0)
(-0.00113959 -0.0244049 0)
(-0.00057642 -0.0298318 0)
(-0.00372161 -0.0403192 0)
(-0.00377883 -0.0331912 0)
(-0.00573949 -0.0266241 0)
(-0.00770941 -0.0217196 0)
(-0.00976684 -0.0161534 0)
(-0.0115716 -0.0100638 0)
(-0.0130361 -0.00360056 0)
(-0.0141018 0.00286462 0)
(-0.0147428 0.00899674 0)
(-0.0149702 0.0145172 0)
(-0.0148116 0.0192036 0)
(-0.0143053 0.0228765 0)
(-0.0135017 0.0254044 0)
(-0.0124554 0.0267014 0)
(-0.0112292 0.0267249 0)
(-0.00989701 0.0255207 0)
(-0.00852224 0.0231264 0)
(-0.00714917 0.0195407 0)
(-0.00581063 0.0147242 0)
(-0.00453307 0.00863178 0)
(-0.00333274 0.00121861 0)
(-0.00223603 -0.00754702 0)
(-0.00140045 -0.0174788 0)
(-0.000769685 -0.0261842 0)
(-0.00029352 -0.0312964 0)
(-0.00311923 -0.0356593 0)
(-0.00316306 -0.0287923 0)
(-0.0047658 -0.0224122 0)
(-0.00637628 -0.0176147 0)
(-0.00804335 -0.0124459 0)
(-0.00948566 -0.00697596 0)
(-0.0106429 -0.00125136 0)
(-0.0114658 0.00440567 0)
(-0.0119345 0.0097162 0)
(-0.0120572 0.0144472 0)
(-0.0118556 0.0184061 0)
(-0.0113617 0.0214389 0)
(-0.0106172 0.0234331 0)
(-0.00966827 0.0243146 0)
(-0.00857138 0.0240544 0)
(-0.00739075 0.0226959 0)
(-0.00617834 0.0202574 0)
(-0.0049743 0.0167207 0)
(-0.0038139 0.0120376 0)
(-0.00273192 0.00616278 0)
(-0.00174413 -0.000939484 0)
(-0.00091084 -0.00925848 0)
(-0.000550026 -0.0186581 0)
(-0.000443885 -0.0271123 0)
(-2.54585e-05 -0.0320563 0)
(-0.00257797 -0.0318437 0)
(-0.00259418 -0.0251902 0)
(-0.00387246 -0.0190187 0)
(-0.00514881 -0.0143212 0)
(-0.00646001 -0.0094967 0)
(-0.00757956 -0.00454839 0)
(-0.00846245 0.000554571 0)
(-0.00906594 0.00553397 0)
(-0.00937585 0.010158 0)
(-0.00939838 0.0142282 0)
(-0.00915084 0.0175776 0)
(-0.00865996 0.0200736 0)
(-0.0079601 0.0216226 0)
(-0.00709143 0.0221603 0)
(-0.00610448 0.0216715 0)
(-0.00505153 0.0201948 0)
(-0.00397513 0.0177353 0)
(-0.00291121 0.0142661 0)
(-0.00188732 0.00973586 0)
(-0.00094404 0.00409457 0)
(-0.000150693 -0.00268873 0)
(0.00041643 -0.0104216 0)
(0.000292524 -0.0190684 0)
(-0.000127701 -0.0273575 0)
(0.000239498 -0.0322588 0)
(-0.0020889 -0.0286795 0)
(-0.00208202 -0.0222517 0)
(-0.00307299 -0.0162653 0)
(-0.00405843 -0.0117066 0)
(-0.00506113 -0.00720315 0)
(-0.00590289 -0.00270149 0)
(-0.00654673 0.00187763 0)
(-0.00695502 0.00629121 0)
(-0.00712466 0.0103442 0)
(-0.00705966 0.0138638 0)
(-0.00677222 0.0167059 0)
(-0.00628116 0.0187574 0)
(-0.00561921 0.0199393 0)
(-0.00482566 0.0201983 0)
(-0.00394019 0.0195266 0)
(-0.00300679 0.0179577 0)
(-0.00206349 0.015487 0)
(-0.00114826 0.0120857 0)
(-0.000295173 0.00768887 0)
(0.000451388 0.00235119 0)
(0.00100481 -0.00389041 0)
(0.00130286 -0.0109053 0)
(0.000932445 -0.0188245 0)
(0.000219763 -0.0270878 0)
(0.000514214 -0.0321232 0)
(-0.00166807 -0.0261929 0)
(-0.00163361 -0.0199485 0)
(-0.00237739 -0.0141622 0)
(-0.00311535 -0.00971812 0)
(-0.00386022 -0.00548067 0)
(-0.0044651 -0.00134861 0)
(-0.00490585 0.00278484 0)
(-0.00515422 0.00672803 0)
(-0.00520999 0.0103188 0)
(-0.00507484 0.0133891 0)
(-0.00475345 0.0158025 0)
(-0.00426587 0.0174977 0)
(-0.00365077 0.018377 0)
(-0.00293801 0.0184308 0)
(-0.00215776 0.0176288 0)
(-0.00135062 0.0160154 0)
(-0.000548426 0.0135908 0)
(0.000205859 0.0103244 0)
(0.000842188 0.00619026 0)
(0.00132089 0.00116034 0)
(0.00162154 -0.00469957 0)
(0.00169766 -0.0110862 0)
(0.00140242 -0.01819 0)
(0.000698553 -0.0262978 0)
(0.000861283 -0.0313983 0)
(-0.00130383 -0.0242142 0)
(-0.00124271 -0.0181693 0)
(-0.00179034 -0.0125543 0)
(-0.0023264 -0.00824001 0)
(-0.00284732 -0.00425131 0)
(-0.00325513 -0.000443627 0)
(-0.00354432 0.00333297 0)
(-0.00368874 0.00689618 0)
(-0.00365759 0.0101125 0)
(-0.00345354 0.0127984 0)
(-0.00310071 0.0148973 0)
(-0.00264488 0.016266 0)
(-0.00207835 0.0169838 0)
(-0.00142342 0.016865 0)
(-0.000730148 0.0159867 0)
(-2.79614e-05 0.0143693 0)
(0.000648015 0.0120123 0)
(0.00125549 0.00894554 0)
(0.00176104 0.00519348 0)
(0.00212621 0.000548629 0)
(0.00228116 -0.0049343 0)
(0.00219074 -0.0107862 0)
(0.0019232 -0.0171876 0)
(0.00118354 -0.024861 0)
(0.00118162 -0.0299988 0)
(-0.00100949 -0.0227677 0)
(-0.000935431 -0.016861 0)
(-0.00132378 -0.0113597 0)
(-0.00168405 -0.00721795 0)
(-0.00203271 -0.00343155 0)
(-0.00230097 0.00014769 0)
(-0.00246612 0.00370321 0)
(-0.00248962 0.0069586 0)
(-0.00236742 0.00978578 0)
(-0.00211711 0.0121485 0)
(-0.00177768 0.0139972 0)
(-0.00133444 0.0152428 0)
(-0.000803877 0.0156768 0)
(-0.000209493 0.0154269 0)
(0.000410956 0.0145392 0)
(0.00102623 0.0129458 0)
(0.00158368 0.0107353 0)
(0.00206764 0.00784623 0)
(0.00249791 0.0042178 0)
(0.00283431 -2.83708e-05 0)
(0.0029691 -0.00481891 0)
(0.00283794 -0.0101069 0)
(0.00252227 -0.0159717 0)
(0.00165398 -0.0230471 0)
(0.00150379 -0.0282496 0)
(-0.000770264 -0.0216081 0)
(-0.000680485 -0.0158308 0)
(-0.000922683 -0.0105586 0)
(-0.00116794 -0.00651851 0)
(-0.00141137 -0.00290043 0)
(-0.00156135 0.000500208 0)
(-0.00159899 0.00370377 0)
(-0.00151516 0.00666584 0)
(-0.00134405 0.00928071 0)
(-0.00109874 0.0114991 0)
(-0.000758507 0.0131443 0)
(-0.000312281 0.0141505 0)
(0.000179419 0.0144845 0)
(0.000677914 0.0142005 0)
(0.00120949 0.0132347 0)
(0.00173367 0.011757 0)
(0.0022341 0.00970109 0)
(0.00270234 0.0069556 0)
(0.00307077 0.00348059 0)
(0.00330891 -0.000515385 0)
(0.0034164 -0.00498727 0)
(0.00329374 -0.00974592 0)
(0.00295269 -0.0149457 0)
(0.00196671 -0.0213887 0)
(0.00171452 -0.0265989 0)
(-0.000566193 -0.0208507 0)
(-0.000465411 -0.0152255 0)
(-0.00061165 -0.0100404 0)
(-0.000767821 -0.00602144 0)
(-0.000911974 -0.00260166 0)
(-0.00097247 0.000545879 0)
(-0.000957772 0.0035605 0)
(-0.000876776 0.00633664 0)
(-0.000712638 0.0087925 0)
(-0.000456262 0.0108271 0)
(-9.56082e-05 0.0122368 0)
(0.000309522 0.0131033 0)
(0.000738948 0.0134916 0)