/*--------------------------------*- C++ -*----------------------------------*\
| =========                 |                                                 |
| \\      /  F ield         | OpenFOAM: The Open Source CFD Toolbox           |
|  \\    /   O peration     | Version:  2312                                  |
|   \\  /    A nd           | Website:  www.openfoam.com                      |
|    \\/     M anipulation  |                                                 |
\*---------------------------------------------------------------------------*/
FoamFile
{
    version     2.0;
    format      ascii;
    arch        "LSB;label=32;scalar=64";
    class       volScalarField;
    location    "0.845/water";
    object      T.gas;
}
// * * * * * * * * * * * * * * * * * * * * * * * * * * * * * * * * * * * * * //

dimensions      [0 0 0 1 0 0 0];

internalField   nonuniform List<scalar> 
6000
(
354.908881919
323.824299385
310.348626206
304.257055465
301.783047088
300.369300558
300.015946688
300.000095785
300.000000072
300
300
300
300
300
300
300
300
300
300
300
398.155032646
335.279454873
312.166116375
304.316302022
301.544057043
300.553775398
300.178268489
300.02109111
300.000400434
300.000000501
300
300
300
300
300
300
300
300
300
300
402.084573928
335.526955908
311.455886914
303.692043274
301.188631962
300.386367302
300.125837996
300.03308331
300.002697435
300.000025668
300.000000009
300
300
300
300
300
300
300
300
300
400.98941878
337.087195936
312.367546877
303.934684628
301.217092196
300.370864066
300.112226456
300.03351086
300.006123259
300.000228183
300.000000716
300
300
300
300
300
300
300
300
300
397.899367588
337.333813441
313.153422368
304.335883647
301.366192072
300.419006687
300.125838863
300.037044917
300.010614949
300.001058386
300.000013448
300.000000004
300
300
300
300
300
300
300
300
393.065546421
336.258482015
313.315440007
304.561672228
301.479571416
300.465441495
300.143951952
300.043449573
300.012819772
300.00268232
300.00010151
300.000000443
300
300
300
300
300
300
300
300
388.494999323
334.364708949
312.822582371
304.509442973
301.49378823
300.47868399
300.151939134
300.047462315
300.014382729
300.004322417
300.000463086
300.000005235
300.000000001
300
300
300
300
300
300
300
386.232970506
332.816122215
312.117371383
304.273184123
301.429054438
300.463447537
300.1504026
300.048639233
300.015090449
300.004616235
300.001119276
300.00003676
300.000000028
300
300
300
300
300
300
300
385.559060372
332.341959155
311.879917704
304.173750828
301.398177526
300.4565569
300.151290787
300.05072699
300.016132164
300.004865576
300.001539133
300.000168246
300.000000762
300
300
300
300
300
300
300
387.312211359
333.164258046
312.172151766
304.272728601
301.436444943
300.473980709
300.160158359
300.05569618
300.018326928
300.005430111
300.001627127
300.000439584
300.000011556
300.000000006
300
300
300
300
300
300
391.18334835
334.834869379
312.78434567
304.517753331
301.538787514
300.516798563
300.17825866
300.063943795
300.021871368
300.006451007
300.001801399
300.000558709
300.000068759
300.000000337
300
300
300
300
300
300
392.262836956
335.431327035
313.071592201
304.668590461
301.621887607
300.560169578
300.19968618
300.074198762
300.026487403
300.007924869
300.002089904
300.000589162
300.000186732
300.000006821
300.000000005
300
300
300
300
300
392.679161476
334.976896776
312.760312887
304.552571261
301.603872343
300.571169081
300.212676913
300.082864252
300.031086416
300.009643179
300.002455218
300.0006342
300.000195474
300.000032665
300.000000219
300
300
300
300
300
392.782846975
334.575758864
312.4763601
304.403354959
301.551791095
300.563797977
300.217684506
300.088544141
300.034825042
300.011323404
300.00287672
300.000691005
300.000192746
300.000068208
300.000002771
300.000000002
300
300
300
300
392.993565793
334.188263011
312.169257876
304.244732331
301.487758166
300.546540881
300.217014335
300.091276673
300.037327234
300.012723165
300.00329646
300.000753246
300.00019075
300.000063859
300.000008956
300.000000033
300
300
300
300
392.976151195
333.709326207
311.774061661
304.054567458
301.413029974
300.522664003
300.211650677
300.091513228
300.038704735
300.013781916
300.00367161
300.000811194
300.00018753
300.000056412
300.000015114
300.000000207
300
300
300
300
392.895603192
333.093245474
311.292848213
303.829982018
301.328976857
300.494651782
300.203555697
300.090337745
300.039467032
300.014634605
300.004012073
300.000862675
300.000183142
300.000049186
300.000017129
300.000000561
300
300
300
300
392.524753436
332.376273899
310.779055449
303.582994655
301.234218053
300.462676912
300.194536689
300.08897587
300.040214916
300.015542878
300.00439108
300.000918489
300.000178369
300.000042177
300.000013959
300.000000855
300.000000001
300
300
300
392.080453584
332.569014717
310.836277781
303.540001679
301.194314138
300.443887146
300.188769503
300.088713441
300.041596269
300.016823407
300.004930767
300.0010041
300.000176013
300.000035287
300.000009359
300.000000991
300.000000002
300
300
300
389.972059348
332.719354582
311.13929428
303.63717524
301.196604965
300.433694773
300.184886039
300.089515894
300.043794744
300.01865682
300.005738137
300.001153433
300.000182663
300.000030321
300.000005923
300.000000807
300
300
300
300
386.544073628
332.309037417
311.30953192
303.713266164
301.191181233
300.420743486
300.181646102
300.091744247
300.047145172
300.021210746
300.006852875
300.001385807
300.000210595
300.000030793
300.000004643
300.000000252
300
300
300
300
386.183450373
332.341268004
311.415355966
303.762923117
301.196888952
300.420991088
300.186352852
300.098132062
300.052661434
300.02477781
300.008397125
300.001746645
300.00026466
300.000038342
300.000005278
300.000000186
300
300
300
300
391.164230041
333.963695471
311.926588602
303.966720867
301.286048647
300.459791362
300.206208253
300.110605608
300.060906047
300.029628984
300.010456566
300.002270297
300.000357001
300.000052256
300.000007189
300.000000463
300
300
300
300
397.924544105
336.711769584
313.053663036
304.445688086
301.483645621
300.537862188
300.239412326
300.127943125
300.071331754
300.035653581
300.013017639
300.002957809
300.000498837
300.000075848
300.000010635
300.000000887
300
300
300
300
400.067473449
338.278082998
313.932013244
304.882916086
301.681136734
300.619375498
300.274618943
300.146221985
300.082580195
300.042344654
300.015947508
300.003800487
300.000672362
300.000107612
300.000015455
300.000001429
300
300
300
300
400.644656195
338.84448108
314.357322801
305.122719383
301.806620319
300.678629969
300.303178143
300.16244797
300.093362567
300.049007111
300.019055502
300.004734669
300.00086935
300.000144928
300.000021662
300.000002229
300
300
300
300
401.033842337
338.761520099
314.37276069
305.165910669
301.852723929
300.711208956
300.323354722
300.175916803
300.102690279
300.05483708
300.02219421
300.005713963
300.001086865
300.000185379
300.00002833
300.00000324
300
300
300
300
400.989846391
337.952929859
313.884451374
304.984788488
301.812153174
300.714971141
300.334595753
300.185928988
300.109481895
300.059283504
300.024909926
300.006684969
300.001300357
300.000223201
300.000034695
300.000004378
300
300
300
300
401.056535106
337.335766455
313.436071797
304.779249085
301.744880641
300.704133216
300.339219694
300.192128083
300.1132824
300.06176715
300.026579387
300.007484852
300.001475938
300.00025305
300.000039776
300.000005431
300.000000092
300
300
300
400.87951244
336.922561586
313.105491266
304.617331847
301.684351713
300.689693454
300.339364066
300.193992994
300.114197874
300.06222577
300.027130948
300.0078617
300.001594329
300.000263913
300.000042093
300.000006002
300.000000196
300
300
300
400.879127504
336.585788707
312.850014111
304.501748755
301.642161568
300.678153736
300.337096453
300.191612948
300.112264923
300.060843532
300.02654682
300.007886159
300.001600963
300.000261702
300.000041819
300.000005352
300.000000077
300
300
300
400.710933771
336.103686823
312.529845322
304.37562382
301.602856022
300.667112518
300.332305068
300.186394824
300.108022096
300.057997117
300.02537965
300.007644231
300.001568698
300.000274191
300.000042193
300.000004356
300
300
300
300
400.511233568
335.124913397
311.92010301
304.127943092
301.523376491
300.642256015
300.32007979
300.178329206
300.102288782
300.054708271
300.024083449
300.00752375
300.001545118
300.000281767
300.000041794
300.000003308
300
300
300
300
400.289261083
334.975280664
311.733205474
303.985857535
301.452206218
300.610005561
300.301736235
300.167589313
300.096113581
300.051711016
300.023436215
300.007633371
300.001758511
300.000302891
300.000041522
300.000002309
300
300
300
300
399.165148901
335.312154555
311.886957815
303.97640591
301.407346011
300.575176538
300.280969314
300.156572262
300.090860066
300.050225418
300.023758145
300.008412324
300.002021765
300.000326651
300.00004037
300.000001493
300
300
300
300
393.416857189
334.192841953
311.714008585
303.883754924
301.317845881
300.519377347
300.254796778
300.146261959
300.08829783
300.051227233
300.026041209
300.009878135
300.002352838
300.000345824
300.000038081
300.000001032
300
300
300
300
386.033323671
331.939328847
311.008408191
303.531047816
301.121806375
300.431875904
300.224979641
300.139773364
300.089759924
300.055030066
300.029469278
300.011818675
300.002785258
300.000358116
300.000034237
300.00000103
300
300
300
300
383.212193984
330.858546872
310.462446964
303.20366389
300.947388147
300.364548385
300.211900493
300.143537868
300.097496316
300.062714437
300.035341787
300.014983615
300.003601502
300.000415384
300.00003413
300.000001785
300
300
300
300
386.867010638
332.664384073
311.229882864
303.542324201
301.083215802
300.400765281
300.232287092
300.161336409
300.113154103
300.075522767
300.044684148
300.020180083
300.005180047
300.000606811
300.000047749
300.000004042
300
300
300
300
394.938323653
335.870507751
312.753951821
304.376163588
301.515614996
300.580141489
300.291802171
300.191429133
300.134829161
300.091983615
300.05653935
300.027260483
300.007886003
300.001080247
300.000097835
300.000009908
300.000000127
300
300
300
399.855963596
338.476237365
314.24912058
305.151624898
301.909345564
300.779811398
300.380818155
300.232687196
300.16025674
300.110420931
300.070012251
300.035988168
300.011806755
300.0019934
300.000224767
300.000025134
300.000001867
300
300
300
401.574739269
339.858092418
315.130608533
305.65871269
302.164705858
300.912124995
300.453878689
300.272129052
300.184725051
300.128160366
300.083422648
300.045239039
300.016574804
300.003392978
300.000469088
300.000058772
300.000006015
300
300
300
402.343805568
340.035553137
315.334897034
305.813375005
302.275328794
300.980577309
300.498402159
300.300817005
300.204287405
300.142894109
300.094884536
300.05360777
300.021481746
300.005143162
300.000834788
300.000116802
300.000013717
300
300
300
402.64402003
340.351634781
315.459307837
305.893001071
302.319967132
301.013741549
300.523486961
300.319822858
300.218730926
300.154263369
300.103776284
300.060098132
300.025650934
300.006941343
300.001278746
300.000195609
300.000025435
300.000001053
300
300
403.113508132
340.558175199
315.585105604
305.923205174
302.335667262
301.024996445
300.535612418
300.331529956
300.228759794
300.16250846
300.110151282
300.064530889
300.02858447
300.008388857
300.001708582
300.000281483
300.000039482
300.000002708
300
300
403.377709507
340.786806801
315.662665329
305.95166007
302.333658622
301.024602052
300.539368358
300.33797934
300.235265567
300.168067517
300.114124323
300.066957884
300.030172961
300.009282751
300.002021874
300.000354606
300.000052643
300.000004404
300
300
403.880084335
340.824900785
315.731214862
305.964637877
302.332249103
301.020563
300.540146549
300.341600785
300.239248836
300.17127462
300.115722891
300.067518218
300.030504075
300.009595775
300.002174583
300.000398766
300.000061901
300.000005593
300
300
404.070005028
340.27269551
315.502820101
305.898812083
302.307627205
301.013696821
300.540857728
300.34376443
300.241180531
300.172190024
300.114997058
300.066376283
300.029746601
300.009392141
300.002167786
300.00040834
300.000065423
300.000005875
300
300
404.293443439
339.462580746
315.122294491
305.780021089
302.2746966
301.006547506
300.541333891
300.344242945
300.240968968
300.170692212
300.112118264
300.063725632
300.028107166
300.008783287
300.002028495
300.000386681
300.000062951
300.000005158
300
300
404.179310282
338.342707635
314.385262609
305.513455171
302.198362828
300.988359417
300.535382116
300.340901647
300.23789767
300.166428922
300.10730707
300.059812963
300.025822616
300.00789556
300.001798329
300.000343708
300.000055954
300.000003698
300
300
404.05126143
337.190125804
313.444409291
305.083415415
302.052403261
300.942731634
300.517191949
300.331841979
300.231301925
300.159244041
300.100879325
300.055100708
300.023240791
300.006860808
300.001526009
300.00029146
300.000046633
300.000001975
300
300
403.681342221
336.365575074
312.62340094
304.621159903
301.860879656
300.869820112
300.487205046
300.317516911
300.221314018
300.149932996
300.09344568
300.050145374
300.02068221
300.005894056
300.001285031
300.000242463
300.000037304
300.00000061
300
300
403.209737508
335.769385909
312.006682516
304.215696452
301.662536698
300.785025369
300.451574742
300.300413058
300.209055741
300.140056629
300.086017482
300.045522645
300.01847129
300.005259982
300.001137295
300.000206214
300.000029771
300.000000023
300
300
401.845246653
335.724457603
311.881357481
303.98989676
301.507175793
300.708818458
300.418263421
300.283793565
300.197071691
300.131045747
300.079483135
300.041717109
300.017481997
300.005189085
300.001101016
300.000185201
300.000025232
300
300
300
397.306252087
334.548781756
311.47643111
303.727637032
301.354446083
300.638612133
300.389072497
300.269378301
300.18767537
300.123716565
300.074500834
300.040149111
300.017872698
300.005600414
300.00117849
300.000186945
300.000024892
300
300
300
392.809451244
333.016504323
310.62062634
303.275348377
301.170859525
300.573771276
300.366862613
300.260253776
300.181925027
300.118994948
300.072779286
300.041088382
300.019494628
300.006510868
300.001418511
300.000226986
300.000030817
300.000001303
300
300
395.07803
332.664217878
309.619139217
302.865093
301.057604084
300.546829089
300.362465502
300.260575181
300.18198937
300.119736351
300.075155
300.044165355
300.022078734
300.008001464
300.001895455
300.000322381
300.000046083
300.000004167
300
300
414.500647525
337.064653073
310.266469359
303.1287718
301.190385151
300.604888534
300.38859034
300.273958371
300.190315086
300.125951678
300.080571469
300.04874856
300.025463108
300.009933398
300.002590282
300.000480603
300.000073754
300.000008776
300
300
444.152877531
347.943118252
314.198102104
304.512763943
301.678835451
300.778577235
300.453095369
300.300766899
300.205050141
300.135849512
300.087939215
300.054018099
300.029116205
300.011970369
300.003374543
300.000680489
300.000112498
300.000015082
300
300
457.295355907
352.307244503
317.887793261
306.158350313
302.311789998
301.013455825
300.540277644
300.334110529
300.220834304
300.1459391
300.095085166
300.059001142
300.032380495
300.013641146
300.004047485
300.000881103
300.000155136
300.000022252
300
300
463.703288917
356.448401868
319.965885121
307.206490294
302.770838886
301.202760008
300.614565996
300.361387656
300.232111141
300.152956527
300.100482162
300.062854259
300.034615506
300.014617117
300.004476305
300.001041158
300.000193275
300.000028849
300
300
466.311159908
356.747989006
320.051711643
307.410935254
302.927944054
301.289410717
300.649246833
300.373543435
300.236365489
300.156169962
300.103604923
300.065116273
300.035582795
300.014988427
300.004712723
300.001144629
300.000221133
300.000032852
300
300
468.709979259
355.450151471
319.078381467
307.093112247
302.859611802
301.269216262
300.634996306
300.367861036
300.234864505
300.156474211
300.104874681
300.066046442
300.035794616
300.015143678
300.004857429
300.001210735
300.000231739
300.000032777
300
300
469.812656392
356.202828022
319.051685861
306.980409241
302.736411845
301.182973867
300.595949963
300.349049966
300.227484171
300.155193326
300.105162911
300.066602694
300.03619429
300.015488439
300.005031896
300.001246088
300.000228
300.00002938
300
300
471.183186414
358.301889749
319.864260581
306.936921747
302.560887604
301.076262122
300.54021378
300.323832256
300.217500438
300.153145068
300.105978389
300.067943036
300.03731576
300.016182828
300.005252693
300.001258209
300.000215441
300.000023655
300
300
463.641560221
358.148422002
319.47702776
306.412953203
302.268324065
300.925955443
300.474010645
300.296566353
300.209426886
300.15264177
300.108428384
300.070707711
300.039441433
300.017282324
300.005552747
300.001278408
300.0002027
300.000017293
300
300
430.474100911
349.386765087
316.443184256
305.342266887
301.810973015
300.742683449
300.403388868
300.275164667
300.205622533
300.155911651
300.113467669
300.07558876
300.042928168
300.019065356
300.006106672
300.00137286
300.000209464
300.00001434
300
300.000000314
399.222668342
338.520407732
312.913631818
304.048821218
301.315229155
300.565512362
300.354691755
300.266588031
300.210742388
300.164834853
300.122806152
300.083547197
300.048750336
300.0223674
300.007363217
300.001699084
300.000274972
300.000023324
300.000000219
300.000001641
383.161601939
333.404208436
311.344913371
303.162636622
300.913472453
300.469150357
300.344420792
300.277487028
300.226284932
300.18085795
300.137986899
300.096911265
300.059194476
300.028939452
300.010326857
300.00262686
300.000491868
300.000061389
300.000003446
300.000002554
385.331996205
337.121401942
314.119682867
304.256600565
301.201319809
300.56391656
300.390422138
300.311745451
300.256585343
300.208245708
300.162264179
300.117695874
300.07561683
300.039844242
300.015756884
300.004547248
300.001003419
300.000169507
300.000019906
300.000003725
411.075950001
351.661153521
321.670844899
308.03843583
302.790672984
301.049866166
300.540785233
300.377911366
300.302405973
300.246656171
300.19536367
300.145491062
300.097971261
300.055587143
300.024443093
300.008070959
300.002094468
300.000448311
300.000081191
300.000012465
452.122503906
363.603551505
327.079021901
311.185993566
304.511554807
301.875502444
300.875980979
300.500768435
300.361678543
300.288543897
300.231036508
300.176609405
300.12376428
300.075077207
300.036598095
300.013949747
300.004321796
300.001135784
300.000257045
300.000049416
474.283580234
370.653590208
330.215798242
313.12677355
305.72696442
302.557549703
301.22137758
300.679317714
300.439606799
300.331900646
300.26361599
300.205574837
300.149208855
300.095759166
300.051465733
300.022347373
300.007932547
300.002379442
300.000618076
300.000139405
482.352759584
373.401424188
331.376977978
313.917473349
306.302093237
302.929093487
301.436786229
300.789779321
300.50464223
300.369417283
300.289935043
300.228207706
300.170322645
300.113922899
300.065456701
300.031087429
300.012182179
300.004028974
300.001154105
300.000291074
485.581755493
373.73973838
331.125567698
313.812791602
306.33183616
303.00616315
301.509120928
300.841526016
300.542339871
300.394369286
300.307903751
300.243485172
300.184678585
300.126897677
300.076141679
300.038415683
300.016138993
300.005746344
300.001775579
300.000487991
487.468487601
372.110836762
329.311718041
312.750974967
305.829027872
302.805037465
301.445975542
300.833119988
300.551255568
300.404823633
300.317120968
300.25193123
300.192692342
300.134482468
300.082966629
300.043615681
300.019300684
300.007269977
300.002396888
300.00071076
487.261319516
367.852131041
325.382171598
310.611891554
304.852363483
302.396598104
301.293121246
300.787739266
300.537557646
300.402605793
300.318568145
300.25450226
300.19512567
300.137424224
300.086414798
300.04692317
300.02165491
300.008596289
300.003010351
300.000966273
483.380536208
354.299165021
318.57154535
307.707176205
303.674615714
301.93230363
301.120232193
300.719648188
300.510142258
300.391886082
300.31430932
300.252257053
300.192883309
300.13689349
300.087588243
300.049015556
300.023654422
300.00989972
300.003711839
300.001293438
477.498134714
344.115453588
313.777796931
305.603441945
302.783563326
301.554934803
300.954100759
300.644816738
300.477121509
300.376828522
300.306329936
300.245636501
300.187693511
300.134343608
300.087755784
300.050981125
300.025862619
300.011526837
300.004644239
300.00176735
474.877393934
342.952894149
312.276523258
304.605898122
302.210454035
301.258148967
300.81007192
300.577456477
300.445687336
300.360920592
300.295505702
300.236078174
300.18133785
300.131609619
300.088551785
300.053836402
300.029033932
300.013816989
300.006037367
300.002496744
469.276805095
345.214427738
312.58185565
304.3077252
301.902259408
301.063453525
300.706401112
300.526083616
300.419784932
300.344896224
300.282242526
300.226465881
300.175708703
300.130477646
300.091187247
300.05861885
300.033761735
300.017296474
300.008094576
300.003564877
447.193305744
345.693569485
313.353241076
304.38619196
301.784624606
300.956305201
300.641477347
300.490386483
300.397678188
300.328371973
300.270303012
300.218721861
300.172836115
300.132275451
300.096780121
300.066117081
300.040791305
300.022139296
300.011011933
300.005136309
419.071756007
341.821423255
313.180180411
304.374830386
301.726878734
300.900334557
300.603639064
300.465397249
300.380492195
300.316445051
300.262556481
300.215733525
300.174642249
300.138664376
300.10614193
300.076225625
300.049826559
300.028754107
300.015123037
300.00739882
398.39759617
337.099389761
312.661754014
304.391898709
301.760308777
300.914481206
300.606895836
300.464261953
300.378466228
300.315476375
300.264477396
300.221251157
300.183538695
300.149712417
300.11822569
300.088415672
300.06075238
300.037153438
300.020638519
300.01051725
389.289672555
336.198426038
313.986396376
305.545083458
302.419295877
301.239669184
300.756350742
300.530182152
300.408370005
300.332496108
300.278202231
300.235072348
300.198254265
300.1650357
300.133539278
300.102846993
300.073377948
300.047314955
300.027554673
300.014500413
395.583886826
345.009604721
321.166973936
309.68854841
304.46708229
302.168532602
301.152201449
300.692890991
300.478151228
300.368519462
300.303431207
300.257103849
300.21906515
300.184622655
300.151390511
300.118830158
300.087306126
300.058521327
300.035196493
300.018947186
436.317000195
366.722908706
329.520499773
312.723777192
305.691737872
302.707576395
301.400865617
300.812851473
300.541110381
300.407376913
300.332457571
300.281898789
300.241186476
300.203893497
300.168043935
300.13326224
300.09976897
300.068428999
300.041841563
300.022766758
515.913075309
375.533074517
326.923044698
310.296432235
304.481037193
302.227579956
301.246126714
300.78137544
300.55086414
300.428027319
300.353915818
300.301905652
300.258055906
300.217396651
300.17869369
300.141706264
300.106548266
300.073634412
300.045032636
300.024370978
542.434794396
367.750619371
319.512696838
306.584845487
302.864195385
301.569744818
300.995035682
300.696893486
300.530196502
300.430498547
300.364471241
300.312590129
300.265765678
300.222205093
300.181224734
300.142586089
300.106244631
300.072399353
300.043255196
300.022787739
544.362457078
361.676852444
315.651231153
304.637046311
301.974354319
301.172698989
300.826810633
300.63386617
300.510209897
300.429188215
300.366567839
300.312758912
300.263812592
300.218492647
300.17624565
300.136717731
300.099558799
300.064982814
300.037043862
300.018554798
536.004976745
367.014015179
317.204340534
304.597329177
301.772965884
301.010258151
300.734532615
300.589603427
300.494434936
300.42211613
300.360682068
300.305791736
300.255616169
300.209333509
300.166337874
300.125874328
300.087232746
300.053337305
300.02847356
300.013301616
523.443152056
372.050098592
320.983078912
306.13019337
302.250184141
301.135327057
300.736662931
300.57723521
300.485436485
300.414381821
300.352360571
300.296246031
300.244868385
300.197405203
300.152811303
300.110159834
300.071511352
300.040643021
300.019990946
300.0086182
537.494989167
374.905900685
323.18336223
307.582513757
303.016159791
301.505415521
300.860969133
300.606549
300.48808406
300.40963266
300.344468756
300.285960755
300.23223052
300.182165213
300.135227873
300.092386004
300.055965052
300.029245955
300.013191285
300.005272673
550.228667361
373.152079579
322.892614049
308.469320777
303.82590209
301.940071642
301.045351122
300.667576409
300.502188746
300.407852963
300.335717532
300.272715972
300.215889157
300.163984093
300.116772981
300.075348662
300.042398458
300.020375256
300.008500121
300.003234982
554.80850514
368.509292102
323.606029535
309.698530847
304.518823363
302.221737054
301.166735274
300.712439158
300.512189432
300.40215747
300.321625379
300.25522508
300.196804419
300.144711122
300.098690679
300.060202443
300.031589872
300.014149441
300.005610391
300.002132055
559.078901541
372.983387036
324.836572526
309.840190016
304.413031245
302.141580687
301.137563295
300.700328853
300.499729016
300.384045747
300.300913221
300.233676831
300.175823787
300.125256687
300.082166042
300.047644488
300.023724426
300.010180453
300.00401668
300.001564813
562.760600551
370.632683902
321.972130551
308.231325443
303.612247478
301.783036788
300.993475926
300.63995002
300.465282143
300.355004523
300.274999905
300.210012829
300.154637282
300.107473689
300.068263386
300.038394064
300.018636355
300.008034591
300.003257351
300.001400999
565.284989061
369.127105332
318.412314433
306.240947681
302.679517537
301.378018727
300.825579542
300.565144914
300.420720636
300.322055167
300.24802027
300.187317312
300.136200104
300.09317671
300.058525228
300.032668112
300.016112643
300.007168915
300.003125158
300.001451754
567.931106956
371.265485482
316.933174167
304.959776138
302.016643337
301.078090063
300.69341019
300.499568381
300.377822426
300.292147888
300.225061262
300.169681328
300.12307836
300.084414654
300.053365365
300.030520745
300.015649359
300.007291912
300.003315944
300.001650788
570.440979647
375.372722557
317.466943469
304.574690153
301.693897057
300.908655175
300.608059734
300.448786466
300.346093284
300.270368915
300.2099148
300.159641374
300.117540305
300.08224126
300.053277582
300.031328794
300.01655574
300.007982543
300.003941997
300.002102085
566.568517206
376.688996572
318.091890642
304.550583918
301.5759771
300.821361112
300.552608158
300.415241568
300.325620648
300.259009673
300.205024611
300.158916961
300.119288522
300.085162763
300.05659337
300.034286201
300.018702552
300.00968789
300.00510799
300.002841943
517.928273171
366.056411263
315.915147056
304.080805365
301.418725353
300.741888823
300.51181692
300.393631722
300.318072625
300.259485874
300.209427492
300.165803152
300.127038054
300.092695338
300.063173081
300.039418337
300.022743545
300.012464259
300.006828167
300.003945596
443.628169713
348.004856885
311.944701529
303.241338561
301.182747624
300.666880115
300.481878743
300.387290076
300.32310349
300.268788314
300.221651323
300.178900044
300.139675072
300.103943554
300.072605466
300.047345496
300.028667897
300.016292781
300.009135946
300.005449037
401.527807531
333.131380247
308.71139458
302.393316631
300.955551356
300.599108904
300.47008131
300.395050489
300.335972023
300.285355864
300.239474007
300.196465452
300.156039022
300.118678612
300.085539645
300.057824515
300.036334739
300.021270109
300.012075682
300.007341784
379.070197417
328.975827074
307.972583257
302.041946298
300.817174261
300.579230539
300.479382362
300.411352332
300.356587438
300.308254086
300.262909472
300.21919005
300.177042905
300.137343275
300.1014482
300.07058116
300.045706888
300.027441642
300.015748536
300.009624714
374.631791679
330.445656918
307.726234544
301.846074064
300.854049555
300.619523545
300.515270413
300.446018691
300.390319711
300.340766771
300.293719191
300.247776252
300.202907864
300.15997538
300.120409897
300.085603172
300.05670517
300.034723622
300.020191372
300.012377007
398.522296994
343.565809555
311.969214137
303.162146219
301.25825001
300.779965222
300.607905525
300.513785927
300.444422368
300.38603622
300.333289789
300.282895641
300.233849253
300.186562064
300.142324438
300.10268758
300.069074883
300.042893727
300.02525375
300.015691201
472.689407006
362.144265862
319.711199391
305.867714605
302.09755238
301.079390868
300.748462448
300.607648232
300.52120619
300.447798005
300.38199598
300.323256026
300.268254309
300.215551231
300.165856536
300.12081727
300.082098994
300.051492813
300.03068586
300.019488926
538.304892906
374.5665638
324.147007349
307.774024635
302.82161659
301.337143828
300.867304352
300.68581199
300.589737076
300.51162449
300.436244077
300.366499031
300.303185111
300.244362396
300.188927462
300.138376667
300.094633717
300.059836507
300.03619188
300.023664453
561.552797851
380.167392086
325.963613713
308.497482453
303.027547562
301.416703172
300.925817801
300.738298503
300.641882302
300.561642418
300.482483088
300.407042017
300.33589434
300.2705404
300.209523389
300.153784963
300.105524512
300.067232886
300.04150758
300.028169159
567.832634144
381.651826017
327.235398129
309.132911705
303.128235491
301.412794008
300.941068072
300.771714729
300.679886967
300.599312984
300.517845396
300.439024739
300.363373677
300.292390565
300.226154337
300.16587359
300.113950874
300.073255912
300.04655259
300.033032946
553.81725434
383.85879152
330.153756441
310.825203251
303.770768649
301.569707772
300.970011012
300.796872271
300.705581949
300.625778534
300.544490018
300.463566233
300.384708578
300.309094615
300.238211542
300.174145792
300.119679134
300.07802613
300.051597398
300.038391435
487.468410799
377.736274547
333.075252702
313.396502025
305.075525515
302.059748075
301.115029953
300.84585191
300.731290801
300.64617335
300.564737888
300.482966082
300.401159307
300.321058652
300.246074353
300.179234989
300.123592864
300.082243679
300.056893791
300.044234992
430.966784601
365.926310075
333.194575469
315.26380393
306.449034535
302.750588129
301.388646123
300.949702886
300.773370627
300.668969724
300.582962708
300.498989575
300.413708655
300.329630255
300.250995564
300.182041093
300.126073308
300.086180549
300.062537299
300.050623483