/*--------------------------------*- C++ -*----------------------------------*\
| =========                 |                                                 |
| \\      /  F ield         | OpenFOAM: The Open Source CFD Toolbox           |
|  \\    /   O peration     | Version:  2312                                  |
|   \\  /    A nd           | Website:  www.openfoam.com                      |
|    \\/     M anipulation  |                                                 |
\*---------------------------------------------------------------------------*/
FoamFile
{
    version     2.0;
    format      ascii;
    arch        "LSB;label=32;scalar=64";
    class       volScalarField;
    location    "0.11/water";
    object      alpha.gas;
}
// * * * * * * * * * * * * * * * * * * * * * * * * * * * * * * * * * * * * * //

dimensions      [0 0 0 0 0 0 0];

internalField   nonuniform List<scalar> 
1497
(
0.749708598694
0.71391536759
0.644341696475
0.553937210446
0.459660225386
0.361659761079
0.257858504642
0.170036315503
0.143151778305
0.143184863925
0.143161550682
0.14934717122
0.213185708546
0.87436777007
0.869733691652
0.854168105475
0.836598537579
0.82751488357
0.820723449187
0.81184001755
0.794980469706
0.761826511266
0.703962724054
0.623209666904
0.530945312374
0.433328974923
0.324145754744
0.201889147893
0.143184863925
0.142943203443
0.143184863925
0.143194516841
0.221577060126
0.875813690716
0.874365005074
0.861587849658
0.842403599035
0.8321417095
0.824333779935
0.813880282509
0.795190586242
0.760862142463
0.704621522336
0.627152926722
0.538911714609
0.445162325858
0.339252095418
0.216564062182
0.143003007193
0.143184863925
0.142547213538
0.143184863925
0.242580125751
0.87436777007
0.874605846984
0.862371157955
0.8414413666
0.829212502598
0.819546410804
0.806119936799
0.781943489165
0.74135210764
0.683042775873
0.609703899411
0.527646266807
0.437881939226
0.333267778943
0.211820356457
0.143184863925
0.142555720183
0.143166065293
0.142324133668
0.276566059585
0.87576102089
0.874242356917
0.858123607292
0.832241935386
0.815576249377
0.801690057714
0.781803684765
0.747466533116
0.69524322562
0.630772221104
0.560916688198
0.487404991678
0.404523099189
0.302014158662
0.185183568446
0.142916336277
0.143166065293
0.141729240549
0.146287765359
0.312812635394
0.874242356917
0.87083094504
0.842474821993
0.810047819214
0.789598582376
0.771386358913
0.743700293986
0.697478536619
0.634157903487
0.564594821918
0.495953463122
0.426649471389
0.346519774297
0.244060776341
0.15050753429
0.143184863925
0.142027095707
0.143166065293
0.189518187314
0.325662581814
0.875152604229
0.855602331621
0.813714801231
0.777149081882
0.755354546157
0.733201892858
0.696669543943
0.639400515501
0.569171542881
0.497883874756
0.430174661219
0.361115697479
0.278254795438
0.179249936387
0.143184863925
0.14238496793
0.143184863925
0.141574003069
0.261850049563
0.325691406318
0.874192102505
0.827501479965
0.774650785104
0.737596136758
0.715124903783
0.686734234425
0.639815027088
0.574144327934
0.501358456956
0.431593191771
0.365437643184
0.294317506776
0.207931580679
0.144781067636
0.142750282827
0.143184863925
0.141573344223
0.143184863925
0.338518285785
0.313812583427
0.870994940396
0.78508903593
0.728972439223
0.69393380498
0.666829279111
0.628085740441
0.57024256721
0.499275445213
0.427799626544
0.362030129223
0.297332019491
0.223650797189
0.153543999819
0.142974782253
0.143184863925
0.141573344223
0.143184863925
0.224979477404
0.370199355248
0.262110539189
0.846646067782
0.726691699408
0.678973904617
0.643925545841
0.606935863229
0.554219200536
0.486078500871
0.412980746536
0.345678011282
0.284320965247
0.220854197227
0.15940317583
0.143042966135
0.143218969343
0.141573899792
0.143184863925
0.155628769707
0.396076712896
0.375945844723
0.202627189464
0.789927160267
0.655612133555
0.617799122269
0.579040008297
0.530223729949
0.4642131018
0.388712997618
0.316788873361
0.253549950691
0.19718938772
0.153538671501
0.143047889481
0.143218969343
0.141644693255
0.143218969343
0.151646660715
0.353326114494
0.485574507778
0.36324353751
0.180031374256
0.726115662442
0.557054686304
0.529551860415
0.489242462977
0.434286535377
0.362514271203
0.286871208273
0.219356761962
0.166412899946
0.144484570567
0.142976245295
0.143218969343
0.141580027068
0.143218969343
0.17851971246
0.373893264809
0.54646479711
0.505577583354
0.364339006155
0.187057465029
0.660185761501
0.439801661769
0.418414178707
0.382989025739
0.332941065693
0.26815450334
0.203197726653
0.151948326603
0.14326045108
0.142473453611
0.14326045108
0.142201082251
0.167116877648
0.267908963976
0.43839332099
0.553299943007
0.558721485882
0.527485802386
0.405733571039
0.232330020633
0.567008679473
0.362770401736
0.35635030292
0.331084049957
0.285871270713
0.229022991916
0.176240184697
0.14326045108
0.142507538685
0.14326045108
0.165649986072
0.262113595251
0.400337335808
0.509095088547
0.557335564181
0.558721485882
0.557788664608
0.549104292662
0.468139756062
0.312267798312
0.484937724117
0.375713655547
0.374558344227
0.350353995058
0.301724540281
0.245218272633
0.197999630772
0.172675946844
0.181272317987
0.230164073854
0.351726166941
0.477740461083
0.537326846829
0.557788664608
0.558187640284
0.557788664608
0.558188972628
0.550536258673
0.495092424374
0.380825206716
0.502790915349
0.491641765355
0.497090847966
0.478204596766
0.434410850045
0.393704922389
0.372607299737
0.372570610852
0.393359527975
0.437135352054
0.487018027688
0.517109846882
0.534522714269
0.545804127846
0.551921940935
0.555915599237
0.5566546118
0.540903172061
0.496930030618
0.418175842745
0.627758018562
0.683668560323
0.688764028891
0.684564073535
0.670497055242
0.663051656829
0.665457843447
0.672271781641
0.67317384635
0.642891563987
0.584294717197
0.538347901592
0.51854283612
0.514879721649
0.517510469397
0.524806205067
0.528171118169
0.517290426636
0.495858237712
0.437232967015
0.755587069638
0.782457200262
0.784197337049
0.78928609862
0.792470794708
0.796612514065
0.800594587407
0.802951427713
0.800941640757
0.77988656461
0.721755044546
0.635574752726
0.556664016176
0.511146053893
0.48742657858
0.478504794058
0.480108632491
0.487655764326
0.490171333558
0.448450669232
0.796213207584
0.800556152264
0.802745883831
0.810908831312
0.816936429986
0.819593894328
0.819552539393
0.819962615066
0.819552539393
0.818853810389
0.803645351189
0.755086714434
0.662402691832
0.567306740347
0.503869934387
0.465499239633
0.447180955423
0.461965598883
0.478958124158
0.454616042389
0.802524948052
0.801748752192
0.804613673035
0.813703715685
0.819675172571
0.819552539393
0.820218465816
0.819552539393
0.820169832477
0.819552539393
0.819342262174
0.794408139762
0.72808132064
0.641084916644
0.554059509848
0.477733020158
0.433380281613
0.442257119028
0.466780331397
0.456262108629
0.802597786063
0.79866975315
0.801195631479
0.811185753147
0.819552539393
0.820074454138
0.819552539393
0.820225695142
0.819552539393
0.819985267758
0.819552539393
0.796077092708
0.738324378543
0.668267351798
0.589975133239
0.498688246033
0.42779875913
0.428165046535
0.454778436256
0.454770424571
0.798149454992
0.788250882377
0.789785578722
0.801195000145
0.81748512256
0.819552539393
0.820033267272
0.819552539393
0.819993692719
0.819552539393
0.818669780365
0.792066127893
0.736419205458
0.671905224975
0.59839420953
0.504734648694
0.421935893249
0.415138546115
0.444358510375
0.451949007542
0.785430930786
0.771613570075
0.772720477798
0.785112082575
0.808680397031
0.819659709081
0.819552539393
0.819861947725
0.819552539393
0.81966550268
0.81300253617
0.77992154842
0.728154793969
0.669973025548
0.597285429297
0.500502686491
0.409110498477
0.400858171375
0.43676133088
0.449338208074
0.767088195412
0.750745285654
0.753908021351
0.76804901734
0.79338976647
0.814093965176
0.819016735561
0.819552539393
0.819632900094
0.817284934308
0.799715975388
0.761582959264
0.714549836686
0.661616004273
0.587527809323
0.484407137017
0.38842468102
0.385376488552
0.433326045571
0.446738524579
0.741816025886
0.725903108251
0.735404154216
0.753272564065
0.774265468501
0.797911420141
0.809738459163
0.812739338349
0.812079521938
0.804746683653
0.779058495363
0.741541437237
0.699512545824
0.64678746223
0.567238515185
0.458387988037
0.363705714173
0.370159780601
0.434714085487
0.443538270618
0.70667051621
0.699300022788
0.719263084005
0.741577679666
0.753844427596
0.77181874926
0.785421666305
0.789793132646
0.78882534929
0.778102984929
0.753175544155
0.721576103464
0.683302542963
0.626623443306
0.538417740988
0.425390998473
0.340972960014
0.36204103737
0.442505430187
0.439482066981
0.671931932359
0.675540022984
0.706149289265
0.732084288728
0.735220424437
0.740261789068
0.745849643608
0.748170074305
0.747962073905
0.7397449334
0.72308767943
0.69956767421
0.662310163657
0.598839638836
0.500301616618
0.386107241189
0.33103398996
0.364061007318
0.45829209386
0.432578324692
0.657613224451
0.660669450548
0.690884970912
0.724688220934
0.72240347686
0.709780596643
0.694832818326
0.689626688488
0.692351351325
0.692148287902
0.686240793754
0.669710964368
0.631005022541
0.558767009549
0.451814458387
0.346578249108
0.331018677537
0.384587775716
0.486572517944
0.419851055793
0.656954037826
0.657613224451
0.672393308669
0.717430632803
0.717653313634
0.690745147244
0.639808221896
0.617504816714
0.625274749666
0.635408653582
0.638119698091
0.625340549672
0.583729735901
0.503026730842
0.395501232252
0.328427623497
0.336244141236
0.450452074133
0.518191126937
0.402004814464
0.657613224451
0.656220914554
0.658260616386
0.707448162493
0.716416389632
0.691969005255
0.604032973753
0.543366013491
0.544504343627
0.565111527097
0.573546008215
0.562120315867
0.518193320509
0.434239171349
0.343454450527
0.328402389117
0.373979829865
0.539728543221
0.53571897532
0.388207937773
0.655064697368
0.657613224451
0.656578837624
0.691161199289
0.714483870175
0.69723641902
0.616539182379
0.501074682532
0.464227746512
0.482799331476
0.493491433361
0.483260013724
0.43994620472
0.36569809669
0.328351919804
0.329311168378
0.467128161373
0.561024422928
0.541322068668
0.386920109378
0.657613224451
0.654055449763
0.657613224451
0.670865984672
0.70965057518
0.702306092226
0.649423071377
0.516874437243
0.43456794312
0.415648810575
0.417686903895
0.406598570505
0.368757030021
0.329454223294
0.327908357241
0.358289749914
0.55718573003
0.560015987825
0.551707268033
0.392588018076
0.653975208781
0.657613224451
0.654131503244
0.657644243511
0.699931456002
0.703869260744
0.677947029293
0.564838916155
0.446787499302
0.40331467702
0.382306044434
0.361147867892
0.331555259583
0.328116257303
0.328351919804
0.430986174677
0.560035575459
0.562427871132
0.560015987825
0.408632242854
0.657613224451
0.652791534327
0.657613224451
0.655743295058
0.685001840387
0.703830339636
0.692886798516
0.618385368715
0.485742596556
0.41131080742
0.381513979344
0.35217916482
0.328277686715
0.328351919804
0.32821445449
0.518758307211
0.563386367593
0.560035575459
0.56133030285
0.426847409874
0.653237332136
0.657613224451
0.652460120051
0.657613224451
0.667405664783
0.703412727339
0.698355577554
0.654888567683
0.538802257219
0.436993092461
0.388677512366
0.353049977925
0.328351919804
0.327568785434
0.34894268767
0.561048012248
0.560068381512
0.562998384086
0.560035575459
0.440861234961
0.657613224451
0.651865023761
0.657613224451
0.653147870972
0.657613224451
0.7005147502
0.698904868724
0.670191089709
0.578368227562
0.472488132489
0.404955550529
0.356199036987
0.328116768091
0.328351919804
0.392162106683
0.560068381512
0.563807558542
0.560068381512
0.561514490594
0.450205500164
0.652604576973
0.657613224451
0.651624337651
0.657613224451
0.655787601273
0.695251960367
0.698212700588
0.670694328366
0.587628533926
0.491163667016
0.415626219394
0.357114691768
0.328351919804
0.327632198842
0.437289310195
0.562978941624
0.560199615605
0.563091995635
0.560068381512
0.456507218748
0.657613224451
0.65129411176
0.657613224451
0.651737441043
0.657613224451
0.687870409604
0.695602225064
0.666890623409
0.582948858612
0.489812441924
0.4146051372
0.3544413874
0.328034632457
0.328351919804
0.472583313553
0.560199615605
0.563900451635
0.560199615605
0.561525311472
0.460785831038
0.268846909402
0.145310278837
0.0263831996215
0.00907007918403
0.0055942206723
0.0030982860963
0.00128987303128
0.000374373139324
7.64900050731e-05
1.25330302941e-05
2.11726664558e-06
2.89646486632e-07
1.55290452621e-08
7.77008498795e-11
9.0966833601e-15
1.19641019707e-14
1.42952362619e-14
1.53411824879e-14
1.47759059373e-14
1.65809519439e-14
0.289872575338
0.170132974807
0.0374572228533
0.0110863061677
0.0068277103284
0.00414838151684
0.00199856035184
0.00067003030398
0.00015091661028
2.46804273453e-05
4.18132005163e-06
6.42294861289e-07
4.03221799326e-08
2.7450994349e-10
8.91158162456e-15
1.14175011512e-14
1.43368819334e-14
1.58261627812e-14
1.47598662439e-14
1.60974157025e-14
0.290229842269
0.175593563684
0.045035988915
0.0132557434017
0.0080260785465
0.00522441329317
0.00288331851023
0.00112312786613
0.000282966088496
4.67803679192e-05
7.45120100185e-06
1.34682890521e-06
9.82414428963e-08
8.80460185464e-10
8.83156861176e-15
1.08484219491e-14
1.43101479144e-14
1.61328609306e-14
1.57481808513e-14
1.58073071979e-14
0.289872575338
0.168890646322
0.0459123308258
0.0153943445732
0.00914752694706
0.00613135397919
0.0037512086402
0.00168245256876
0.00047806984982
8.33873163832e-05
1.1614443058e-05
2.43508564168e-06
2.08840617722e-07
2.44390046674e-09
8.82423352815e-15
1.03555333167e-14
1.42295729456e-14
1.62512205681e-14
1.62116485564e-14
1.56374129843e-14
0.289327354782
0.144658017303
0.0422874359203
0.0169495741721
0.0101311723409
0.00681698297515
0.00440792802516
0.00221416261319
0.000705882519043
0.000133284511681
1.63981029719e-05
3.60446705332e-06
3.58882034852e-07
5.47232718346e-09
8.8239967466e-15
1.00029181166e-14
1.41788190419e-14
1.62858523688e-14
1.62598728567e-14
1.55231815969e-14
0.262315457374
0.110669483965
0.0360136452091
0.0171600166581
0.0104486487036
0.00705885652803
0.00479891169437
0.00258978523577
0.000904732533989
0.000185071969114
2.17142774156e-05
4.44175833394e-06
4.81425282756e-07
9.25391435618e-09
8.82423334448e-15
9.81780459516e-15
1.41983312644e-14
1.62879557759e-14
1.61779510261e-14
1.5415254261e-14
0.215221802081
0.0778561444454
0.0307924030578
0.0169078212804
0.010376849705
0.00703328741296
0.00484725089396
0.00275909988216
0.00102129993111
0.000223143933165
2.69823610472e-05
4.79213404859e-06
5.21345875181e-07
1.12853820543e-08
8.82399656535e-15
9.76698381147e-15
1.43433812478e-14
1.62860082805e-14
1.5908784739e-14
1.52736882927e-14
0.155063672711
0.0547530917777
0.0270930354645
0.0160262845402
0.00996984501117
0.00687238150554
0.004799951816
0.00275159232195
0.00105437996242
0.000242728961474
3.13521936907e-05
4.80097940815e-06
5.1219174754e-07
1.09729666105e-08
8.82423318704e-15
9.7833062316e-15
1.46398829308e-14
1.62869453301e-14
1.55277854446e-14
1.50724199848e-14
0.103664375634
0.0425592651915
0.0241708895793
0.0146459278616
0.00934641375905
0.00660985557327
0.00467190860905
0.00269964643797
0.00105366804535
0.000253591747009
3.52085584462e-05
4.68258836348e-06
4.66748437747e-07
8.54517119555e-09
8.82399640852e-15
1.03396473114e-14
1.5000835145e-14
1.62534033281e-14
1.51287146216e-14
1.47944402105e-14
0.0768649257116
0.0367385488109
0.0220138116996
0.0135803706621
0.00892872985926
0.00641481756947
0.00455094252257
0.00265507428536
0.00106342010958
0.000268299321593
3.99732938435e-05
4.61270874049e-06
4.1473309167e-07
5.21440253918e-09
8.82423303245e-15
1.15960695751e-14
1.5310027893e-14
1.6114275386e-14
1.47645577783e-14
1.44216369379e-14
0.0691357947983
0.0344541747798
0.021214407438
0.013345377923
0.00887982399284
0.00639276079179
0.0045435163102
0.00269140433813
0.00112483338503
0.000301033237346
4.8240581477e-05
4.90664771103e-06
3.91658446071e-07
2.64696723814e-09
8.82399627475e-15
1.29412780213e-14
1.54398925012e-14
1.5955352607e-14
1.44761583586e-14
1.39461981733e-14
0.0701822227108
0.034532017558
0.0215401227639
0.0138154917872
0.00921547859066
0.00658557038743
0.00470706263897
0.00289555696546
0.00129047098478
0.000372504830269
6.45993229226e-05
6.22246815877e-06
3.9669661909e-07
1.15125690916e-09
8.82423289998e-15
1.40312054077e-14
1.54370468552e-14
1.58130056018e-14
1.43043860001e-14
1.3378583503e-14
0.0855160091315
0.0378303936105
0.023584423825
0.0155559743547
0.0102930295044
0.00718855478097
0.00514900216397
0.00331807441557
0.00160626592349
0.000509901309619
9.6841183041e-05
9.49821532913e-06
4.52324520479e-07
6.53912783926e-10
8.82399616665e-15
1.46195625932e-14
1.53897019005e-14
1.56817226087e-14
1.42727379526e-14
1.27470692616e-14
0.129310282253
0.0479416450044
0.0275731763011
0.0184499495555
0.0121774147238
0.00824460396402
0.00584747703907
0.00393498644752
0.00209535061532
0.000744630577381
0.000157089648553
1.64561949031e-05
6.19535606553e-07
7.00032405146e-10
9.73957949899e-15
1.47363405124e-14
1.53087764999e-14
1.55615187054e-14
1.43747447884e-14
1.20938715222e-14
0.196005113804
0.0682623590318
0.0332542593512
0.0218786559002
0.0146843899641
0.00972843083152
0.00675159557006
0.00467685732084
0.00273358896703
0.00109939485199
0.000260524786929
2.97300784675e-05
9.73590787602e-07
1.08508368387e-09
1.23297371823e-14
1.47099366889e-14
1.5208229815e-14
1.54530511238e-14
1.46491349924e-14
1.14658134217e-14
0.260586736131
0.100592827413
0.0411728446942
0.0252941843468
0.0173214148017
0.0114909120225
0.00778702964208
0.00545025433666
0.0034377998955
0.00156226281153
0.000418027596348
5.20414601745e-05
1.60759113225e-06
1.27412153039e-09
1.25299585546e-14
1.46532253455e-14
1.51025528003e-14
1.53862433953e-14
1.50461688177e-14
1.09059618751e-14
0.307834597093
0.140218411401
0.0522377676636
0.0285446143048
0.0195230969467
0.0132028777125
0.0088278291588
0.0061643359832
0.00409785820194
0.00207013796248
0.000621610863889
8.38339024313e-05
2.49109555548e-06
1.20994233662e-09
1.24057491713e-14
1.45897234817e-14
1.50136857753e-14
1.53972025088e-14
1.55564519879e-14
1.04495520932e-14
0.33965476658
0.177907869409
0.0663686266014
0.0317452091546
0.0210432776328
0.014503105595
0.00970001152874
0.00673944652292
0.00462683135104
0.0025311486606
0.000834443200112
0.000118673101364
3.20023308517e-06
9.41486522967e-10
1.22739751829e-14
1.45321770841e-14
1.49522264676e-14
1.54465400742e-14
1.61870833958e-14
1.01192018311e-14
0.360966575836
0.207101225787
0.0813799205365
0.0348538022063
0.0218979959169
0.0151999333816
0.010241862705
0.00711024804252
0.00497841673711
0.00286785317158
0.00100273705176
0.000141688160659
3.29492577898e-06
3.67507831896e-10
1.22707378715e-14
1.44875955999e-14
1.4899644619e-14
1.54726747168e-14
1.69098397437e-14
9.90477798231e-15
0.374459000809
0.225959559592
0.0937540202662
0.0374157502523
0.0221335786121
0.0153239776707
0.0103936321311
0.00724658537885
0.00513830129049
0.00303665472851
0.00108026767781
0.000144242194324
2.85078675317e-06
8.2901420284e-12
1.2415561599e-14
1.44532690819e-14
1.48389816261e-14
1.54248953979e-14
1.76335915287e-14
9.78803977463e-15
0.38125842765
0.234841731357
0.100385880914
0.0386112778297
0.0218204165013
0.0149820436302
0.010232780848
0.00720099914151
0.00514311875504
0.00304951628473
0.00106724307128
0.000125525949344
1.59503457423e-06
7.66109654968e-15
1.24979381747e-14
1.44198996474e-14
1.47706957055e-14
1.52537086059e-14
1.82250387802e-14
9.75300270329e-15
0.381714909052
0.234947726179
0.100823963397
0.0382242923248
0.0207757785709
0.0140648104705
0.00967093864242
0.00693648344579
0.00499512907987
0.00290750062789
0.00093541035783
8.18389869048e-05
4.82764645112e-07
7.65885769191e-15
1.237764826e-14
1.4392075487e-14
1.47099881754e-14
1.5002478832e-14
1.87258116203e-14
9.7509535534e-15
0.376776088953
0.226224314959
0.0948805172781
0.0356287457747
0.01916467459
0.0128285080196
0.00889268526272
0.00651601171325
0.00467177897349
0.00256458635285
0.00069474974777
3.9782165235e-05
7.58108926863e-08
7.65688742092e-15
1.22146752015e-14
1.43689159249e-14
1.46645476361e-14
1.47494180249e-14
1.87609815518e-14
9.74460404929e-15
0.364670917142
0.207156185077
0.0821627650278
0.0311528611699
0.0171928202798
0.011458453315
0.00807217247393
0.00603701221384
0.0042313665179
0.00209299062442
0.000436920850476
1.4493891361e-05
4.07427815985e-09
7.65495723179e-15
1.22010896226e-14
1.43393893053e-14
1.46314814384e-14
1.45406650243e-14
1.87380978218e-14
9.74539959295e-15
0.345192902793
0.180145604863
0.0663895709931
0.0261815294016
0.0150711048112
0.010077623075
0.00728829091165
0.00552730901137
0.00369252947254
0.0015579866028
0.00022831071437
3.79367746444e-06
2.63739156355e-15
7.65306256069e-15
1.23249756714e-14
1.42987304657e-14
1.4599908182e-14
1.43813860543e-14
1.87781256326e-14
9.73320324612e-15
0.316443049784
0.147214984066
0.0507226423177
0.0217151910525
0.0130245770128
0.00881622770142
0.00659521562278
0.00499475565983
0.00307166502547
0.00103622211972
9.69692884188e-05
6.87480639528e-07
2.61299684506e-15
7.72239708879e-15
1.24611625472e-14
1.42511602513e-14
1.45577441824e-14
1.4263273386e-14
1.87380978218e-14
9.73781979013e-15
0.277597366258
0.112438172059
0.0380861618603
0.0182373379354
0.011220431105
0.00778626405693
0.00601325697206
0.00444380320102
0.00241681651349
0.000616104597931
3.55567651582e-05
1.05625444267e-07
2.63739156319e-15
7.8801603863e-15
1.25574881927e-14
1.4213086731e-14
1.44986651088e-14
1.41889232727e-14
1.87767608248e-14
9.72791993871e-15
0.232681184708
0.0831916039822
0.0301971137277
0.0157692036868
0.00977878995495
0.00703942132314
0.00553253404203
0.00389176111841
0.00181921858719
0.000349675861209
1.40616864228e-05
2.76180816848e-08
2.61299684517e-15
8.03687856127e-15
1.26400003171e-14
1.41955735011e-14
1.44266214611e-14
1.4103173527e-14
1.87380978218e-14
9.72914817537e-15
0.19531915568
0.0662547410401
0.026443480031
0.0141433401617
0.00879626418399
0.00655450103437
0.00514070818198
0.00339141614416
0.00137594606532
0.000219265317953
7.99021936429e-06
1.99664328818e-08
2.63739156326e-15
8.1947868429e-15
1.27115419364e-14
1.41882697747e-14
1.43433275102e-14
1.39896691301e-14
1.87710832805e-14
9.71940715103e-15
0.178426227525
0.0602918108547
0.0250886432866
0.0132664429702
0.00827702563712
0.00627114797184
0.00484560097165
0.00301893083708
0.00112243647973
0.00016956840004
6.55897371109e-06
2.0209842001e-08
2.61299684555e-15
8.31908300772e-15
1.27543405573e-14
1.41790809025e-14
1.42491776082e-14
1.38794362194e-14
1.87380978218e-14
9.72352826273e-15
0.176222856731
0.0593592062621
0.0248804841738
0.0130257166054
0.00810085601687
0.00613714297748
0.00466825548574
0.00281806739152
0.00101929073645
0.000156153254474
6.41787366816e-06
2.28486481492e-08
2.63739156384e-15
8.34845202586e-15
1.27588374668e-14
1.4157967769e-14
1.41489488992e-14
1.37823903577e-14
1.87611375582e-14
9.71852877024e-15
0.179293885675
0.0603549743698
0.0252792799369
0.0131083548956
0.00809859630039
0.00610831406898
0.00460917589169
0.00276337468583
0.00100071216592
0.000156083522013
6.79186420849e-06
3.21936378148e-08
2.61299684557e-15
8.29016152536e-15
1.27273117036e-14
1.41173133885e-14
1.40450883854e-14
1.37024317124e-14
1.87380978218e-14
9.71669197297e-15
0.19040213716
0.0644961413568
0.0268520771137
0.0136725068456
0.00824234016627
0.00613302755692
0.00461712187688
0.00277893329785
0.00102132824371
0.000167464569514
8.33692184049e-06
5.36892282196e-08
2.63739156385e-15
8.08773249227e-15
1.26322483041e-14
1.40563493601e-14
1.39397017281e-14
1.3638837893e-14
1.87518231902e-14
9.7140370738e-15
0.206321110523
0.0709255732881
0.0293668432066
0.0148483924594
0.00863850924053
0.00625341812367
0.0046997969818
0.00288542399532
0.00111074854243
0.000199042853154
1.1386049222e-05
9.15669812291e-08
2.61299684578e-15
7.79565529165e-15
1.24830717559e-14
1.39778952162e-14
1.3841055004e-14
1.358508484e-14
1.87380978218e-14
9.6973829016e-15
0.220747596944
0.0773931027203
0.0319985102067
0.0163186393384
0.00922179390011
0.00647357449231
0.00487217802284
0.00308913860347
0.00126418318548
0.000247605235264
1.59510905608e-05
1.53081553158e-07
2.63739156387e-15
7.48624731708e-15
1.22954162216e-14
1.38886958891e-14
1.37565002034e-14
1.35293464839e-14
1.87434519746e-14
9.55492024771e-15
0.231886021027
0.0830133297581
0.0343373217978
0.0177793781125
0.00988140791703
0.00673760056371
0.00507598701088
0.0033238245925
0.00144495780519
0.000307955778564
2.22047115812e-05
2.49433114488e-07
2.61299684582e-15
7.17815701153e-15
1.20819602762e-14
1.37986043537e-14
1.36871056177e-14
1.34681124618e-14
1.87380978218e-14
9.33950651948e-15
0.240283836322
0.0877697950998
0.0363655124553
0.0191319014495
0.0105658315579
0.00701096310077
0.0052712871509
0.00355015303674
0.00163500904087
0.000378897679232
3.05023889812e-05
3.97356542067e-07
2.63739156426e-15
6.87568811671e-15
1.18560536766e-14
1.37159544987e-14
1.36285685018e-14
1.34006736905e-14
1.87063326097e-14
9.13151875318e-15
0.246648579553
0.0917890319097
0.0381502686002
0.0203711472191
)
;

boundaryField
{
    emptyPatch
    {
        type            empty;
    }
    minY
    {
        type            fixedValue;
        value           nonuniform List<scalar> 0();
    }
    maxY
    {
        type            inletOutlet;
        phi             phi.gas;
        inletValue      nonuniform List<scalar> 0();
        value           nonuniform List<scalar> 0();
    }
    water_to_cooler
    {
        type            zeroGradient;
    }
    water_to_heater
    {
        type            zeroGradient;
    }
    procBoundary1to0
    {
        type            processor;
        value           nonuniform List<scalar> 
41
(
0.652091166847
0.657613224451
0.65067383385
0.657613224451
0.652634546867
0.68474422613
0.691214784948
0.65736657395
0.568480417373
0.480563977634
0.407163774902
0.345315446414
0.328351919804
0.327897692371
0.491248785837
0.563481037251
0.560201233738
0.563284122432
0.560199615605
0.463980948948
0.0112651182098
0.00729003286025
0.00545453284769
0.00376389925947
0.00183120655033
0.000460635274055
4.11711007361e-05
6.17594353953e-07
2.61299684587e-15
6.58475863959e-15
1.16275156536e-14
1.3643760289e-14
1.35745926229e-14
1.33298387955e-14
1.86423718976e-14
8.92425530328e-15
0.251786613418
0.095329474857
0.0397671694561
0.0112651182098
0.0215105433086
)
;
    }
    procBoundary1to3
    {
        type            processor;
        value           nonuniform List<scalar> 
41
(
0.554351052869
0.528333113564
0.468661855974
0.391495971455
0.31847075285
0.249510507808
0.189223144547
0.153188393394
0.143444282175
0.143606324059
0.147060758043
0.164574995293
0.209603563447
0.832962788189
0.841553807651
0.819640433439
0.797732521757
0.780199738724
0.769391272952
0.76239363676
0.76239363676
0.229658890464
0.103035468089
0.0176797740457
0.0074261781225
0.00454072261928
0.00228895688219
0.000836409811279
0.000213112177832
3.96549111993e-05
6.33717964524e-06
1.073445271e-06
1.35269761563e-07
5.98190213827e-09
2.00194711131e-11
9.34345898042e-15
1.23811971792e-14
1.41874247375e-14
1.49945164585e-14
1.4760539281e-14
1.71764047199e-14
)
;
    }
}


// ************************************************************************* //
