/*--------------------------------*- C++ -*----------------------------------*\
| =========                 |                                                 |
| \\      /  F ield         | OpenFOAM: The Open Source CFD Toolbox           |
|  \\    /   O peration     | Version:  2312                                  |
|   \\  /    A nd           | Website:  www.openfoam.com                      |
|    \\/     M anipulation  |                                                 |
\*---------------------------------------------------------------------------*/
FoamFile
{
    version     2.0;
    format      ascii;
    arch        "LSB;label=32;scalar=64";
    class       volScalarField;
    location    "0.77/water";
    object      km;
}
// * * * * * * * * * * * * * * * * * * * * * * * * * * * * * * * * * * * * * //

dimensions      [0 2 -2 0 0 0 0];

internalField   nonuniform List<scalar> 
1496
(
3.2018823663
1.39650858622
0.729674377078
0.44520546684
0.314715587794
0.245983010197
0.200939938005
0.163406302136
0.126754269813
0.0899260289024
0.0559814398023
0.0323283271577
0.0186048593091
0.011717144902
0.00859294309185
0.00703342973133
0.00589035588906
0.00487513414342
0.00409317122046
0.00349260495237
2.91123045181
1.26544037918
0.651956408764
0.390156525737
0.27448593328
0.216862639556
0.180163581943
0.149342304696
0.118422316896
0.0862190480621
0.0548547528391
0.0323263273874
0.0190140099243
0.0122514789297
0.00915792483154
0.00762616126352
0.00649774581652
0.00549365846403
0.00471235204066
0.00407717768533
2.80665879045
1.21181448986
0.600679911857
0.340358839146
0.233206445576
0.184893961295
0.156349035008
0.132231157581
0.10687665335
0.0791362371149
0.0513423918111
0.0310728592189
0.0188793127725
0.0126034874457
0.00970271516186
0.00825050367142
0.00715050571983
0.00616253923311
0.00539429548309
0.00471818786298
2.83864153868
1.23446480355
0.587627535657
0.303177335728
0.193269493069
0.152027300862
0.130624593813
0.112483778872
0.0921650353694
0.0686946779462
0.0457282128704
0.0287127121843
0.0182562706125
0.0128046545954
0.0102445424855
0.00891190703719
0.00783929890198
0.00686602296269
0.00610984013829
0.00535711529929
2.87433298433
1.26072766445
0.589355207337
0.287942203202
0.166598767288
0.123865716344
0.10573621418
0.0916683639384
0.075617906425
0.0568046223825
0.0390146287416
0.0256404877909
0.0173070478619
0.0129263799604
0.0108089859144
0.00960026425864
0.00853372646409
0.00756433324119
0.0067865067615
0.00591109569603
2.802167475
1.26199103724
0.597530216689
0.291201200927
0.158325933428
0.106824259521
0.0859726765063
0.0729191034373
0.0598757415641
0.0455782392036
0.0324410323938
0.022556079644
0.0163903684706
0.013115967066
0.0114280184486
0.0102772711109
0.00917709216789
0.00817660760644
0.00729765805302
0.00634296150429
2.588587298
1.19754474297
0.58250132541
0.290771239675
0.155932143561
0.0978815441991
0.0728141515661
0.0589963500743
0.0477472461298
0.036872673744
0.0273367822972
0.0202933711951
0.015923132595
0.0134975290903
0.01207010365
0.0108573479348
0.0096778048261
0.00857143259056
0.00754731595357
0.00667133492033
2.34747828559
1.10895497296
0.551987786997
0.283800706204
0.154006840872
0.0935874562817
0.0654513502264
0.0504541092911
0.0400388732021
0.0313427834043
0.0242586611134
0.0191787105032
0.0159636111561
0.0140259072327
0.0125867752675
0.0112235355171
0.00988494468676
0.00865448865068
0.00763539300046
0.00694072132596
2.17558698752
1.04523084846
0.528892915499
0.280192639451
0.154635624132
0.0930766805692
0.0628182603152
0.0465801545266
0.0362540110846
0.0286370523861
0.0229075668121
0.018914521206
0.0163025226998
0.014455661267
0.0128309470703
0.0112098847191
0.00973788843907
0.00856781222016
0.00772045857421
0.00718514699404
2.09501487268
1.02328648698
0.529579924659
0.287298542041
0.160135784854
0.0961202988886
0.063771223926
0.0461157668247
0.0352650775653
0.0278639676681
0.0226545572812
0.0190802400645
0.0165797776223
0.0145271681462
0.0125559113815
0.0107683461362
0.0094583472151
0.00852633499706
0.00785701434559
0.00740969799057
2.10754088297
1.05694183513
0.559681567755
0.305528811058
0.170982502446
0.102700574418
0.0675303023412
0.0479330849815
0.0359818356052
0.0281102440893
0.0227554208066
0.0190380185269
0.0162089232227
0.0138267290495
0.0118198494219
0.0102843281164
0.0093176810049
0.00862989671705
0.00808367865033
0.00756264332232
2.25889154408
1.14029728436
0.598842469508
0.326396880603
0.18619490949
0.112414425573
0.0729639754638
0.0505433770985
0.0369567741169
0.0281435946079
0.0221966409691
0.0180673354277
0.0150725034067
0.0128258040037
0.0111706855776
0.0100478243108
0.00939011480608
0.00890560711924
0.00836507887517
0.00758608810703
2.48668817106
1.20715248261
0.617503075682
0.341233258857
0.200765033853
0.122879248144
0.0781014993178
0.0519107977182
0.0366716882801
0.0271313336812
0.0208849365538
0.0167465720322
0.0139718068758
0.0120875800619
0.010849861137
0.0101112946275
0.00970163076155
0.00932123599542
0.00861587202686
0.00734726942046
2.50919201433
1.16701768857
0.595007251885
0.334391210884
0.202234340799
0.127884242328
0.0822301197812
0.0518862503453
0.0354599543557
0.0257673903338
0.0196494750988
0.0157479233258
0.0132894194917
0.0117798252933
0.0109133315419
0.0104955968394
0.0102591750233
0.00978861262598
0.00863973385532
0.00672489965547
2.37196458692
1.10226718174
0.562552052186
0.311973457305
0.189350305982
0.124256130023
0.0833828372388
0.0516922901093
0.0343300501717
0.0246632737845
0.0187999627044
0.0151991551672
0.0130671944386
0.0118995149226
0.0113720779402
0.0112133258224
0.0109703925086
0.0100655703718
0.0081385707679
0.00577381012686
2.37951275254
1.11349251142
0.556334271734
0.29204858958
0.173003435598
0.116110205996
0.0800938051234
0.049899783114
0.0330434364232
0.0237260246757
0.0182390648669
0.0150206643722
0.0132692967898
0.0124702183849
0.012254700089
0.0121691854945
0.0115362970486
0.0097519286935
0.00711617075257
0.00466787394592
2.57402772615
1.17440360847
0.557111855729
0.271277115469
0.154942658801
0.104304773876
0.0716706664088
0.0461383057596
0.031254718963
0.0228460532913
0.0179868358068
0.0152884044807
0.013983251397
0.0135356503342
0.0134462255137
0.0130462198609
0.011486436301
0.00873199401225
0.00585134098717
0.00354095307574
2.80686407315
1.24057736772
0.567923733492
0.260274933292
0.140556687155
0.0920971992768
0.0626685468957
0.0419487600217
0.0295327255779
0.0223612821019
0.0182889126025
0.0161723062522
0.0152746467337
0.0149774089442
0.0146245039034
0.01332288428
0.0105974593249
0.00736962453631
0.00458471693353
0.00248958139883
2.84808594856
1.28515751834
0.598096106399
0.270971705006
0.135381919161
0.0829724107142
0.0557726537778
0.0387526793517
0.0285733473724
0.0226566788593
0.0193764656939
0.0177513803327
0.0170214667291
0.0164640827295
0.015318368721
0.0127591906584
0.00930144272418
0.0060370806507
0.00343144307375
0.00165874811459
2.68754528805
1.25996417815
0.606178547651
0.280565003744
0.134882221023
0.0778583927778
0.0518616479952
0.0373431948617
0.0289112581488
0.024044940313
0.0213589811769
0.0199272876142
0.0189193588627
0.0177039011453
0.0154192638481
0.0118142005982
0.00807518400046
0.00488043935297
0.0025186599169
0.00113742261704
2.51126157091
1.2253257518
0.598389103843
0.281283570398
0.136566802543
0.0774130216836
0.0516473786567
0.0384384417734
0.031056047034
0.0267612221486
0.0242946104239
0.022632423871
0.0210793648296
0.0188913067204
0.0152950265654
0.0109851426555
0.00711953970722
0.00405265543937
0.00195044775074
0.000892399324778
2.48732402162
1.23898279198
0.604504540281
0.293688029418
0.146945611914
0.0839025485796
0.0564023317897
0.0429247023341
0.0355602736506
0.0312599344861
0.0285667489655
0.0264953762643
0.0241680111179
0.020569508487
0.015545094964
0.0106352306831
0.00667638130366
0.00369985407228
0.00172210277065
0.000785970197214
2.64692959484
1.34163989928
0.680427628185
0.341415517276
0.174271241205
0.0998268812196
0.067032853717
0.051410727724
0.0431147747587
0.0382887070656
0.0351955455977
0.0326703081825
0.0291162592522
0.0234361449277
0.0167619900453
0.0111919529137
0.00700231020428
0.00389194339024
0.00177836625345
0.000758524266506
2.9596992007
1.61123389721
0.850565176143
0.430809061562
0.221703292416
0.126212632429
0.083647747753
0.0637532322942
0.0536551813619
0.0479420226226
0.0443201363703
0.0410290990466
0.0356891456106
0.0276452915529
0.0192389477741
0.0128730316468
0.00820821337784
0.00468090282432
0.00216355157564
0.0008316561889
3.78546632827
2.05687976277
1.04827726728
0.52590710103
0.272237670757
0.154292757598
0.100815602062
0.0758107344935
0.0633496581392
0.0564510213653
0.052065707355
0.0479101209698
0.0413243451647
0.0314270796454
0.0215951771566
0.0151699547451
0.0102880612578
0.00618528936411
0.00299722729156
0.00109664786424
4.92604810365
2.30317895872
1.08438696652
0.542795974194
0.290100231532
0.169102624775
0.111638403801
0.0835025308906
0.0694743197221
0.0616402023331
0.0565056961595
0.0516498998997
0.0443549141557
0.0332449232706
0.0219524190376
0.0159972160559
0.0120663746645
0.00813954573599
0.00436584369279
0.00170707109845
5.47187268921
2.3049937813
1.05537316071
0.528061650434
0.288166929098
0.173584330286
0.118036809455
0.0898591099221
0.0747864185127
0.0660115901679
0.0598580001014
0.053931341002
0.0457433667173
0.0338047123689
0.0215800874042
0.0157652092526
0.0122191207522
0.00919061651107
0.00585720024515
0.00274941517098
5.4714437985
2.29512362081
1.03837034366
0.518607084971
0.28891667244
0.179950565905
0.12598344691
0.0976332418906
0.0814721009476
0.0711964444569
0.0633379232384
0.0555006123283
0.045536087036
0.0324887147916
0.0213601276734
0.0156227733147
0.0119985798841
0.00918021471986
0.00656588268952
0.00389077108155
5.37294105845
2.25710646557
1.02508011541
0.520296191993
0.298288269005
0.191555354129
0.136841635112
0.106821807521
0.0887507620838
0.076390601624
0.0662180056553
0.0558332524047
0.0434836249931
0.0301137137842
0.0208554576969
0.0153364925206
0.0116900117132
0.00896033565924
0.00666079579479
0.00457928175243
5.25822616139
2.19323110954
1.01547384665
0.532312861662
0.315254403841
0.207504771569
0.149925916389
0.116878616044
0.0960135138589
0.0809554782998
0.06797209457
0.0546271842182
0.0400021504146
0.0280095130324
0.0199917490463
0.0147774855231
0.0112495182592
0.00866463862483
0.00658507657764
0.00491346888146
5.10211906575
2.10847173996
1.00903624162
0.549119631705
0.334943829026
0.224767954317
0.163654454114
0.127132417097
0.103062925479
0.0849073293138
0.0687091037851
0.0520681895612
0.0370434313098
0.0262949868025
0.0189632504036
0.0140600452141
0.0107474544668
0.00831054503646
0.00640307644472
0.00486761899141
4.784799893
1.98546894592
0.987546923918
0.556098833897
0.348097125261
0.237985225237
0.17502890952
0.135957126388
0.109031287039
0.0877516118485
0.0680470509198
0.0491832516681
0.0348783755146
0.0247903259237
0.0179032627736
0.013358459652
0.010241471037
0.00792042665982
0.00606212862353
0.00464371810093
4.20955800449
1.80017411997
0.924331749385
0.535535935754
0.344106486485
0.240737354924
0.179900809757
0.140498839949
0.111839686027
0.0879510714833
0.0651503130682
0.0463881833685
0.0327540451615
0.0232183498202
0.0168785418057
0.0127008027701
0.0097465338292
0.0074860580384
0.00579286196552
0.00467579528753
3.5383248722
1.5633532687
0.815310375663
0.48150343076
0.317758721382
0.228663684802
0.174621895039
0.137681174933
0.108939500205
0.0834543063504
0.0601891912612
0.0426515073407
0.0300293433006
0.0214171412752
0.0158243172176
0.0120330751214
0.00924355028746
0.00712403511135
0.00607073503033
0.00498580356942
3.00708662276
1.33303633766
0.676899277358
0.398635682945
0.270146457915
0.201207415942
0.157708538908
0.125543709783
0.0981118305475
0.0732365641376
0.0528402395899
0.0375045120974
0.0266036676154
0.0194101942625
0.0146847155447
0.0113381981479
0.00871544174766
0.00738411471949
0.00662532599386
0.00497526819648
2.83213190307
1.14708271289
0.535177987933
0.309793711917
0.215579904127
0.165680058942
0.132553655287
0.10596811234
0.0818660435756
0.0605722903504
0.0438347710031
0.0314243238582
0.0229103420111
0.0173574705274
0.0135406384414
0.0104920695713
0.00865034186238
0.0082674892273
0.00703340852242
0.00513254908581
3.12710190592
1.31121568728
0.558122049093
0.282863753913
0.183701264125
0.138486663089
0.109695479462
0.0864263570069
0.0657271807573
0.0484571579007
0.0351827510178
0.0257108527024
0.0194460317598
0.0152250796194
0.0120026869771
0.00983253658083
0.0094670535634
0.00902123818943
0.00754333711175
0.00552142058449
0.00108384862603
0.000969114235112
0.0010435792148
0.00113119511844
0.00100414213069
0.000758540426891
0.000750190854913
0.00112137814334
0.00196543734139
0.00335163667923
0.00497112688116
0.00546074543451
0.0060782122417
0.00594257173005
0.00497494428909
0.00887273381798
0.00281427010429
0.00231156040059
0.00182750027937
0.00136604175513
0.00106511098576
0.000952747180768
0.00104368365501
0.00111843549282
0.000932857313294
0.000679171906466
0.000702950572209
0.000931134653534
0.00145830421799
0.00244451635755
0.00371788804395
0.00458901043351
0.00540713930384
0.00559289156636
0.00483099285891
0.00876921363267
0.0032831062526
0.00264831239187
0.0020539271436
0.00149261186208
0.00111921685023
0.000952557514806
0.00102200894945
0.00108980471599
0.000921290262498
0.000669612319815
0.000686443014134
0.000848458483983
0.00120908647078
0.00185808147748
0.00284779611147
0.00361641825856
0.00460115767422
0.00507413809451
0.00464507393938
0.00858420613283
0.00380863833093
0.00307934962797
0.00238796112391
0.00172269985018
0.00125863911929
0.00100503920368
0.00100241749046
0.00105402942627
0.000936804579652
0.00068773904446
0.000667599112077
0.00080193059466
0.00114465429656
0.00161884596569
0.0022909212439
0.00271990324119
0.0040125886382
0.00424171539469
0.00441318066882
0.00831836468492
0.00437465660605
0.0036083118279
0.00284199604323
0.0020702785605
0.00149724364422
0.00113774409417
0.00102607700786
0.00103347150093
0.000949147386265
0.000757344613497
0.000661274596475
0.000731972120168
0.00108421972459
0.00157468621526
0.00204402399265
0.00198646430606
0.00342114814374
0.00346518725938
0.00419076196086
0.00800826253187
0.00496428600159
0.00422471405408
0.00340881213001
0.00253243707184
0.00184101517414
0.00135621074591
0.00111645693429
0.00104904462127
0.000979969965903
0.000845811798136
0.000717368503382
0.000690605298469
0.00100020387118
0.00159286570198
0.00207196707815
0.00160521827425
0.00275377475422
0.00300211977207
0.00402476364277
0.0077029175837
0.00555509491816
0.00489223009594
0.00404819212237
0.00307285066168
0.00223407936589
0.001635364948
0.00127150426061
0.00110579445002
0.00102519524091
0.000917249815287
0.000806580694436
0.000724013621925
0.000974588184164
0.00164283604768
0.00224937883381
0.00161361681197
0.00222410195861
0.00275834979527
0.00393251465434
0.00742667636498
0.00611434838185
0.00555095668224
0.00468662679741
0.0036157686161
0.0026310748833
0.00191658795742
0.00145595745553
0.00120282967244
0.00107985412313
0.000972630563959
0.000868071902306
0.000794495501477
0.00101580948521
0.00178113946379
0.00260265043539
0.00190438058639
0.00190541913016
0.00260105406787
0.00391024617066
0.0071932173547
0.00660468428494
0.0061246047022
0.00522593241419
0.00406841813528
0.00296876650901
0.00215443054853
0.00163449968064
0.00132534973981
0.00115562271968
0.00101994199791
0.00088291110223
0.000890878203373
0.00115126646689
0.00209490807316
0.00320367497879
0.00229851727889
0.00187121704172
0.00259975024735
0.00397108784478
0.0070257864048
0.00698101967052
0.00650787220716
0.00555899566164
0.00434058719298
0.00318706862327
0.00233331478021
0.00178782670658
0.00144978915084
0.00124330478194
0.00105955344958
0.000878322197816
0.000978286981968
0.00148956422811
0.00279955320461
0.0042367844097
0.00275164904814
0.00202264486185
0.00277428451718
0.0040896594144
0.00695834738603
0.00715275525797
0.00657622469836
0.00556237090107
0.00433238350332
0.00321777527421
0.00241107928154
0.00188493223167
0.0015433035336
0.00131018636097
0.00108474985471
0.000894190907948
0.00111388430957
0.0022430820025
0.00445764288251
0.00619233717258
0.00319076854181
0.00222315939932
0.00305534318171
0.00426632674982
0.00707002678696
0.00703530802125
0.00623671345685
0.00515047959805
0.00399075928826
0.00302489256539
0.00234361096009
0.00186848953355
0.00154863096178
0.00129606088439
0.00105434225213
0.000998160460432
0.00160068837881
0.00413428552725
0.00917768634042
0.0101977502003
0.00323494561285
0.00222293450461
0.00324923223618
0.00449114166004
0.00748633833244
0.00659025932538
0.0055048968287
0.00438830287484
0.00338923202103
0.00262715192231
0.00206393678495
0.00166581439568
0.00137406217863
0.00112447622282
0.00105432985729
0.00161880477403
0.00375317666254
0.0107477218171
0.0246467492392
0.0180246030468
0.0029996125985
0.00188271577925
0.00303071595867
0.00459276098698
0.00813376931756
0.00583883964586
0.00454132325442
0.00347636366648
0.00265553492191
0.0020242086186
0.00156842510429
0.00124150608631
0.000983915500175
0.00102002639884
0.00193402599766
0.00504727233209
0.0116533044936
0.0208918908286
0.0370932553791
0.0246058538762
0.00344844358426
0.00150047279567
0.00262212764452
0.00436106087824
0.00870861937562
0.00488981915331
0.00353959184969
0.00257402909337
0.001851434331
0.00134933776417
0.00101506596099
0.000818526335717
0.00100848384145
0.00239717484091
0.00640738177017
0.0106601780139
0.0158917894303
0.023899842618
0.0330812887349
0.0229887620099
0.00397530116907
0.00158705891381
0.00264740963437
0.00421157467842
0.00903565474578
0.00387798675758
0.00259258800365
0.00171175149784
0.00114772440431
0.000834927002671
0.000745163575996
0.000999103640407
0.0027485212769
0.00572976448322
0.0091314833525
0.0144073100862
0.0189014793589
0.0228419478513
0.0241692805331
0.0155821517064
0.00313875931433
0.00213233451047
0.00309884824727
0.00435343798014
0.00899847953263
0.0028752419873
0.00170355863694
0.00102770470141
0.000727540960303
0.000764567156919
0.00108037471506
0.00277266903593
0.00439462091511
0.00729217545519
0.0112420710768
0.014480869653
0.0171791725667
0.0188714592853
0.0179527047925
0.00734369957086
0.00244723755003
0.00270932727343
0.00373059365573
0.0046171610417
0.00878905752981
0.00192078162621
0.0010122656998
0.000679189852185
0.000808841857967
0.00144854801722
0.00232611596631
0.00289922456786
0.00524504910995
0.00776356759787
0.0101383378178
0.012155673334
0.0133751848168
0.0136369334728
0.0119171206286
0.00428091543299
0.00245102325419
0.00338773257075
0.00459528070586
0.00497856964008
0.00856195274051
0.00117703885116
0.000678621438069
0.00080720288075
0.00164520055189
0.00232846965188
0.00177107121838
0.00319823078038
0.00499801071057
0.00695257208391
0.00862126829248
0.00963525700561
0.00981162667746
0.00922329338038
0.00697119771888
0.0034461704603
0.00293737358311
0.00445599823515
0.00587692170236
0.00539307383039
0.00844329763284
0.000791914120303
0.000764160407925
0.00148104641876
0.00230775047656
0.00142393841559
0.00186074985619
0.00300411890263
0.00507907839638
0.00685267599381
0.00787398207495
0.0076289523418
0.00725076123865
0.00636858781194
0.00495670892159
0.00404057442931
0.00461635403821
0.00698574690835
0.00798317026937
0.00572015036678
0.00849995487081
0.000726137086196
0.00113436979107
0.00197703484624
0.00163310162396
0.00155699023128
0.00208661373509
0.00327159696225
0.00591104473804
0.00808654199257
0.00842004162975
0.00714248133392
0.00660372814703
0.00637346095312
0.00641501629098
0.00679182832929
0.00805548912419
0.00946770930993
0.00967869095658
0.00584538201005
0.00835231126739
0.000775191765204
0.00144319006755
0.00171477103263
0.00162805466443
0.00185343893087
0.00256959885045
0.00415860022953
0.00715898165078
0.0101259271096
0.0102347970784
0.00905612906429
0.00882310000339
0.00903035234136
0.00926437813899
0.00942424140778
0.00993118429262
0.0111649860709
0.0115465879979
0.00589938023985
0.00839352999239
0.000832130692311
0.00145865239406
0.00157775291248
0.00161912290268
0.00184634806024
0.0027287747823
0.00480443662567
0.0082122219669
0.0112195864562
0.0114136367192
0.00992154221148
0.00909422080821
0.00906560031825
0.00937550462815
0.00992941539441
0.0108543371402
0.0122255615193
0.0117642009722
0.0058506409311
0.00846993724571
0.000796906998957
0.00130317470676
0.0014597846856
0.00147758528288
0.00164347357426
0.00249063830492
0.00444108280838
0.00729001745991
0.00929440789456
0.00884865662771
0.00709774295192
0.0062094386701
0.00650238987642
0.00729586594331
0.0086653638501
0.0101855485979
0.0118762535997
0.0109194549636
0.00581619853463
0.00849226958833
0.000694248611074
0.00112250062325
0.00133165303087
0.00131205917102
0.00136990136232
0.00192986275696
0.00320477762083
0.00483053323719
0.00565016610083
0.00508740880046
0.00403089121308
0.00359818381461
0.00389983724116
0.00497276853308
0.00738540976675
0.00946989929326
0.0115554200226
0.010694976607
0.00616202147031
0.00852405810909
0.000609862767055
0.000949391478619
0.00127415043739
0.00125993820691
0.00121029093495
0.00148543732026
0.00209315956036
0.00275752791569
0.0030101819647
0.00273526081863
0.00236423598277
0.00237122088233
0.00282277886324
0.00391291897936
0.00675503597789
0.00979678604061
0.0123422922647
0.0116865537503
0.00680781372116
0.00864223916241
0.000673868602624
0.000804216694481
0.0012897217997
0.00135539193425
0.00119908902691
0.00127202424653
0.00153363130074
0.00177722257005
0.00182489197442
0.00167481658356
0.00154243999945
0.0016674706009
0.00220213721499
0.00338327148422
0.00572504887391
0.00932235120427
0.0129514909969
0.0129838123506
0.0073195429122
0.00870888876055
0.00105604903333
0.000785613824422
0.00136539039011
0.00154123918159
0.00126986771463
0.00111889658426
0.00111562383825
0.00114504856218
0.00109773561198
0.000971221829612
0.000899655083097
0.00104934864543
0.00154505136527
0.00251861147584
0.00421091750892
0.00690011068411
0.0105882739273
0.0121409777267
0.00691428082232
0.00830168892209
0.00186652347493
0.00110269877724
0.00151137669209
0.00167794533094
0.0013530428041
0.00112064515249
0.000967280520173
0.000843853919735
0.000735403094466
0.000638927762434
0.00056204639208
0.0005887475575
0.000843387173206
0.00147328568439
0.00255059114241
0.00411791223411
0.00634349369855
0.00836307503268
0.00592866523949
0.00777766886072
0.00286260979153
0.00187072313141
0.00165661716205
0.00161519005064
0.00129138750326
0.00109205358166
0.000930945601874
0.000783662427567
0.000657687284256
0.000555162434431
0.000465185542747
0.000403530363434
0.000442795542658
0.000730850394863
0.00139435002537
0.0022991405949
0.00335917986381
0.00467047819082
0.00515165906441
0.00747083333859
0.00355883800286
0.0024091425558
0.00166424316797
0.00138063534345
0.00113068729394
0.00101302719547
0.000920855227483
0.000796700908367
0.00067464113988
0.000565027617807
0.000462015999621
0.000372975134692
0.000330103667777
0.000429686657025
0.000882307105359
0.00155747350914
0.00220692555297
0.00308214897757
0.00472779592437
0.00729996960059
0.00363390920413
0.00268010227865
0.00141086713222
0.00108936880891
0.000995219862012
0.000980119653435
0.000943998462487
0.00084715483852
0.000729569659048
0.000606482034045
0.000483446090681
0.000378706399912
0.000316674635516
0.000346828824882
0.000699747181651
0.00132947131481
0.00194844371359
0.00276064779514
0.00453315600272
0.0071773601871
0.00363588125403
0.00262517403377
0.00100846023838
0.0009116993536
0.000967569490872
0.00102378225815
0.0010094127306
0.00091515858677
0.000785095148326
0.000640676679003
0.000497720386279
0.000387323788201
0.000326109489002
0.000348766614285
0.000657472643319
0.00132275833283
0.00204894402054
0.00287110769373
0.00453387132907
0.00708439808794
0.00359257991718
0.00200508488057
0.000841344892811
0.000930769992934
0.00106198088607
0.0011340054345
0.00109611626663
0.000977907355217
0.000820539282984
0.000649865028904
0.000498499555587
0.000395291830087
0.000350405071271
0.000354361117723
0.00073141169571
0.00153263315372
0.00242192957497
0.00327478965033
0.00466430124181
0.00695639727841
0.0033964649113
0.00127992085427
0.000925888565128
0.00109918627824
0.00124169055651
0.00127504460634
0.00118089494072
0.00101968308279
0.000828126479186
0.000640569756959
0.000499545776103
0.000417053896512
0.000339361273801
0.000363878477682
0.000946063540452
0.00197470127327
0.00305019929587
0.0039020837379
0.00480075750793
0.00672099779306
0.00301570651366
0.00102705746631
0.00116618767722
0.0013564030634
0.00145933428446
0.00140727169195
0.00124504426388
0.00103532506783
0.000815347995583
0.000638696049418
0.000524901810447
0.000390160229394
0.000283370330334
0.000416617040966
0.00130123706986
0.00261738944357
0.00381901001926
0.00445617676225
0.00480341377502
0.00633831773374
0.00211680173087
0.00129659785095
0.00149849096515
0.00165860006241
0.00167201939296
0.00152384541592
0.00128860977751
0.00103148207625
0.000808462165669
0.00065061195937
0.000460625871791
0.00030649195087
0.000240997139006
0.000552042379949
0.00180541994462
0.00341085732031
0.00460570313092
0.0047497102672
0.00470511161765
0.00584840418601
0.00189695770575
0.00175358691448
0.00190390607254
0.00196198597503
0.00185720043419
0.00161609517135
0.00131559382769
0.00104060021041
0.000825655561347
0.000575777873416
0.000363287133011
0.000234407935788
0.000208388911255
0.000782754815532
0.00240387254191
0.00411744305844
0.0050274097099
0.00471183651078
0.0046041475289
0.00556134087577
)
;

boundaryField
{
    emptyPatch
    {
        type            empty;
    }
    minY
    {
        type            fixedValue;
        value           nonuniform List<scalar> 0();
    }
    maxY
    {
        type            inletOutlet;
        inletValue      uniform 1e-05;
        value           nonuniform List<scalar> 
40
(
3.12710190592
1.31121568728
0.558122049093
0.282863753913
0.183701264125
0.138486663089
0.109695479462
0.0864263570069
0.0657271807573
0.0484571579007
0.0351827510178
0.0257108527024
0.0194460317598
0.0152250796194
0.0120026869771
0.00983253658083
0.0094670535634
0.00902123818943
0.00754333711175
0.00552142058449
0.00189695770575
0.00175358691448
0.00190390607254
0.00196198597503
0.00185720043419
0.00161609517135
0.00131559382769
0.00104060021041
0.000825655561347
0.000575777873416
0.000363287133011
0.000234407935788
0.000208388911255
0.000782754815532
0.00240387254191
0.00411744305844
0.0050274097099
0.00471183651078
0.0046041475289
1e-05
)
;
    }
    water_to_cooler
    {
        type            kqRWallFunction;
        value           nonuniform List<scalar> 
38
(
0.00887273381798
0.00876921363267
0.00858420613283
0.00831836468492
0.00800826253187
0.0077029175837
0.00742667636498
0.0071932173547
0.0070257864048
0.00695834738603
0.00707002678696
0.00748633833244
0.00813376931756
0.00870861937562
0.00903565474578
0.00899847953263
0.00878905752981
0.00856195274051
0.00844329763284
0.00849995487081
0.00835231126739
0.00839352999239
0.00846993724571
0.00849226958833
0.00852405810909
0.00864223916241
0.00870888876055
0.00830168892209
0.00777766886072
0.00747083333859
0.00729996960059
0.0071773601871
0.00708439808794
0.00695639727841
0.00672099779306
0.00633831773374
0.00584840418601
0.00556134087577
)
;
    }
    water_to_heater
    {
        type            kqRWallFunction;
        value           nonuniform List<scalar> 
59
(
3.2018823663
3.2018823663
2.91123045181
2.80665879045
2.83864153868
2.83864153868
2.87433298433
2.87433298433
2.802167475
2.802167475
2.588587298
2.34747828559
2.17558698752
2.17558698752
2.09501487268
2.09501487268
2.10754088297
2.10754088297
2.25889154408
2.48668817106
2.50919201433
2.50919201433
2.37196458692
2.37196458692
2.37951275254
2.37951275254
2.57402772615
2.80686407315
2.84808594856
2.84808594856
2.68754528805
2.68754528805
2.51126157091
2.51126157091
2.48732402162
2.64692959484
2.9596992007
2.9596992007
3.78546632827
3.78546632827
4.92604810365
4.92604810365
5.47187268921
5.4714437985
5.37294105845
5.37294105845
5.25822616139
5.25822616139
5.10211906575
5.10211906575
4.784799893
4.20955800449
3.5383248722
3.5383248722
3.00708662276
3.00708662276
2.83213190307
2.83213190307
3.12710190592
)
;
    }
    procBoundary0to1
    {
        type            processor;
        value           nonuniform List<scalar> 
41
(
3.55263354477
1.58138668782
0.825144434195
0.501820403926
0.351552395318
0.271372047278
0.218531944654
0.174627420286
0.132190481883
0.0905647083027
0.0548356526574
0.0310747342831
0.0176366237378
0.0109871691039
0.00799454077593
0.00646402627704
0.00532675144382
0.0043092437118
0.00354330606185
0.00298207606227
0.00115125421399
0.00101778386154
0.00102957221857
0.0011167117086
0.00106919444724
0.000874473502642
0.000815160410022
0.00127901586943
0.00233744089572
0.00395140623534
0.00615364081394
0.0062520802257
0.00632240312372
0.00618567262371
0.00509359594191
0.008907559535
0.00241504186175
0.00206698451
0.00170381099712
0.00133779092862
0.00133779092862
)
;
    }
}


// ************************************************************************* //
