/*--------------------------------*- C++ -*----------------------------------*\
| =========                 |                                                 |
| \\      /  F ield         | OpenFOAM: The Open Source CFD Toolbox           |
|  \\    /   O peration     | Version:  2312                                  |
|   \\  /    A nd           | Website:  www.openfoam.com                      |
|    \\/     M anipulation  |                                                 |
\*---------------------------------------------------------------------------*/
FoamFile
{
    version     2.0;
    format      ascii;
    arch        "LSB;label=32;scalar=64";
    class       volScalarField;
    location    "0.17/water";
    object      alphat.gas;
}
// * * * * * * * * * * * * * * * * * * * * * * * * * * * * * * * * * * * * * //

dimensions      [1 -1 -1 0 0 0 0];

internalField   nonuniform List<scalar> 
6000
(
1.99054160708e-07
8.4690557822e-08
3.69078448884e-08
2.52314604319e-08
9.30088540998e-08
6.8306921034e-07
2.92796466608e-06
6.65466462062e-06
1.00877167605e-05
1.22767499237e-05
1.34270433352e-05
1.39636966289e-05
1.41887632359e-05
1.42698130227e-05
1.42899447645e-05
1.42873095075e-05
1.42781706635e-05
1.42688133737e-05
1.42612715366e-05
1.42559330998e-05
9.02520136614e-07
6.49264538008e-07
3.38161297656e-07
1.81860796896e-07
7.68986301579e-08
5.75255135401e-08
1.20434284027e-07
6.99932247458e-07
3.03458676952e-06
6.95532873734e-06
1.03778081675e-05
1.24756275133e-05
1.35465934254e-05
1.40302576532e-05
1.42223512022e-05
1.42832312929e-05
1.42909644612e-05
1.42806937956e-05
1.42670193284e-05
1.42553638492e-05
1.24440104399e-06
1.08324623805e-06
7.24443377019e-07
4.01724488352e-07
2.23176243281e-07
1.06499309247e-07
7.66906227422e-08
1.78249743156e-07
9.47796774533e-07
3.40498844207e-06
7.06536040617e-06
1.02742383311e-05
1.23548656695e-05
1.3485564725e-05
1.40251231635e-05
1.42497329745e-05
1.43242936628e-05
1.43351599218e-05
1.43235475601e-05
1.43074996503e-05
1.47752549307e-06
1.34307732634e-06
9.91637786778e-07
6.26362488082e-07
4.03576556336e-07
1.92957695229e-07
1.03625140159e-07
9.89601183123e-08
3.61337691934e-07
1.67248809543e-06
4.58763414823e-06
8.05400590456e-06
1.08468622735e-05
1.26379021762e-05
1.36251330681e-05
1.41042781127e-05
1.43050323382e-05
1.43697739498e-05
1.43760090091e-05
1.43620065435e-05
1.64991847204e-06
1.53610974409e-06
1.18678790739e-06
8.13801384557e-07
4.92932905671e-07
3.2609954278e-07
1.41358192335e-07
9.24206148596e-08
1.74341023392e-07
8.46027897407e-07
2.94372718288e-06
6.1717076084e-06
9.30414398611e-06
1.16188230587e-05
1.30582013425e-05
1.38429692207e-05
1.42198075564e-05
1.43729883115e-05
1.44170274947e-05
1.4414985411e-05
1.75833085253e-06
1.67587625282e-06
1.33800392811e-06
9.62399404198e-07
6.32469514734e-07
3.62620113641e-07
2.23322886174e-07
9.59341354909e-08
1.05836971428e-07
4.27428750105e-07
1.85140771872e-06
4.65894145321e-06
7.86964275898e-06
1.05428886402e-05
1.23798277179e-05
1.34797949335e-05
1.40632136502e-05
1.43334834564e-05
1.44350988299e-05
1.44563063708e-05
1.79573317697e-06
1.74785820787e-06
1.43694977527e-06
1.0713971274e-06
7.42334744959e-07
4.67756561819e-07
2.47620083062e-07
1.32596486265e-07
7.21508638041e-08
2.07915775947e-07
1.1096605509e-06
3.45146860173e-06
6.590042196e-06
9.48575400174e-06
1.16458092305e-05
1.30420874885e-05
1.38430017459e-05
1.42496043484e-05
1.44254732839e-05
1.44808992754e-05
1.80632394102e-06
1.77047189458e-06
1.47866123123e-06
1.13351570662e-06
8.18966652555e-07
5.51678324171e-07
3.26641120819e-07
1.60265079498e-07
7.1934344644e-08
9.09805271407e-08
5.95297685583e-07
2.47672270313e-06
5.46604975201e-06
8.48779911194e-06
1.08988607486e-05
1.25577391016e-05
1.35716987145e-05
1.41240865705e-05
1.43863702666e-05
1.44855949365e-05
1.8061718623e-06
1.77431849678e-06
1.49147507468e-06
1.1639580866e-06
8.68892967976e-07
6.1616639616e-07
3.95981482667e-07
2.07604865341e-07
9.66830848428e-08
4.89485297296e-08
2.44813302088e-07
1.64798281597e-06
4.46436435927e-06
7.55720736858e-06
1.0162968723e-05
1.20482076922e-05
1.3261819996e-05
1.39615476954e-05
1.43178863857e-05
1.44682782399e-05
1.79767517349e-06
1.76535579349e-06
1.4866386011e-06
1.17521814543e-06
9.01304862527e-07
6.65415355785e-07
4.53339202129e-07
2.62163011191e-07
1.10414585551e-07
5.04539948176e-08
8.09818642413e-08
9.12569872169e-07
3.52655333358e-06
6.66517921987e-06
9.43327251062e-06
1.15197346788e-05
1.29202435643e-05
1.37655431848e-05
1.42195010607e-05
1.44274096247e-05
1.77512381308e-06
1.74031202816e-06
1.46878499821e-06
1.17763453347e-06
9.26320346973e-07
7.05098554053e-07
5.00020767665e-07
3.09467995011e-07
1.44571126699e-07
4.69691933181e-08
4.06405517314e-08
3.61248547548e-07
2.56107187659e-06
5.72138367752e-06
8.65597206373e-06
1.09498347744e-05
1.25386755052e-05
1.3532266527e-05
1.40907514918e-05
1.43628069762e-05
1.74384131741e-06
1.70714114029e-06
1.45322017658e-06
1.18716742791e-06
9.53804568983e-07
7.40075782584e-07
5.38225222455e-07
3.49525568862e-07
1.76984519976e-07
5.77783447399e-08
3.28111237828e-08
1.14207569104e-07
1.50581422945e-06
4.56227632408e-06
7.71364413883e-06
1.02826461482e-05
1.20992061581e-05
1.32598474834e-05
1.39326458236e-05
1.42754736521e-05
1.72641633698e-06
1.69798358023e-06
1.46786464203e-06
1.21800488537e-06
9.88332453062e-07
7.72269655647e-07
5.70757500167e-07
3.84685686694e-07
2.08414127429e-07
7.33741853097e-08
2.58470364904e-08
4.25050690156e-08
6.04906882518e-07
3.16706647894e-06
6.5298921861e-06
9.47111056711e-06
1.15827318518e-05
1.29431571003e-05
1.37453476035e-05
1.41667091077e-05
1.76173668411e-06
1.75789944186e-06
1.53895136617e-06
1.27607768553e-06
1.02713981934e-06
8.0068060936e-07
5.99731586934e-07
4.17981686109e-07
2.41912686278e-07
9.62302882211e-08
2.98327482901e-08
2.79181225423e-08
1.69092549203e-07
1.77336063509e-06
5.09456512554e-06
8.46466513908e-06
1.09610135115e-05
1.25716669627e-05
1.35264091397e-05
1.40366366712e-05
1.89636509998e-06
1.90664321328e-06
1.65463250421e-06
1.34021601745e-06
1.05758290868e-06
8.222310953e-07
6.2547072814e-07
4.51479215111e-07
2.82707703207e-07
1.2727633187e-07
3.82076833592e-08
2.02975184936e-08
4.80178034171e-08
7.2569099047e-07
3.51510071308e-06
7.22987485161e-06
1.02015430039e-05
1.21294010662e-05
1.32693255898e-05
1.38825846289e-05
2.05941977469e-06
2.04133005861e-06
1.72543108217e-06
1.36755606944e-06
1.06913889131e-06
8.34912662819e-07
6.47126638205e-07
4.86257937881e-07
3.28925282886e-07
1.66485254471e-07
5.07335762755e-08
2.01006067378e-08
2.90630378565e-08
1.82763851352e-07
2.0058950074e-06
5.79094396581e-06
9.28112812827e-06
1.15981122423e-05
1.29634163331e-05
1.36982096262e-05
2.07881931401e-06
2.05565782081e-06
1.742060751e-06
1.376886254e-06
1.07276105896e-06
8.41510731386e-07
6.63935454536e-07
5.17302722198e-07
3.73710024306e-07
2.10225434206e-07
6.7953632894e-08
2.23807337997e-08
1.95150668206e-08
5.27319197314e-08
8.02183247466e-07
4.23823405866e-06
8.19058874243e-06
1.0958734796e-05
1.25945149429e-05
1.34737737823e-05
2.11076632146e-06
2.09047550521e-06
1.76510372369e-06
1.38919912949e-06
1.07829507186e-06
8.47137150106e-07
6.7693971622e-07
5.42501274081e-07
4.11241001535e-07
2.49483506974e-07
8.637894143e-08
2.52374509744e-08
1.90244369266e-08
3.26710451329e-08
1.96804063034e-07
2.69271827668e-06
6.96059401115e-06
1.02002350559e-05
1.21480369802e-05
1.31975992502e-05
2.12542613634e-06
2.106593232e-06
1.77701920415e-06
1.39654217787e-06
1.08254379964e-06
8.51617336359e-07
6.86716922127e-07
5.62170088954e-07
4.41332672622e-07
2.81146481571e-07
1.01444737372e-07
2.73245182981e-08
1.85319065209e-08
2.37313270464e-08
7.51468508925e-08
1.30248973648e-06
5.64592801133e-06
9.32180168525e-06
1.16108395511e-05
1.28573718658e-05
2.1266002565e-06
2.11319265972e-06
1.78248479733e-06
1.39920486859e-06
1.08310737181e-06
8.53295359169e-07
6.93752876047e-07
5.78636062154e-07
4.66394434429e-07
3.04538898912e-07
1.11352845189e-07
2.82340569141e-08
1.78717645199e-08
2.11446821329e-08
5.03858816808e-08
4.50257843789e-07
4.272843038e-06
8.32340817411e-06
1.09699981895e-05
1.24403812095e-05
2.12933355174e-06
2.12041917515e-06
1.78747885903e-06
1.39910902769e-06
1.08105077508e-06
8.53532421881e-07
7.00840481995e-07
5.95704366648e-07
4.88083042551e-07
3.20324901553e-07
1.17236892478e-07
2.84238692265e-08
1.71966722708e-08
1.90384264995e-08
2.97853927849e-08
1.80087213952e-07
2.93974317153e-06
7.20875313259e-06
1.02136416549e-05
1.19337287538e-05
2.12782967971e-06
2.1291167102e-06
1.7940783601e-06
1.40003996813e-06
1.08037327265e-06
8.5609873018e-07
7.11399365874e-07
6.14390392271e-07
5.0599723159e-07
3.3091217465e-07
1.21862007465e-07
2.87413620186e-08
1.6675595171e-08
1.74078023401e-08
2.25467739966e-08
9.15050016131e-08
1.7481183397e-06
5.96376839969e-06
9.32671048627e-06
1.13237528926e-05
2.13535737184e-06
2.14212751366e-06
1.80203652057e-06
1.40394278807e-06
1.08436418064e-06
8.63947575915e-07
7.26614926866e-07
6.3308560241e-07
5.20317516222e-07
3.38942893859e-07
1.27741388335e-07
2.99198909266e-08
1.6379772366e-08
1.62481981247e-08
1.85103713895e-08
5.12645207901e-08
8.95348069584e-07
4.6274839125e-06
8.30051271403e-06
1.0598218158e-05
2.14935252882e-06
2.15343607177e-06
1.80712626986e-06
1.4088321265e-06
1.09258766031e-06
8.77239848091e-07
7.44587916281e-07
6.50354336405e-07
5.32109574437e-07
3.46171929046e-07
1.36136248655e-07
3.22662848986e-08
1.62606238307e-08
1.54198770695e-08
1.6211668945e-08
3.24344008615e-08
4.04665916756e-07
3.30238761454e-06
7.14064801276e-06
9.75023235025e-06
2.16844134365e-06
2.15980962935e-06
1.80841006008e-06
1.41364753916e-06
1.10431852713e-06
8.94864539497e-07
7.63803330505e-07
6.66302058467e-07
5.41172348495e-07
3.52270607179e-07
1.45552680563e-07
3.53839430463e-08
1.61726852787e-08
1.47815143275e-08
1.48287403565e-08
2.19656369762e-08
1.54384012972e-07
2.07181836766e-06
5.85231797624e-06
8.77894703066e-06
2.16827309195e-06
2.14471650384e-06
1.79818795833e-06
1.41902623127e-06
1.1226722606e-06
9.17962738299e-07
7.84687109884e-07
6.80635521878e-07
5.46087918818e-07
3.55820390092e-07
1.53681345426e-07
3.9144842303e-08
1.60258085543e-08
1.40862841729e-08
1.37897190189e-08
1.48454112744e-08
5.36472932955e-08
1.09267354248e-06
4.4900134045e-06
7.69924969592e-06
2.13452211389e-06
2.10192653385e-06
1.78672251483e-06
1.4394444764e-06
1.1568591148e-06
9.49718151332e-07
8.07511710366e-07
6.91172042363e-07
5.45217708632e-07
3.55195339065e-07
1.62197652186e-07
4.4258472176e-08
1.57696999122e-08
1.30890642505e-08
1.2728323707e-08
1.30147605881e-08
2.6942968837e-08
4.82993420409e-07
3.18309250798e-06
6.54788363735e-06
2.1007488848e-06
2.08950524044e-06
1.81790286408e-06
1.49601909836e-06
1.21177945699e-06
9.88414836768e-07
8.28699829392e-07
6.9362796654e-07
5.37596511552e-07
3.56319806549e-07
1.75695220445e-07
5.07624121081e-08
1.55196803524e-08
1.18700073242e-08
1.13210355808e-08
1.12357390996e-08
1.54774429775e-08
1.6054558839e-07
2.00213227359e-06
5.35005440292e-06
2.14563830173e-06
2.16936279001e-06
1.92165587343e-06
1.59434393815e-06
1.27918976113e-06
1.02487584278e-06
8.40359826993e-07
6.87737859721e-07
5.33129327944e-07
3.67185864601e-07
1.94998356534e-07
5.9475655213e-08
1.54916813301e-08
1.05415279571e-08
9.67253518385e-09
9.37950832129e-09
1.07342013105e-08
4.46766130983e-08
1.04142597867e-06
4.12514500747e-06
2.27292839201e-06
2.33861422552e-06
2.08654127087e-06
1.71344829684e-06
1.34089046032e-06
1.05183618507e-06
8.45645775316e-07
6.84751368771e-07
5.39736551062e-07
3.89967396134e-07
2.22402976149e-07
7.21104324161e-08
1.60263190037e-08
9.27708719152e-09
8.04341524523e-09
7.5147912441e-09
8.12596870239e-09
1.99312490465e-08
4.40867102395e-07
2.95713816142e-06
2.43630351548e-06
2.5466602027e-06
2.26192762717e-06
1.82110861188e-06
1.39651319639e-06
1.07836623949e-06
8.55388391205e-07
6.91523284444e-07
5.57843163462e-07
4.23754634886e-07
2.59993236616e-07
9.09283807688e-08
1.76222246434e-08
8.19953460565e-09
6.58528419934e-09
5.80291526592e-09
5.9404172933e-09
9.37738752785e-09
1.33810672115e-07
1.87456814468e-06
2.60319886296e-06
2.72953855694e-06
2.39176653058e-06
1.90220591564e-06
1.4479122685e-06
1.10825547937e-06
8.7194217175e-07
7.05728941901e-07
5.81417123638e-07
4.62795324129e-07
3.05943531855e-07
1.1805758991e-07
2.10558133011e-08
7.40283963374e-09
5.36359724822e-09
4.38233462287e-09
4.19544401623e-09
5.63140271513e-09
3.23957086194e-08
9.16135848213e-07
2.69854276469e-06
2.82229124312e-06
2.45090824759e-06
1.94256111835e-06
1.48526863896e-06
1.1356720178e-06
8.90112367712e-07
7.21417544752e-07
6.03605308723e-07
4.9912457525e-07
3.53669153206e-07
1.53145586204e-07
2.73311856423e-08
6.98854896643e-09
4.38045407756e-09
3.2756457366e-09
2.90424950369e-09
3.55918144283e-09
1.1864165811e-08
3.41251187995e-07
2.75262159115e-06
2.85961625975e-06
2.46803769414e-06
1.95693863038e-06
1.50285963939e-06
1.15209579732e-06
9.03563759213e-07
7.341480656e-07
6.20941219774e-07
5.27984719997e-07
3.95962492247e-07
1.92142774538e-07
3.72569993685e-08
7.0750629987e-09
3.60089465304e-09
2.43206975955e-09
1.97046173791e-09
2.19448847672e-09
4.54616041812e-09
1.0089393937e-07
2.79275056043e-06
2.88209404971e-06
2.47240375953e-06
1.95882367297e-06
1.50865802153e-06
1.15934713365e-06
9.11152512476e-07
7.42980042871e-07
6.33632308293e-07
5.48795445301e-07
4.27838437006e-07
2.28421901815e-07
5.07081930741e-08
7.7553917123e-09
2.98394193489e-09
1.7802526242e-09
1.30244371188e-09
1.31304923476e-09
2.22096613042e-09
2.27471292462e-08
2.81763447768e-06
2.89011542391e-06
2.46635695814e-06
1.95166908836e-06
1.50582339493e-06
1.16016522103e-06
9.15029507264e-07
7.49782452624e-07
6.44170109884e-07
5.64825608501e-07
4.50426757735e-07
2.55356428297e-07
6.4168851799e-08
8.91806257418e-09
2.49533257695e-09
1.26350597107e-09
8.22314488294e-10
7.5974384391e-10
1.14892418923e-09
5.79967297961e-09
2.8193065874e-06
2.87838328688e-06
2.4491206026e-06
1.93747653086e-06
1.49644670102e-06
1.15606650015e-06
9.15929892053e-07
7.55038670444e-07
6.53737963889e-07
5.781108241e-07
4.66268825155e-07
2.73040752771e-07
7.37770223217e-08
9.74588679633e-09
2.05850201614e-09
8.50745505764e-10
4.79325133255e-10
4.10170979706e-10
5.69781772579e-10
2.10233120781e-09
2.79255321734e-06
2.83795933428e-06
2.41618116168e-06
1.91621685134e-06
1.48235958399e-06
1.14920816016e-06
9.15260480297e-07
7.59633346001e-07
6.63074048972e-07
5.89347975283e-07
4.76410446486e-07
2.82106071462e-07
7.83266242044e-08
9.82579195046e-09
1.62003965643e-09
5.30935737171e-10
2.4987353296e-10
1.98795681914e-10
2.65345856926e-10
6.73837428346e-10
2.77886274819e-06
2.79999199379e-06
2.37954593705e-06
1.88918044591e-06
1.46479070293e-06
1.1413695985e-06
9.1428042454e-07
7.64271750066e-07
6.72354064618e-07
5.98571759401e-07
4.81587154634e-07
2.83856916569e-07
7.83184706156e-08
9.21127416492e-09
1.20978727982e-09
3.06175028294e-10
1.183816466e-10
8.71348559649e-11
1.15025824537e-10
2.63050049048e-10
2.7653286448e-06
2.77733931622e-06
2.35675602067e-06
1.86575712853e-06
1.44843872467e-06
1.13408645267e-06
9.13314909734e-07
7.69077703534e-07
6.81364317697e-07
6.05617540518e-07
4.8247671792e-07
2.79929756752e-07
7.51241116835e-08
8.19789317759e-09
8.66913407421e-10
1.70416583061e-10
5.81285066402e-11
3.95409121432e-11
4.89267675202e-11
1.05919203605e-10
2.75656607992e-06
2.75924578423e-06
2.34101667594e-06
1.84903264677e-06
1.43642916101e-06
1.1280347645e-06
9.12417061746e-07
7.74082807018e-07
6.89642937166e-07
6.10243781634e-07
4.79656597053e-07
2.71920728223e-07
7.01844179971e-08
7.07634996502e-09
6.10753505859e-10
1.00695044125e-10
3.5585213622e-11
2.3094428341e-11
2.46251495446e-11
4.46700385483e-11
2.74917764354e-06
2.74415899598e-06
2.32826678781e-06
1.83786271974e-06
1.42852070531e-06
1.12349881746e-06
9.11862149119e-07
7.79082788443e-07
6.964242103e-07
6.12237861541e-07
4.7346091716e-07
2.60966065073e-07
6.45089857481e-08
6.02340168597e-09
4.37714803078e-10
6.92634880121e-11
2.84527808341e-11
1.84021592615e-11
1.66251021773e-11
2.31634445087e-11
2.74184125816e-06
2.7261333042e-06
2.31144921469e-06
1.82665385159e-06
1.4224038424e-06
1.12032600969e-06
9.11809649483e-07
7.83446512835e-07
7.00915763797e-07
6.11239057572e-07
4.63647546979e-07
2.47530309408e-07
5.86694717774e-08
5.14223542687e-09
3.34795348676e-10
5.71277709812e-11
2.73445256934e-11
1.7843636313e-11
1.46698748217e-11
1.63822399947e-11
2.72188481573e-06
2.69443657477e-06
2.28225826806e-06
1.807235721e-06
1.41262325085e-06
1.11587173842e-06
9.11040023158e-07
7.85969868102e-07
7.02361738034e-07
6.06534921723e-07
4.49676586539e-07
2.31942458142e-07
5.31399673369e-08
4.51668511754e-09
2.87811775814e-10
5.50606489888e-11
2.88693100778e-11
1.88717765852e-11
1.47712676585e-11
1.47653814737e-11
2.70330491122e-06
2.65952432523e-06
2.24697796755e-06
1.78144492748e-06
1.39805923206e-06
1.10859459475e-06
9.08539730425e-07
7.85865144643e-07
7.00397007598e-07
5.97192065301e-07
4.31025635851e-07
2.14773109985e-07
4.83744535724e-08
4.20525403847e-09
2.86232290029e-10
5.98075879919e-11
3.19329404639e-11
2.06075286294e-11
1.54720316682e-11
1.48973691982e-11
2.65408340946e-06
2.60810357266e-06
2.20091800088e-06
1.74776724578e-06
1.37867158833e-06
1.09941284683e-06
9.05146158371e-07
7.83750301297e-07
6.95227961025e-07
5.82435552123e-07
4.08002621869e-07
1.97377095849e-07
4.49353061381e-08
4.26862304925e-09
3.31649278366e-10
7.14177302488e-11
3.63781008813e-11
2.29051917401e-11
1.64711253484e-11
1.55556185783e-11
2.58147408184e-06
2.53162072024e-06
2.13563907115e-06
1.70460313845e-06
1.35898828802e-06
1.09445769469e-06
9.04345649465e-07
7.81472788994e-07
6.87195805626e-07
5.62326151056e-07
3.82699264521e-07
1.82230875571e-07
4.36923101912e-08
4.86495637636e-09
4.47709181423e-10
9.34092668621e-11
4.29111968024e-11
2.58619004735e-11
1.77075053933e-11
1.57213106484e-11
2.46330684966e-06
2.41749203425e-06
2.0496315564e-06
1.66239222943e-06
1.35471537114e-06
1.10481977083e-06
9.11681402216e-07
7.82057060486e-07
6.76269419941e-07
5.38073704177e-07
3.58577558517e-07
1.7223752087e-07
4.57351056387e-08
6.32348384746e-09
6.94717952999e-10
1.33286097921e-10
5.27377497022e-11
2.96992560048e-11
1.94394650026e-11
1.57828805934e-11
2.3142358741e-06
2.25302061854e-06
1.9563638735e-06
1.65643846195e-06
1.39456560465e-06
1.1436467613e-06
9.3294499611e-07
7.86826943248e-07
6.61434616635e-07
5.12396413176e-07
3.40464612368e-07
1.70458338243e-07
5.22919698468e-08
9.24226182524e-09
1.2036721066e-09
2.06050790238e-10
6.8363105313e-11
3.49655390107e-11
2.21283364209e-11
1.64161329482e-11
2.13017116839e-06
2.12491036097e-06
1.98077108765e-06
1.77351136236e-06
1.51191931195e-06
1.21838012419e-06
9.68949115504e-07
7.9174413183e-07
6.4298870115e-07
4.92650410912e-07
3.34622761154e-07
1.797901927e-07
6.5314347888e-08
1.48345930391e-08
2.27665277826e-09
3.48965391937e-10
9.45253738986e-11
4.27941516136e-11
2.62066447442e-11
1.83026422455e-11
2.16067434831e-06
2.31911030363e-06
2.28242625493e-06
2.0526046987e-06
1.6933615766e-06
1.31306930226e-06
1.00743456485e-06
7.92756561277e-07
6.31008522061e-07
4.88966258682e-07
3.46369003207e-07
2.0377505315e-07
8.81686838658e-08
2.5242222269e-08
4.52721083773e-09
6.44241641712e-10
1.39749704526e-10
5.50148519145e-11
3.2559181636e-11
2.19368417134e-11
2.59360858155e-06
2.89341818793e-06
2.7827409552e-06
2.3709027167e-06
1.86265806235e-06
1.40569667157e-06
1.05348429457e-06
8.08846420755e-07
6.40258977372e-07
5.06746858578e-07
3.78312631332e-07
2.45762789559e-07
1.25458705935e-07
4.42400939504e-08
9.27239215619e-09
1.27717054834e-09
2.2090523825e-10
7.49476298767e-11
4.23825923773e-11
2.79828652445e-11
3.18597962288e-06
3.47582022869e-06
3.16882753982e-06
2.60171234788e-06
2.03289830232e-06
1.54387877551e-06
1.14888136654e-06
8.67576538451e-07
6.80858191932e-07
5.46987971411e-07
4.2951096574e-07
3.07609590117e-07
1.82987049554e-07
7.84074717726e-08
1.95554831273e-08
2.68863317517e-09
3.74770229544e-10
1.07507382016e-10
5.75746893731e-11
3.7413478099e-11
3.44880888352e-06
3.59595071313e-06
3.24448315442e-06
2.7493145524e-06
2.24108267465e-06
1.75698368589e-06
1.32221690339e-06
9.86356380192e-07
7.57982700347e-07
6.06407891857e-07
4.92361739587e-07
3.82640542568e-07
2.60127848003e-07
1.33937018375e-07
4.07658079058e-08
5.88646054197e-09
6.72325056185e-10
1.58933154166e-10
8.02424006572e-11
5.15412535597e-11
3.04546726542e-06
3.24512844567e-06
3.08199602207e-06
2.77766254029e-06
2.4108192857e-06
1.990295131e-06
1.54317960972e-06
1.14544272073e-06
8.59469295975e-07
6.74677852504e-07
5.53378562877e-07
4.53844301614e-07
3.41318700364e-07
2.04898926616e-07
7.6327103244e-08
1.26422598059e-08
1.20796931214e-09
2.33893106917e-10
1.12137545756e-10
7.13063182467e-11
2.76696414579e-06
3.0501158447e-06
2.94004432011e-06
2.72536629996e-06
2.47204259641e-06
2.15212573163e-06
1.75056263587e-06
1.30153370252e-06
9.54192567694e-07
7.33490989022e-07
6.00546346031e-07
5.06870118474e-07
4.06350786756e-07
2.70444906725e-07
1.17392198473e-07
2.30547749382e-08
2.05359977323e-09
3.30551643637e-10
1.52878088063e-10
9.6676857543e-11
2.58885972333e-06
2.91013603311e-06
2.83326453017e-06
2.66877345799e-06
2.47697011992e-06
2.20807569875e-06
1.83782722842e-06
1.40187107968e-06
1.0154323883e-06
7.69165231934e-07
6.29082841956e-07
5.3938464865e-07
4.48134838153e-07
3.1537847807e-07
1.48371281032e-07
3.26878436327e-08
3.02140627683e-09
4.33313555391e-10
1.98948961028e-10
1.26019026264e-10
2.49704665028e-06
2.82657109933e-06
2.76003973494e-06
2.62073385603e-06
2.45914124475e-06
2.20617647052e-06
1.84068455182e-06
1.41585031588e-06
1.02644593227e-06
7.78458777277e-07
6.41442162703e-07
5.56732385175e-07
4.70729567355e-07
3.38351561977e-07
1.62865877882e-07
3.73614167145e-08
3.62151039946e-09
5.18450226474e-10
2.45745938864e-10
1.57301926718e-10
2.46291315351e-06
2.79345182828e-06
2.71865975168e-06
2.58461231528e-06
2.43112710948e-06
2.16788085464e-06
1.78514432588e-06
1.36500269066e-06
9.9683578345e-07
7.70211223531e-07
6.44798705426e-07
5.65807067219e-07
4.80549006518e-07
3.4323598284e-07
1.62008306785e-07
3.68308228599e-08
3.69586230193e-09
5.78759527212e-10
2.91933490509e-10
1.89467036567e-10
2.47226500674e-06
2.80054629988e-06
2.71006466384e-06
2.56557884266e-06
2.40078928886e-06
2.10931575572e-06
1.69850153948e-06
1.27650841479e-06
9.5421196756e-07
7.5874642787e-07
6.47921798447e-07
5.73493402735e-07
4.84006062777e-07
3.35075977462e-07
1.48912336744e-07
3.19889329477e-08
3.36266605568e-09
6.2747097321e-10
3.39728678329e-10
2.2363837433e-10
2.49724142139e-06
2.82689043056e-06
2.72058000938e-06
2.55535361243e-06
2.3684993361e-06
2.04782326437e-06
1.62059480117e-06
1.20652447191e-06
9.22342429456e-07
7.54440722978e-07
6.5582197758e-07
5.82832701862e-07
4.8308041164e-07
3.17298919589e-07
1.29064890173e-07
2.54942079786e-08
2.85814512243e-09
6.80223188554e-10
3.93877034445e-10
2.62685911487e-10
2.53952298019e-06
2.8723120643e-06
2.75356690289e-06
2.56193660526e-06
2.33992909004e-06
1.9834352362e-06
1.54354201557e-06
1.15735272742e-06
9.08231763301e-07
7.60029226599e-07
6.69332997681e-07
5.93053830942e-07
4.76914611975e-07
2.93173049623e-07
1.07761610479e-07
1.96027130514e-08
2.47002738663e-09
7.54863613374e-10
4.62006981435e-10
3.10900646477e-10
2.57584687218e-06
2.92536095888e-06
2.80779166862e-06
2.58594398287e-06
2.317056438e-06
1.92344916222e-06
1.47775477047e-06
1.12903343523e-06
9.07032558154e-07
7.7212396717e-07
6.85541011109e-07
6.00569967582e-07
4.65389601475e-07
2.67063140376e-07
8.90926793989e-08
1.53790483893e-08
2.30155510097e-09
8.72096624752e-10
5.55941044796e-10
3.7501418691e-10
2.61595143694e-06
2.99006112373e-06
2.87465753832e-06
2.61366829805e-06
2.29286030593e-06
1.8710834925e-06
1.43252284026e-06
1.11232010077e-06
9.10735477556e-07
7.86182931392e-07
6.99876238563e-07
6.03258986741e-07
4.5091152729e-07
2.43028247725e-07
7.52258023668e-08
1.29771334283e-08
2.37608566873e-09
1.05659677791e-09
6.94223691951e-10
4.67047812343e-10
2.67233733234e-06
3.0820167407e-06
2.951893821e-06
2.63779650986e-06
2.25691275382e-06
1.80657463341e-06
1.38900083474e-06
1.09819528007e-06
9.14467639392e-07
7.98660211831e-07
7.10018042344e-07
6.02262782532e-07
4.36147974962e-07
2.23867343303e-07
6.67365316129e-08
1.22270989935e-08
2.72921513105e-09
1.34784462265e-09
9.07732032791e-10
6.0966253161e-10
2.7432787653e-06
3.18038526614e-06
3.01448122969e-06
2.64346474785e-06
2.20295623882e-06
1.73103036811e-06
1.34626890525e-06
1.0834511209e-06
9.1643678175e-07
8.08109483036e-07
7.16475426794e-07
5.99434262581e-07
4.23160165269e-07
2.11085929661e-07
6.34724965243e-08
1.30579055384e-08
3.46919630243e-09
1.81656106548e-09
1.24484151756e-09
8.50444805891e-10
2.86300807162e-06
3.27425440234e-06
3.0504628135e-06
2.61992963664e-06
2.13275642495e-06
1.66311787122e-06
1.30659403081e-06
1.06777852907e-06
9.17021008005e-07
8.15219999688e-07
7.2088429311e-07
5.9621642693e-07
4.13509940652e-07
2.05474629594e-07
6.5363092025e-08
1.573626775e-08
4.84956551312e-09
2.5993959493e-09
1.80085863911e-09
1.25487406217e-09
2.97753447824e-06
3.3402504761e-06
3.0478141794e-06
2.57075673357e-06
2.05541082108e-06
1.60298065492e-06
1.27084085042e-06
1.05336096975e-06
9.18169308547e-07
8.21551441851e-07
7.24775745974e-07
5.93880063621e-07
4.08699471028e-07
2.07813310928e-07
7.29503290115e-08
2.10596706618e-08
7.40401281001e-09
3.97422066581e-09
2.7539150856e-09
1.95380430404e-09
3.06551942067e-06
3.32582299759e-06
2.99193777103e-06
2.49484388043e-06
1.98118904874e-06
1.54836629404e-06
1.2394498867e-06
1.04272631054e-06
9.21271997601e-07
8.2825098656e-07
7.29432479939e-07
5.94017886459e-07
4.10665683806e-07
2.19366861492e-07
8.76633200595e-08
3.05859532054e-08
1.21833952795e-08
6.5183082417e-09
4.44965572127e-09
3.19667683794e-09
3.15696847865e-06
3.2894447616e-06
2.92306755522e-06
2.41468477628e-06
1.91462607696e-06
1.50350671533e-06
1.21481114935e-06
1.03669678872e-06
9.25834940371e-07
8.3583257688e-07
7.35878573848e-07
5.98484475651e-07
4.21338837752e-07
2.4152348982e-07
1.11603076609e-07
4.67628633015e-08
2.10452546477e-08
1.13517138859e-08
7.55237129824e-09
5.43648841399e-09
3.23847272135e-06
3.30569334241e-06
2.91047195653e-06
2.37819103823e-06
1.87577675793e-06
1.47454152486e-06
1.19864614259e-06
1.03348353585e-06
9.3054179705e-07
8.44520592884e-07
7.44606240603e-07
6.08351076067e-07
4.41248259683e-07
2.74566846817e-07
1.46572029029e-07
7.25532490564e-08
3.67284994653e-08
2.03591128844e-08
1.32082032841e-08
9.39233028788e-09
3.25976989081e-06
3.32347338374e-06
2.92000295203e-06
2.37149454641e-06
1.86048884192e-06
1.45975668735e-06
1.18925910658e-06
1.03140572176e-06
9.35621698923e-07
8.54232111929e-07
7.55144975383e-07
6.22697080389e-07
4.68290015373e-07
3.1640750626e-07
1.92550540018e-07
1.10244211866e-07
6.23062811399e-08
3.60498150006e-08
2.30091751359e-08
1.5944465867e-08
3.21070698445e-06
3.29326417711e-06
2.8942570864e-06
2.3495845944e-06
1.84230851892e-06
1.44645933458e-06
1.18235667452e-06
1.03177090803e-06
9.43243047219e-07
8.65107969386e-07
7.6596269568e-07
6.38286118246e-07
4.97752398774e-07
3.62172813201e-07
2.46482210313e-07
1.59855181901e-07
9.98206571841e-08
6.06150654108e-08
3.84196313136e-08
2.5758419172e-08
3.0889870547e-06
3.18547537127e-06
2.79874999045e-06
2.27635915027e-06
1.79399829266e-06
1.42073920801e-06
1.1752789672e-06
1.03794214712e-06
9.56216041497e-07
8.77428868629e-07
7.74626704435e-07
6.50147039125e-07
5.22582130996e-07
4.05282006203e-07
3.03657964305e-07
2.185260551e-07
1.48441746041e-07
9.43514607982e-08
5.97210025668e-08
3.86849356246e-08
2.91895055e-06
3.02010342823e-06
2.64591966981e-06
2.15491708699e-06
1.71647633695e-06
1.38734566473e-06
1.17625030488e-06
1.05741213956e-06
9.77884589958e-07
8.89697092119e-07
7.75401271942e-07
6.50515700669e-07
5.38739976379e-07
4.44887636807e-07
3.6122731333e-07
2.80964663157e-07
2.03589749233e-07
1.34527877154e-07
8.52289887174e-08
5.31639705377e-08
2.70117984167e-06
2.80697140485e-06
2.45683147411e-06
2.01619992846e-06
1.64596328476e-06
1.37810181883e-06
1.20690544181e-06
1.10055806719e-06
1.00817902447e-06
8.94560517753e-07
7.63018884441e-07
6.44408922101e-07
5.5454036257e-07
4.83951870534e-07
4.16282988104e-07
3.41005267374e-07
2.58639429024e-07
1.7602703627e-07
1.1136086759e-07
6.58105834223e-08
2.47102139161e-06
2.55702646095e-06
2.27910944889e-06
1.93974054318e-06
1.65658455124e-06
1.44091030078e-06
1.28899033793e-06
1.16890303705e-06
1.03878677986e-06
8.89656378928e-07
7.48583192328e-07
6.43685292549e-07
5.74804160923e-07
5.2267539034e-07
4.65567065959e-07
3.93409802672e-07
3.07203209544e-07
2.12919838408e-07
1.3296067461e-07
7.15725114796e-08
2.28345241263e-06
2.41356009965e-06
2.28620761447e-06
2.05607294413e-06
1.81247925049e-06
1.59487712387e-06
1.41588306246e-06
1.24287188128e-06
1.05716873781e-06
8.802823832e-07
7.42035763928e-07
6.52921144194e-07
5.99961716922e-07
5.58013992505e-07
5.05563950749e-07
4.34405523229e-07
3.43855026471e-07
2.39264304689e-07
1.4363430048e-07
6.5530379356e-08
2.44115689567e-06
2.72179900363e-06
2.67981988011e-06
2.41258590124e-06
2.0777477703e-06
1.78291979403e-06
1.53412246614e-06
1.29181917978e-06
1.06193518596e-06
8.74982805977e-07
7.46360504619e-07
6.695030878e-07
6.24285619306e-07
5.85579149131e-07
5.34159251363e-07
4.61146030359e-07
3.64139726873e-07
2.49089108682e-07
1.37111946146e-07
4.8243010429e-08
3.16168120275e-06
3.51688523653e-06
3.34159940329e-06
2.84480908767e-06
2.34479142487e-06
1.96145688814e-06
1.6361429436e-06
1.32799286935e-06
1.06525176932e-06
8.7478051091e-07
7.55122221057e-07
6.86207590046e-07
6.44400019958e-07
6.05922875614e-07
5.52262468898e-07
4.73040894668e-07
3.65143809778e-07
2.36316546086e-07
1.11946149339e-07
2.78352225256e-08
4.07004628266e-06
4.35631333396e-06
3.96748793168e-06
3.23531502461e-06
2.62544602496e-06
2.17230510736e-06
1.75888976883e-06
1.37608254538e-06
1.0773200691e-06
8.80891048489e-07
7.66649994823e-07
7.02694162966e-07
6.62326019612e-07
6.22113894392e-07
5.62966446534e-07
4.73047203909e-07
3.49652452079e-07
2.05294743328e-07
7.72968526021e-08
1.16559981595e-08
4.14785957971e-06
4.62260110288e-06
4.29662429329e-06
3.58026115627e-06
2.93233599775e-06
2.40581853769e-06
1.89291220055e-06