/*--------------------------------*- C++ -*----------------------------------*\
| =========                 |                                                 |
| \\      /  F ield         | OpenFOAM: The Open Source CFD Toolbox           |
|  \\    /   O peration     | Version:  2312                                  |
|   \\  /    A nd           | Website:  www.openfoam.com                      |
|    \\/     M anipulation  |                                                 |
\*---------------------------------------------------------------------------*/
FoamFile
{
    version     2.0;
    format      ascii;
    arch        "LSB;label=32;scalar=64";
    class       volScalarField;
    location    "0.17/water";
    object      Tf.gasAndLiquid;
}
// * * * * * * * * * * * * * * * * * * * * * * * * * * * * * * * * * * * * * //

dimensions      [0 0 0 1 0 0 0];

internalField   nonuniform List<scalar> 
6000
(
314.527635139
306.243925068
302.712185531
301.116111683
300.476212442
300.090752627
300.003515664
300.000018898
300.000000015
300
300
300
300
300
300
300
300
300
300
300
320.392212724
308.408888818
303.075439711
301.136655492
300.415211589
300.151570308
300.047656793
300.005080859
300.000069352
300.000000065
300
300
300
300
300
300
300
300
300
300
320.502690517
307.98033414
302.758116748
300.933448101
300.311528316
300.10347104
300.033966947
300.008319149
300.000557204
300.000005713
300.000000001
300
300
300
300
300
300
300
300
300
319.642292971
307.979342508
302.875398945
300.972908947
300.318963306
300.101698427
300.031163135
300.009157462
300.001460567
300.000052483
300.000000563
300
300
300
300
300
300
300
300
300
318.784755084
307.825436709
302.991429778
301.060391038
300.360484232
300.11932198
300.037219221
300.010702655
300.002926941
300.000255949
300.000006071
300.000000001
300
300
300
300
300
300
300
300
317.820319025
307.505895481
302.989224708
301.115456799
300.397587359
300.13924929
300.046703642
300.013975731
300.003819399
300.000724819
300.000032422
300.000000702
300
300
300
300
300
300
300
300
317.221780451
307.176468812
302.889383906
301.1175561
300.416249953
300.15371807
300.055693607
300.018035972
300.004968389
300.001332936
300.000141672
300.000003909
300
300
300
300
300
300
300
300
317.072341498
306.97391336
302.780551064
301.088973159
300.421006
300.163457213
300.063479402
300.022394123
300.006394478
300.001635049
300.000388416
300.000018222
300.000000013
300
300
300
300
300
300
300
317.060828661
306.91990902
302.751561376
301.086592736
300.431554666
300.174858934
300.071726913
300.027181473
300.008179696
300.001998675
300.000530887
300.000071173
300.000000457
300
300
300
300
300
300
300
317.111836875
306.908605186
302.747005403
301.093397349
300.444065896
300.186796653
300.080178511
300.032155881
300.010205384
300.002421912
300.000580004
300.000167393
300.000005968
300.000000005
300
300
300
300
300
300
317.179001795
306.890523855
302.72668897
301.092128315
300.451161014
300.195604673
300.08731139
300.036942762
300.012540037
300.002924231
300.000620148
300.000175699
300.000022508
300.000000132
300
300
300
300
300
300
317.238788829
306.843649896
302.668714062
301.066330256
300.44659086
300.198760902
300.091934561
300.040827722
300.01492382
300.003657436
300.000683799
300.000165063
300.000044216
300.000001064
300
300
300
300
300
300
317.201428769
306.740175332
302.565750308
301.012107038
300.427956926
300.195754273
300.094081234
300.043874035
300.01722978
300.004571979
300.000796269
300.0001564
300.000046434
300.000003341
300.000000006
300
300
300
300
300
316.888564236
306.643114645
302.507375763
300.97290573
300.410188755
300.19202576
300.096035621
300.047062433
300.019788522
300.005753124
300.000984574
300.000154274
300.000036209
300.000006214
300.000000053
300
300
300
300
300
316.4360072
306.552493629
302.482489233
300.953652573
300.401232714
300.192377354
300.100299211
300.051585954
300.023098178
300.007355851
300.001298549
300.000166838
300.000029615
300.000008466
300.000000303
300
300
300
300
300
316.711624701
306.755696972
302.577771304
300.988676157
300.416682375
300.203463144
300.109512264
300.058494201
300.027552951
300.009506599
300.00179422
300.000207288
300.000029607
300.000007013
300.000000996
300.000000007
300
300
300
300
317.816376891
307.252015055
302.797219355
301.088412022
300.463078232
300.227486133
300.123979438
300.067700526
300.033006493
300.012098727
300.002467861
300.000283753
300.000036844
300.000007691
300.000002033
300.00000008
300
300
300
300
318.092760498
307.425287253
302.928801624
301.170396382
300.50925982
300.253497658
300.139631513
300.077410383
300.038631116
300.014731055
300.003208234
300.000386268
300.00004993
300.000009691
300.000002294
300.000000359
300.000000002
300
300
300
318.169257889
307.494871816
303.007855976
301.225809297
300.542318229
300.273991163
300.153058359
300.08619029
300.043763635
300.017063183
300.003896203
300.000495949
300.000066651
300.000012442
300.000002677
300.000000685
300.000000022
300
300
300
318.207833818
307.510892183
303.03051513
301.248876981
300.55995553
300.287048512
300.162953611
300.09337546
300.048297457
300.018981921
300.00447834
300.000583956
300.000080311
300.000014999
300.000002997
300.000000663
300.000000048
300
300
300
318.257598687
307.469549296
303.003483818
301.243060533
300.563838044
300.293717111
300.169654131
300.098864692
300.051810721
300.020489207
300.004969983
300.000668776
300.00009019
300.000016814
300.000003156
300.000000607
300.00000004
300
300
300
318.26075964
307.370652528
302.922958382
301.210677797
300.556818687
300.295837391
300.174052333
300.102792125
300.054132336
300.021771568
300.005443763
300.000750262
300.000097452
300.000017979
300.000003208
300.00000054
300
300
300
300
318.208853301
307.185963475
302.790176523
301.151930683
300.539303226
300.293932025
300.176262121
300.104824217
300.055563077
300.022955828
300.005996192
300.00084423
300.000103835
300.000018814
300.000003218
300.000000489
300
300
300
300
318.081210637
307.095233173
302.722667261
301.114294585
300.525825249
300.291563314
300.176757529
300.105424111
300.056454414
300.024156829
300.006705617
300.000974959
300.000114502
300.000020084
300.000003283
300.000000466
300
300
300
300
317.977788207
307.092462572
302.72758829
301.113694191
300.524350565
300.291097271
300.176243682
300.105281389
300.057108374
300.025395638
300.007537392
300.001187022
300.000134213
300.000022142
300.000003419
300.000000453
300
300
300
300
317.902552469
307.134608072
302.76789444
301.135524953
300.532234514
300.292641431
300.175632404
300.104876264
300.057766436
300.02661358
300.008598195
300.001519949
300.000154503
300.000021924
300.000003344
300.000000397
300
300
300
300
317.830640641
307.151857855
302.786194513
301.15007788
300.538885754
300.293590179
300.174854923
300.104822671
300.058705426
300.028124148
300.010073482
300.001939365
300.000180325
300.00002094
300.000002775
300.000000268
300
300
300
300
317.482914892
307.006116873
302.72475669
301.130138077
300.531543862
300.289981556
300.173834353
300.105600882
300.06066476
300.030711669
300.011867536
300.002477812
300.000218143
300.000020528
300.000002229
300.000000154
300
300
300
300
316.714979948
306.786230569
302.671862455
301.101708605
300.514628607
300.283257531
300.173714872
300.108639395
300.064750347
300.034470739
300.014235289
300.003206885
300.000273731
300.000020944
300.000001919
300.000000001
300
300
300
300
316.034368021
306.580400069
302.613362135
301.06922826
300.495586489
300.278740315
300.178018148
300.1158288
300.071860057
300.039991658
300.017402751
300.004200054
300.000361887
300.000023404
300.000002228
300
300
300
300
300
315.833293923
306.493708326
302.59867877
301.062443457
300.493287507
300.285791003
300.19002696
300.128038792
300.0820804
300.047414995
300.021608545
300.005584487
300.000503377
300.000029514
300.000003184
300.000000027
300
300
300
300
316.094787911
306.58310691
302.652539046
301.096603453
300.521300394
300.308629639
300.209399245
300.144284126
300.094890188
300.056637469
300.027019794
300.007535226
300.000743662
300.000042652
300.000005205
300.000000322
300
300
300
300
316.764452317
306.790095267
302.71761754
301.152274489
300.570659695
300.342436722
300.233072097
300.162496924
300.109022074
300.066993409
300.033510815
300.010174038
300.001138437
300.000069529
300.000009035
300.000000915
300
300
300
300
317.412107593
307.084514959
302.84218923
301.228989418
300.626793725
300.378753735
300.257154671
300.180446409
300.122999379
300.077542062
300.040576254
300.013467893
300.001733157
300.000118628
300.000015498
300.000001907
300
300
300
300
317.846183621
307.34413407
302.99448671
301.311701184
300.676315462
300.410056378
300.278138626
300.196269277
300.135560792
300.087345906
300.047569214
300.017188432
300.002568794
300.000192278
300.000025975
300.000003427
300.000000036
300
300
300
318.168315874
307.546397452
303.124721107
301.38263009
300.714907551
300.433813232
300.294585015
300.209046439
300.145934671
300.095562124
300.053652204
300.020923358
300.003633424
300.000295309
300.000039473
300.000005497
300.000000211
300
300
300
318.507123099
307.708462817
303.212185919
301.42935433
300.739647241
300.450173803
300.306597295
300.218654002
300.153816332
300.1016674
300.057942437
300.023818712
300.004767157
300.000427806
300.000053976
300.000007629
300.000000395
300
300
300
318.880643974
307.788791696
303.224274895
301.437934215
300.748297045
300.458813087
300.314318861
300.225240968
300.159205628
300.105533946
300.060400408
300.025511472
300.005578123
300.00056683
300.000065819
300.000009427
300.00000056
300
300
300
319.118918867
307.902522762
303.253872849
301.445374389
300.752912415
300.463458592
300.319096729
300.229421934
300.162382065
300.107281909
300.06123471
300.026141841
300.005978835
300.000662563
300.000074458
300.00001043
300.000000678
300
300
300
319.262238671
308.013103182
303.294048704
301.460643505
300.759371764
300.466904809
300.322092066
300.231775432
300.163713723
300.10723419
300.060769974
300.025962873
300.006064962
300.000708592
300.000079481
300.000011027
300.00000075
300
300
300
319.342886735
308.104985935
303.339280041
301.483416201
300.768910693
300.470756816
300.32424015
300.232867448
300.163571554
300.105856982
300.059414672
300.025284553
300.005960759
300.000720201
300.000082444
300.000010917
300.000000781
300
300
300
319.306446571
308.170259611
303.379528007
301.507493139
300.779779046
300.475295175
300.326083649
300.233065729
300.162141442
300.103564974
300.057535073
300.02434372
300.005779195
300.000714478
300.000082735
300.000010755
300.000000778
300
300
300
319.286403424
308.130694786
303.361696664
301.50801446
300.783398736
300.477973716
300.326944146
300.232067953
300.159323914
300.100446256
300.055253988
300.023268261
300.005577069
300.000704478
300.000082659
300.00001036
300.000000776
300
300
300
319.25565271
308.174225751
303.384187555
301.514634373
300.78588956
300.479310097
300.326440855
300.229373788
300.155040557
300.096519003
300.052653039
300.022131407
300.005415531
300.000708901
300.000082469
300.000010662
300.00000083
300
300
300
319.368504024
308.237536613
303.414774421
301.52354153
300.787050047
300.47850702
300.323611382
300.224183725
300.149160432
300.091853383
300.049837875
300.02105422
300.005353353
300.000751372
300.000086553
300.000012314
300.000000905
300
300
300
319.497976994
308.280426656
303.424457803
301.525331691
300.785220493
300.474914929
300.31783191
300.216273336
300.141821532
300.086719815
300.047110306
300.020242056
300.005511688
300.000874358
300.000103463
300.000014116
300.000001033
300
300
300
319.749481139
308.276133451
303.38840418
301.507087976
300.7761353
300.467326014
300.308586716
300.206398649
300.133980892
300.081971075
300.045098186
300.020163671
300.006122959
300.001168837
300.000157975
300.000018254
300.000001344
300
300
300
320.004785035
308.230835408
303.296729576
301.456080517
300.751699445
300.452221516
300.295384772
300.195627802
300.127026164
300.078778037
300.044750889
300.021489133
300.007584101
300.001787458
300.000287223
300.00002975
300.000002076
300
300
300
320.359204062
308.39527334
303.282695193
301.414537619
300.721215109
300.431669071
300.280497889
300.186105414
300.122697485
300.078647063
300.047248702
300.024776793
300.010062596
300.002868175
300.000543033
300.000064259
300.000003217
300
300
300
319.946578652
308.260864845
303.173531202
301.343017281
300.678346447
300.406073437
300.266348793
300.180535227
300.123485171
300.08283103
300.052699307
300.029867598
300.013712883
300.004603071
300.001021228
300.000141476
300.000005651
300
300
300
317.378492299
307.244809407
302.83056576
301.200798231
300.610803649
300.376373433
300.25733436
300.182520333
300.130275312
300.091349882
300.061020445
300.036932061
300.018800264
300.007236708
300.00185338
300.000295696
300.000018425
300.000000153
300
300
314.557018377
306.065086995
302.389057918
301.005491381
300.530936166
300.355309739
300.260940417
300.194470638
300.144162525
300.104661744
300.072642971
300.046434695
300.025693314
300.011080262
300.003208692
300.000575017
300.000049169
300.000000535
300
300
313.521588449
305.595055105
302.144860214
300.864494393
300.50238312
300.371074363
300.286637829
300.220204478
300.167099703
300.124035301
300.088483225
300.05894123
300.034785533
300.01647924
300.005315846
300.001051241
300.0001097
300.000001165
300.000000143
300
315.227532255
306.489041386
302.481934551
301.001216748
300.593846903
300.436827218
300.338352459
300.261807961
300.200306233
300.150185151
300.108783664
300.07440102
300.045951136
300.023392601
300.008260083
300.001751313
300.000208598
300.000002309
300.000000366
300.000000036
320.103732346
308.51382829
303.54217671
301.576085308
300.864220044
300.56816137
300.419227343
300.319145072
300.242662838
300.181871405
300.132402903
300.091804105
300.058339671
300.031245208
300.011834661
300.002651351
300.000338111
300.000004145
300.000000594
300.000000061
323.633395601
309.773793614
304.33085525
302.066951714
301.13933531
300.726570093
300.515038742
300.381658036
300.287129179
300.214164422
300.155929689
300.108815337
300.070282474
300.038848611
300.015429179
300.003621675
300.000476015
300.000008586
300.000000977
300.000000037
325.071451551
310.227321212
304.535892587
302.194541541
301.212686363
300.775721177
300.555050029
300.419154401
300.318817953
300.23917666
300.174680978
300.122505034
300.079857266
300.044853749
300.018260642
300.004420753
300.000597478
300.000018129
300.000001754
300.000000034
325.625394927
310.226871643
304.435131092
302.118666781
301.1731707
300.76191908
300.556300695
300.427908301
300.331630699
300.252275892
300.186194013
300.131354465
300.085991069
300.048477317
300.019815422
300.004885701
300.000686124
300.000029983
300.000002841
300.000000054
325.715175019
310.077595992
304.224992552
301.965093276
301.085482554
300.720286664
300.539351575
300.422819258
300.332988705
300.256589871
300.19115281
300.135518023
300.088712944
300.04960414
300.019948383
300.004908407
300.000701691
300.000038871
300.000003759
300.000000083
325.659647763
309.867624317
303.997342892
301.797653598
300.989432384
300.672075995
300.516130314
300.412830233
300.329815141
300.25699241
300.192652659
300.136646744
300.088721227
300.048296354
300.018667869
300.00448353
300.000643047
300.000040724
300.000004152
300.000000041
325.47669426
309.747202501
303.871829637
301.698783751
300.928595936
300.640645132
300.500864085
300.404619259
300.326486688
300.256549874
300.192963311
300.136367898
300.086914787
300.045249976
300.016492014
300.003771819
300.000530731
300.000037017
300.000003914
300
325.398269613
309.673299756
303.80752231
301.641923917
300.889997773
300.618284726
300.48854494
300.399175276
300.32473989
300.256679272
300.193241697
300.135345061
300.083694436
300.041400905
300.014118532
300.003048183
300.000418353
300.000030693
300.000003364
300
325.309078732
309.62982071
303.789679608
301.622731991
300.871597714
300.604970522
300.480414453
300.396662633
300.324744184
300.257586649
300.193578912
300.133343596
300.079765621
300.037611413
300.01208543
300.002497125
300.000345588
300.000028487
300.000002907
300
325.290408916
309.664148628
303.859783059
301.664752368
300.886203873
300.60699975
300.480932049
300.397254083
300.326115401
300.258939014
300.193362795
300.130505496
300.075886425
300.034477975
300.010681803
300.002208401
300.000343637
300.000043151
300.00000559
300
325.324199863
309.621271499
303.8943974
301.701880613
300.901700986
300.611470507
300.484969979
300.399944893
300.328271556
300.260117174
300.192112533
300.127357991
300.0725451
300.032315498
300.010037707
300.002242202
300.000452344
300.000102082
300.000031436
300.000010604
324.945903268
309.2797897
303.815851145
301.691509161
300.900284161
300.614293688
300.490644759
300.403840351
300.330573219
300.260505371
300.189935019
300.124211173
300.069993826
300.031292693
300.010237238
300.002692099
300.000757902
300.000259792
300.000111139
300.000056938
323.489053878
308.760215059
303.552332227
301.614579434
300.88986972
300.62697816
300.497933739
300.40791125
300.332355815
300.259697623
300.187109862
300.121364207
300.068498026
300.031574573
300.01144199
300.00374304
300.001418684
300.000629934
300.000307293
300.000181365
321.727719264
307.79306025
303.02904304
301.44856589
300.864486914
300.635963029
300.503649521
300.411047222
300.333180772
300.257726754
300.184083573
300.11930095
300.068443035
300.033467341
300.013937452
300.005698371
300.00270375
300.001418952
300.000747772
300.000464525
320.333562955
307.339616268
302.743880241
301.36636828
300.873553364
300.642064489
300.507746749
300.413576309
300.333375885
300.255467349
300.181822471
300.118848219
300.070471337
300.037403584
300.018147004
300.008988601
300.004996423
300.002943968
300.001667485
300.001048996
319.566952158
307.744503217
302.93956468
301.434969843
300.900498988
300.65269021
300.513746294
300.417362431
300.334157774
300.254563985
300.181772327
300.121099392
300.075265643
300.043847958
300.024515949
300.014104951
300.00875836
300.005600476
300.003400922
300.002132793
319.41526933
308.271415124
303.351486625
301.608471269
300.965165826
300.678510361
300.526560378
300.424314543
300.33718704
300.256569133
300.185092777
300.126760871
300.083198979
300.052984821
300.033308085
300.021427585
300.014393292
300.009751507
300.006266341
300.003929166
319.6198705
308.68840257
303.761034898
301.829863771
301.063811435
300.72269206
300.548004103
300.435117103
300.343285932
300.261906546
300.191847101
300.13568755
300.093947801
300.064538138
300.044375732
300.03099131
300.022032203
300.015534283
300.010376083
300.006543236
320.030307489
308.903230886
304.030629805
302.015202048
301.162735933
300.772561462
300.572959484
300.447835851
300.351082101
300.269174196
300.200701856
300.146656987
300.106528659
300.07773912
300.057224481
300.04249039
300.031445906
300.022724624
300.01550753
300.009818563
320.498347974
309.068783639
304.203643799
302.139934392
301.234613709
300.811531321
300.592908747
300.457991542
300.357478814
300.275850062
300.209532547
300.158004932
300.119755787
300.092128244
300.071581029
300.055337245
300.041952961
300.030717831
300.021149739
300.013270364
321.070445006
309.051490208
304.186274809
302.145904479
301.244276697
300.819189523
300.596500746
300.458976411
300.358737159
300.279573538
300.216745132
300.168936513
300.133756431
300.107176516
300.085908012
300.067882442
300.052239967
300.038534802
300.026515622
300.01628415
321.536718123
308.829798188
303.959524415
302.018530549
301.18016082
300.786622768
300.577859655
300.447414117
300.353040481
300.27972176
300.222623518
300.179889219
300.147105397
300.12072617
300.098449933
300.078782289
300.061193133
300.045230261
300.030811622
300.018315139
321.786986633
308.578984268
303.629383664
301.811770628
301.067055164
300.725631516
300.543607381
300.427963762
300.343693927
300.278560075
300.22829246
300.189655244
300.158364517
300.131626649
300.108329865
300.087364446
300.068127022
300.050118995
300.033447531
300.01906376
320.620399083
308.055251821
303.222568774
301.56630064
300.934371618
300.656473202
300.507411019
300.409849227
300.3368238
300.279485837
300.234172905
300.197645908
300.166735965
300.139630386
300.115534415
300.093496756
300.072745736
300.052836302
300.034188912
300.018466669
317.281056835
307.019848334
302.795061526
301.326112279
300.809199902
300.598433424
300.482782583
300.400801999
300.335910704
300.283307511
300.240287819
300.204171275
300.172898132
300.145261147
300.120328389
300.097118552
300.074831172
300.053190049
300.033050779
300.016739704
314.34884014
306.160933963
302.423897113
301.092885102
300.712883677
300.570318121
300.478602341
300.404875249
300.34318612
300.291820029
300.248611075
300.211404227
300.17878437
300.149792235
300.123431448
300.098656559
300.074636899
300.051337934
300.030266006
300.014362376
314.253930251
306.439145872
302.27217017
301.010409829
300.710498537
300.588758151
300.500998954
300.426043765
300.362166859
300.308358084
300.262246371
300.221852698
300.186170034
300.154441031
300.125657792
300.098690334
300.072677666
300.047944778
300.026598396
300.011671171
320.613520352
308.872710542
303.108826894
301.265602193
300.805278632
300.650511416
300.551290479
300.466864095
300.395187897
300.335121259
300.283215055
300.237171431
300.196286021
300.160094146
300.127661344
300.097756894
300.069441342
300.043503633
300.022571627
300.009066103
336.562839156
312.154745066
304.545912952
301.829241785
300.981058363
300.744815867
300.625296045
300.525126812
300.438991922
300.368424504
300.308704102
300.255798442
300.208511624
300.166599448
300.129437519
300.095878322
300.065110768
300.038340687
300.01837101
300.006641152
344.868087458
314.604561666
305.381298146
302.139630136
301.100957338
300.814271096
300.684846871
300.577827159
300.478783594
300.396236626
300.329784857
300.272057613
300.219714598
300.172283392
300.130078033
300.092587654
300.059565689
300.03261378
300.014152969
300.00446354
347.676870876
315.722030142
305.673692421
302.220360491
301.140907656
300.835926848
300.701696221
300.5952183
300.496626046
300.410323476
300.340991874
300.281739022
300.226849487
300.175231293
300.128378573
300.08728189
300.052660569
300.026446886
300.010243502
300.002611613
348.588649821
316.284117716
305.746389872
302.225803627
301.152333639
300.836168849
300.69846262
300.593032987
300.496483498
300.412958637
300.343967142
300.284870948
300.228907336
300.174340616
300.123641976
300.079722449
300.04456586
300.019987939
300.00675605
300.001434588
348.884752037
316.582589202
305.752291609
302.218063008
301.147403888
300.825513577
300.686085052
300.581972076
300.488069905
300.406914832
300.340776793
300.282860517
300.226233218
300.169418888
300.115848413
300.070252953
300.035824248
300.014007731
300.003793671
300.000734093
348.975745975
316.578748761
305.712902825
302.182635797
301.125558579
300.805475908
300.666707602
300.564715429
300.474114741
300.396035715
300.332311575
300.27604167
300.219395957
300.160877071
300.105450772
300.05945771
300.026890142
300.008932565
300.001993005
300.000347348
348.675631766
316.29766555
305.579396625
302.106846866
301.085713867
300.776851724
300.641688621
300.543145784
300.456851445
300.382370938
300.32086977
300.265414903
300.208840682
300.149238965
300.093086329
300.04806492
300.018610452
300.004854603
300.000987328
300.000152414
347.912931435
315.868412597
305.351551811
301.993932738
301.031409052
300.742452771
300.613848011
300.519913348
300.43853881
300.367695235
300.308120178
300.252700016
300.195515785
300.135863401
300.079964988
300.037045047
300.011671603
300.002494393
300.000471916
300.000061317
346.930470943
315.381295103
305.095415883
301.870825912
300.973122393
300.707195126
300.586557108
300.497385959
300.420755493
300.353305596
300.295108118
300.239267254
300.181058386
300.121669301
300.066914261
300.026851634
300.006373574
300.001269066
300.000226563
300.000023349
346.299231201
315.102959619
304.939093872
301.784792177
300.927026479
300.677332493
300.563351764
300.478494024
300.404369385
300.340167962
300.282761619
300.226196625
300.167226536
300.107529525
300.054276141
300.018263231
300.003252671
300.000671147
300.000120938
300.000010456
345.892667653
314.986834224
304.865686544
301.729545898
300.890740194
300.651667831
300.542913894
300.461630432
300.390508462
300.328777561
300.271768713
300.214431325
300.154551088
300.094061036
300.043011944
300.012098039
300.00176715
300.000400245
300.000085519
300.000009246
345.670276858
314.970670621
304.853592436
301.700908355
300.863441521
300.629620948
300.5246817
300.446497322
300.378836219
300.318922093
300.26214065
300.204023919
300.142581033
300.081568084
300.033676605
300.008185431
300.001106119
300.000300832
300.000086613
300.000013721
345.685847094
315.117527284
304.92260771
301.706523587
300.849124649
300.613139503
300.509492134
300.433608051
300.368463624
300.309950825
300.253349653
300.194309481
300.131025627
300.070279486
300.026488518
300.005929208
300.000846065
300.000294987
300.000109847
300.000020477
345.730649048
315.227905761
304.978379309
301.722829852
300.843068299
300.599337621
300.495309252
300.421616157
300.358484938
300.301022492
300.244439542
300.18437641
300.119661803
300.060306747
300.021267047
300.004654068
300.000806144
300.000350591
300.000147569
300.000027218
345.550240667
315.088415501
304.929318786
301.689142305
300.81898351
300.580659827
300.479993623
300.409544516
300.348142262
300.291301894
300.234465816
300.173385541
300.108054465
300.05146188
300.017526264
300.003858284
300.000914196
300.000449943
300.000194835
300.000033065
344.956486739
314.710227208
304.769014376
301.621801188
300.783211927
300.559963304
300.465729454
300.397400792
300.336894384
300.280061259
300.222623493
300.160515911
300.095660943
300.043400987
300.0146546
300.003178293
300.001137409
300.000588117
300.000247374
300.000037602
343.8199011
314.022409715
304.45087975
301.50794815
300.744015709
300.540594494
300.453886242
300.385328881
300.32449191
300.26684838
300.208333733
300.145099736
300.082203888
300.035891816
300.012074322
300.002916697
300.001465815
300.000760815
300.000301211
300.000040882
342.347711317
313.133339199
304.042231604
301.381897704
300.714930274
300.535922397
300.445255188
300.373976546
300.311148441
300.251659208
300.191289494
300.126926792
300.067988123
300.028917446
300.00959103
300.003329832
300.001884214
300.00096656
300.000354303
300.000044274
340.911425169
312.296912872
303.678609093
301.319270982
300.732088505
300.546900626
300.442661
300.364576832
300.297588021
300.234924634
300.17136187
300.106831358
300.054247878
300.022560149
300.007842509
300.004080153
300.002406274
300.001207065
300.000409574
300.000049876
340.072898826
311.780599362
303.537434973
301.420692555
300.819039464
300.579625821
300.449069522
300.358523029
300.284625204
300.216732555
300.148868034
300.086673471
300.042321769
300.017504302
300.008238517
300.005122316
300.003050707
300.001496691
300.000473615
300.000059896
339.965324611
311.715801686
303.833268638
301.722022228
300.961752028
300.635758541
300.465154243
300.356163802
300.272028537
300.196161886
300.125454134
300.068884014
300.03289715
300.015752275
300.009862216
300.006503794
300.003887921
300.001860486
300.000551603
300.000078356
339.006080036
312.04053998
304.655155601
302.136663682
301.152110018
300.713500559
300.490976945
300.357079198
300.258025695
300.174006875
300.103949041
300.05519532
300.028106565
300.017670639
300.012383826
300.008377321
300.005001428
300.002307305
300.000653575
300.000106978
335.081779438
312.479490851
305.398156004
302.578191485
301.367444899
300.80717615
300.524154984
300.357491104
300.241722539
300.152582475
300.087189484
300.047136874
300.029802348
300.021746769
300.015960594
300.010928031
300.006410364
300.002834023
300.000799469
300.000144252
328.264995293
312.656248842
305.88321766
302.917560253
301.549989106
300.890563865
300.549063623
300.349582197
300.223334773
300.134380304
300.076342059
300.047739714
300.035775694
300.027770465
300.020791712
300.014118735
300.008059339
300.003462735
300.001006123
300.000195433
322.901936889
311.357732497
305.703204756
302.963237077
301.604937806
300.913424634
300.538658173
300.328655349
300.203569403
300.121227079
300.074634882
300.055823925
300.044916775
300.035685389
300.026643008
300.017808857
300.009972035
300.004253632
300.001292399
300.000273092
319.377267166
309.669793629
305.038181785
302.7135688
301.499209512
300.8456088
300.487822096
300.29689455
300.18611027
300.11632455
300.084079755
300.068447266
300.056394034
300.044847989
300.033286061
300.022086196
300.012309306
300.00532292
300.001690628
300.000386095
316.953572793
308.190270771
304.276731479
302.328240345
301.284573985
300.714766306
300.420351021
300.266571056
300.177738102
300.125147353
300.10023084
300.083925975
300.069330886
300.05509893
300.040981823
300.027343417
300.015419442
300.006822583
300.002254811
300.00054135
314.959996223
306.990440092
303.548348248
301.901474887
301.034044009
300.584093168
300.365803756
300.25243754
300.184089671
300.144183583
300.120752482
300.101685074
300.084068889
300.067137321
300.050507129
300.034290886
300.019757657
300.008965562
300.003042182
300.000748981
313.487097891
306.177354204
303.049935911
301.58856874
300.848995041
300.499196817
300.343069047
300.259907696
300.206823559
300.17156428
300.145755314
300.123162269
300.102205111
300.082291003
300.062820466
300.043592967
300.025772002
300.011992991
300.004135446
300.001025253
313.402632604
306.457616372
303.330616217
301.748684669
300.891658234
300.503890474
300.365468688
300.293788918
300.245100788
300.208044085
300.177675208
300.150307762
300.12489366
300.101117328
300.078200655
300.05543729
300.033670669
300.016056286
300.005590131
300.001375701
317.041566686
309.596459069
305.326846879
302.806037728
301.360945384
300.674576619
300.447938534
300.355281671
300.298328148
300.254396876
300.217196019
300.183120464
300.151678118
300.122912161
300.095864305
300.069165947
300.043023073
300.020954825
300.007329722
300.001775133
330.41906453
314.966497343
307.647603873
303.92984805