/*--------------------------------*- C++ -*----------------------------------*\
| =========                 |                                                 |
| \\      /  F ield         | OpenFOAM: The Open Source CFD Toolbox           |
|  \\    /   O peration     | Version:  2312                                  |
|   \\  /    A nd           | Website:  www.openfoam.com                      |
|    \\/     M anipulation  |                                                 |
\*---------------------------------------------------------------------------*/
FoamFile
{
    version     2.0;
    format      ascii;
    arch        "LSB;label=32;scalar=64";
    class       volScalarField;
    location    "0.12/water";
    object      alpha.gas;
}
// * * * * * * * * * * * * * * * * * * * * * * * * * * * * * * * * * * * * * //

dimensions      [0 0 0 0 0 0 0];

internalField   nonuniform List<scalar> 
1497
(
0.284598754561
0.217049273839
0.216029237381
0.224022195318
0.378432633556
0.518653480683
0.487095135724
0.391176001996
0.283546968526
0.217517641276
0.210232882114
0.225739245657
0.223207120682
0.719294972422
0.565989930524
0.586684496313
0.579699420896
0.544611287741
0.46649492785
0.35640652359
0.248482910114
0.216029237381
0.215487958338
0.223081942556
0.336776096022
0.415891624938
0.373314711604
0.279042222742
0.198914557825
0.182566853107
0.200867117853
0.227203851108
0.225010601787
0.718930145476
0.476347341863
0.496779981019
0.490392853566
0.460469853506
0.392277784797
0.296413253773
0.220531182769
0.215657223135
0.215800521214
0.215881326079
0.267382646615
0.2968206849
0.26500384443
0.201722208261
0.166008615105
0.171714898129
0.198514281954
0.228334349037
0.23476154476
0.718761079378
0.402402974364
0.39387853049
0.381337528477
0.35739212188
0.306233846276
0.236534676387
0.215719668416
0.215800521214
0.214922883336
0.215624986439
0.218325835753
0.225807441409
0.207860306189
0.1723520556
0.159583098398
0.167621825605
0.193351728584
0.227885516211
0.264173133056
0.70101587988
0.374485330069
0.320005999426
0.292495681496
0.269193157826
0.235628207197
0.215765465481
0.215800521214
0.214922883336
0.215624986439
0.21482488003
0.2155054554
0.215298842358
0.192627599232
0.164610098153
0.156491770518
0.162163940988
0.18241395829
0.228684826205
0.297257420516
0.638568943406
0.369139345933
0.312923698798
0.27966337784
0.249885619121
0.21943323325
0.216029237381
0.214922883336
0.215800521214
0.214772049811
0.216921722824
0.227688287995
0.21958675788
0.187216241533
0.16036579776
0.151767568362
0.152982281709
0.167763698962
0.22440235219
0.2980755859
0.572945920093
0.404245487648
0.347676612729
0.307892648087
0.269322568553
0.235838371703
0.224060131751
0.224247653424
0.232259677465
0.249432298171
0.267559816695
0.26345266812
0.22928913696
0.187367590875
0.156999773258
0.145075375432
0.143445256812
0.153552369368
0.210404987327
0.297257420516
0.6010533429
0.555830643046
0.504793654004
0.45003090391
0.393009118343
0.353778356945
0.336795844837
0.340103100373
0.357144046459
0.373415448024
0.36872890142
0.326382566462
0.26284664311
0.200771410469
0.157374301284
0.140020159434
0.138844835991
0.142958409427
0.187240021211
0.293974065783
0.724332105207
0.760376099832
0.731061295007
0.68478441422
0.636069152978
0.605978218357
0.589669647318
0.582012381618
0.567001271895
0.53429854479
0.483296783393
0.41566755369
0.335657128355
0.245500546793
0.16786668335
0.138319785091
0.138262955531
0.138489532333
0.161522288025
0.277524118025
0.855400715503
0.859864035268
0.843325066326
0.816638434039
0.790559292603
0.773856435052
0.760253791805
0.741976955795
0.704104597514
0.640269468504
0.560998844453
0.479321476727
0.395972338798
0.298889741776
0.190950663088
0.138262955531
0.138109148624
0.138183421268
0.1432676682
0.251956581478
0.877224138425
0.873872030526
0.866296370515
0.844318208657
0.825273836899
0.811939232619
0.798858552029
0.778348336176
0.739637706154
0.674029877868
0.5872050457
0.498104883816
0.41214555402
0.317735193717
0.203554669898
0.138073042537
0.138183421268
0.137806776639
0.138183421268
0.222082576814
0.875474078473
0.875545474826
0.868549262353
0.846064473041
0.827836909814
0.815033526262
0.801831927976
0.780499756275
0.741317897004
0.675073580092
0.58667093365
0.496038986165
0.409067086219
0.313973996244
0.199850047256
0.138183421268
0.137594406388
0.138164065224
0.137585616241
0.198123362525
0.877404798765
0.875474078473
0.865574602514
0.841108692076
0.823789846889
0.811659688216
0.797991392422
0.774540080723
0.731464361649
0.659317238305
0.567239216248
0.475264259989
0.387300622992
0.290100675512
0.179365181451
0.137870554462
0.138164065224
0.137013279683
0.138164065224
0.191283269221
0.875474078473
0.873421406096
0.853035780497
0.825053257716
0.810053663462
0.799223105723
0.784172399783
0.755851109919
0.704630477754
0.625145349829
0.531446747377
0.43972966539
0.350614332236
0.251369510736
0.153195767774
0.138164065224
0.137231210705
0.13813549165
0.136587818395
0.200845599696
0.876549359968
0.861471386995
0.829671752068
0.801031721982
0.789507146794
0.77977189315
0.762512802991
0.72833648699
0.66957339535
0.586547169656
0.493672640116
0.402344370647
0.310874123652
0.210564265848
0.13988064921
0.137743621025
0.138164065224
0.136587818395
0.138164065224
0.235880523798
0.875474078473
0.836979697661
0.799367133801
0.774668335412
0.766710896609
0.757050285599
0.736338180904
0.69597068397
0.631057415636
0.546812142675
0.454972426078
0.362853934622
0.268135924489
0.172123245591
0.138158196098
0.138183421268
0.136917838175
0.138164065224
0.136510582124
0.305051651144
0.873179821555
0.800765965111
0.76496746596
0.746675879022
0.740692042539
0.728974081001
0.702602475646
0.654911839527
0.585492653047
0.501034775725
0.409752694548
0.315482935662
0.21822979187
0.144679135551
0.138262955531
0.137364757088
0.138183421268
0.136585416662
0.205674312159
0.376581581119
0.850235468545
0.753498020724
0.725884962527
0.713083554375
0.705265413941
0.687507050911
0.652578997911
0.597984629204
0.526410535662
0.442980129805
0.351847989232
0.255227539394
0.165555877803
0.13829364568
0.137668789756
0.138262955531
0.13672094082
0.151530184172
0.394832499857
0.414233944802
0.805589480946
0.691867933211
0.678196849527
0.665662816351
0.650189250933
0.621868203721
0.577694807569
0.518825799751
0.447879116217
0.366463693437
0.275596197365
0.183758582564
0.138904504146
0.137919141322
0.13829364568
0.136902987299
0.14128664848
0.339012282253
0.537423671483
0.433437485187
0.752415279903
0.609074505496
0.61151599009
0.593978527424
0.565212151648
0.524623038125
0.473885244878
0.414539706873
0.346572619745
0.267784144415
0.18499417752
0.13982811234
0.138036458097
0.138314984292
0.137220124478
0.154315316311
0.339339570577
0.544543115317
0.553610046539
0.450155400969
0.701799728908
0.502152554326
0.515349741549
0.493046223871
0.453373904856
0.403379744441
0.349218002674
0.292399443471
0.229158018448
0.165320777728
0.138517419486
0.137958655937
0.138399569036
0.137124737701
0.203935863987
0.39734984373
0.550195663464
0.557788664608
0.553845761732
0.465656421929
0.635227825522
0.40017983453
0.413611671453
0.392214279321
0.349781127294
0.294406828151
0.238569375065
0.187141179683
0.144657288383
0.138455880627
0.137804496663
0.138427551108
0.160543246235
0.298223733434
0.472389604959
0.556961830339
0.557788664608
0.558626390302
0.549764856776
0.475346575192
0.546300150679
0.372080249058
0.371562870737
0.358720994263
0.315455261154
0.256810214764
0.203237591837
0.159288877045
0.138548518524
0.138076436968
0.141053792597
0.213109659893
0.378767428241
0.509570520098
0.555380297643
0.557788664608
0.558349624672
0.557788664608
0.54096552078
0.483675448102
0.476421590847
0.394027585192
0.403285101416
0.388689911163
0.339627557766
0.278700886941
0.227616849367
0.191753781242
0.178942659226
0.199814983504
0.27202021651
0.397307109488
0.489215134871
0.51619613779
0.537124389596
0.544856006862
0.548682012569
0.548920973212
0.528359636548
0.492818136518
0.501999946965
0.522172487368
0.537496473947
0.523641673181
0.480662794801
0.433029085858
0.403765076591
0.398123980439
0.418468986372
0.454504259031
0.484123216357
0.49005628972
0.484842285389
0.484028915053
0.486259816303
0.494801838794
0.506676172464
0.515318750133
0.513551703242
0.501034362459
0.625016732201
0.682064559237
0.688896724715
0.689861587625
0.684455617518
0.677823126285
0.675909006685
0.685745926863
0.702643145464
0.712446115052
0.685363057415
0.601900649149
0.520095934747
0.480592374413
0.456124927116
0.44674024308
0.451237780897
0.471674658794
0.497954009827
0.506110697144
0.720619577498
0.737988527319
0.742152184436
0.754905115099
0.773631275101
0.788400933801
0.795162057561
0.799564694657
0.803341480848
0.803862840319
0.789929230865
0.734180279504
0.641556296065
0.551093774005
0.483227590101
0.439939200404
0.418578171785
0.42710441514
0.47908320831
0.507217233994
0.739003276369
0.741265970684
0.746948796071
0.764476930107
0.788596221587
0.807569418872
0.815995886358
0.817957576283
0.818555563259
0.818164948459
0.811226130013
0.78317720959
0.728547882683
0.651589851623
0.56128926862
0.469963687806
0.407419388318
0.38967218279
0.45431775976
0.507534712545
0.73296179083
0.73205468576
0.741607573533
0.763302982658
0.788927973651
0.80876986599
0.818369178737
0.819576828207
0.819552539393
0.819561151167
0.811987006397
0.787335464151
0.746480711992
0.692010441158
0.61723414477
0.514626446454
0.410040267581
0.364690921794
0.428380968003
0.507761378682
0.708040866229
0.708481391043
0.727303545335
0.756481703413
0.783586084324
0.804354071689
0.815852068529
0.818654603349
0.818956635797
0.817696594044
0.808172167615
0.784580816067
0.747688482405
0.701607842109
0.63473646108
0.532780930958
0.413744419887
0.354966305849
0.412096301503
0.50798804415
0.673467966654
0.680250361287
0.71326095249
0.746673680542
0.770028397332
0.79011131867
0.804588884693
0.810557436567
0.811770315988
0.808653002123
0.796712113561
0.7758370813
0.745765493188
0.703603241371
0.637927951971
0.532831378019
0.407529503774
0.35497566296
0.409986936443
0.509903386938
0.643563435986
0.656805732377
0.70103675812
0.737288142491
0.750747581017
0.76651825572
0.780680392656
0.788884672283
0.792417502715
0.789800240873
0.77889852922
0.762835339994
0.739472543385
0.701281688173
0.633581798327
0.520586798399
0.387486523898
0.354965400322
0.42311817998
0.521863231583
0.62068387717
0.63784377323
0.685914746677
0.728723685154
0.729677293276
0.735576020835
0.742785119282
0.751090043707
0.760099806218
0.762812843407
0.756786617678
0.746676251214
0.72751124386
0.689504971704
0.6142998324
0.491589447676
0.363299272137
0.359478297766
0.467805170953
0.539961974245
0.604598452718
0.620877096108
0.664532815731
0.719164216483
0.714452367357
0.700549326847
0.689873725691
0.695433261417
0.715300417565
0.727880523229
0.728776056692
0.723415449879
0.705630014844
0.661560136215
0.573647278599
0.445204729412
0.353250036516
0.384218899115
0.530924671073
0.550075450274
0.603049110423
0.605628219152
0.638529796624
0.703538971224
0.711651370531
0.675886281098
0.629817213792
0.619570172189
0.651117322093
0.678729908726
0.687175321541
0.684492002495
0.664754390313
0.610193965218
0.508610792044
0.382439711043
0.353185501526
0.44091111165
0.566799121813
0.552162685515
0.603385371876
0.602714527034
0.613549158527
0.678213324898
0.713831868311
0.681295669372
0.597682334331
0.546715146865
0.563451608426
0.602189985393
0.620597647574
0.619575401305
0.595540041203
0.530051292993
0.425510405907
0.339473317412
0.367204543185
0.536578610128
0.568026764141
0.551883755862
0.600093038815
0.603385371876
0.603301772309
0.655370566198
0.713758710089
0.701707861371
0.626347562867
0.528768622855
0.488125527
0.500362506637
0.52319940126
0.524010789365
0.497824078626
0.430267117638
0.346229651164
0.33912020457
0.426783960014
0.56864336571
0.566876745056
0.553512991723
0.6024403363
0.599837232319
0.603385371876
0.641693954398
0.714009952187
0.713758710089
0.680810454311
0.579666375183
0.484338392057
0.4383173799
0.428826065005
0.422116009981
0.395807953842
0.347541865874
0.323018642919
0.339650386524
0.516749688921
0.566876745056
0.56890108009
0.566309771802
0.183565291387
0.105350197362
0.0367021560696
0.0104449346083
0.00530369873148
0.00295155613456
0.00109448256257
0.000194313994787
2.1734177687e-05
4.71528456708e-06
1.22052581495e-06
2.08618267834e-07
1.21604845871e-08
7.72131724291e-11
7.61481703595e-15
9.34242933628e-15
1.35593906013e-14
1.52134657126e-14
1.55050883092e-14
1.74571401975e-14
0.184229752571
0.0957022350801
0.0262808403245
0.00761514084744
0.00397068428448
0.00181186058123
0.000519458092397
9.36824920001e-05
1.52666768837e-05
3.91481051752e-06
9.68849379696e-07
1.4659796785e-07
7.76022020492e-09
4.64626147671e-11
7.61570505839e-15
9.24939860723e-15
1.36865805417e-14
1.51134719975e-14
1.51886791102e-14
1.74715079588e-14
0.206815209217
0.0987531149965
0.0205921109356
0.0063637698418
0.00323140607662
0.00131652694619
0.000378178780241
7.79643274769e-05
1.37893329182e-05
3.51176946985e-06
8.35246981917e-07
1.23723472154e-07
6.75520487677e-09
4.42728818053e-11
7.61475569213e-15
9.84181909157e-15
1.39122121509e-14
1.50565194467e-14
1.49561983479e-14
1.74571401975e-14
0.277500636889
0.111726214783
0.0188941438616
0.00615553674823
0.0031078871576
0.00125444933702
0.000372784033796
8.0256023802e-05
1.44308504887e-05
3.52758638423e-06
8.32951304769e-07
1.25768612047e-07
7.19417925911e-09
5.31637018708e-11
7.6156465787e-15
1.07519502979e-14
1.4116311156e-14
1.50597555418e-14
1.48193332472e-14
1.74625552895e-14
0.298137954089
0.13506228267
0.0206281303061
0.00654674759234
0.00333066006423
0.00140898715107
0.000456735177017
0.000110599623115
2.07483143586e-05
4.20886360622e-06
9.57957607277e-07
1.54748242199e-07
9.98241810486e-09
8.93365853689e-11
7.61469964602e-15
1.1383211435e-14
1.42593933058e-14
1.51346403745e-14
1.47763697524e-14
1.71192309509e-14
0.297257420516
0.176086494907
0.0288913726544
0.00831970486576
0.00434765838029
0.00206872802928
0.000771511962432
0.000211322511161
4.195299443e-05
6.90811773858e-06
1.36234010761e-06
2.4058150274e-07
1.73928941253e-08
1.83040006973e-10
7.61561791159e-15
1.16135253651e-14
1.43497224843e-14
1.52851884386e-14
1.4774666519e-14
1.63988425492e-14
0.298385138995
0.220665625196
0.0468616107191
0.0121161373783
0.00637641191312
0.0034059720591
0.00145696515992
0.000447770958536
9.52514034466e-05
1.45817848148e-05
2.24846862101e-06
4.17903469753e-07
3.32944207279e-08
4.24368248744e-10
7.6146980989e-15
1.15705006842e-14
1.43918344331e-14
1.54353764306e-14
1.47759059373e-14
1.5830483149e-14
0.297257420516
0.245978594288
0.0709701968322
0.0177535494141
0.00907048702278
0.00527025836115
0.00260601309002
0.000920925905197
0.000214495447613
3.31601485489e-05
4.23452962286e-06
7.47853349451e-07
6.55789770727e-08
1.04402073122e-09
8.06279340536e-15
1.1121579486e-14
1.44032290465e-14
1.55591735092e-14
1.47675613014e-14
1.54614468883e-14
0.298175413279
0.252067074194
0.0902394828865
0.0237587645572
0.0117621160764
0.007129316574
0.00403007739953
0.00168762593163
0.000446279439068
7.19822692236e-05
8.39710869877e-06
1.3496798944e-06
1.24865060747e-07
2.4208479448e-09
3.55379065607e-14
1.0540681262e-14
1.44024948279e-14
1.5695600739e-14
1.47759059373e-14
1.52178252674e-14
0.297257420516
0.250316714743
0.0972595638566
0.0279625863067
0.0137841790635
0.00843820558957
0.00519271420073
0.00255047323419
0.000787872440508
0.000138440277123
1.54004715323e-05
2.35918450458e-06
2.21788571041e-07
5.037438003e-09
2.39839533738e-13
1.01824547169e-14
1.43989695385e-14
1.58570327004e-14
1.50023590847e-14
1.50744438971e-14
0.29767800228
0.240046610857
0.0955869802219
0.029323450608
0.014745886061
0.00907852596296
0.00579360500191
0.00314981236545
0.00111316322412
0.000218140962757
2.4149880089e-05
3.72553979069e-06
3.60187221998e-07
9.17242786911e-09
1.11970114351e-12
9.98976551045e-15
1.44018088557e-14
1.60034708017e-14
1.53301225392e-14
1.50125448427e-14
0.297257420516
0.221640623682
0.085255917783
0.0286375118761
0.0148326848816
0.00920165690711
0.00595330058669
0.00338398285588
0.00129223855036
0.000275262972402
3.17511526625e-05
5.06226379522e-06
5.26828212604e-07
1.45785161832e-08
3.56448736087e-12
9.87642918388e-15
1.44055471949e-14
1.61137566218e-14
1.52548659468e-14
1.4989548226e-14
0.290944552353
0.197888919495
0.0699334501253
0.0257474861628
0.0142963373882
0.00901249450832
0.00589525625879
0.00339472083807
0.00133124335276
0.000295843460191
3.5866765744e-05
5.93423329079e-06
6.85855466661e-07
2.04908205101e-08
8.38103273118e-12
9.70436631896e-15
1.43768511861e-14
1.61383819792e-14
1.50538066628e-14
1.4960068811e-14
0.277808663646
0.17035479432
0.0550457808719
0.022166178903
0.0129976110755
0.00838231820929
0.00558489163526
0.00325513992771
0.0012946479645
0.000295080937075
3.71292614574e-05
6.24440163413e-06
7.95155063494e-07
2.60306857527e-08
1.6457912213e-11
9.52680189125e-15
1.42455923751e-14
1.61397017379e-14
1.48137221104e-14
1.48663683513e-14
0.269231727334
0.139939711085
0.0427183765214
0.019382531047
0.0116506785563
0.0076358508306
0.00513657462425
0.00297090013143
0.00118150605917
0.000280287480101
3.74595632389e-05
6.24871063612e-06
8.36582899416e-07
2.92762993126e-08
2.35803077935e-11
9.52941481303e-15
1.40366724712e-14
1.60658713096e-14
1.45675589033e-14
1.46572998372e-14
0.264454117342
0.107993491827
0.0346390331545
0.0176091699666
0.0107407104492
0.00712341090569
0.00479494111619
0.0027389181466
0.0010887426765
0.000268568576418
3.82363368209e-05
6.11961123018e-06
8.32281818683e-07
2.87164398187e-08
1.98194387082e-11
9.52679140247e-15
1.40498390932e-14
1.58842214309e-14
1.43224078522e-14
1.43220170056e-14
0.250736276488
0.085983173032
0.0308363370492
0.0167297743961
0.0103318722502
0.00690674720518
0.00465043548733
0.00265932914379
0.00107160614044
0.000271590110634
4.16511838681e-05
6.06017344759e-06
7.98757614813e-07
2.41882107655e-08
6.46346115547e-12
9.5262684695e-15
1.44220612207e-14
1.56509773267e-14
1.40997655502e-14
1.38811357596e-14
0.234823092893
0.0781830680783
0.0297394744785
0.0165664732148
0.0103080086996
0.00690455984973
0.00465429454731
0.00268477134766
0.00111233831316
0.000299655043453
4.98741825223e-05
6.21467368508e-06
7.6428999594e-07
1.74300847481e-08
1.0715562412e-14
9.52625176191e-15
1.49718881037e-14
1.53930326667e-14
1.39304174247e-14
1.33760304976e-14
0.237416141459
0.079330957049
0.0300095744068
0.0169690386021
0.0106805179879
0.00714775562923
0.00483584047791
0.00287371920558
0.00126457621099
0.000365250093454
6.42309255358e-05
7.01141924466e-06
7.4231193773e-07
1.06867324139e-08
8.82396678308e-15
1.18848520487e-14
1.50002091095e-14
1.51614510656e-14
1.3858706604e-14
1.2844642102e-14
0.264093568016
0.0897363703633
0.0321567281515
0.0182233938682
0.0116101937899
0.00773788948969
0.00525891626614
0.00324128174782
0.00151730358476
0.00046642312367
8.59991045944e-05
8.81227817972e-06
7.32538337088e-07
5.56183046465e-09
8.82420357128e-15
1.29668092892e-14
1.48438699435e-14
1.50114688264e-14
1.38859552166e-14
1.23130684555e-14
0.299701570235
0.109872505547
0.0363325534619
0.0197513142602
0.0126969297169
0.00847209393694
0.00578163179576
0.00367877918891
0.00182712088007
0.000598650269662
0.000115856015866
1.16118236114e-05
6.91893752026e-07
2.19666957238e-09
8.82396637763e-15
1.3491472239e-14
1.4659587513e-14
1.4939699908e-14
1.40660070122e-14
1.17921457473e-14
0.328462633285
0.13574974636
0.042302566547
0.0211999389068
0.0136339103585
0.00916541623329
0.00628610049297
0.00411192454202
0.00216095046057
0.000753864144427
0.000152216601141
1.50868717663e-05
5.94123905506e-07
5.35555955915e-10
8.82420316584e-15
1.3865473117e-14
1.44983157572e-14
1.49160669642e-14
1.43976654757e-14
1.12774289353e-14
0.353181655573
0.165723568574
0.0510914885323
0.0228381274848
0.0144224827422
0.009769185901
0.00674021547532
0.00451365782647
0.00249367130264
0.00091975892383
0.000190767839191
1.81395908836e-05
4.77117761028e-07
6.43538250934e-11
8.82396599667e-15
1.40195550556e-14
1.43430847308e-14
1.49120257506e-14
1.48193698423e-14
1.07666474662e-14
0.377643027988
0.19854981334
0.063958746808
0.0251553319568
0.0151919762131
0.0102996193645
0.00714283434072
0.00487470060563
0.00280679644835
0.00108330164152
0.000226651509078
1.86731061829e-05
3.52419931669e-07
4.31207128366e-12
1.1291230936e-14
1.39577731779e-14
1.41861791737e-14
1.49082132737e-14
1.53000950202e-14
1.02722321541e-14
0.401995739798
0.230757423405
0.0808558906706
0.028563164614
0.016052499362
0.0107693944836
0.00748773551561
0.00518610837447
0.00308354250041
0.00122915271535
0.000254304767883
1.83038068789e-05
2.09511485823e-07
1.09409931892e-13
1.29189095752e-14
1.38499690471e-14
1.40569371609e-14
1.48934635291e-14
1.58150496904e-14
9.83069527531e-15
0.423785749076
0.258206327402
0.0988754078926
0.0328882506817
0.0169781302259
0.0111407665279
0.00774338567148
0.0054263430001
0.00329922142299
0.00133512588445
0.000263665540337
1.66243281725e-05
7.9199686324e-08
9.05474293456e-15
1.30684967763e-14
1.38142977423e-14
1.39931533993e-14
1.48453532881e-14
1.63498549997e-14
9.4813341709e-15
0.440898132455
0.27741109796
0.112997004465
0.0369150877326
0.0177117848291
0.0113166229321
0.0078575646249
0.00556030689606
0.00341954919548
0.00137311131389
0.00025664232584
1.24531196174e-05
1.37916758964e-08
8.69213417872e-15
1.30518336147e-14
1.38203305508e-14
1.39869020719e-14
1.47675693389e-14
1.68745986368e-14
9.24757792207e-15
0.451338373767
0.286655038809
0.119415993058
0.0389462862457
0.017911960168
0.0112552480815
0.00782660816616
0.00557435594413
0.00342886314815
0.0013430786285
0.000217554963533
6.86228657865e-06
6.843022718e-10
8.68345628529e-15
1.29910033116e-14
1.38680063063e-14
1.40236676105e-14
1.46816493041e-14
1.74116248759e-14
9.09884706854e-15
0.454559928004
0.286915666274
0.118711910882
0.0386593520367
0.0174845571631
0.0108343984704
0.00759587303373
0.00545706857174
0.00330718258042
0.00120127094924
0.000151626630803
2.61952709787e-06
2.5574387878e-12
8.92274635498e-15
1.28981836834e-14
1.39506783785e-14
1.41122444161e-14
1.45889890443e-14
1.79279778149e-14
9.01259687416e-15
0.451983982934
0.277027167209
0.11015902738
0.035705029147
0.016257498445
0.010126337193
0.00720336670542
0.00517873819353
0.00301594838729
0.000968743659112
9.05514471299e-05
7.54935463985e-07
2.61299683508e-15
8.7985270473e-15
1.27614096267e-14
1.40397380341e-14
1.42112110833e-14
1.44885521856e-14
1.83498639258e-14
8.97637758689e-15
0.443749345316
0.256247532219
0.0953356781312
0.0311798003318
0.0147498558072
0.00934899634297
0.00675635957213
0.00480788461486
0.00262542047426
0.000717976440446
5.0149881686e-05
2.24158003928e-07
2.6373915511e-15
8.16051382074e-15
1.25719734407e-14
1.41251035128e-14
1.42930800922e-14
1.43894564547e-14
1.86729914892e-14
8.96902667974e-15
0.433260070331
0.231701706491
0.0811146507331
0.0273729152488
0.0134398883894
0.00865105742573
0.00631771238766
0.00439385151888
0.00220722109381
0.000510448712793
2.8967071596e-05
1.19777223523e-07
2.61299683507e-15
7.37794929888e-15
1.23522272053e-14
1.42024370972e-14
1.43474722022e-14
1.42998818563e-14
1.87380978218e-14
8.96667536673e-15
0.423024835868
0.211705428682
0.0718207041063
0.025023875051
0.0124816096198
0.00811125567622
0.00593229823126
0.00398782519221
0.00183664458532
0.000374436409155
1.95750695728e-05
1.14019467255e-07
2.6373915511e-15
6.78567378194e-15
1.21337049458e-14
1.42624976287e-14
1.43572850542e-14
1.42176850132e-14
1.87604558143e-14
8.96134121285e-15
0.414078132166
0.200735088204
0.0673053290656
0.0237838883454
0.0118757982697
0.00774329995594
0.00562536089673
0.00364564781806
0.00156729573637
0.000300211054708
1.58901913804e-05
1.21341245903e-07
2.61299683499e-15
6.40086821053e-15
1.19428719655e-14
1.42915579971e-14
1.43579047499e-14
1.41397586482e-14
1.87380978218e-14
8.96011094732e-15
0.408684756678
0.196386083104
0.0652503541314
0.0232320870307
0.011593663396
0.00753306852329
0.00541281513932
0.00340930219268
0.00140950230856
0.000267265899949
1.50172010907e-05
1.42975976e-07
2.63739155107e-15
6.1637083939e-15
1.17909425671e-14
1.42897260205e-14
1.43201012361e-14
1.40658771504e-14
1.87697558097e-14
8.95333383964e-15
0.408084608315
0.195557950409
0.0646535653921
0.0231589958496
0.0115540384638
0.00746199047629
0.00531059469353
0.00329676907913
0.00134897779027
0.000260668862584
1.51331838537e-05
1.8081699875e-07
2.61299683498e-15
6.00990190449e-15
1.16567827366e-14
1.42539150909e-14
1.42493863411e-14
1.39957012138e-14
1.87380978218e-14
8.95167431823e-15
0.411433022894
0.197977270008
0.0654773970275
0.0235811354266
0.0116835103506
0.0074756466454
0.00529879941019
0.00328085249697
0.00134749842546
0.000264825703719
1.6364135376e-05
2.48902229935e-07
2.63739155098e-15
5.86957527528e-15
1.15031723824e-14
1.41833583747e-14
1.4174876715e-14
1.39295882285e-14
1.87695616063e-14
8.94615873168e-15
0.423188610446
0.207410364864
0.0694381854207
0.0251497351743
)
;

boundaryField
{
    emptyPatch
    {
        type            empty;
    }
    minY
    {
        type            fixedValue;
        value           nonuniform List<scalar> 0();
    }
    maxY
    {
        type            inletOutlet;
        phi             phi.gas;
        inletValue      nonuniform List<scalar> 0();
        value           nonuniform List<scalar> 0();
    }
    water_to_cooler
    {
        type            zeroGradient;
    }
    water_to_heater
    {
        type            zeroGradient;
    }
    procBoundary1to0
    {
        type            processor;
        value           nonuniform List<scalar> 
41
(
0.599937438976
0.6024403363
0.600907408203
0.636890572278
0.712914185179
0.716343021492
0.71364410381
0.663928813053
0.551314146154
0.459118232953
0.414398214072
0.378412514246
0.341600092692
0.323026329828
0.322675152711
0.363456147148
0.56537358541
0.570155413082
0.566876745056
0.56813968229
0.012234164648
0.00761675064079
0.00534536211502
0.00332115938212
0.00139148106973
0.000289335910761
2.01019865896e-05
3.70961303024e-07
2.61299683496e-15
5.68161429609e-15
1.12884095507e-14
1.40984604681e-14
1.41094868792e-14
1.38709539662e-14
1.87380978218e-14
8.85769911634e-15
0.439294240135
0.222432189204
0.0764047269025
0.012234164648
0.0277674153808
)
;
    }
    procBoundary1to3
    {
        type            processor;
        value           nonuniform List<scalar> 
41
(
0.319211495527
0.223923421268
0.215870121699
0.216899315394
0.385903850963
0.569751011342
0.562689058335
0.500541487828
0.400411622205
0.301058378619
0.241484162083
0.229020860012
0.222764385203
0.718817168448
0.635427925696
0.646171731645
0.63997376879
0.604755199191
0.524019318131
0.40788593585
0.40788593585
0.190633755373
0.125677916202
0.0550480571358
0.0165285143637
0.00717672688935
0.00451688517931
0.00239433784405
0.00068251826264
6.90364853918e-05
6.54342510558e-06
1.43456441683e-06
2.51444877939e-07
1.64541685786e-08
1.30132576764e-10
7.6157431478e-15
9.66123889712e-15
1.35438866558e-14
1.5308280717e-14
1.58589008063e-14
1.7376099304e-14
)
;
    }
}


// ************************************************************************* //
