/*--------------------------------*- C++ -*----------------------------------*\
| =========                 |                                                 |
| \\      /  F ield         | OpenFOAM: The Open Source CFD Toolbox           |
|  \\    /   O peration     | Version:  2312                                  |
|   \\  /    A nd           | Website:  www.openfoam.com                      |
|    \\/     M anipulation  |                                                 |
\*---------------------------------------------------------------------------*/
FoamFile
{
    version     2.0;
    format      ascii;
    arch        "LSB;label=32;scalar=64";
    class       surfaceScalarField;
    location    "0.12/water";
    object      phi.gas;
}
// * * * * * * * * * * * * * * * * * * * * * * * * * * * * * * * * * * * * * //

dimensions      [0 3 -1 0 0 0 0];

oriented        oriented;

internalField   nonuniform List<scalar> 
2916
(
5.07765039918e-07
7.25944646728e-07
5.35839527067e-07
7.21172411987e-07
5.50968720099e-07
7.23644337992e-07
4.91180330055e-07
7.30853559877e-07
3.48481563671e-07
7.5420341083e-07
2.69403918249e-07
7.99900678371e-07
2.71734713907e-07
8.21594463923e-07
3.09119309607e-07
8.2155960233e-07
3.57236241935e-07
8.18245505903e-07
3.80078065632e-07
8.15365114931e-07
3.57692546667e-07
8.09763113536e-07
3.12218318254e-07
8.04899545943e-07
8.04661128542e-07
2.70928649375e-07
1.35694000294e-07
1.14439907649e-06
2.17518195746e-07
8.06949459311e-07
2.58754186206e-07
7.95464120917e-07
3.12263174442e-07
8.07117646351e-07
3.63906280551e-07
8.03722872824e-07
4.15965179795e-07
7.84724562661e-07
4.69013256656e-07
7.64725807026e-07
5.08947335818e-07
7.57536699599e-07
5.24882531964e-07
7.60044877274e-07
5.25530664451e-07
7.66840256164e-07
4.55032748131e-07
7.75377587505e-07
3.46138532172e-07
7.93696620365e-07
3.00853170389e-07
8.28888695496e-07
3.17336293977e-07
8.47862173921e-07
3.61051184202e-07
8.52138187212e-07
3.94926323789e-07
8.51830413907e-07
3.83329967356e-07
8.45400838775e-07
3.3381770569e-07
8.35702206984e-07
2.75432033929e-07
8.2995789387e-07
8.33566627556e-07
2.29959774247e-07
1.16721095526e-07
1.23564670821e-06
1.8027847069e-07
7.97706914961e-07
2.2797191888e-07
7.68218981388e-07
2.90574304268e-07
7.83577181512e-07
3.51499228739e-07
7.9312187145e-07
4.11447143065e-07
7.91410003352e-07
4.66429997606e-07
7.89080341396e-07
4.95527486169e-07
7.94476756054e-07
4.99475220033e-07
8.03584850112e-07
4.89787571672e-07
8.14452651426e-07
4.31792944383e-07
8.24759593853e-07
3.59123919336e-07
8.39474069674e-07
3.32378250187e-07
8.63349488943e-07
3.47298776588e-07
8.78788603274e-07
3.76708413868e-07
8.8367451011e-07
3.81658944088e-07
8.80432092169e-07
3.48652183636e-07
8.69209783419e-07
2.89631055577e-07
8.54580138288e-07
2.30105040354e-07
8.46681761831e-07
8.51492171237e-07
1.80580914087e-07
1.79688158644e-07
1.26163685721e-06
2.12296529961e-07
8.26540398023e-07
2.30474167993e-07
7.70448366615e-07
2.89212846686e-07
7.81244705239e-07
3.5183342515e-07
7.9932057397e-07
4.13967276503e-07
8.11493139952e-07
4.54955888747e-07
8.23363224591e-07
4.66910012816e-07
8.3687030482e-07
4.66052267209e-07
8.51339391242e-07
4.48967311169e-07
8.64322892453e-07
4.08493602604e-07
8.74218164122e-07
3.60060462025e-07
8.84947854195e-07
3.30787855172e-07
8.98157317022e-07
3.297282946e-07
9.06570648305e-07
3.35670359975e-07
9.08315479589e-07
3.23072053918e-07
9.01777450313e-07
2.86240645168e-07
8.85678608969e-07
2.31182298292e-07
8.64572661743e-07
1.71999074696e-07
8.51145407217e-07
8.546597373e-07
1.13904938325e-07
2.44131063597e-07
1.24695021156e-06
2.97654209896e-07
8.81665237489e-07
2.67120791955e-07
8.07110900703e-07
3.01209121792e-07
8.07605432179e-07
3.49887678314e-07
8.27962161054e-07
3.90481223584e-07
8.48185674101e-07
4.07776977457e-07
8.67836284998e-07
4.12206379362e-07
8.87813205061e-07
4.07202636392e-07
9.05412833858e-07
3.85707458921e-07
9.1713104523e-07
3.45953923271e-07
9.22457258073e-07
2.96031098356e-07
9.24491089438e-07
2.62495809571e-07
9.27365016626e-07
2.52246934115e-07
9.29371126174e-07
2.45637982278e-07
9.27302034757e-07
2.29476450077e-07
9.17150608949e-07
1.99659207288e-07
8.95590697763e-07
1.5322469407e-07
8.66472599049e-07
9.66349258887e-08
8.45842860342e-07
8.4988875704e-07
5.14095844731e-08
2.82005581351e-07
1.26883841576e-06
3.42836896973e-07
9.6366014296e-07
2.74415292513e-07
8.76174494516e-07
2.67509466997e-07
8.66776399175e-07
2.86867791638e-07
8.8170754222e-07
3.01370533198e-07
9.03312639802e-07
3.06122532481e-07
9.28234246134e-07
3.0572627844e-07
9.52251568471e-07
2.92151214393e-07
9.68111336529e-07
2.57623890519e-07
9.71583644561e-07
2.00684902806e-07
9.64383353094e-07
1.47359216049e-07
9.5183817425e-07
1.21665596703e-07
9.43143126824e-07
1.14323806663e-07
9.3814928588e-07
1.09371315008e-07
9.32305389379e-07
1.0342944613e-07
9.19514366095e-07
9.1085690779e-08
8.9362609572e-07
6.17358456674e-08
8.56875814482e-07
2.59802741275e-08
8.29552270471e-07
8.31751743716e-07
4.81151521033e-09
3.40545270214e-07
1.2819420062e-06
3.2250900804e-07
1.04395004014e-06
2.19578610031e-07
9.52722594216e-07
1.62963325354e-07
9.34174302228e-07
1.44256686078e-07
9.37302511766e-07
1.34893925516e-07
9.55169285122e-07
1.24654962961e-07
9.83208557714e-07
1.03082010107e-07
1.00714171244e-06
6.1391547149e-08
1.0133881953e-06
4.71199401802e-09
1.00004480025e-06
-4.79794971776e-08
9.76389242675e-07
-7.45593343084e-08
9.48246608688e-07
-7.72594853068e-08
9.25609006291e-07
-6.9780178571e-08
9.14513154585e-07
-5.66936425341e-08
9.08453345994e-07
-3.83429769832e-08
8.96990777943e-07
-2.37216607882e-08
8.70923252804e-07
-2.40369791427e-08
8.30700686246e-07
-2.79054709367e-08
7.99346656122e-07
7.97767792071e-07
-3.05144619687e-08
4.01274603213e-07
1.16911046276e-06
2.93214836906e-07
1.03645337545e-06
1.77931481787e-07
9.73061263204e-07
8.35416835512e-08
9.53860701415e-07
1.43615346431e-08
9.51228323975e-07
-4.96890452954e-08
9.67360640657e-07
-1.15780526931e-07
9.98032691394e-07
-1.87088896857e-07
1.0224958932e-06
-2.50416835224e-07
1.01864429147e-06
-2.83561387215e-07
9.81833484616e-07
-2.89651007162e-07
9.39715088658e-07
-2.7814948143e-07
9.00683919097e-07
-2.58762128886e-07
8.69954493594e-07
-2.33589066544e-07
8.53126279779e-07
-1.97376385399e-07
8.51952505615e-07
-1.50102617459e-07
8.47784564155e-07
-1.05848700296e-07
8.275503988e-07
-7.63118024398e-08
7.89887114485e-07
-5.31283695881e-08
7.59355898288e-07
7.55368776044e-07
-4.23782319005e-08
5.13512936185e-07
8.02620339091e-07
3.65741049136e-07
1.00413243273e-06
2.219486876e-07
1.01196755417e-06
9.1761389344e-08
9.91725378272e-07
-2.65115743651e-08
9.77862639534e-07
-1.47156853111e-07
9.91017315696e-07
-2.63896753464e-07
1.01664175616e-06
-3.64658306435e-07
1.03094714745e-06
-4.25120140369e-07
1.00550747753e-06
-4.17750139959e-07
9.25352502407e-07
-3.80984451028e-07
8.65873836105e-07
-3.40342592471e-07
8.2549947745e-07
-3.0537230797e-07
7.97743502964e-07
-2.76305797215e-07
7.81123588359e-07
-2.3643420961e-07
7.84596981361e-07
-1.73370692112e-07
7.89534511795e-07
-1.09472034736e-07
7.77754249351e-07
-6.28905700798e-08
7.46184783137e-07
-3.09455368016e-08
7.2033794931e-07
7.15843067643e-07
-1.9647078098e-08
1.51021647666e-07
6.69114495147e-07
1.38221331232e-07
9.57102212351e-07
8.90971822055e-08
1.01664871491e-06
2.45168870815e-08
1.01403432885e-06
-5.50651147789e-08
1.01133683933e-06
-1.42679265225e-07
1.02851305901e-06
-2.30580343275e-07
1.05187698172e-06
-3.12450362431e-07
1.05891412892e-06
-3.76296377781e-07
1.0189184036e-06
-3.45688014726e-07
8.57903913101e-07
-3.00060645394e-07
7.94376672439e-07
-2.54160439318e-07
7.60538699204e-07
-2.15041471596e-07
7.40224372242e-07
-1.89079984556e-07
7.29080241026e-07
-1.58891764088e-07
7.3543662772e-07
-9.83808800564e-08
7.45221146947e-07
-3.11702455902e-08
7.40010783982e-07
1.78553945146e-08
7.15764160729e-07
3.95642896975e-08
6.94410752579e-07
6.88707139076e-07
3.50308035011e-08
5.89348977075e-08
6.27325652027e-07
5.38335756001e-08
9.5316280744e-07
2.93866690911e-08
1.03321319832e-06
2.72684584515e-09
1.03464826105e-06
-3.05014873064e-08
1.03599716377e-06
-6.75752254392e-08
1.05537278985e-06
-1.05516815991e-07
1.07805335337e-06
-1.42430201333e-07
1.08154984505e-06
-1.795494028e-07
1.03665575361e-06
-1.61922210926e-07
8.21312493004e-07
-1.3550125143e-07
7.54200090461e-07
-1.05811402379e-07
7.24826381734e-07
-7.73748722283e-08
7.10403245259e-07
-5.57303813391e-08
7.0445056642e-07
-2.81895563488e-08
7.1332866739e-07
2.55879052123e-08
7.2520791472e-07
8.58612888172e-08
7.23781585158e-07
1.30970072072e-07
7.04876166127e-07
1.39926617186e-07
6.86170547428e-07
6.77935575689e-07
1.09077962767e-07
2.60798723828e-08
6.17641042057e-07
2.33523848944e-08
9.53360806746e-07
1.8353243793e-08
1.03763207662e-06
1.60695634493e-08
1.03807528479e-06
9.57780299619e-09
1.04231119916e-06
7.04847745327e-10
1.06296794004e-06
-7.17389593692e-09
1.083685009e-06
-9.41485018742e-09
1.0802859831e-06
1.69242552347e-09
1.02032072282e-06
9.31066359085e-09
8.07367445266e-07
2.01674902319e-08
7.40497472774e-07
3.47376978921e-08
7.13424794268e-07
5.13332264913e-08
7.02646635237e-07
6.8821412287e-08
7.01200016771e-07
9.86354518665e-08
7.12645299873e-07
1.47722063462e-07
7.25994972457e-07
2.02276064459e-07
7.26524001114e-07
2.45836295142e-07
7.10831424066e-07
2.48913685983e-07
6.95132023597e-07
6.83901884426e-07
1.85946408807e-07
1.29594915069e-08
6.21610843197e-07
7.68789339403e-09
9.58633475525e-07
1.54781142061e-08
1.03308048942e-06
2.83503257476e-08
1.03058713368e-06
3.4272531557e-08
1.03947223566e-06
3.56117143898e-08
1.06303724031e-06
3.79681798253e-08
1.08198279402e-06
4.90302547591e-08
1.06997909156e-06
1.19754354755e-07
9.52029553631e-07
1.30877395687e-07
7.99962052364e-07
1.37233602068e-07
7.41208870168e-07
1.45278537599e-07
7.1676382454e-07
1.56370539243e-07
7.08807814914e-07
1.74187861548e-07
7.1173372689e-07
2.0731242801e-07
7.26367386908e-07
2.52075081719e-07
7.41233277147e-07
3.03575021011e-07
7.43586291306e-07
3.48720624472e-07
7.31011560506e-07
3.49394265366e-07
7.19469451277e-07
7.0602312472e-07
2.54317862443e-07
7.98374253042e-10
6.36866115334e-07
-1.97155859733e-10
9.63467585999e-07
2.09753594687e-08
1.02038016106e-06
4.47276985357e-08
1.01734717454e-06
5.89972892582e-08
1.03262795223e-06
6.902148625e-08
1.05847724418e-06
8.43441717895e-08
1.07180708195e-06
1.24812369015e-07
1.03627233887e-06
2.02141425554e-07
8.83372128965e-07
2.18637725329e-07
7.95024502837e-07
2.25999601745e-07
7.47981856262e-07
2.32790280102e-07
7.276536375e-07
2.43496923626e-07
7.23000526229e-07
2.65116463445e-07
7.31084967391e-07
2.98766321058e-07
7.49425497228e-07
3.38850304733e-07
7.65987074765e-07
3.8997232208e-07
7.71178283155e-07
4.39776136878e-07
7.63823743447e-07
4.35598076011e-07
7.60082651567e-07
7.42828219201e-07
3.0818174267e-07
-6.01015773644e-09
6.59658116943e-07
5.56778558769e-09
9.60956509347e-07
3.62448612073e-08
1.00188412264e-06
6.31660036222e-08
1.00242873951e-06
8.07393023545e-08
1.02376506824e-06
9.73923644818e-08
1.04883829634e-06
1.26988257955e-07
1.04926556637e-06
2.34268731862e-07
9.38291746842e-07
2.75150179728e-07
8.54879874563e-07
2.9279768486e-07
7.9321020891e-07
3.01364116473e-07
7.57853831735e-07
3.09115909317e-07
7.42842223435e-07
3.2291400877e-07
7.42787406469e-07
3.48626577901e-07
7.56869525319e-07
3.78574157263e-07
7.79107513253e-07
4.15603825496e-07
7.98357147345e-07
4.6957969062e-07
8.08426546836e-07
5.28716790572e-07
8.1027635211e-07
5.05144199792e-07
8.2175021603e-07
7.90881079378e-07
3.36837818631e-07
-1.23757251576e-08
6.86769251461e-07
1.09102816288e-08
9.51759419528e-07
4.52038837853e-08
9.81909604047e-07
7.39603798934e-08
9.85160885358e-07
1.01144586703e-07
1.00483148974e-06
1.42419216887e-07
1.01462728907e-06
2.41791720676e-07
9.58240101444e-07
3.0633328254e-07
8.8488490164e-07
3.41670158696e-07
8.35631962103e-07
3.59981095901e-07
7.95035356665e-07
3.71175771978e-07
7.70598778727e-07
3.83137555306e-07
7.61992655981e-07
4.04024246285e-07
7.68744930371e-07
4.31534084867e-07
7.89403436057e-07
4.55605187662e-07
8.15339834437e-07
4.93209404055e-07
8.39253590702e-07
5.53490934743e-07
8.57753912151e-07
6.30508420193e-07
8.77728558292e-07
5.40625043016e-07
9.06740265804e-07
8.44202027466e-07
3.26333825796e-07
-2.75931016172e-08
7.37855503942e-07
-9.62970766074e-09
9.62106088338e-07
2.02242536581e-08
9.71055711718e-07
6.09195898696e-08
9.57202427531e-07
1.25804858005e-07
9.48179622649e-07
2.38008149891e-07
9.10057052526e-07
3.24010537039e-07
8.83236307251e-07
3.69784054747e-07
8.55947244315e-07
4.02180274033e-07
8.25876430871e-07
4.23668826174e-07
8.00936393249e-07
4.4099583112e-07
7.86873821765e-07
4.62884465374e-07
7.86430452947e-07
4.94492508363e-07
8.01940479931e-07
5.19787948204e-07
8.28598078315e-07
5.41296792038e-07
8.5816214865e-07
5.85461210649e-07
8.89187758679e-07
6.65140804218e-07
9.22309507531e-07
7.26054379625e-07
9.74833071611e-07
4.92452581274e-07
9.93845497604e-07
9.03572673897e-07
2.82452521296e-07
-7.76233512482e-08
8.47075730937e-07
-4.85382575763e-09
9.3063745621e-07
7.93287539974e-08
8.99945067948e-07
1.71448028218e-07
8.74672126274e-07
2.63700970949e-07
8.64922362584e-07
3.25623192474e-07
8.60686091729e-07
3.77157957096e-07
8.51160655897e-07
4.2185602266e-07
8.37780324868e-07
4.57211013455e-07
8.23098170889e-07
4.86058549557e-07
8.11489777332e-07
5.16076177339e-07
8.08330886788e-07
5.55860656434e-07
8.18892047243e-07
5.93302008637e-07
8.42921065152e-07
6.13656326487e-07
8.73122944424e-07
6.43326170942e-07
9.08579939187e-07
7.08845541696e-07
9.5186874022e-07
8.24411088865e-07
1.01300558437e-06
6.98005502264e-07
1.07244101638e-06
3.52543375112e-07
1.08205941479e-06
9.63777203415e-07
2.23934876623e-07
1.08521346183e-07
8.41826256642e-07
1.87839800182e-07
8.79502666852e-07
2.33198627866e-07
8.59759410759e-07
2.76622971985e-07
8.41022906646e-07
3.21879502003e-07
8.34249320006e-07
3.72647274203e-07
8.33421366915e-07
4.22934500087e-07
8.33313571474e-07
4.69106427516e-07
8.3182490354e-07
5.10732369252e-07
8.2978852925e-07
5.53020073291e-07
8.30829811027e-07
6.04848183097e-07
8.40605782462e-07
6.58199481888e-07
8.62109430656e-07
6.89688254209e-07
8.90377060322e-07
7.16191155823e-07
9.25240653734e-07
7.72618104693e-07
9.72816984427e-07
8.8477614906e-07
1.03952727761e-06
8.33631096998e-07
1.10278225522e-06
4.67463393559e-07
1.14145720565e-06
2.25894532948e-07
1.17238505712e-06
1.0124709366e-06
1.65284193058e-07
1.71618619202e-07
8.58322125314e-07
2.61843836007e-07
8.44088840514e-07
2.89599997683e-07
8.33661708609e-07
3.25462675999e-07
8.24063170509e-07
3.64843040035e-07
8.22468283066e-07
4.12156604519e-07
8.26396886378e-07
4.62706892804e-07
8.3339979566e-07
5.13716000242e-07
8.42007150712e-07
5.68423198108e-07
8.51973364021e-07
6.3441557841e-07
8.66466655759e-07
7.0124720032e-07
8.87901796065e-07
7.45339597864e-07
9.13341433464e-07
7.79546393719e-07
9.45626818925e-07
8.43273781482e-07
9.94062326255e-07
9.34665525711e-07
1.05744354741e-06
8.52537991564e-07
1.10912627978e-06
5.10514207387e-07
1.15064999696e-06
2.43143947253e-07
1.22490258602e-06
1.59697140016e-07
1.23058354271e-06
1.04478489118e-06
1.15462395526e-07
1.86569153851e-07
8.8889708668e-07
3.05892997288e-07
8.28222159849e-07
3.19697871842e-07
8.27578285603e-07
3.52573989841e-07
8.28556630168e-07
3.89318578636e-07
8.32239682243e-07
4.372315775e-07
8.40065662687e-07
4.92581267498e-07
8.54732267388e-07
5.56872138434e-07
8.73184334592e-07
6.33216551534e-07
8.94897529228e-07
7.06630228362e-07
9.18731981354e-07
7.59138667361e-07
9.42285686649e-07
8.0957069393e-07
9.71290580161e-07
8.93039485741e-07
1.01446809426e-06
9.30885944981e-07
1.06183319326e-06
7.48627663337e-07
1.09426097748e-06
4.3122739533e-07
1.14396777808e-06
2.1962033537e-07
1.21493119015e-06
1.38320532386e-07
1.27674682876e-06
1.03080370542e-07
1.25105724471e-06
1.06171036733e-06
7.09430828123e-08
2.10730043455e-07
9.18138922599e-07
3.45288204059e-07
8.44009296476e-07
3.38627564963e-07
8.49423226157e-07
3.58042121154e-07
8.60378633143e-07
3.86896494382e-07
8.66811896551e-07
4.33527135246e-07
8.77012306673e-07
4.95517311174e-07
8.98901494617e-07
5.69062108946e-07
9.25439464641e-07
6.39733270829e-07
9.53639578627e-07
7.02682791971e-07
9.7959216109e-07
7.77709343628e-07
1.00385430473e-06
8.53301532161e-07
1.02874895869e-06
7.81105159281e-07
1.0505288637e-06
5.20597532768e-07
1.07479458908e-06
2.63472462722e-07
1.12704930813e-06
1.25985794234e-07
1.18548376296e-06
7.68789897995e-08
1.24074220666e-06
4.70371312431e-08
1.28184355089e-06
4.93508772107e-08
1.23648024985e-06
1.06667058413e-06
2.76134151622e-08
2.40808640691e-07
9.60955193623e-07
3.48370800203e-07
8.95928328374e-07
3.16004869958e-07
9.07486341188e-07
3.05841647935e-07
9.27611297573e-07
3.18128669824e-07
9.33470384515e-07
3.53539719164e-07
9.41957866467e-07
4.07893518008e-07
9.67773258489e-07
4.7084879722e-07
1.00369408714e-06
5.35285759945e-07
1.04164497088e-06
6.03531630995e-07
1.06587796893e-06
6.03959810143e-07
1.06726892705e-06
4.33243236489e-07
1.06336442061e-06
1.88901087113e-07
1.07836555019e-06
2.40121175018e-08
1.1055176915e-06
-4.38617265239e-08
1.14140823226e-06
-5.72225519355e-08
1.17795742702e-06
-5.56217509214e-08
1.21353033927e-06
-3.6217539608e-08
1.23791682585e-06
-4.55185826044e-09
1.1930748435e-06
1.05870763603e-06
-1.70112568826e-08
3.50942903884e-07
9.65777457021e-07
3.73338357128e-07
9.35536467207e-07
2.93471398526e-07
9.60782488695e-07
2.44034014776e-07
9.8904744195e-07
2.27240033927e-07
9.95997345192e-07
2.32616881534e-07
1.00280363626e-06
2.46391511716e-07
1.03230119449e-06
2.49168226258e-07
1.08352391467e-06
2.11816175782e-07
1.14029203e-06
9.6116085694e-08
1.16803441934e-06
-8.33899595923e-08
1.15160196544e-06
-2.48747109228e-07
1.12493711928e-06
-3.32590334521e-07
1.10946185738e-06
-3.43464698228e-07
1.10468306969e-06
-3.14102828931e-07
1.10906049859e-06
-2.64205367013e-07
1.11903512877e-06
-2.00640784558e-07
1.13509288168e-06
-1.27472415065e-07
1.14911987214e-06
-7.05751963255e-08
1.12231567547e-06
1.02979317566e-06
-6.64090917415e-08
4.21800347143e-07
8.78893229337e-07
3.53353468107e-07
8.88749452568e-07
2.97735709862e-07
9.25845269198e-07
2.556494335e-07
9.64263552585e-07
2.12893469477e-07
9.8685801436e-07
1.50081461263e-07
1.0083944854e-06
5.28938946504e-08
1.04914679034e-06
-9.49749798767e-08
1.11767652648e-06
-2.97747680636e-07
1.19997711572e-06
-5.34281367934e-07
1.25775901057e-06
-7.15422662433e-07
1.23919725487e-06
-7.79475778168e-07
1.16579642576e-06
-7.53734642344e-07
1.09732429868e-06
-6.88843995591e-07
1.05581355703e-06
-5.95620939296e-07
1.0317416599e-06
-4.84844483178e-07
1.01804935707e-06
-3.6214460097e-07
1.01476171628e-06
-2.39407957353e-07
1.02067677364e-06
-1.51977649814e-07
1.01825897815e-06
9.6860032671e-07
-1.17348661679e-07
3.65126143376e-07
7.39178745956e-07
3.20618715372e-07
7.95886486329e-07
3.21581213509e-07
8.5293369092e-07
3.0995704711e-07
9.08033254556e-07
2.47562445619e-07
9.71273596612e-07
1.26629371314e-07
1.03284659796e-06
-3.55466352964e-08
1.0985367398e-06
-2.25901163296e-07
1.18221200284e-06
-4.40675773459e-07
1.28302751259e-06
-6.62987941976e-07
1.34669394503e-06
-8.63603016249e-07
1.30981115141e-06
-9.54437156616e-07
1.15181803812e-06
-9.53979349153e-07
1.04615322845e-06
-8.75392413466e-07
9.7202963372e-07
-7.60930322522e-07
9.25890425263e-07
-6.26117271231e-07
8.92991743425e-07
-4.77928391511e-07
8.74531267991e-07
-3.27771228407e-07
8.72716869793e-07
-2.12220439418e-07
8.89310501142e-07
8.79692080085e-07
-1.4787376887e-07
3.86344562295e-07
5.34651236606e-07
3.74676387564e-07
7.41242885981e-07
3.67296155925e-07
8.27719649209e-07
3.41127347411e-07
9.03664156281e-07
2.87112763795e-07
9.89824882184e-07
2.00481525956e-07
1.07914024689e-06
9.24553657624e-08
1.16317161314e-06
-1.52381819368e-08
1.24616556357e-06
-1.04663329709e-07
1.32964923185e-06
-1.96024368856e-07
1.39519205981e-06
-3.42255129891e-07
1.39775750497e-06
-5.92596487824e-07
1.30635649757e-06
-7.39058290196e-07
1.08264794429e-06
-7.49913767593e-07
9.11386116992e-07
-6.91190922267e-07
8.35879058194e-07
-5.9007421979e-07
7.82331848164e-07
-4.64542653964e-07
7.48993196662e-07
-3.24982639952e-07
7.40235188335e-07
-2.0656177768e-07
7.64950544799e-07
7.86367244618e-07
-1.3573314866e-07
2.58651261649e-07
4.73071899236e-07
2.73491831067e-07
6.89146478362e-07
2.89899908088e-07
7.93071365696e-07
2.91727053048e-07
8.87097236178e-07
2.7602948522e-07
9.92998793789e-07
2.44446601667e-07
1.10111753156e-06
2.01782651607e-07
1.19809276322e-06
1.58796573874e-07
1.28347175515e-06
1.19754191637e-07
1.36403268525e-06
7.73232704314e-08
1.4325477031e-06
1.12197665726e-08
1.45573552253e-06
-1.03781934894e-07
1.39579448735e-06
-3.3894018939e-07
1.26511421954e-06
-4.1664578525e-07
9.30504932852e-07
-4.28173818151e-07
7.99901963544e-07
-3.92305600248e-07
7.18071100095e-07
-3.19487590092e-07
6.67554268799e-07
-2.22973927475e-07
6.50035227534e-07
-1.34805535513e-07
6.73709911926e-07
7.11001629952e-07
-8.35226646555e-08
2.45390177624e-07
4.34436558215e-07
2.64080042629e-07
6.39765602105e-07
2.83312947427e-07
7.54540812559e-07
2.85817299566e-07
8.69192130891e-07
2.81014188398e-07
9.87494919629e-07
2.70570903609e-07
1.10627799285e-06
2.53533980015e-07
1.21255383216e-06
2.34069603074e-07
1.30160780127e-06
2.14932513056e-07
1.38192761058e-06
1.95835422336e-07
1.45149576407e-06
1.73099470693e-07
1.48243751589e-06
1.23965506106e-07
1.4485443581e-06
2.93711009505e-08
1.3531647902e-06
-9.14721445152e-08
1.03650874377e-06
-1.34975775701e-07
8.25293917418e-07
-1.40174079605e-07
7.08424024023e-07
-1.14252456747e-07
6.38842754977e-07
-6.75597024948e-08
6.10378262214e-07
-2.91680839184e-08
6.26784272807e-07
6.6434738735e-07
-1.22366010987e-08
2.29749733166e-07
4.34411247169e-07
3.10843427839e-07
5.29901361466e-07
3.05385375138e-07
7.36157665711e-07
2.90527980156e-07
8.67144200449e-07
2.80180231823e-07
9.90286045359e-07
2.73941983274e-07
1.11127901089e-06
2.6670992932e-07
1.22084788114e-06
2.57647920881e-07
1.3115951233e-06
2.50982639023e-07
1.38964756063e-06
2.53558742715e-07
1.45357615289e-06
2.66082992494e-07
1.48088045262e-06
2.71861009233e-07
1.45523276953e-06
2.57329999454e-07
1.37643716194e-06
1.20791674186e-07
1.17694830536e-06
8.02922642776e-08
8.69129033101e-07
6.77246833355e-08
7.28737137403e-07
7.52131413335e-08
6.46128279472e-07
8.9339353592e-08
6.09538216604e-07
8.02082216787e-08
6.18617576438e-07
6.48472573149e-07
5.88777323179e-08
2.42307163257e-07
4.39482908801e-07
2.41434604278e-07
5.03900365246e-07
2.35617304469e-07
7.18735923892e-07
2.12532162544e-07
8.77525505616e-07
1.9535720257e-07
1.00854009032e-06
1.93126067178e-07
1.12191859717e-06
1.98069416874e-07
1.22688017956e-06
2.05176671578e-07
1.3153661232e-06
2.14618422258e-07
1.39118772873e-06
2.31902601459e-07
1.45059144462e-06
2.54123513162e-07
1.47657117494e-06
2.60176890985e-07
1.46392479547e-06
2.35938143908e-07
1.40777378645e-06
2.29070028437e-07
1.18892738985e-06
2.1179416889e-07
8.980731631e-07
2.09834814059e-07
7.53704261457e-07
2.19959356155e-07
6.67865205768e-07
2.21336296609e-07
6.29985763384e-07
1.75658940524e-07
6.3845159806e-07
6.59940367865e-07
1.19086566702e-07
2.34871329315e-07
4.62665576044e-07
2.05546316242e-07
5.07197554509e-07
2.19451262806e-07
6.8403871037e-07
1.08835310063e-07
9.79042791096e-07
3.3375716012e-08
1.09553945917e-06
1.22632103174e-08
1.16381049621e-06
3.62222630426e-08
1.22914048505e-06
7.73155340825e-08
1.30095352811e-06
1.17407433495e-07
1.37524774122e-06
1.56214529574e-07
1.43464423889e-06
1.89467936242e-07
1.46382111708e-06
2.04587118152e-07
1.4622569869e-06
2.03498437674e-07
1.41546036842e-06
2.82772411673e-07
1.11622722066e-06
2.94100481372e-07
9.05784068072e-07
3.11115186456e-07
7.74390491504e-07
3.32083461532e-07
6.94851189782e-07
3.25169174667e-07
6.62922339646e-07
2.43540815932e-07
6.77442409338e-07
6.90828360524e-07
1.61582919826e-07
2.22804576328e-07
5.08914878336e-07
1.67429857013e-07
5.41041719194e-07
1.50923650499e-07
6.90552762271e-07
-2.03266532829e-07
1.33282216791e-06
-4.83746148762e-07
1.39751928944e-06
-5.34721107792e-07
1.24892665655e-06
-3.73283039261e-07
1.109391329e-06
-1.92986230783e-07
1.16344367199e-06
-6.88497140829e-08
1.28630890531e-06
1.81182890702e-08
1.37502867669e-06
8.08885895998e-08
1.42149540447e-06
1.34485097846e-07
1.42145670253e-06
2.4956542194e-07
1.31042519956e-06
3.19739248518e-07
1.06022750314e-06
3.56525217817e-07
9.00312005584e-07
3.95485527955e-07
7.89679883277e-07
4.25586422047e-07
7.23777415257e-07
3.96266584147e-07
7.03816307299e-07
2.76188223403e-07
7.29379978251e-07
7.34282956405e-07
1.87631744408e-07
2.34095669536e-07
5.6246559296e-07
1.69777411022e-07
5.84153855455e-07
1.60225813203e-07
6.99237871166e-07
-3.0459051497e-07
1.80154246772e-06
-8.18788837499e-07
1.92147902933e-06
-7.4657288709e-07
1.19241759389e-06
-6.35685160505e-07
1.03960022172e-06
-4.86704412202e-07
1.06989128354e-06
-3.01709761472e-07
1.14597557701e-06
-1.4536484568e-07
1.24992071368e-06
-2.73776543136e-08
1.3267334716e-06
1.1854602592e-07
1.29235201781e-06
2.81244221837e-07
1.16359170424e-06
3.5222898274e-07
1.01495257775e-06
4.09208418617e-07
8.9030549915e-07
4.65760793243e-07
8.01730900789e-07
4.94250621246e-07
7.54113029529e-07
4.21437653391e-07
7.52727985555e-07
2.80942500815e-07
7.9213778689e-07
7.85152198199e-07
2.01808138048e-07
2.56757736168e-07
6.14924870537e-07
1.9175134974e-07
6.28739468638e-07
1.79180467359e-07
7.1478887006e-07
4.36699763087e-07
1.55296775909e-06
-3.91321522472e-07
2.74499532674e-06
-6.16941184373e-07
1.40066078812e-06
-5.9287867165e-07
1.03708751764e-06
-4.7356266111e-07
1.01214210021e-06
-3.29959229052e-07
1.06046559935e-06
-1.72161077849e-07
1.13198208502e-06
-2.83741689038e-09
1.18881234112e-06
1.57494141549e-07
1.15819430901e-06
2.7472948775e-07
1.07231403953e-06
3.63447710417e-07
9.66099588327e-07
4.43034308655e-07
8.74356731745e-07
5.08567038495e-07
8.09929487285e-07
5.14561739086e-07
7.84202906896e-07
3.92380348745e-07
8.08033103529e-07
2.70606523898e-07
8.55278866393e-07
8.35730688648e-07
2.03407899347e-07
3.03756847937e-07
6.35859137086e-07
2.65023621948e-07
6.46186392334e-07
2.7183696456e-07
7.06062421215e-07
5.05822381109e-07
1.33110690917e-06
8.21333930165e-08
3.14570316658e-06
-3.53229193855e-07
1.81024969342e-06
-5.12132357187e-07
1.18009328428e-06
-4.59018588293e-07
1.002573627e-06
-3.26623975126e-07
9.93004379778e-07
-1.73207008887e-07
1.03197149144e-06
-1.26042311847e-08
1.07049252695e-06
1.36528966651e-07
1.0450746097e-06
2.57753041265e-07
9.87955489138e-07
3.59851962828e-07
9.16622621116e-07
4.51709358142e-07
8.53238579213e-07
5.10687585893e-07
8.11239654965e-07
4.63454925586e-07
8.11915941236e-07
3.30163758681e-07
8.6309948621e-07
2.50796631305e-07
9.08579800721e-07
8.78321727908e-07
1.93098585511e-07
3.31116126752e-07
6.28665178019e-07
3.20200193818e-07
6.38345658203e-07
3.36564582515e-07
6.82535668383e-07
5.50475480585e-07
1.11881200554e-06
8.72391525807e-07
2.77764103287e-06
8.87645470318e-08
2.58618008599e-06
-2.32425574732e-07
1.45357681296e-06
-3.59982684576e-07
1.12467204253e-06
-3.03328427123e-07
9.82385859696e-07
-1.7457847282e-07
9.6032956015e-07
-2.5794830597e-08
9.70866103778e-07
1.12942093503e-07
9.48499753188e-07
2.32373434675e-07
9.11580217901e-07
3.37480276241e-07
8.661900725e-07
4.17912546169e-07
8.25034238606e-07
4.52066075707e-07
8.03894264939e-07
3.67750118454e-07
8.39529154632e-07
2.80502417171e-07
9.01992718012e-07
2.25476326952e-07
9.43450601969e-07
9.07314656239e-07
1.77477980503e-07
3.28458435472e-07
3.17735953271e-07
3.33255870111e-07
4.799037728e-07
6.79502397988e-07
7.20201858156e-07
2.39720276236e-07
-3.31329220283e-08
-1.47472435563e-07
-1.10607470192e-07
-9.65687727042e-09
9.96441704353e-08
2.03019919891e-07
2.88903104351e-07
3.54784275451e-07
3.6205598224e-07
2.79016756988e-07
2.39860995238e-07
2.01322674816e-07
1.6565283701e-07
2.47703781251e-07
7.66814576652e-07
2.35563078464e-07
6.94248454374e-07
2.19855713038e-07
6.40110026942e-07
1.9362680451e-07
5.99750863903e-07
1.66716406454e-07
5.64683931423e-07
1.43659722589e-07
5.32403621599e-07
1.24191077992e-07
5.02721089155e-07
1.18795744346e-07
4.75996649176e-07
1.35403035282e-07
4.37903483832e-07
1.25958645393e-07
4.07379849569e-07
1.0835011337e-07
3.86030043174e-07
9.13697668667e-08
3.66782490006e-07
7.72512561323e-08
3.4526030589e-07
6.56645060097e-08
3.17975429539e-07
5.45131097904e-08
2.89308065084e-07
4.35093922159e-08
2.62040460428e-07
3.27117619462e-08
2.36246881236e-07
2.18845261965e-08
2.11789466823e-07
8.23486598475e-09
1.88425642566e-07
1.66047635688e-07
2.05511028893e-07
7.97025862489e-07
1.92458287188e-07
7.15839401173e-07
1.69568973102e-07
6.57185024004e-07
1.38581697736e-07
6.14461921992e-07
1.13393574877e-07
5.77375663249e-07
9.35705285383e-08
5.43775178646e-07
7.83041395606e-08
5.13320085036e-07
8.68675159416e-08
4.85414797858e-07
1.17922108267e-07
4.46626375473e-07
1.13947557408e-07
4.17164528995e-07
9.91585876339e-08
3.95396058739e-07
8.38525147545e-08
3.75422099117e-07
7.08758885958e-08
3.53237409312e-07
6.01135707022e-08
3.253635866e-07
5.00961506035e-08
2.96167171354e-07
4.03082010315e-08
2.68455204114e-07
3.06714423693e-08
2.42298527242e-07
2.0908960738e-08
2.17571836552e-07
9.81321120082e-09
1.94044896569e-07
1.71544108624e-07
1.44607009605e-07
8.13892752925e-07
1.327179286e-07
7.26533457754e-07
1.05773795929e-07
6.65185383483e-07
7.39858222432e-08
6.21394457461e-07
5.29262187221e-08
5.83444296829e-07
3.83557879634e-08
5.49251744357e-07
2.92772417705e-08
5.18409439568e-07
4.76006638321e-08
4.90492744541e-07
9.36780270158e-08
4.54463864066e-07
9.58882220601e-08
4.25054479644e-07
8.44905600497e-08
4.02815157791e-07
7.16399881742e-08
3.82258083693e-07
6.05060004523e-08
3.59598276039e-07
5.12398894778e-08
3.31276126376e-07
4.29206168339e-08
3.01634984706e-07
3.48768321528e-08
2.7354582753e-07
2.69161476824e-08
2.47086598748e-07
1.87548861388e-08
2.22143809596e-07
1.06481101969e-08
1.98507550805e-07
1.75979374167e-07
8.11675029696e-08
8.19091157779e-07
7.08918865719e-08
7.29493734081e-07
4.06022921169e-08
6.65357644488e-07
9.48022425803e-09
6.21275786394e-07
-6.58782550266e-09
5.83192664486e-07
-1.5203551204e-08