/*--------------------------------*- C++ -*----------------------------------*\
| =========                 |                                                 |
| \\      /  F ield         | OpenFOAM: The Open Source CFD Toolbox           |
|  \\    /   O peration     | Version:  2312                                  |
|   \\  /    A nd           | Website:  www.openfoam.com                      |
|    \\/     M anipulation  |                                                 |
\*---------------------------------------------------------------------------*/
FoamFile
{
    version     2.0;
    format      ascii;
    arch        "LSB;label=32;scalar=64";
    class       volVectorField;
    location    "0.41/water";
    object      U.gas;
}
// * * * * * * * * * * * * * * * * * * * * * * * * * * * * * * * * * * * * * //

dimensions      [0 1 -1 0 0 0 0];

internalField   nonuniform List<vector> 
750
(
(0.0685239619184 1.14324469242 0)
(0.145450758572 1.00126902606 0)
(0.11742512089 0.983599036555 0)
(0.0612581160897 0.94057858369 0)
(0.0290259973795 0.957513996069 0)
(-0.0183113296354 1.04302181029 0)
(-0.0713821083264 1.12260062283 0)
(-0.0870108681183 1.15625763625 0)
(-0.0854849050794 1.21379276821 0)
(0.0132540830499 1.34630721875 0)
(0.129652982715 1.9218494096 0)
(0.254563740949 2.01266263102 0)
(0.112447083888 2.15642927763 0)
(-0.0217065263152 1.90646323324 0)
(-0.097503154991 1.59974184449 0)
(-0.169418215658 1.35432450421 0)
(-0.246366873599 1.18401847414 0)
(-0.293088845634 1.07939749239 0)
(-0.291876277213 1.02673273227 0)
(-0.264882602087 1.03291291194 0)
(-0.230397495651 1.05920041991 0)
(-0.193593068464 1.08466040126 0)
(-0.158028269634 1.10048210175 0)
(-0.127007762748 1.09665120631 0)
(-0.104934291238 1.07060655311 0)
(-0.0942174870669 1.03415050369 0)
(-0.0927300463554 1.02082250515 0)
(-0.0991092948985 1.03690800182 0)
(-0.0567361308165 1.014670102 0)
(-0.00459555265536 0.96663676004 0)
(0.0853623414165 1.88274090136 0)
(0.0256320065419 2.06793423556 0)
(-0.045690866597 2.19565303849 0)
(-0.0718413807342 1.88075853299 0)
(-0.089629195707 1.5335313545 0)
(-0.106172944945 1.24914986536 0)
(-0.122503737012 1.02311526533 0)
(-0.149061015029 0.844171820738 0)
(-0.185143403325 0.725469988247 0)
(-0.210010864225 0.690883881327 0)
(-0.210507171004 0.698247273185 0)
(-0.188685984647 0.715520577577 0)
(-0.153509866596 0.731949496312 0)
(-0.115617349423 0.739477573257 0)
(-0.083354485793 0.738374373095 0)
(-0.0629710961483 0.754121174484 0)
(-0.0568540682817 0.837328211897 0)
(-0.0632910922374 1.00350946608 0)
(-0.0880582259722 1.06845872559 0)
(-0.0534045665866 0.948596068827 0)
(0.0385881400912 1.94580912048 0)
(-0.00281482082362 2.12289866396 0)
(-0.0168719137147 2.09972761259 0)
(-0.0188474236106 1.74596164056 0)
(-0.0124000721641 1.35909287283 0)
(0.00180417678369 1.03515943867 0)
(0.018121239455 0.78411466529 0)
(0.0302390264676 0.61220133725 0)
(0.0343532334725 0.51929522427 0)
(0.0320571027367 0.47141002768 0)
(0.0295703745794 0.457156212934 0)
(0.0327132313071 0.458954447219 0)
(0.0457253531552 0.470302210323 0)
(0.0657638199759 0.494854172212 0)
(0.0755893032787 0.533574659178 0)
(0.0655035822329 0.620081062172 0)
(0.0491607027191 0.820928208171 0)
(0.0376966947216 1.13007219365 0)
(0.0124816635508 1.32624240142 0)
(-0.00412992115332 0.955859065127 0)
(0.0417598762532 2.04015095677 0)
(0.0259543095583 2.12987538681 0)
(0.0288573897683 2.0296050934 0)
(0.0389537160118 1.6295624643 0)
(0.0552756046885 1.17746334752 0)
(0.0765089231537 0.826491138315 0)
(0.0963795191082 0.604324516407 0)
(0.110190646312 0.485167445053 0)
(0.120308835095 0.425011517989 0)
(0.129615813184 0.388746821189 0)
(0.138271188424 0.378045948683 0)
(0.145896398094 0.394455401029 0)
(0.147379476809 0.43442977502 0)
(0.134292372642 0.51630606798 0)
(0.104066837922 0.677215140906 0)
(0.0612816377292 0.905118583552 0)
(0.0190513002898 1.10309014264 0)
(-0.00729927425595 1.31450619046 0)
(-0.0114552345803 1.38739753212 0)
(-0.00382406916757 0.855364966356 0)
(0.0414237536537 2.10188707391 0)
(0.0367183537456 2.115856151 0)
(0.0426670144387 1.94473905969 0)
(0.0600573297673 1.48409689607 0)
(0.0858053486251 1.00129454972 0)
(0.110755073493 0.688663063168 0)
(0.129966726568 0.526444841583 0)
(0.146339410654 0.447868674801 0)
(0.161502346286 0.401765297004 0)
(0.172631148256 0.385019766891 0)
(0.172362828185 0.404999166902 0)
(0.151200424053 0.477224570278 0)
(0.109347213459 0.661141874303 0)
(0.0597460229968 0.840395396229 0)
(0.0177562098182 1.02931066765 0)
(-0.00675585656232 1.23868137475 0)
(-0.0163239965151 1.3342328267 0)
(-0.0175151579822 1.35615352624 0)
(-0.0119220486095 1.20493051846 0)
(-0.00381728667479 0.698130884917 0)
(0.0328149865743 2.11060108646 0)
(0.0338637736034 2.07329285211 0)
(0.0498591908273 1.80773585279 0)
(0.0792398452084 1.28996329046 0)
(0.108653517985 0.855651081438 0)
(0.132003092219 0.620413200001 0)
(0.154339853725 0.502150314464 0)
(0.175293629079 0.436735503945 0)
(0.187236659679 0.411341795956 0)
(0.173822263492 0.441843289603 0)
(0.129905667033 0.58769689943 0)
(0.0740094457733 0.808797344021 0)
(0.0296789889376 1.02998371585 0)
(0.00558130241768 1.18678212613 0)
(-0.00578445247362 1.27410384945 0)
(-0.0109296453646 1.32973961892 0)
(-0.0121643909468 1.34818791546 0)
(-0.0102040920819 1.2973848211 0)
(-0.00599354215815 1.0922342071 0)
(-0.00175795576648 0.605868534591 0)
(0.0227614260031 2.09635185925 0)
(0.0346077581164 1.95782341023 0)
(0.0655578551039 1.59683441421 0)
(0.101211923334 1.09664193834 0)
(0.129238297991 0.779191073348 0)
(0.154565040238 0.593697525161 0)
(0.183540639089 0.493304062012 0)
(0.202120229104 0.44324733964 0)
(0.183058550219 0.467941648671 0)
(0.124419626654 0.678992287594 0)
(0.0646566494604 0.944114990473 0)
(0.0305795837409 1.16634579724 0)
(0.0151730235366 1.26469892289 0)
(0.00649071663295 1.31592700138 0)
(0.00120633456698 1.34858462022 0)
(-0.00163230776653 1.36460822 0)
(-0.00265555581522 1.34853778504 0)
(-0.00241080898234 1.26557660207 0)
(-0.00140658726292 1.04286592299 0)
(-0.000394336707343 0.57110928853 0)
(0.0232966348366 2.04135426726 0)
(0.0502947468092 1.75433757538 0)
(0.0905649955095 1.37182617755 0)
(0.12219731708 0.974821022307 0)
(0.147796892021 0.736498439354 0)
(0.18044218315 0.579046726328 0)
(0.216706798794 0.493818933369 0)
(0.212126055669 0.46607848119 0)
(0.150609364475 0.648251402314 0)
(0.0885620847726 1.01532698124 0)
(0.0577823013793 1.23835792285 0)
(0.0433809764179 1.3341562645 0)
(0.033460531498 1.38068300619 0)
(0.0258475206209 1.4025036231 0)
(0.0196949832456 1.4128677031 0)
(0.0145467790979 1.41050542807 0)
(0.0101774163713 1.38059047504 0)
(0.00642516534728 1.28672200351 0)
(0.00327805152712 1.05710105645 0)
(0.000936591326393 0.579440510715 0)
(0.0345377365714 1.91651232327 0)
(0.0708898208044 1.53400699389 0)
(0.107253417716 1.20499715474 0)
(0.133159784927 0.915492384484 0)
(0.161189648167 0.701671186421 0)
(0.205760515131 0.569702751869 0)
(0.243813857706 0.495485517418 0)
(0.210697090463 0.505875805214 0)
(0.135346417652 0.88896116809 0)
(0.0946910012498 1.22385177058 0)
(0.0813096139473 1.37650499221 0)
(0.0722933516697 1.44809830843 0)
(0.0634800422296 1.48422785954 0)
(0.0540909743972 1.50519164528 0)
(0.0442899207578 1.51536445925 0)
(0.0345433752956 1.51109477694 0)
(0.0251454526337 1.47856937108 0)
(0.0162241761363 1.38139098923 0)
(0.00824513953479 1.1419283086 0)
(0.00229851101438 0.632226339218 0)
(0.0530681502 1.73173490287 0)
(0.0931265240163 1.38012481559 0)
(0.118176414947 1.1282827511 0)
(0.135452476631 0.881214246648 0)
(0.165274918274 0.680899045178 0)
(0.220927657904 0.564285124225 0)
(0.26037434356 0.496255694272 0)
(0.210511960217 0.521229549662 0)
(0.137308556592 1.00009991847 0)
(0.117933283209 1.26592614129 0)
(0.121657875944 1.4009304579 0)
(0.12248871748 1.52154105165 0)
(0.11401795281 1.60994193005 0)
(0.0993838955776 1.6698207238 0)
(0.0820401464293 1.70049079102 0)
(0.0641184433934 1.70406668302 0)
(0.046720603748 1.67359502554 0)
(0.0302638754127 1.57406408139 0)
(0.015484984537 1.31690177808 0)
(0.00433601488773 0.742546209283 0)
(0.0987118845354 1.5726228296 0)
(0.124345649227 1.32089271259 0)
(0.135869860395 1.1136672345 0)
(0.146645801703 0.872840565852 0)
(0.17381584039 0.679629864608 0)
(0.227785662882 0.568428023764 0)
(0.27551701232 0.503410959965 0)
(0.22970856157 0.508180109122 0)
(0.165576593664 0.805771250117 0)
(0.183537385224 0.965454346574 0)
(0.209010417772 1.34285745122 0)
(0.203472700508 1.61218119193 0)
(0.182708176898 1.83344902662 0)
(0.154677587142 1.96037028316 0)
(0.125335597803 2.01752048046 0)
(0.0965509293548 2.02832033691 0)
(0.0694168414267 1.99615483011 0)
(0.0445192811052 1.88538495746 0)
(0.0231857842431 1.59445919411 0)
(0.00683924077516 0.931922830561 0)
(0.104783484959 1.33514014083 0)
(0.139597322798 1.31280877503 0)
(0.145260014365 1.10376725711 0)
(0.157448847196 0.876379954425 0)
(0.18381518823 0.691614268509 0)
(0.236681431144 0.585652583821 0)
(0.289425243785 0.527921463923 0)
(0.253209747148 0.511170469209 0)
(0.1692314175 0.577752104821 0)
(0.139220633372 0.629582195539 0)
(0.140052911128 1.23014048767 0)
(0.132930173611 1.71528546893 0)
(0.110868079347 2.12312511019 0)
(0.0850772717664 2.30202602415 0)
(0.0615864784905 2.36516172626 0)
(0.0403163744348 2.36695463612 0)
(0.0222314063253 2.31250922475 0)
(0.00836511454127 2.16365302006 0)
(0.00161624826443 1.79496199872 0)
(0.000310886883606 1.07177032604 0)
(0.13914296618 1.0984100244 0)
(0.128913160283 1.2008576926 0)
(0.138613334997 1.05663301818 0)
(0.161242797961 0.870255931193 0)
(0.194334242727 0.711099275441 0)
(0.256935854544 0.620687375462 0)
(0.287790219023 0.560554363489 0)
(0.218723461741 0.528660319684 0)
(0.137426836073 0.545694992802 0)
(0.109093317018 0.559958185021 0)
(0.0831344139622 1.23685319022 0)
(0.0452827405665 1.91424615523 0)
(0.0137140576661 2.40764376282 0)
(-0.00830163416382 2.57050951285 0)
(-0.0239748857991 2.60141947281 0)
(-0.0349357463765 2.5647241369 0)
(-0.0409341375721 2.45516679956 0)
(-0.0393563938405 2.20570078255 0)
(-0.0301165548204 1.76980476442 0)
(-0.0120696701213 0.959096481939 0)
(0.145142672164 1.00544311418 0)
(0.153755536839 1.0252668312 0)
(0.157756133978 0.961439085014 0)
(0.190244803344 0.8549092075 0)
(0.231205399428 0.7304346643 0)
(0.242003238297 0.649021859243 0)
(0.182578237925 0.591101730082 0)
(0.109579716122 0.566313341792 0)
(0.0730227054268 0.564571241415 0)
(0.0200603741176 0.884996177609 0)
(-0.0541325425118 1.62822110313 0)
(-0.0993178835725 2.20835349949 0)
(-0.114389330868 2.58556485865 0)
(-0.117944025529 2.68426131761 0)
(-0.118260787842 2.66667734396 0)
(-0.114849805783 2.57467325689 0)
(-0.106257112946 2.37783708092 0)
(-0.0918756415944 2.01136387573 0)
(-0.0703758393648 1.27599184873 0)
(-0.0287234535174 0.709096303761 0)
(0.120193421687 0.945265884105 0)
(0.18570461082 0.932601837859 0)
(0.212232789617 0.881858497817 0)
(0.190262988737 0.846142044816 0)
(0.121694912001 0.751266836589 0)
(0.0632400898605 0.69513113957 0)
(0.0046686751624 0.845966608016 0)
(-0.0697114282585 0.8948951906 0)
(-0.149421385561 0.98512428549 0)
(-0.213660510424 1.43787550479 0)
(-0.236512907458 1.9326499986 0)
(-0.231121863297 2.27664907536 0)
(-0.214056280287 2.49203153721 0)
(-0.191798470719 2.53407818246 0)
(-0.167919827669 2.47278378175 0)
(-0.140716993828 2.31326056655 0)
(-0.109228081844 2.02288840328 0)
(-0.0685172120027 1.43262812961 0)
(-0.0427946931568 0.743703335217 0)
(-0.0205147766611 0.524703508251 0)
(0.110723018076 0.951560804244 0)
(0.238342776506 0.917317247214 0)
(0.300205492591 0.871960302235 0)
(0.203678541329 0.865320065392 0)
(0.0320134320163 1.0143263669 0)
(-0.0751447497611 1.01772635854 0)
(-0.131632930524 1.22061932281 0)
(-0.16812215857 1.32967703463 0)
(-0.197828237213 1.49191301123 0)
(-0.21689389275 1.71043388182 0)
(-0.223534459206 1.94443095372 0)
(-0.216381757532 2.13978008822 0)
(-0.196112785315 2.22924950793 0)
(-0.168890971652 2.21480459278 0)
(-0.13894231732 2.10753891636 0)
(-0.107012109969 1.87966640116 0)
(-0.0686416082601 1.42256629395 0)
(-0.037229748087 0.859585105881 0)
(-0.0142856276802 0.571508108285 0)
(-0.000425320203496 0.441997829655 0)
(0.0632241763515 1.03554496897 0)
(0.209077844483 0.98476589901 0)
(0.28809218881 0.927173946161 0)
(0.19611838853 0.914681786817 0)
(0.0591697749311 1.21553675246 0)
(0.00321625911614 1.38265632162 0)
(-0.0332689755359 1.56043083482 0)
(-0.081480638037 1.69284290419 0)
(-0.125796481033 1.81612389831 0)
(-0.160774803022 1.95872897295 0)
(-0.17883880588 2.02713620042 0)
(-0.178697846862 2.07275816225 0)
(-0.168183648472 2.04756387506 0)
(-0.146325065705 1.89623876269 0)
(-0.109393618164 1.64350055852 0)
(-0.0669612854732 1.38245557925 0)
(-0.0376371340428 0.956255292554 0)
(-0.0198253535865 0.651889136186 0)
(-0.017996156114 0.500200054942 0)
(-0.012377188753 0.468720145553 0)
(-0.00702062787452 1.15436515658 0)
(0.116474386324 1.11396132464 0)
(0.209397800276 1.04546717895 0)
(0.165681905997 1.00368603681 0)
(0.0587254835177 1.16917046345 0)
(0.0231983697774 1.36600395113 0)
(0.0486741384911 1.61929756856 0)
(0.0514497517692 2.0924920955 0)
(-0.124729934181 3.74967174493 0)
(-0.277710637242 2.11990647502 0)
(-0.249102596243 1.92467455292 0)
(-0.201895880418 1.80946570396 0)
(-0.146806326046 1.70178124558 0)
(-0.0962136169886 1.49354512144 0)
(-0.0611790748032 1.23302735768 0)
(-0.0378011189926 1.01505992605 0)
(-0.0190349916474 0.779466523302 0)
(-0.0263002710732 0.581893383514 0)
(-0.0563611467775 0.521688396949 0)
(-0.0355814304429 0.552286088729 0)
(-0.016044734118 1.2082835785 0)
(0.0973322747239 1.18346698847 0)
(0.1905776332 1.12616512747 0)
(0.215185005181 1.07878290257 0)
(0.17945269586 1.13813691996 0)
(0.157882166705 1.20961829195 0)
(0.167757927022 1.36822278219 0)
(0.147755655341 2.40560368964 0)
(-0.0259299925563 6.91214800449 0)
(-0.169040011157 2.11708629406 0)
(-0.158253704366 1.68641428418 0)
(-0.140480307938 1.39814907108 0)
(-0.114776020372 1.23130774178 0)
(-0.0882216143232 1.08669581778 0)
(-0.0632172739451 0.959753546505 0)
(-0.041501812808 0.804612049132 0)
(-0.0324105142089 0.636146703858 0)
(-0.0497777215069 0.518806318676 0)
(-0.0813648652563 0.486059146305 0)
(-0.048022162249 0.507134306691 0)
(0.00324622830621 1.16176706126 0)
(0.119630884537 1.13801110236 0)
(0.197369785016 1.09371430092 0)
(0.235099614768 1.05790629228 0)
(0.247699308147 1.05351659153 0)
(0.290335399165 1.07191538387 0)
(0.272462094303 1.19039105906 0)
(0.080208810467 3.31924780414 0)
(0.0370965639168 7.10639288146 0)
(0.0184847161291 3.15982780692 0)
(-0.0975689405617 1.61577903299 0)
(-0.0979812240685 1.12616798047 0)
(-0.0845472643677 0.860618807604 0)
(-0.0677262298497 0.739001091322 0)
(-0.0518114706751 0.651001438931 0)
(-0.0387161865196 0.534767124674 0)
(-0.0326015294519 0.420667755551 0)
(-0.0375345776313 0.347482750204 0)
(-0.0581516702042 0.318457076347 0)
(-0.0365504796062 0.296234780294 0)
(0.0378326135981 1.12943334459 0)
(0.10507838398 1.06164429124 0)
(0.161384384992 1.0217200523 0)
(0.195815691373 0.987228953487 0)
(0.24086597017 0.96079120031 0)
(0.324153475778 0.94310615506 0)
(0.226406426758 1.1837591651 0)
(0.0488367440218 3.94121369666 0)
(0.0267036966075 5.52146050802 0)
(0.0405813180866 3.82868632682 0)
(0.00953770202885 1.96061782638 0)
(-0.0384233520628 0.98982127438 0)
(-0.0383928884087 0.489353529893 0)
(-0.0274916675088 0.377518413245 0)
(-0.0212262645975 0.331221374399 0)
(-0.0201750688225 0.269082102181 0)
(-0.022782986701 0.209150875783 0)
(-0.0276766124891 0.172933815028 0)
(-0.0395122438538 0.151615634803 0)
(-0.0242292471984 0.127240704752 0)
(0.0739590370435 1.14973656072 0)
(0.0933459326065 1.00811149308 0)
(0.133042489279 0.960650911879 0)
(0.173484970304 0.927562473489 0)
(0.253179066352 0.891699009392 0)
(0.344126902448 0.873401228166 0)
(0.168131754174 1.6365110673 0)
(-0.0528531796934 3.78379349152 0)
(-0.0404297800231 4.79235397273 0)
(-0.0148029836225 3.37593688668 0)
(-0.00851575348284 2.17394825939 0)
(-0.0120300902177 1.02932579362 0)
(-0.0169373342626 0.228144467404 0)
(-0.012837458788 0.14601927291 0)
(-0.0144984153099 0.133619105657 0)
(-0.0181867434231 0.116485610485 0)
(-0.0234177538038 0.101708511255 0)
(-0.0290498612533 0.0924153768775 0)
(-0.0400795711341 0.0849228595127 0)
(-0.0244810916996 0.0735574179331 0)
(0.0728006949077 1.19125443324 0)
(0.0873158733164 0.978630786349 0)
(0.125259698181 0.914665221751 0)
(0.178402058636 0.883430006582 0)
(0.301144250726 0.845341297304 0)
(0.376129672378 0.846513282541 0)
(0.170103204205 2.25718181572 0)
(-0.0219499237768 3.77401060182 0)
(-0.0125183869837 4.23150459994 0)
(0.00718284898738 3.19388585212 0)
(0.00960098195455 2.07001694491 0)
(0.00140922513945 1.11131090226 0)
(-0.00412547071343 0.129213039126 0)
(-0.00870663279989 0.0747940947138 0)
(-0.0144540352766 0.0769784751917 0)
(-0.0167221347936 0.0790810667724 0)
(-0.0171978867381 0.0814738374321 0)
(-0.0227509724991 0.0824650825134 0)
(-0.0399565040767 0.0803521429915 0)
(-0.0260574927409 0.0749000798833 0)
(0.0664402722241 1.21645139319 0)
(0.0923969504435 0.968242589843 0)
(0.142433181823 0.890953947879 0)
(0.21091396417 0.856240425336 0)
(0.34106615418 0.830430695613 0)
(0.330312189475 0.878467983845 0)
(0.104182928121 2.77430747571 0)
(-0.0273044660671 3.82410269046 0)
(-0.021973229444 3.94304609212 0)
(-0.00395394958732 3.06493569272 0)
(0.00437154090825 2.08672724322 0)
(0.00464777077242 1.16871945231 0)
(-0.000640733063799 0.134209292878 0)
(-0.00834881781008 0.0752672501932 0)
(-0.0142427848591 0.0784895651827 0)
(-0.0148141524412 0.0859123646011 0)
(-0.0126485219879 0.0954376740059 0)
(-0.0114197283185 0.102940391249 0)
(-0.0302530359678 0.103049319711 0)
(-0.0245470527981 0.0967923239426 0)
(0.0647443214209 1.20024442939 0)
(0.0997604424193 0.991842302111 0)
(0.160115711575 0.907962130547 0)
(0.237160691766 0.863453907854 0)
(0.377971375619 0.868245099577 0)
(0.278921029886 1.08337494597 0)
(0.0262448454328 3.34271714911 0)
(-0.0402198805058 3.93575097737 0)
(-0.0371874552013 3.75890230082 0)
(-0.022867049418 2.98356626357 0)
(-0.0190516711856 2.08316454196 0)
(-0.00858413796016 1.02580367114 0)
(-0.00125473195025 0.169090999133 0)
(-0.010545219228 0.102627550905 0)
(-0.0159347617425 0.0988563119449 0)
(-0.0154246691633 0.106001806342 0)
(-0.0122576352914 0.121892600176 0)
(-0.00858531520919 0.140950011152 0)
(-0.0196956208401 0.148577959769 0)
(-0.0163702699633 0.137638155774 0)
(0.0752910325724 1.18361130293 0)
(0.115442771161 1.03484307826 0)
(0.177495404381 0.959453399865 0)
(0.296275499526 0.914876236536 0)
(0.404008036935 0.944192223365 0)
(0.1776248294 1.90141816321 0)
(-0.0791058976006 3.74459030503 0)
(-0.0825970790353 3.93987644844 0)
(-0.0569133336615 3.56203312186 0)
(-0.0266222785306 2.84774969772 0)
(-0.0106524571063 2.07003568144 0)
(-0.0020731416765 0.752542235095 0)
(-0.00205990184477 0.229980934127 0)
(-0.0125664582284 0.154092132559 0)
(-0.0183723304898 0.137657210512 0)
(-0.0185260095898 0.138574441955 0)
(-0.0152561691144 0.158296189601 0)
(-0.011144185109 0.1952834117 0)
(-0.01698820568 0.223534830935 0)
(-0.012443553418 0.20188857287 0)
(0.101739576444 1.15849874253 0)
(0.14909075456 1.06005090014 0)
(0.217243065893 1.0029285265 0)
(0.41794985334 0.991033483112 0)
(0.44324677344 1.02037782778 0)
(0.133508444344 3.01740551413 0)
(-0.0432647658797 3.97900498918 0)
(-0.0440210942337 3.86555829131 0)
(-0.0256578465005 3.37681181484 0)
(-0.0107074997413 2.74421820595 0)
(0.00382143096519 1.93556909851 0)
(0.0119384986495 0.650582941134 0)
(0.00365460266566 0.325499869125 0)
(-0.00686286784562 0.237789322853 0)
(-0.0145027047787 0.206816397659 0)
(-0.0192055097763 0.195701695846 0)
(-0.020533498947 0.21086953742 0)
(-0.0201324871891 0.266760816102 0)
(-0.0348994529346 0.344906343477 0)
(-0.024942520614 0.300713425454 0)
(0.116792519184 1.10041997821 0)
(0.190278636122 1.06244448351 0)
(0.324277890144 1.04379801024 0)
(0.431606272017 1.03727314486 0)
(0.14927292041 2.08302053269 0)
(-0.163735115247 3.64632178319 0)
(-0.160742882676 3.99544131764 0)
(-0.120957720407 3.70115008509 0)
(-0.0860040172425 3.22492892061 0)
(-0.0498165837396 2.52117829815 0)
(0.000338402144846 1.50267303764 0)
(0.0253974617145 0.690159899652 0)
(0.018176486508 0.449508435633 0)
(0.010542256992 0.355147596934 0)
(0.00394017705504 0.313050381449 0)
(-0.00386207637395 0.29382914231 0)
(-0.0149794639162 0.302152954117 0)
(-0.0261293786656 0.378835182508 0)
(-0.0875524292389 0.513942769035 0)
(-0.0722373215405 0.486661800973 0)
(0.134170079817 1.05377988594 0)
(0.277567183745 1.08703425398 0)
(0.28894107481 1.10369762592 0)
(0.023998511499 2.11219735627 0)
(-0.21548359983 3.2453595529 0)
(-0.219420804979 3.75435013322 0)
(-0.182634493804 3.77310321174 0)
(-0.141848218402 3.40711767252 0)
(-0.0602260224209 2.49995539976 0)
(0.0490158374602 1.79364923685 0)
(0.106401911059 1.0876262129 0)
(0.120259608462 0.729730544142 0)
(0.126025977313 0.54980164952 0)
(0.129551123671 0.45957207487 0)
(0.13054776106 0.41492062156 0)
(0.124654677187 0.39816645033 0)
(0.103920386409 0.414846744034 0)
(0.0754444011176 0.544369214947 0)
(-0.0854138746296 1.41557287592 0)
(-0.116524411969 0.762505285536 0)
(0.105593093492 1.12730933126 0)
(0.18696377951 1.26360703444 0)
(-0.107030781608 2.51288663786 0)
(-0.379655135837 3.41739176293 0)
(-0.410040065316 3.5156029503 0)
(-0.360379385821 3.31362427713 0)
(-0.211371470889 2.80720099768 0)
(-0.0242878630552 2.37344006299 0)
(0.100347022371 1.56656727388 0)
(0.148534568698 1.15596678999 0)
(0.174682514525 0.907942626876 0)
(0.188952811792 0.711684127991 0)
(0.191961739449 0.594687978676 0)
(0.187120765603 0.531659123015 0)
(0.174166414797 0.509283781676 0)
(0.148712820748 0.559937729049 0)
(0.0979789011127 0.845176663905 0)
(0.0157380705221 1.38922451263 0)
(-0.0932090729204 2.12693709333 0)
(-0.0769776617089 0.854365042965 0)
(0.0839645868365 1.45795480719 0)
(-0.126958525763 2.76084095916 0)
(-0.440323913918 4.34365160725 0)
(-0.526232909243 4.02081787773 0)
(-0.467559108545 2.8808623539 0)
(-0.285781826495 2.17977722092 0)
(-0.157875320274 1.56891365245 0)
(-0.0939382149282 1.23308169528 0)
(-0.0519166527833 1.02944542568 0)
(-0.0209573929289 0.854446670848 0)
(-0.00400433945073 0.72170069445 0)
(0.00223114881506 0.646587289816 0)
(0.000465543275749 0.616913127796 0)
(-0.00995700476259 0.636323440032 0)
(-0.0329748365445 0.733531486904 0)
(-0.0754845864188 1.01831513605 0)
(-0.118178509786 1.38118898965 0)
(-0.111890906771 1.7853045032 0)
(-0.0963658108795 1.49243443615 0)
(-0.0513476887775 0.764466055706 0)
(-0.0692387424599 2.63455212993 0)
(-0.284143689319 4.31487163026 0)
(-0.33333874016 4.73488068122 0)
(-0.313738390049 4.20229968221 0)
(-0.288743959279 2.02788041445 0)
(-0.281533049746 1.34512993798 0)
(-0.267597030842 1.03369695212 0)
(-0.250291781431 0.850403540696 0)
(-0.23751451897 0.720225858606 0)
(-0.229150094921 0.638161719136 0)
(-0.221986277136 0.590051301457 0)
(-0.213900799595 0.574190382923 0)
(-0.203970835187 0.592465086525 0)
(-0.191615469035 0.650175805946 0)
(-0.174408993592 0.775782548265 0)
(-0.142600354308 1.04431326596 0)
(-0.100323987985 1.18263775142 0)
(-0.0677462006499 1.1325770169 0)
(-0.0803877745389 0.866872222348 0)
(-0.0524060966563 0.683348257156 0)
(0.0946813367072 3.35319875086 0)
(0.0972150169329 4.40901770398 0)
(0.104337601384 4.4588496881 0)
(0.113493464748 3.88875549064 0)
(0.0343216902272 2.48472115293 0)
(-0.117249743385 1.81800413327 0)
(-0.194475288407 0.825336050297 0)
(-0.197609583218 0.661738623792 0)
(-0.194177824925 0.570778053407 0)
(-0.186480081415 0.522793614831 0)
(-0.176869031199 0.494148585091 0)
(-0.164068460274 0.483872031449 0)
(-0.147904257945 0.493831231798 0)
(-0.129624199724 0.518250975028 0)
(-0.110012208881 0.554329212016 0)
(-0.0899888554074 0.607376804209 0)
(-0.0718607942241 0.669083030112 0)
(-0.0588413762524 0.684970681085 0)
(-0.0627686106705 0.657204348482 0)
(-0.0357659310325 0.573357274664 0)
(0.0885921541565 2.71655910769 0)
(0.169295721376 3.94005325442 0)
(0.213774730384 4.02342392627 0)
(0.22390664486 3.63038442696 0)
(0.210770518965 2.98214718141 0)
(0.180988575564 2.42381612257 0)
(0.0844260527063 1.4035474584 0)
(-0.0496001285687 1.03146146846 0)
(-0.111120354474 0.464866174358 0)
(-0.115920286002 0.411726227596 0)
(-0.111720335965 0.389122107424 0)
(-0.101845277667 0.379639919121 0)
(-0.0894382130404 0.38089953771 0)
(-0.0763641227846 0.388080023893 0)
(-0.0637747517356 0.396637170375 0)
(-0.052400099917 0.407979184872 0)
(-0.0425938569984 0.42079846279 0)
(-0.0326473150078 0.430835753197 0)
(-0.0281383032507 0.448820260046 0)
(-0.0145561311267 0.49811451856 0)
(0.150945003215 1.76928686818 0)
(0.194442947023 3.28300380377 0)
(0.230377988823 3.62808130695 0)
(0.237684844694 3.45702779429 0)
(0.210333760292 3.03704434513 0)
(0.161569318657 2.6252320387 0)
(0.112968289658 2.17089531261 0)
(0.0659763253741 1.63518754874 0)
(-0.00652705999974 0.805688254475 0)
(-0.0590501452648 0.342937965569 0)
(-0.0631734306385 0.317375574053 0)
(-0.0563543993626 0.308305929981 0)
(-0.045005240221 0.302969644133 0)
(-0.0336348723919 0.299405285411 0)
(-0.0249555839472 0.294241338527 0)
(-0.021084176298 0.289176010306 0)
(-0.0208811980725 0.2834204716 0)
(-0.0192693101936 0.279600049036 0)
(-0.0146113650919 0.309415396963 0)
(-0.00598240781041 0.461085507234 0)
(0.115177021444 0.895997161395 0)
(0.130960441384 2.75710938416 0)
(0.161509331454 3.31283598357 0)
(0.17684861402 3.37610211107 0)
(0.166793368057 3.18588229899 0)
(0.139534924788 2.89348726185 0)
(0.098680897861 2.4807715438 0)
(0.0508204303507 1.9961831036 0)
(0.00145021159887 1.32542073897 0)
(-0.0314359842989 0.313805753861 0)
(-0.0410888245202 0.278999551547 0)
(-0.0380026200734 0.271072611312 0)
(-0.0252232601796 0.263017674608 0)
(-0.0107959913576 0.253308174336 0)
(-0.00103053010455 0.24200896422 0)
(0.00015004072224 0.232763125954 0)
(-0.00587800810504 0.224179896588 0)
(-0.011498124295 0.217327071358 0)
(-0.0122039309006 0.236248131847 0)
(-0.00587600129025 0.420557173617 0)
(0.0464280681234 0.470175444287 0)
(0.0527078711596 2.40021686474 0)
(0.0675737308227 3.08352652518 0)
(0.0795345011616 3.30845879286 0)
(0.0778083430388 3.25919932215 0)
(0.0668662211717 3.05945777555 0)
(0.0515886348158 2.73453531808 0)
(0.0333319820379 2.26690959733 0)
(0.00805896360593 1.57377514494 0)
(-0.0144791115478 0.31227779283 0)
(-0.0279612765801 0.263106192098 0)
(-0.0292785621865 0.257510755463 0)
(-0.0150928122611 0.251182327552 0)
(0.00225250754888 0.2397533089 0)
(0.0142542302926 0.228204550552 0)
(0.0196565611985 0.218121317522 0)
(0.0157423994061 0.209205411597 0)
(0.00307812696943 0.201723655376 0)
(-0.00755262169219 0.212882504848 0)
(-0.00540247357821 0.415678892856 0)
)
;

boundaryField
{
    emptyPatch
    {
        type            empty;
    }
    minY
    {
        type            fixedValue;
        value           nonuniform List<vector> 0();
    }
    maxY
    {
        type            zeroGradient;
    }
    maxX
    {
        type            fixedValue;
        value           uniform (0 0 0);
    }
    water_to_heater
    {
        type            fixedValue;
        value           nonuniform List<vector> 0();
    }
    procBoundary2to1
    {
        type            processor;
        value           nonuniform List<vector> 
20
(
(0.0956524374153 1.88870415466 0)
(0.311340787543 1.89272143591 0)
(0.3186093579 1.90730059899 0)
(0.169801344939 1.72974711192 0)
(0.0396300749655 1.50504952559 0)
(-0.0303790083953 1.34541771473 0)
(-0.0726598490241 1.25611277505 0)
(-0.0981654787539 1.23312894238 0)
(-0.104852422737 1.24721431201 0)
(-0.0970428369001 1.27330372653 0)
(-0.0821787496655 1.29922222803 0)
(-0.0652785657127 1.31666848564 0)
(-0.0505939293427 1.31836287345 0)
(-0.0406501145426 1.29761137112 0)
(-0.0348522879595 1.25250234637 0)
(-0.0313024067374 1.19480102071 0)
(-0.0265906826045 1.14469264284 0)
(-0.0301516104114 1.09865363578 0)
(0.0424429452344 1.06185950809 0)
(0.0609612648842 0.969571117276 0)
)
;
    }
    procBoundary2to3
    {
        type            processor;
        value           nonuniform List<vector> 
39
(
(-0.0995437325646 1.85893246284 0)
(0.0827101791923 1.87639536279 0)
(0.0719388471074 1.93719431536 0)
(0.0582350121483 1.99410487024 0)
(0.0470850053553 2.00344435073 0)
(0.0354453153611 1.97876928739 0)
(0.0229322446176 1.93158687986 0)
(0.0166201185238 1.86070989533 0)
(0.0189305333713 1.75309753353 0)
(0.0295756706802 1.59227248303 0)
(0.0803806816979 1.391829811 0)
(0.0803806816979 1.391829811 0)
(0.0685387673047 1.10088632963 0)
(0.136207097117 1.01094693765 0)
(0.0943107519481 0.984632462397 0)
(0.0363477537099 0.936979258938 0)
(0.00626448617834 0.963989126195 0)
(-0.041696386545 1.04447023793 0)
(-0.100877958976 1.10193489158 0)
(-0.126117742926 1.15323873691 0)
(-0.108188236013 1.28902670688 0)
(0.021790692139 1.44834880917 0)
(0.0751366616608 1.50043624825 0)
(0.0751366616608 1.50043624825 0)
(0.0738092028043 1.61040825406 0)
(0.0617222931451 1.58572904655 0)
(0.0599861080158 1.40623990372 0)
(0.0656413465995 1.07382679221 0)
(0.0882256469725 0.85379848544 0)
(0.0841372487746 0.827887874862 0)
(0.0478263877318 0.816170255584 0)
(-0.0356653644829 0.845762399557 0)
(0.0223383547367 0.920960006643 0)
(0.100392745636 1.02550372797 0)
(0.0870319888625 0.882307868873 0)
(0.045180335544 0.579994382192 0)
(0.142308978001 0.460663376597 0)
(0.129516723108 0.426647971838 0)
(0.044572912713 0.37000887903 0)
)
;
    }
}


// ************************************************************************* //
