/*--------------------------------*- C++ -*----------------------------------*\
| =========                 |                                                 |
| \\      /  F ield         | OpenFOAM: The Open Source CFD Toolbox           |
|  \\    /   O peration     | Version:  2312                                  |
|   \\  /    A nd           | Website:  www.openfoam.com                      |
|    \\/     M anipulation  |                                                 |
\*---------------------------------------------------------------------------*/
FoamFile
{
    version     2.0;
    format      ascii;
    arch        "LSB;label=32;scalar=64";
    class       volScalarField;
    location    "0.62/water";
    object      T.gas;
}
// * * * * * * * * * * * * * * * * * * * * * * * * * * * * * * * * * * * * * //

dimensions      [0 0 0 1 0 0 0];

internalField   nonuniform List<scalar> 
1504
(
401.794911475
335.998390861
312.101078519
304.091222902
301.488242987
300.629033097
300.315196146
300.180585252
300.109058919
300.064186365
300.034079943
300.014251602
300.003924213
300.000734785
300.000108763
300.000010969
300
300
300
300
398.235923376
335.711254724
312.174742751
304.09695515
301.449101515
300.595114934
300.297232128
300.173407037
300.107787609
300.066222582
300.037105247
300.016399668
300.004652493
300.000798362
300.000100361
300.000008492
300
300
300
300
391.120936655
334.002443019
311.977371662
304.063797105
301.394059776
300.551509261
300.278019741
300.169320819
300.110309947
300.070703832
300.041204704
300.018974457
300.005508762
300.000852023
300.000085933
300.00000601
300
300
300
300
385.748215852
332.5111621
311.707326522
304.01641034
301.344005237
300.51269323
300.265006538
300.170874368
300.116782829
300.077829324
300.047040904
300.02259452
300.006739406
300.000961056
300.00007862
300.000005402
300
300
300
300
384.655311352
331.971431586
311.677415468
304.09073455
301.379690906
300.523510314
300.274232422
300.182889481
300.129357902
300.088837315
300.05546535
300.027785069
300.008686316
300.001234046
300.000093549
300.00000743
300.00000005
300
300
300
386.56106445
332.868522217
312.2275511
304.388525812
301.560963089
300.615771977
300.316655272
300.207820535
300.14778126
300.103243613
300.066201587
300.034728849
300.011686462
300.00183064
300.000156573
300.000014138
300.00000124
300
300
300
390.289142255
334.480710326
312.931986372
304.743520855
301.781538538
300.742625451
300.379703816
300.241304731
300.169786824
300.119524137
300.078415309
300.043022014
300.015763254
300.002877451
300.000304788
300.000031605
300.000003365
300
300
300
394.670128234
336.288492168
313.661287121
305.077760735
301.958872153
300.845281363
300.437052931
300.273375285
300.190534396
300.134816758
300.090176184
300.051474569
300.020419386
300.004335528
300.000559513
300.000067329
300.000007605
300
300
300
399.301615569
338.133182316
314.405668109
305.390334406
302.09830375
300.91524063
300.477061114
300.297511207
300.206708614
300.146923262
300.099723904
300.058728532
300.024856887
300.005999127
300.000894082
300.000121854
300.000014922
300.000000094
300
300
401.388244575
338.909869054
314.760881316
305.561510513
302.175054637
300.952872364
300.499313667
300.312378577
300.217382528
300.155369205
300.106602532
300.063946024
300.028291284
300.007561688
300.0012536
300.000186277
300.00002461
300.000000868
300
300
402.071535972
339.222013067
314.948058684
305.647796053
302.207656567
300.964911237
300.507212875
300.319300406
300.223399185
300.160803149
300.111060999
300.067051506
300.030352945
300.008659083
300.001567836
300.000246605
300.00003453
300.000001858
300
300
402.394223801
339.192720554
314.913717758
305.6406953
302.191341818
300.952889529
300.503244497
300.320117822
300.226114909
300.163892867
300.113454351
300.06823084
300.031117993
300.009203742
300.001766985
300.000291435
300.000042517
300.000002711
300
300
402.535888137
338.91508627
314.645454995
305.517188851
302.12564691
300.919659199
300.491172611
300.317154739
300.22664978
300.165161596
300.114021411
300.067772976
300.030768619
300.009208624
300.001858592
300.00031693
300.000047446
300.000003225
300
300
402.451618732
338.296813491
314.077568669
305.218425701
301.992228035
300.865471664
300.47269169
300.31162268
300.22556847
300.164879126
300.11289025
300.065985327
300.029545705
300.008772855
300.001837938
300.000324336
300.000049378
300.000003339
300
300
401.461772229
336.917378392
313.05545056
304.664514195
301.765422885
300.78506135
300.446262269
300.303330812
300.222937375
300.163109917
300.110080715
300.063081216
300.02762378
300.008124005
300.001769653
300.000323592
300.000049071
300.000003163
300
300
398.026770965
335.301477679
312.077059522
304.084955548
301.504977423
300.690783176
300.414388952
300.293191031
300.21920016
300.160017196
300.105822499
300.059266211
300.025149351
300.00752873
300.001729826
300.000319297
300.000047044
300.000002866
300
300
393.499921576
333.64196597
311.237384281
303.592854848
301.266312389
300.60034117
300.383493643
300.283591787
300.215316408
300.156022081
300.101020349
300.054889019
300.022920901
300.007159724
300.001729859
300.000315341
300.000045162
300.000002726
300
300
390.740016504
332.540091744
310.531752107
303.18121055
301.071952214
300.528401029
300.360191323
300.277025815
300.212582092
300.152446018
300.096864743
300.051479072
300.021871295
300.007127536
300.001790347
300.000316083
300.00004449
300.000002785
300
300
388.994563119
331.599286538
309.69380345
302.696307028
300.893562692
300.475883994
300.347126816
300.274894234
300.212277859
300.151198741
300.095002442
300.050369212
300.021823157
300.007401252
300.001927578
300.000336104
300.000047118
300.000003366
300
300
387.761994572
330.199769633
308.103072084
302.080710173
300.746083062
300.448595527
300.345930808
300.278203376
300.215369194
300.153292793
300.096459565
300.051561584
300.022826551
300.00802063
300.002154412
300.000387815
300.000056158
300.000004773
300
300
391.183525422
329.885012427
306.867247525
301.837780856
300.736733553
300.465929978
300.361037232
300.288605318
300.22281377
300.158933499
300.100966782
300.05478775
300.024771303
300.008985849
300.002500338
300.000480629
300.000073668
300.000007589
300
300
404.455837623
333.081275144
308.017610151
302.307066443
300.958330522
300.564181231
300.403113014
300.30931355
300.235263109
300.167475885
300.107415007
300.059429102
300.027528958
300.010267989
300.0029567
300.000611248
300.000100425
300.000012268
300
300
413.012247963
336.877630225
311.461109816
303.830917475
301.55460141
300.787308079
300.487757851
300.344766289
300.252733741
300.177519916
300.114551671
300.064489305
300.030569931
300.011657666
300.003443465
300.00075921
300.000133158
300.000018813
300
300
415.8617866
340.402689858
314.7723292
305.657869137
302.368515554
301.117068888
300.617564511
300.397196111
300.273948301
300.187399703
300.120732862
300.06935258
300.033576524
300.013029037
300.003918722
300.000904662
300.000166854
300.000025153
300.000000011
300
414.830263091
343.174529127
317.195606026
307.169455986
303.137830598
301.469476424
300.770857989
300.459305282
300.29556878
300.195674715
300.125198152
300.072813401
300.036122067
300.014346112
300.004383018
300.001052606
300.000202293
300.000032
300.000000435
300
412.611807135
345.421860486
319.297176355
308.498874408
303.847585169
301.818090436
300.930318415
300.518239737
300.315334802
300.202262241
300.128337026
300.075526897
300.038202367
300.015629716
300.004884378
300.001214817
300.0002437
300.000039813
300.000001269
300
412.471185915
347.176890858
320.931996183
309.588856872
304.459728082
302.130926215
301.064984742
300.561608636
300.328852694
300.206171035
300.130624346
300.07775997
300.040343471
300.016933444
300.005510571
300.001404978
300.000290464
300.000047739
300.000002415
300
416.98555228
349.05347305
322.086123013
310.31957669
304.880441844
302.338114746
301.12665203
300.578525757
300.331660909
300.206621855
300.131753379
300.080061638
300.042562493
300.018473732
300.006190486
300.001623454
300.000340492
300.000055098
300.000003547
300
429.486274173
351.384026781
322.579147993
310.502514255
304.968397338
302.326173971
301.087164834
300.556911387
300.320926822
300.202633863
300.132280267
300.082375146
300.045302957
300.020259345
300.007027383
300.001878472
300.000396457
300.000061935
300.000004451
300
439.534419732
351.615755572
321.800114136
309.930421779
304.554200656
302.034146904
300.954953309
300.500067256
300.298323092
300.196367311
300.132634819
300.085658481
300.048742031
300.022725287
300.008131849
300.002238225
300.000478046
300.00007367
300.000005773
300
442.559687472
351.580136266
320.761430105
308.90454433
303.757383177
301.635110841
300.777594866
300.427878171
300.273834855
300.190764025
300.135131884
300.090602822
300.053901423
300.02626643
300.009864409
300.00281889
300.000626885
300.000099888
300.000008858
300
428.003395682
348.965830187
318.995263207
307.511331591
302.957953666
301.244950536
300.60869614
300.366212749
300.255562119
300.190610983
300.141188334
300.098859548
300.061501092
300.031744932
300.01264038
300.003845982
300.000907287
300.000162802
300.000019164
300.000001724
405.147041131
342.622412222
316.477110749
306.149918751
302.276976005
300.945270619
300.495082444
300.330736536
300.252493272
300.198854837
300.153817452
300.112022483
300.073318505
300.040326922
300.017360115
300.00571534
300.001501441
300.000321266
300.000054109
300.000007322
389.293055832
337.546982321
314.627130589
305.404456729
301.96829351
300.811038784
300.449461932
300.328082047
300.265103624
300.216946278
300.173338857
300.131191067
300.090513627
300.053606446
300.025416804
300.009350033
300.002811428
300.00072224
300.00016086
300.000031814
389.939824874
340.824246564
318.040096025
307.517496055
302.95196702
301.182736758
300.582781873
300.382672806
300.301236334
300.248411536
300.202650363
300.158323468
300.114680714
300.073361172
300.038575245
300.016081284
300.005592177
300.001697862
300.000463118
300.0001141
427.141800101
363.615463947
329.186240564
312.186608999
304.807963674
301.93827384
300.897525046
300.524026844
300.372668229
300.294412122
300.239732626
300.191194303
300.14360451
300.097319434
300.05639094
300.026942297
300.010728237
300.0036925
300.001128672
300.000311598
509.219166286
381.70365866
334.050660573
314.120825484
305.826224324
302.504886999
301.203745793
300.685613265
300.462418853
300.347950292
300.277857847
300.223188431
300.172557397
300.12280287
300.07683104
300.040573454
300.017863397
300.00670786
300.002210646
300.000652893
540.119472429
389.695535437
335.328343077
314.345595148
306.040792006
302.721715476
301.369399188
300
300
300
300
300
300
300
300
300
300
300
300
300
300
300
300
300
300
300.000000008
300
300
300
300
300
300
300
300
300
300
300
300
300
300
300
300
300
300
300
300
300
300
300
300
300
300
300
300
300
300
300
300
300
300
300
300
300
300
300
300
300
300
300
300
300
300
300
300
300
300
300
300
300
300
300
300
300
300
300
300
300
300
300
300
300
300
300
300
300
300
300
300
300
300
300
300
300
300
300
300
300
300
300
300
300
300
300
300
300
300
300
300
300
300
300
300
300
300
300
300
300
300
300
300
300
300
300
300
300
300
300
300
300
300
300
300
300
300
300
300
300
300
300
300
300
300
300
300
300
300
300
300
300
300
300
300
300
300
300
300
300
300
300
300
300
300
300
300
300
300
300
300
300
300
300
300
300
300
300
300
300
300
300
300
300
300
300
300
300
300
300
300
300
300
300
300
300
300
300
300
300
300
300
300
300
300
300
300
300
300
300
300
300
300
300
300
300
300
300
300
300
300
300
300
300
300
300
300
300
300
300
300
300
300
300
300
300
300
300
300
300
300
300.000000011
300
300
300
300
300
300
300
300
300
300
300
300
300
300
300
300
300
300
300
300.000000012
300
300
300
300
300
300
300
300
300
300
300
300
300
300
300
300
300
300
300
300
300
300
300
300
300
300
300
300
300
300
300
300
300
300
300
300
300
300
300
300
300
300
300
300
300
300
300
300
300
300
300
300
300
300
300
300
300
300
300
300
300.000000008
300
300
300
300
300
300
300
300
300
300
300
300
300
300
300
300
300
300
300
300.000000032
300
300
300
300
300
300
300
300
300
300
300
300
300
300
300
300
300
300
300
300
300
300
300
300
300
300
300
300
300
300
300
300
300
300
300
300
300
300
300
300
300.000000002
300
300
300
300
300
300
300
300
300
300
300
300
300
300
300
300
300
300
300
300.000000027
300
300
300
300
300
300
300
300
300
300
300
300
300
300
300
300.000000106
300
300
300
300.0000001
300
300
300
300
300
300
300
300
300
300
300
300
300
300
300
300.000000253
300
300
300
300.000000118
300.000000001
300
300
300
300
300
300
300
300
300
300
300
300
300
300
300.000000282
300
300
300
300.000000055
300.000000013
300
300
300
300
300
300
300
300
300
300
300
300
300
300
300.000000082
300.000000149
300
300
300.000000046
300.00000008
300
300
300
300
300
300
300
300
300
300
300
300
300
300
300
300.000000396
300.000000084
300
300.000000009
300.000000031
300.000000002
300
300
300
300
300.000000071
300.000000527
300.000001115
300.000001737
300.000002325
300.000002818
300.000003107
300
300
300
300.000000543
300.000000177
300.000000013
300
300
300.000000025
300
300.000000547
300.00000159
300.000002935
300.000004549
300.000006385
300.000008318
300.000010184
300.000011741
300.000012772
300.000013099
300
300
300
300.00000034
300.000000257
300.000000029
300
300.000000036
300.00000135
300.00000369
300.000006341
300.00000947
300.000013004
300.00001683
300.00002077
300.000024515
300.000027571
300.000029427
300.000030076
300.000029809
300
300
300
300
300.00000035
300.000000041
300.000001003
300.000003669
300.000007358
300.000013514
300.000019081
300.000024609
300.000030234
300.000035618
300.000040262
300.000043653
300.000045503
300.000045876
300.000045297
300.000044331
300
300
300
300
300.000000281
300.000001137
300.000005588
300.000012054
300.000019042
300.000026842
300.000035294
300.000041578
300.000046735
300.00005055
300.000052925
300.000054051
300.00005419
300.00005356
300.000052427
300.000051331
300
300
300
300
300
300.000004201
300.000012448
300.000022174
300.00003119
300.000038628
300.00004561
300.000050429
300.000052831
300.000054146
300.000054875
300.00005519
300.000055103
300.000054586
300.000053653
300.000052591
300
300
300
300
300
300.000007146
300.000018128
300.000029031
300.000037713
300.000043433
300.000046677
300.000049143
300.000050629
300.000051706
300.000052643
300.000053348
300.000053711
300.000053621
300.00005302
300.000052021
300.000001515
300.0000005
300
300
300
300.000008128
300.000020331
300.00003082
300.000037963
300.000041821
300.000043646
300.000044817
300.000046442
300.00004837
300.000049811
300.000051121
300.000052075
300.000052559
300.000052379
300.000051513
300.000003599
300.000003312
300.000001672
300.000000857
300.000000379
300.000007507
300.00001921
300.00002917
300.000035145
300.00003805
300.000039527
300.000041025
300.000042672
300.000044287
300.000045903
300.000046143
300.000049705
300.000051034
300.000051485
300.000050861
300.000007962
300.000005488
300.000004352
300.000002887
300.000002207
300.000006938
300.000016246
300.000025136
300.000030904
300.000033992
300.000035393
300.000036358
300.000038016
300.000040297
300.000042258
300.00004377
300.000044448
300.00004839
300.000049769
300.000049558
300.000027612
300.000009196
300.000006124
300.000004878
300.000003968
300.000006792
300.000013281
300.000020006
300.000025299
300.000028821
300.000030763
300.000031605
300.000031722
300.000031039
300.00003515
300.000040204
300.000040179
300.000043408
300.000047476
300.000047909
300.000081905
300.000022878
300.000008764
300.000005865
300.000005088
300.000006616
300.000010781
300.000015646
300.000019988
300.00002285
300.00002401
300.000025613
300.000023456
300.000002672
300.000014435
300.000032629
300.000035965
300.00003702
300.000044964
300.000046391
300.000182111
300.000051189
300.00001594
300.000006974
300.00000516
300.000005927
300.000008653
300.000012309
300.000015739
300.000017896
300.00002027
300.000013196
300.000000084
300
300.000000501
300.000032934
300.000033138
300.000034208
300.00004228
300.000045283
)
;

boundaryField
{
    emptyPatch
    {
        type            empty;
    }
    minY
    {
        type            fixedValue;
        value           nonuniform List<scalar> 0();
    }
    maxY
    {
        type            inletOutlet;
        inletValue      nonuniform List<scalar> 0();
        value           nonuniform List<scalar> 0();
    }
    maxX
    {
        type            fixedValue;
        value           uniform 300;
    }
    water_to_heater
    {
        type            copiedFixedValue;
        sourceFieldName T.liquid;
        value           nonuniform List<scalar> 
60
(
790.035637737
790.080273226
790.080486621
790.150489245
790.15336764
790.236806756
790.23629323
790.338344666
790.336813364
790.459760181
790.457871005
790.600407091
790.599695315
790.7507914
790.750980615
790.908111615
790.908290157
791.073225657
791.07325813
791.249334988
791.249302285
791.415082051
791.414894609
791.563309957
791.56339278
791.692904098
791.693916988
791.80073677
791.800359012
791.870645278
791.870634667
791.902316482
791.901561292
791.894243324
791.894671439
791.857064559
791.857738863
791.790428012
791.789010433
791.684017125
791.682236885
791.539568459
791.53934728
791.387104027
791.396046919
791.27567427
791.284443163
791.203495997
791.204419172
791.176610102
791.161468074
791.197763677
791.202353648
791.327984683
791.324257217
791.472669048
791.476580607
791.589981607
791.701842689
791.80550363
)
;
    }
    procBoundary3to1
    {
        type            processor;
        value           nonuniform List<scalar> 
41
(
300.792547357
300.52726656
300.38975742
300.306972247
300.246607754
300.194121779
300.143540736
300.094510561
300.05326222
300.025126012
300.010022729
300.003470728
300.001068214
548.282276046
389.846590149
333.349114745
313.115572784
305.58624459
302.618953697
300.792547357
301.380630123
300.000308241
300.000088061
300.000026053
300.00000904
300.000004775
300.000004621
300.000006404
300.000009075
300.000011487
300.000013923
300.00001173
300
300
300
300.000005303
300.000026542
300.00002964
300.000031099
300.000042076
300.000045637
)
;
    }
    procBoundary3to2
    {
        type            processor;
        value           nonuniform List<scalar> 
41
(
402.072269451
335.795977262
312.113788777
304.177573293
301.547334522
300.661672131
300.333034701
300.190079072
300.113052044
300.06487896
300.032909072
300.012996958
300.003424506
300.000659147
300.000106051
300.000011661
300
300
300
300
300
300
300
300
300
300
300
300
300
300
300
300
300
300
300
300
300
300
300.000000002
300
300
)
;
    }
}


// ************************************************************************* //
