/*--------------------------------*- C++ -*----------------------------------*\
| =========                 |                                                 |
| \\      /  F ield         | OpenFOAM: The Open Source CFD Toolbox           |
|  \\    /   O peration     | Version:  2312                                  |
|   \\  /    A nd           | Website:  www.openfoam.com                      |
|    \\/     M anipulation  |                                                 |
\*---------------------------------------------------------------------------*/
FoamFile
{
    version     2.0;
    format      ascii;
    arch        "LSB;label=32;scalar=64";
    class       volScalarField;
    location    "0.62/water";
    object      Tf.gasAndLiquid;
}
// * * * * * * * * * * * * * * * * * * * * * * * * * * * * * * * * * * * * * //

dimensions      [0 0 0 1 0 0 0];

internalField   nonuniform List<scalar> 
1504
(
318.320395463
307.251772859
302.783300842
301.172156282
300.588096769
300.348830457
300.22522634
300.147503011
300.093680375
300.055507246
300.028639103
300.010907894
300.002332994
300.000249525
300.000024122
300.000002426
300
300
300
300
317.703151704
307.180947854
302.787946624
301.167820256
300.575415495
300.338152144
300.21970824
300.146233241
300.095213591
300.058769473
300.032240045
300.013379561
300.003155569
300.00032491
300.000022308
300.000001877
300
300
300
300
316.464404539
306.820652054
302.726562599
301.151674159
300.562246068
300.330421222
300.218776452
300.149815838
300.101136043
300.065267686
300.037716603
300.016752146
300.00427435
300.000432702
300.000019914
300.000001332
300
300
300
300
315.535364286
306.500360517
302.650410786
301.136311936
300.55645383
300.330533683
300.225457911
300.159884285
300.111839844
300.074840565
300.045078268
300.021230083
300.005840342
300.000607782
300.000021709
300.000001205
300
300
300
300
315.379835752
306.374487768
302.630913142
301.154244316
300.576864805
300.348831441
300.243263046
300.176972522
300.12700409
300.08725271
300.054355217
300.026999284
300.008036999
300.000900551
300.000031369
300.000001674
300.000000011
300
300
300
315.759354264
306.523070595
302.727388839
301.220730318
300.631283593
300.388666266
300.271847045
300.199408723
300.145092605
300.101532381
300.065070778
300.033946637
300.010946833
300.001368629
300.000055743
300.000003222
300.000000279
300
300
300
316.436588564
306.803882161
302.854408206
301.296097491
300.689850473
300.433350975
300.303707107
300.223021982
300.163570211
300.116024615
300.076109195
300.041444024
300.014419721
300.002045924
300.000104647
300.000007275
300.000000764
300
300
300
317.19660287
307.122347549
302.988465974
301.363648858
300.732565985
300.465801651
300.329023084
300.242633553
300.179242757
300.128614311
300.08598556
300.048522193
300.01806775
300.002909664
300.000184382
300.000015603
300.000001744
300
300
300
317.993380847
307.456631403
303.127909913
301.424488614
300.762570615
300.48504631
300.34454227
300.255672741
300.190264135
300.137825531
300.093521787
300.054328729
300.021441254
300.003898395
300.000291142
300.000028339
300.000003444
300.000000021
300
300
318.357007625
307.607812574
303.19800903
301.457649898
300.777520275
300.493676461
300.351829517
300.262659951
300.1966585
300.143612868
300.098631447
300.058288047
300.024025951
300.004924065
300.000422102
300.000043367
300.000005697
300.000000198
300
300
318.487544655
307.681040883
303.237713175
301.473419646
300.781822714
300.494610078
300.353304696
300.265186984
300.199640248
300.147227095
300.101716608
300.06036295
300.025338551
300.005625939
300.000568796
300.000057374
300.000007999
300.000000425
300
300
318.573381758
307.698895164
303.237183513
301.470116025
300.774983003
300.489058201
300.35062277
300.26459617
300.200867991
300.14909867
300.103046982
300.060771376
300.025503949
300.00589091
300.00066154
300.00006788
300.00000984
300.000000621
300
300
318.628638214
307.669846101
303.193285529
301.4435293
300.757423704
300.478322564
300.345516615
300.262519265
300.200981038
300.14956843
300.102826424
300.059724242
300.024755784
300.00579116
300.000691628
300.000074351
300.00001096
300.000000738
300
300
318.631893152
307.566764991
303.090560678
301.382896196
300.726604172
300.4634898
300.339316951
300.260070311
300.200336766
300.148867193
300.101214183
300.057478847
300.023347808
300.005427089
300.000683575
300.000075952
300.000011376
300.000000762
300
300
318.422632757
307.298176329
302.895478085
301.273460449
300.678930604
300.444689302
300.332505459
300.257834059
300.199274493
300.147239346
300.098392149
300.054352128
300.021531998
300.004927851
300.000677831
300.000077347
300.000011271
300.000000721
300
300
317.721309802
306.953560966
302.697827672
301.158356899
300.626618656
300.425147113
300.326099276
300.25652859
300.198382765
300.145123258
300.094737468
300.050824566
300.019576393
300.004539563
300.000715276
300.000081922
300.000010779
300.000000652
300
300
316.787620888
306.582367677
302.519875169
301.060804326
300.581167159
300.408735689
300.32164153
300.256860327
300.198365236
300.14316675
300.091088776
300.047514638
300.017988563
300.004520418
300.000809681
300.000089944
300.000010336
300.000000619
300
300
316.123349621
306.304832515
302.367458984
300.982288413
300.54778568
300.398628079
300.320600909
300.259156036
300.199951116
300.142393016
300.088750084
300.045320619
300.01748336
300.004858783
300.000946063
300.000101386
300.000010184
300.000000633
300
300
315.620254129
306.051142173
302.195204073
300.895760173
300.521344876
300.395205134
300.323708877
300.263433447
300.203683637
300.143968034
300.088843226
300.045325427
300.018107579
300.005374249
300.001104089
300.000118828
300.000010801
300.000000766
300
300
315.187695988
305.707307821
301.895999044
300.790806979
300.503526921
300.399226845
300.33130312
300.270348067
300.209325693
300.148149363
300.09179872
300.047294511
300.019363141
300.005974218
300.001276017
300.000145576
300.000012897
300.000001088
300
300
315.510946821
305.53536121
301.671532205
300.756740063
300.512977526
300.413304909
300.343512178
300.279799903
300.216762383
300.154143202
300.096629385
300.050517889
300.021024182
300.006625034
300.00146872
300.000184853
300.000016943
300.000001734
300
300
317.382277305
305.94442914
301.871874251
300.852249315
300.565468093
300.442642425
300.360787743
300.291160291
300.22507313
300.160624133
300.101912274
300.054419954
300.023026673
300.007376833
300.001690436
300.000233728
300.000023101
300.000002808
300
300
318.554543597
306.489988035
302.466534023
301.137987938
300.687309989
300.494711587
300.385480958
300.304890371
300.233556324
300.166124092
300.106108458
300.057918079
300.025176815
300.008228465
300.001909167
300.000284771
300.000030595
300.000004308
300
300
318.92092579
307.065282078
303.033181812
301.475241227
300.849051999
300.56666896
300.418104599
300.320768789
300.241102203
300.169762014
300.108878689
300.060640483
300.027137975
300.009081963
300.002132703
300.000337127
300.000038265
300.000005748
300.000000002
300
318.746709359
307.565453916
303.457771398
301.755915366
301.001733565
300.642121697
300.454070494
300.336696841
300.24632214
300.171324158
300.110319069
300.062592532
300.028847667
300.00996608
300.002409091
300.000400262
300.000047771
300.00000728
300.000000098
300
318.500087591
307.998623645
303.841851291
302.009140371
301.144698978
300.716591767
300.489867733
300.349657579
300.24898857
300.171459873
300.111048086
300.064159488
300.030425359
300.010902065
300.002752762
300.000482144
300.000061076
300.000009001
300.000000284
300
318.673664384
308.379365625
304.164285059
302.227308397
301.271633842
300.783529119
300.518598814
300.356845748
300.249039492
300.170827797
300.111732927
300.065838395
300.032157619
300.011958987
300.003164826
300.000587883
300.000079097
300.000010722
300.000000539
300
319.601279561
308.819344676
304.42823853
302.389976862
301.363831897
300.827765306
300.529455023
300.356236627
300.246317621
300.169825267
300.11276265
300.068011339
300.034308624
300.013270139
300.003673303
300.000724408
300.000103137
300.000012304
300.000000789
300
321.752293596
309.387178198
304.599594075
302.45745634
301.390244811
300.824503027
300.516137937
300.346267678
300.241079689
300.168817721
300.114545618
300.071022732
300.037180774
300.015030316
300.00436992
300.000916295
300.00013946
300.000013771
300.000000988
300
323.416802163
309.640921044
304.549702009
302.378309013
301.312508178
300.759738809
300.481296073
300.329118897
300.234701264
300.168800119
300.117740302
300.075477424
300.041279342
300.017634745
300.005463582
300.001236381
300.000206871
300.0000202
300.000001279
300
323.934083461
309.830555295
304.429371843
302.197212766
301.150050853
300.669589815
300.43728877
300.310787782
300.230310444
300.171334725
300.12357817
300.08238575
300.047508763
300.021787148
300.007358566
300.00183714
300.000348412
300.000042565
300.000001962
300
321.662084561
309.45045251
304.120933528
301.921661179
300.979255609
300.580844111
300.397661631
300.298063966
300.230813238
300.178550021
300.133630285
300.093194858
300.057106831
300.028485124
300.010687261
300.002994953
300.000649245
300.000103196
300.000008248
300.000000381
317.95166163
308.250686515
303.613064933
301.63511047
300.831894853
300.515622996
300.375382627
300.296379185
300.239773361
300.192446022
300.149775236
300.109374227
300.071473939
300.038958141
300.016399151
300.005200087
300.001303944
300.000261207
300.000037889
300.000002534
315.386445028
307.259800216
303.231571597
301.481452841
300.773524558
300.496975211
300.377769462
300.310523363
300.259808363
300.215540244
300.173683445
300.132491373
300.091994882
300.054696056
300.025827772
300.009342312
300.002707587
300.000657047
300.00013291
300.000021754
315.65333539
307.847657339
303.881825286
301.904131574
300.98592694
300.593824307
300.429115825
300.34667806
300.292645679
300.247534489
300.204670177
300.161669149
300.118222343
300.076007132
300.040009196
300.016489896
300.005499112
300.001579476
300.000405214
300.000091564
322.750888845
311.932899288
305.95259462
302.813505655
301.376787535
300.778034725
300.527570339
300.408298545
300.336830804
300.2839373
300.237477851
300.192038052
300.145960142
300.099913812
300.057894994
300.027147002
300.010395429
300.003403429
300.000983514
300.000254115
339.492470851
315.337954975
306.865645955
303.193773794
301.597941119
300.918654581
300.619607995
300.470844475
300.381794467
300.318027135
300.26596579
300.217763835
300.170039342
300.12224948
300.0766569
300.039737423
300.016825049
300.005994912
300.001863428
300.000517162
347.264777318
317.045176479
307.163019292
303.260270078
301.655860604
300.976053281
300.667428326
300
300
300
300
300
300
300
300
300
300
300
300
300
300
300
300
300
300
300.000000002
300
300
300
300
300
300
300
300
300
300
300
300
300
300
300
300
300
300
300
300
300
300
300
300
300
300
300
300
300
300
300
300
300
300
300
300
300
300
300
300
300
300
300
300
300
300
300
300
300
300
300
300
300
300
300
300
300
300
300
300
300
300
300
300
300
300
300
300
300
300
300
300
300
300
300
300
300
300
300
300
300
300
300
300
300
300
300
300
300
300
300
300
300
300
300
300
300
300
300
300
300
300
300
300
300
300
300
300
300
300
300
300
300
300
300
300
300
300
300
300
300
300
300
300
300
300
300
300
300
300
300
300
300
300
300
300
300
300
300
300
300
300
300
300
300
300
300
300
300
300
300
300
300
300
300
300
300
300
300
300
300
300
300
300
300
300
300
300
300
300
300
300
300
300
300
300
300
300
300
300
300
300
300
300
300
300
300
300
300
300
300
300
300
300
300
300
300
300
300
300
300
300
300
300
300
300
300
300
300
300
300
300
300
300
300
300
300
300
300
300
300
300
300.000000002
300
300
300
300
300
300
300
300
300
300
300
300
300
300
300
300
300
300
300
300.000000002
300
300
300
300
300
300
300
300
300
300
300
300
300
300
300
300
300
300
300
300
300
300
300
300
300
300
300
300
300
300
300
300
300
300
300
300
300
300
300
300
300
300
300
300
300
300
300
300
300
300
300
300
300
300
300
300
300
300
300
300
300.000000002
300
300
300
300
300
300
300
300
300
300
300
300
300
300
300
300
300
300
300
300.000000007
300
300
300
300
300
300
300
300
300
300
300
300
300
300
300
300
300
300
300
300
300
300
300
300
300
300
300
300
300
300
300
300
300
300
300
300
300
300
300
300
300
300
300
300
300
300
300
300
300
300
300
300
300
300
300
300
300
300
300
300
300.000000006
300
300
300
300
300
300
300
300
300
300
300
300
300
300
300
300.000000024
300
300
300
300.00000002
300
300
300
300
300
300
300
300
300
300
300
300
300
300
300
300.000000057
300
300
300
300.000000024
300
300
300
300
300
300
300
300
300
300
300
300
300
300
300
300.000000063
300
300
300
300.000000012
300.000000003
300
300
300
300
300
300
300
300
300
300
300
300
300
300
300.000000018
300.000000033
300
300
300.00000001
300.000000016
300
300
300
300
300
300
300
300
300
300
300
300
300
300
300
300.000000088
300.000000019
300
300.000000002
300.000000006
300
300
300
300
300
300.000000071
300.000000527
300.000001115
300.000001737
300.000002325
300.000002818
300.000003107
300
300
300
300.00000012
300.000000039
300.000000003
300
300
300.000000005
300
300.000000547
300.00000159
300.000002935
300.000004549
300.000006385
300.000008318
300.000010184
300.000011741
300.000012772
300.000013099
300
300
300
300.000000075
300.000000057
300.000000006
300
300.000000142
300.000001598
300.000003706
300.000006342
300.00000947
300.000013004
300.00001683
300.00002077
300.000024515
300.000027571
300.000029427
300.000030076
300.000029809
300
300
300
300
300.000000077
300.000000009
300.000001309
300.000004561
300.000008731
300.00001383
300.000019094
300.000024609
300.000030234
300.000035618
300.000040262
300.000043653
300.000045503
300.000045876
300.000045297
300.000044331
300
300
300
300
300.000000062
300.000001327
300.000006829
300.000013908
300.000021197
300.000028446
300.000035459
300.000041582
300.000046735
300.00005055
300.000052925
300.000054051
300.00005419
300.00005356
300.000052427
300.000051331
300
300
300
300
300
300.000005143
300.000014609
300.000024695
300.000033605
300.000040753
300.000046504
300.000050479
300.000052832
300.000054146
300.000054875
300.00005519
300.000055103
300.000054586
300.000053653
300.000052591
300
300
300
300
300.000000031
300.000008793
300.000020634
300.000031563
300.000039737
300.000044906
300.000047775
300.000049503
300.000050645
300.000051707
300.000052643
300.000053348
300.000053711
300.000053621
300.00005302
300.000052021
300.000000331
300.000000107
300
300
300
300.000010141
300.000022551
300.00003278
300.000039297
300.000042601
300.000044207
300.000045458
300.00004696
300.00004856
300.00004993
300.00005113
300.000052075
300.00005256
300.000052379
300.000051513
300.000000795
300.000000721
300.00000036
300.000000183
300.000000081
300.000008854
300.000020854
300.000030323
300.000035786
300.000038204
300.000039561
300.000041251
300.000043204
300.00004512
300.000046688
300.000047838
300.000049772
300.000051035
300.000051485
300.000050863
300.000002661
300.000001217
300.000000953
300.000000626
300.000000477
300.000006282
300.00001667
300.000025557
300.000031062
300.000033682
300.000034666
300.000035628
300.000037949
300.000041126
300.00004286
300.000044095
300.000045871
300.00004841
300.000049769
300.000049568
300.000017986
300.000003313
300.000001369
300.000001078
300.000000871
300.000004357
300.000012065
300.000019584
300.000025094
300.000028265
300.000029723
300.000030569
300.000031559
300.000033276
300.000037196
300.000039455
300.000041366
300.000044672
300.00004748
300.000047923
300.000060488
300.000013548
300.000003237
300.000001324
300.000001138
300.000003217
300.000008527
300.000014432
300.000019246
300.000022384
300.000024264
300.000025856
300.000026555
300.000024195
300.000027946
300.00003302
300.000036905
300.000040532
300.00004518
300.000046404
300.000134288
300.000033771
300.000008407
300.000002468
300.000001293
300.000002478
300.000006084
300.000010588
300.000014682
300.000017813
300.000020234
300.000020127
300.000019466
300.000021551
300.000022275
300.000029303
300.00003342
300.000037833
300.000043354
300.000045296
)
;

boundaryField
{
    emptyPatch
    {
        type            empty;
    }
    minY
    {
        type            calculated;
        value           nonuniform List<scalar> 0();
    }
    maxY
    {
        type            calculated;
        value           nonuniform List<scalar> 0();
    }
    maxX
    {
        type            calculated;
        value           nonuniform List<scalar> 
38
(
300
300
300
300
300
300
300
300
300
300
300
300
300
300
300
300
300
300
300
300
300
300
300
300
300
300
300
300
300
300
300
300
300
300
300
300
300
300
)
;
    }
    water_to_heater
    {
        type            calculated;
        value           nonuniform List<scalar> 
60
(
790.035637717
790.080273207
790.080486566
790.150489172
790.153367598
790.236806714
790.236293224
790.33834466
790.33681339
790.459760207
790.457871048
790.600407133
790.59969534
790.750791425
790.750980622
790.908111622
790.908290159
791.073225659
791.073258126
791.249334984
791.249302274
791.41508204
791.414894578
791.563309925
791.563392729
791.692904047
791.693916944
791.800736749
791.800358996
791.870645262
791.870634671
791.902316486
791.901561407
791.894243439
791.894671644
791.857064713
791.857738963
791.790428111
791.789010486
791.684017177
791.682236923
791.539568497
791.539347336
791.387104138
791.396047117
791.275674467
791.28444333
791.203496164
791.204419248
791.176610178
791.161467965
791.197763483
791.202353519
791.327984555
791.324257292
791.472669123
791.476581126
791.589982126
791.701843154
791.805503748
)
;
    }
    procBoundary3to1
    {
        type            processor;
        value           nonuniform List<scalar> 
41
(
300.507563204
300.410100122
300.340970308
300.28525163
300.235156001
300.186731034
300.138612653
300.091481575
300.050622115
300.022920345
300.008646863
300.002815098
300.000813383
350.570578503
317.351227557
306.876063304
303.056942606
301.581723231
300.963373946
300.507563204
300.674888938
300.000220059
300.000058149
300.000015091
300.000004093
300.000001503
300.00000179
300.000004096
300.000007409
300.000010787
300.000013779
300.000015087
300.00001522
300.00001741
300.000018793
300.000020188
300.000025416
300.000030729
300.00003607
300.000043103
300.000045652
)
;
    }
    procBoundary3to2
    {
        type            processor;
        value           nonuniform List<scalar> 
41
(
318.397434396
307.207674346
302.782526815
301.189853725
300.603768173
300.361040855
300.234329693
300.152859094
300.095484514
300.054833845
300.026690278
300.00926037
300.001765413
300.000194164
300.000023515
300.000002585
300
300
300
300
300
300
300
300
300
300
300
300
300
300
300
300
300
300
300
300
300
300
300
300
300
)
;
    }
}


// ************************************************************************* //
