/*--------------------------------*- C++ -*----------------------------------*\
| =========                 |                                                 |
| \\      /  F ield         | OpenFOAM: The Open Source CFD Toolbox           |
|  \\    /   O peration     | Version:  2312                                  |
|   \\  /    A nd           | Website:  www.openfoam.com                      |
|    \\/     M anipulation  |                                                 |
\*---------------------------------------------------------------------------*/
FoamFile
{
    version     2.0;
    format      ascii;
    arch        "LSB;label=32;scalar=64";
    class       volVectorField;
    location    "73";
    object      U.air;
}
// * * * * * * * * * * * * * * * * * * * * * * * * * * * * * * * * * * * * * //

dimensions      [0 1 -1 0 0 0 0];

internalField   nonuniform List<vector> 
1875
(
(0.00967153 0.146671 0)
(0.0330916 0.13767 0)
(0.0816671 0.133423 0)
(0.124783 0.134104 0)
(0.167364 0.136766 0)
(0.204697 0.139249 0)
(0.236084 0.147771 0)
(0.260527 0.154792 0)
(0.278582 0.160075 0)
(0.289742 0.165061 0)
(0.294869 0.16984 0)
(0.292761 0.173766 0)
(0.285289 0.175315 0)
(0.270195 0.17586 0)
(0.249217 0.179719 0)
(0.222323 0.185417 0)
(0.190781 0.191897 0)
(0.156171 0.196499 0)
(0.121383 0.197827 0)
(0.0893304 0.196469 0)
(0.0642566 0.192611 0)
(0.0465905 0.186388 0)
(0.0365361 0.179661 0)
(0.0192153 0.178424 0)
(0.0066424 0.183559 0)
(0.0220884 0.194073 0)
(0.0593367 0.192439 0)
(0.103131 0.193957 0)
(0.137268 0.19913 0)
(0.169656 0.206756 0)
(0.197398 0.216662 0)
(0.222243 0.224953 0)
(0.242782 0.235189 0)
(0.258446 0.247189 0)
(0.268749 0.26012 0)
(0.273219 0.274353 0)
(0.271577 0.29001 0)
(0.264553 0.307705 0)
(0.251791 0.325913 0)
(0.233618 0.341795 0)
(0.212522 0.355704 0)
(0.190526 0.366667 0)
(0.165964 0.37495 0)
(0.13876 0.379844 0)
(0.1117 0.380128 0)
(0.0860388 0.376446 0)
(0.0609068 0.371649 0)
(0.0380976 0.369568 0)
(0.0141737 0.368589 0)
(0.00343934 0.367013 0)
(0.0209861 0.0874837 0)
(0.0599578 0.0940233 0)
(0.0952642 0.101739 0)
(0.12233 0.112396 0)
(0.147496 0.125218 0)
(0.169625 0.140431 0)
(0.188438 0.15681 0)
(0.203149 0.175294 0)
(0.213443 0.195437 0)
(0.219185 0.216698 0)
(0.220621 0.239104 0)
(0.217645 0.262457 0)
(0.210182 0.286434 0)
(0.198461 0.31063 0)
(0.183368 0.334114 0)
(0.16385 0.354943 0)
(0.141269 0.371967 0)
(0.117773 0.384748 0)
(0.0948978 0.391426 0)
(0.0731416 0.391029 0)
(0.0522001 0.384462 0)
(0.0342972 0.375201 0)
(0.0218865 0.369794 0)
(0.00914166 0.366795 0)
(0.00353294 0.364384 0)
(0.0204552 0.0636765 0)
(0.0516546 0.0736353 0)
(0.0654252 0.0843233 0)
(0.0837048 0.0977333 0)
(0.101626 0.113891 0)
(0.116633 0.132939 0)
(0.127802 0.154713 0)
(0.134483 0.178822 0)
(0.136598 0.204681 0)
(0.135071 0.231752 0)
(0.13031 0.259731 0)
(0.122735 0.288441 0)
(0.112416 0.317622 0)
(0.099724 0.34669 0)
(0.0856356 0.374748 0)
(0.0700379 0.401164 0)
(0.0533244 0.42365 0)
(0.0385149 0.439686 0)
(0.0275345 0.447331 0)
(0.0187526 0.446177 0)
(0.0127768 0.436992 0)
(0.00564339 0.422768 0)
(0.00359912 0.409274 0)
(0.00100392 0.399543 0)
(0.00036665 0.394131 0)
(0.0132586 0.027508 0)
(0.0293717 0.0366016 0)
(0.0295493 0.0482827 0)
(0.0417801 0.0627833 0)
(0.0519333 0.0812416 0)
(0.0580307 0.103651 0)
(0.0595969 0.129538 0)
(0.0567304 0.158214 0)
(0.0499554 0.188677 0)
(0.0402312 0.220016 0)
(0.0282972 0.251837 0)
(0.0145254 0.283946 0)
(-0.000288635 0.316193 0)
(-0.0150484 0.347852 0)
(-0.0287711 0.377855 0)
(-0.0397179 0.404771 0)
(-0.0465819 0.426737 0)
(-0.0479551 0.439687 0)
(-0.0448234 0.442544 0)
(-0.0382308 0.436771 0)
(-0.0290079 0.424599 0)
(-0.0176076 0.411414 0)
(-0.0102359 0.398139 0)
(-0.00291885 0.387355 0)
(0.000881758 0.382105 0)
(0.0145846 0.0209205 0)
(0.0213039 0.033474 0)
(0.00128918 0.0465366 0)
(0.00470217 0.0630336 0)
(0.00417531 0.084193 0)
(-0.00272858 0.109578 0)
(-0.014309 0.138507 0)
(-0.0293651 0.169827 0)
(-0.0467028 0.20231 0)
(-0.06534 0.234937 0)
(-0.0845122 0.267432 0)
(-0.102812 0.299808 0)
(-0.11846 0.330953 0)
(-0.130077 0.360011 0)
(-0.136337 0.385694 0)
(-0.136236 0.406224 0)
(-0.129448 0.419682 0)
(-0.11719 0.425495 0)
(-0.100781 0.423647 0)
(-0.0810902 0.414838 0)
(-0.0602926 0.40112 0)
(-0.0405525 0.385628 0)
(-0.0245626 0.374131 0)
(-0.00833162 0.368103 0)
(-0.000781636 0.369624 0)
(0.0151108 0.0340089 0)
(0.0138171 0.0461185 0)
(-0.0269498 0.0599536 0)
(-0.0319538 0.0776801 0)
(-0.0464669 0.100423 0)
(-0.0678177 0.127881 0)
(-0.0919742 0.158344 0)
(-0.117953 0.190088 0)
(-0.143454 0.22165 0)
(-0.166627 0.252193 0)
(-0.18559 0.280494 0)
(-0.199662 0.304921 0)
(-0.208041 0.329029 0)
(-0.209565 0.350578 0)
(-0.204225 0.367379 0)
(-0.192146 0.378849 0)
(-0.174301 0.384581 0)
(-0.151811 0.384143 0)
(-0.125908 0.378152 0)
(-0.09869 0.36824 0)
(-0.0725992 0.356662 0)
(-0.0496785 0.346258 0)
(-0.0316123 0.339926 0)
(-0.0122366 0.338767 0)
(-0.00378971 0.34412 0)
(0.0145077 0.0708102 0)
(0.00562168 0.0817287 0)
(-0.0504736 0.0976588 0)
(-0.0671678 0.11779 0)
(-0.0957766 0.143216 0)
(-0.12527 0.172476 0)
(-0.154932 0.202 0)
(-0.183302 0.229558 0)
(-0.207799 0.253441 0)
(-0.227297 0.271292 0)
(-0.241124 0.287193 0)
(-0.248205 0.307138 0)
(-0.247579 0.321721 0)
(-0.239999 0.331798 0)
(-0.226188 0.33899 0)
(-0.206436 0.341561 0)
(-0.182101 0.340402 0)
(-0.15432 0.335764 0)
(-0.125301 0.328596 0)
(-0.0971016 0.320443 0)
(-0.0716078 0.312949 0)
(-0.0495959 0.30794 0)
(-0.0321606 0.307112 0)
(-0.0123821 0.311517 0)
(-0.00440627 0.320592 0)
(0.0123013 0.121605 0)
(-0.00572177 0.132419 0)
(-0.0711654 0.150358 0)
(-0.0931952 0.173591 0)
(-0.126273 0.201106 0)
(-0.154448 0.229125 0)
(-0.181801 0.253363 0)
(-0.205588 0.272445 0)
(-0.224673 0.287024 0)
(-0.239412 0.302102 0)
(-0.245503 0.310654 0)
(-0.247123 0.311077 0)
(-0.243165 0.308767 0)
(-0.231795 0.306826 0)
(-0.214068 0.302792 0)
(-0.192219 0.298847 0)
(-0.167065 0.293342 0)
(-0.140462 0.287019 0)
(-0.114167 0.280625 0)
(-0.0895373 0.275187 0)
(-0.0675172 0.271699 0)
(-0.0478936 0.271269 0)
(-0.0317991 0.274931 0)
(-0.0120951 0.283545 0)
(-0.00449316 0.294785 0)
(0.0068529 0.178232 0)
(-0.0199641 0.190781 0)
(-0.0839569 0.212969 0)
(-0.103038 0.238647 0)
(-0.13274 0.26585 0)
(-0.155815 0.289258 0)
(-0.178779 0.305457 0)
(-0.198485 0.313752 0)
(-0.214552 0.31515 0)
(-0.225099 0.310818 0)
(-0.229565 0.305029 0)
(-0.227524 0.29796 0)
(-0.217922 0.289049 0)
(-0.205057 0.279864 0)
(-0.188673 0.271431 0)
(-0.169513 0.262702 0)
(-0.148682 0.254569 0)
(-0.127431 0.247319 0)
(-0.106625 0.241407 0)
(-0.0867561 0.237437 0)
(-0.0681139 0.236093 0)
(-0.0501809 0.238199 0)
(-0.0342807 0.244645 0)
(-0.0134401 0.256559 0)
(-0.0051661 0.270318 0)
(-0.00197887 0.232695 0)
(-0.0248968 0.248942 0)
(-0.0790144 0.27401 0)
(-0.0969227 0.299266 0)
(-0.120695 0.323562 0)
(-0.139178 0.341222 0)
(-0.157627 0.349615 0)
(-0.173572 0.348227 0)
(-0.185955 0.338866 0)
(-0.193417 0.323954 0)
(-0.195862 0.30668 0)
(-0.192801 0.290158 0)
(-0.186125 0.275338 0)
(-0.176448 0.260946 0)
(-0.164359 0.247525 0)
(-0.150644 0.235544 0)
(-0.135928 0.225086 0)
(-0.120622 0.216323 0)
(-0.104935 0.209545 0)
(-0.0889381 0.205175 0)
(-0.072743 0.203762 0)
(-0.0558197 0.206016 0)
(-0.0397362 0.212839 0)
(-0.0166246 0.225378 0)
(-0.00660775 0.239255 0)
(-0.00531111 0.283868 0)
(-0.0196838 0.303165 0)
(-0.063776 0.327811 0)
(-0.080907 0.350753 0)
(-0.0996487 0.370816 0)
(-0.114431 0.38275 0)
(-0.128827 0.384109 0)
(-0.141055 0.374621 0)
(-0.150014 0.356792 0)
(-0.155465 0.334367 0)
(-0.157822 0.310832 0)
(-0.157158 0.288358 0)
(-0.154025 0.267502 0)
(-0.148737 0.248599 0)
(-0.141834 0.231702 0)
(-0.133571 0.216799 0)
(-0.124084 0.203891 0)
(-0.113453 0.193063 0)
(-0.101731 0.184483 0)
(-0.0889354 0.178426 0)
(-0.0751435 0.175307 0)
(-0.059715 0.175745 0)
(-0.0444449 0.180533 0)
(-0.019537 0.190854 0)
(-0.00762426 0.202537 0)
(-0.00385579 0.328781 0)
(-0.0136974 0.348443 0)
(-0.0481733 0.3711 0)
(-0.0604489 0.390688 0)
(-0.074997 0.406035 0)
(-0.0857053 0.413527 0)
(-0.0960283 0.410305 0)
(-0.104474 0.395251 0)
(-0.110799 0.371856 0)
(-0.115789 0.344347 0)
(-0.119314 0.316138 0)
(-0.121321 0.289201 0)
(-0.121764 0.264403 0)
(-0.120625 0.241975 0)
(-0.117961 0.221923 0)
(-0.113785 0.204192 0)
(-0.108154 0.18874 0)
(-0.101149 0.175573 0)
(-0.092874 0.164757 0)
(-0.083352 0.15642 0)
(-0.0726039 0.150805 0)
(-0.0602428 0.148231 0)
(-0.0481893 0.14902 0)
(-0.0249891 0.154457 0)
(-0.0102316 0.160031 0)
(-0.0018985 0.361633 0)
(-0.00739393 0.379779 0)
(-0.0297798 0.400781 0)
(-0.0367617 0.417786 0)
(-0.0463472 0.43095 0)
(-0.0525685 0.43502 0)
(-0.0589926 0.42783 0)
(-0.0644816 0.409632 0)
(-0.0698325 0.383369 0)
(-0.0753408 0.353162 0)
(-0.0805194 0.322181 0)
(-0.0849781 0.292357 0)
(-0.0883031 0.26461 0)
(-0.0902399 0.239277 0)
(-0.0906592 0.216438 0)
(-0.0895344 0.19607 0)
(-0.086914 0.178144 0)
(-0.0828782 0.162653 0)
(-0.0775383 0.149617 0)
(-0.0708441 0.139081 0)
(-0.0630289 0.13111 0)
(-0.0543245 0.125667 0)
(-0.0467058 0.122337 0)
(-0.0318958 0.121295 0)
(-0.0133886 0.119221 0)
(0.000245763 0.37681 0)
(-0.00114358 0.39408 0)
(-0.0107545 0.416305 0)
(-0.0127477 0.431712 0)
(-0.0161486 0.44261 0)
(-0.0178141 0.444908 0)
(-0.0202225 0.437139 0)
(-0.0235848 0.418786 0)
(-0.0284681 0.39212 0)
(-0.0344581 0.361122 0)
(-0.0409022 0.328844 0)
(-0.0471128 0.29727 0)
(-0.0525225 0.267444 0)
(-0.0567825 0.239838 0)
(-0.0596956 0.214631 0)
(-0.061174 0.191881 0)
(-0.0611994 0.171615 0)
(-0.0597762 0.153868 0)
(-0.0569329 0.13869 0)
(-0.0526798 0.126155 0)
(-0.0471833 0.116259 0)
(-0.0404382 0.108656 0)
(-0.0345464 0.102712 0)
(-0.0307343 0.0976772 0)
(-0.0142281 0.0912404 0)
(0.000413197 0.38019 0)
(0.00413436 0.397432 0)
(0.00605944 0.417496 0)
(0.00903385 0.43221 0)
(0.0115883 0.442419 0)
(0.0146794 0.445757 0)
(0.0164205 0.439454 0)
(0.0158803 0.422409 0)
(0.0123592 0.39766 0)
(0.0068604 0.367911 0)
(4.99406e-05 0.336037 0)
(-0.00721968 0.304049 0)
(-0.0142413 0.273151 0)
(-0.0205317 0.243997 0)
(-0.0257735 0.216934 0)
(-0.0297699 0.192147 0)
(-0.0324111 0.169759 0)
(-0.0336293 0.149871 0)
(-0.0333643 0.132588 0)
(-0.0317265 0.118016 0)
(-0.028694 0.106207 0)
(-0.0232037 0.0970408 0)
(-0.0166432 0.0897025 0)
(-0.0191552 0.082514 0)
(-0.0104181 0.0750855 0)
(0.000319916 0.371795 0)
(0.00759974 0.388927 0)
(0.021468 0.405928 0)
(0.0278182 0.420972 0)
(0.0355592 0.431887 0)
(0.0430248 0.436256 0)
(0.0490688 0.432975 0)
(0.0522061 0.420577 0)
(0.0510302 0.399535 0)
(0.0466755 0.373046 0)
(0.0401467 0.343339 0)
(0.0324472 0.312381 0)
(0.0243481 0.28155 0)
(0.0164371 0.251742 0)
(0.00914313 0.223502 0)
(0.00276402 0.197184 0)
(-0.00249338 0.173038 0)
(-0.00649765 0.151263 0)
(-0.00913971 0.132044 0)
(-0.0103568 0.115552 0)
(-0.0102977 0.101951 0)
(-0.00802826 0.0911753 0)
(-0.0029847 0.0827833 0)
(-0.00875184 0.074329 0)
(-0.00591319 0.0652735 0)
(-4.08657e-05 0.350528 0)
(0.0106885 0.366159 0)
(0.0326656 0.384973 0)
(0.0423733 0.400672 0)
(0.0539577 0.412475 0)
(0.0651743 0.418974 0)
(0.0748619 0.418887 0)
(0.0818739 0.411254 0)
(0.0845935 0.396235 0)
(0.0826901 0.374884 0)
(0.0772758 0.349161 0)
(0.0696395 0.320998 0)
(0.0609106 0.291831 0)
(0.0518133 0.262642 0)
(0.0428487 0.234227 0)
(0.0344016 0.207148 0)
(0.0267413 0.181831 0)
(0.0200451 0.158623 0)
(0.014416 0.137838 0)
(0.0100049 0.119768 0)
(0.00677762 0.104671 0)
(0.0045647 0.0927109 0)
(0.0059284 0.0836273 0)
(-0.00491799 0.0753573 0)
(-0.00465935 0.0649385 0)
(-0.00436706 0.326571 0)
(0.00620165 0.339359 0)
(0.0333953 0.35597 0)
(0.0488052 0.37206 0)
(0.0639915 0.385077 0)
(0.0784812 0.393973 0)
(0.0915255 0.397797 0)
(0.101947 0.39558 0)
(0.108673 0.386925 0)
(0.110716 0.372264 0)
(0.108125 0.352656 0)
(0.101925 0.32906 0)
(0.0932088 0.302955 0)
(0.0832223 0.275857 0)
(0.0728845 0.248501 0)
(0.0626954 0.221649 0)
(0.0529925 0.195932 0)
(0.0439745 0.171893 0)
(0.035711 0.150022 0)
(0.0282883 0.130775 0)
(0.0217032 0.114562 0)
(0.0152697 0.101673 0)
(0.0128696 0.0922584 0)
(-0.00330166 0.0838025 0)
(-0.00392402 0.0731577 0)
(-0.00411512 0.301507 0)
(0.00476228 0.30825 0)
(0.0328465 0.321286 0)
(0.0536842 0.337009 0)
(0.0714263 0.351666 0)
(0.0874406 0.363464 0)
(0.102071 0.37138 0)
(0.11426 0.374575 0)
(0.123304 0.372474 0)
(0.128486 0.364427 0)
(0.129316 0.350144 0)
(0.125792 0.333255 0)
(0.118628 0.313766 0)
(0.108756 0.290232 0)
(0.0975469 0.265221 0)
(0.0859708 0.239658 0)
(0.0745698 0.2144 0)
(0.0636677 0.190209 0)
(0.053344 0.167786 0)
(0.0436361 0.147779 0)
(0.0344504 0.130781 0)
(0.0246515 0.117219 0)
(0.0193247 0.107451 0)
(-0.00152157 0.0987037 0)
(-0.00357092 0.0881035 0)
(0.000632212 0.274492 0)
(0.00796239 0.277597 0)
(0.0350466 0.288067 0)
(0.0566026 0.302497 0)
(0.0759174 0.318134 0)
(0.0922888 0.332431 0)
(0.106863 0.344008 0)
(0.119404 0.351962 0)
(0.129107 0.355605 0)
(0.135881 0.355224 0)
(0.138542 0.348414 0)
(0.137463 0.336337 0)
(0.13243 0.321897 0)
(0.124665 0.304396 0)
(0.114299 0.282893 0)
(0.102461 0.259629 0)
(0.0901286 0.235647 0)
(0.0779231 0.211953 0)
(0.0661315 0.189474 0)
(0.0548393 0.169074 0)
(0.0440986 0.151522 0)
(0.0321529 0.137417 0)
(0.0248864 0.127319 0)
(-5.04029e-05 0.11869 0)
(-0.00386736 0.108616 0)
(0.00134238 0.24985 0)
(0.00749832 0.251331 0)
(0.0314759 0.258917 0)
(0.0505123 0.271327 0)
(0.0706459 0.286668 0)
(0.0878373 0.302614 0)
(0.102451 0.317286 0)
(0.114807 0.329449 0)
(0.124539 0.338307 0)
(0.131487 0.342838 0)
(0.135164 0.347674 0)
(0.135682 0.343967 0)
(0.133863 0.330726 0)
(0.128396 0.316358 0)
(0.120465 0.299817 0)
(0.110174 0.279672 0)
(0.0983668 0.257754 0)
(0.0859385 0.235198 0)
(0.073472 0.213149 0)
(0.0612148 0.192702 0)
(0.0495479 0.174828 0)
(0.0365131 0.160252 0)
(0.027625 0.149834 0)
(0.000949664 0.140624 0)
(-0.00339082 0.13087 0)
(0.00171586 0.2256 0)
(0.00729545 0.226628 0)
(0.0261865 0.232488 0)
(0.0401944 0.243454 0)
(0.0581036 0.258038 0)
(0.0751216 0.274779 0)
(0.0897742 0.291867 0)
(0.10178 0.307697 0)
(0.111452 0.321047 0)
(0.11809 0.330965 0)
(0.123435 0.336336 0)
(0.12598 0.340259 0)
(0.125072 0.337649 0)
(0.121904 0.326863 0)
(0.115913 0.313678 0)
(0.10801 0.298141 0)
(0.0981503 0.279016 0)
(0.0869193 0.258219 0)
(0.0749893 0.237119 0)
(0.0627018 0.217031 0)
(0.0507428 0.199173 0)
(0.037612 0.184364 0)
(0.0270689 0.173756 0)
(0.00110015 0.163881 0)
(-0.00226919 0.154536 0)
(0.00214108 0.204247 0)
(0.0072912 0.205635 0)
(0.0212417 0.210727 0)
(0.0302451 0.220691 0)
(0.0429588 0.234402 0)
(0.0572315 0.251046 0)
(0.0708204 0.269346 0)
(0.0822788 0.287722 0)
(0.0914169 0.304646 0)
(0.0981806 0.318874 0)
(0.102765 0.328412 0)
(0.105474 0.333025 0)
(0.10627 0.337461 0)
(0.105017 0.336059 0)
(0.101833 0.326756 0)
(0.0964377 0.313244 0)
(0.0894457 0.297336 0)
(0.0807012 0.278813 0)
(0.0707255 0.259178 0)
(0.0598457 0.239872 0)
(0.0486667 0.222312 0)
(0.0367999 0.207459 0)
(0.0250454 0.19645 0)
(0.000351845 0.186183 0)
(-0.00158301 0.176785 0)
(0.00295715 0.186502 0)
(0.00783146 0.189244 0)
(0.0165868 0.194862 0)
(0.021969 0.203805 0)
(0.029282 0.216539 0)
(0.038972 0.232544 0)
(0.0497379 0.250989 0)
(0.0597743 0.270622 0)
(0.0680866 0.289899 0)
(0.07443 0.307241 0)
(0.0788968 0.321284 0)
(0.0814971 0.331196 0)
(0.0826812 0.335629 0)
(0.0827544 0.336531 0)
(0.0816099 0.333389 0)
(0.0789158 0.324317 0)
(0.0747083 0.311172 0)
(0.0689058 0.295184 0)
(0.0615259 0.277477 0)
(0.0528475 0.25943 0)
(0.0432346 0.242524 0)
(0.0322985 0.227986 0)
(0.0220354 0.21659 0)
(0.00107755 0.205995 0)
(-0.00109304 0.196693 0)
(0.00663968 0.172464 0)
(0.0135562 0.177621 0)
(0.012056 0.18434 0)
(0.0120662 0.192686 0)
(0.0168248 0.204361 0)
(0.0225284 0.219531 0)
(0.0297111 0.237586 0)
(0.0374735 0.257512 0)
(0.0444535 0.277862 0)
(0.0499794 0.297055 0)
(0.0541229 0.313557 0)
(0.0570425 0.326258 0)
(0.0588353 0.334407 0)
(0.0596527 0.338264 0)
(0.0598075 0.337014 0)
(0.059055 0.330486 0)
(0.0571249 0.320177 0)
(0.0539135 0.306967 0)
(0.0491806 0.291481 0)
(0.0428728 0.275103 0)
(0.0353655 0.259228 0)
(0.0253989 0.245152 0)
(0.0181593 0.233696 0)
(0.00220595 0.222733 0)
(-0.000778784 0.213487 0)
(0.0114067 0.160911 0)
(0.019765 0.169228 0)
(0.00745269 0.177408 0)
(0.00283543 0.185064 0)
(0.00648077 0.196376 0)
(0.00961858 0.210766 0)
(0.013468 0.228287 0)
(0.0179543 0.248052 0)
(0.022701 0.268706 0)
(0.0272535 0.288742 0)
(0.0310009 0.306536 0)
(0.0339909 0.320837 0)
(0.0363141 0.330837 0)
(0.0380783 0.335483 0)
(0.0393961 0.33628 0)
(0.0399741 0.333306 0)
(0.0397442 0.325468 0)
(0.0385559 0.31431 0)
(0.0361718 0.301015 0)
(0.0322299 0.286491 0)
(0.0270666 0.271947 0)
(0.0192718 0.258556 0)
(0.0140059 0.247432 0)
(0.00228471 0.236227 0)
(-0.000441467 0.227289 0)
(0.0133212 0.158459 0)
(0.0184171 0.166633 0)
(0.00220025 0.173864 0)
(0.000111868 0.182384 0)
(0.000739181 0.192402 0)
(0.0011662 0.20602 0)
(0.00201742 0.222842 0)
(0.00336229 0.242051 0)
(0.00555576 0.262394 0)
(0.00845606 0.282374 0)
(0.0113929 0.300463 0)
(0.0142837 0.315392 0)
(0.0169772 0.326293 0)
(0.0193694 0.332659 0)
(0.0214641 0.334741 0)
(0.0231437 0.332662 0)
(0.0242975 0.326668 0)
(0.0245871 0.317665 0)
(0.0239834 0.306333 0)
(0.0220657 0.293555 0)
(0.0190328 0.280365 0)
(0.0136615 0.267718 0)
(0.0100898 0.256796 0)
(0.00186919 0.245792 0)
(-0.000274828 0.23705 0)
(0.0119934 0.160636 0)
(0.0132816 0.167694 0)
(-0.00326774 0.175536 0)
(-0.00152031 0.183602 0)
(-0.00373803 0.192667 0)
(-0.00569531 0.205427 0)
(-0.00691792 0.221277 0)
(-0.00740307 0.239478 0)
(-0.00701488 0.258922 0)
(-0.00584119 0.278136 0)
(-0.00387087 0.295694 0)
(-0.00133971 0.310372 0)
(0.00144637 0.321365 0)
(0.00429748 0.328199 0)
(0.00701054 0.330729 0)
(0.00948838 0.329655 0)
(0.0115108 0.325358 0)
(0.0128634 0.317949 0)
(0.0134998 0.308255 0)
(0.013162 0.297027 0)
(0.0119216 0.285136 0)
(0.00874014 0.273319 0)
(0.00651981 0.262725 0)
(0.00146967 0.251992 0)
(1.40939e-06 0.243635 0)
(0.00796159 0.162122 0)
(0.00671138 0.16957 0)
(-0.00735869 0.179123 0)
(-0.00559586 0.185766 0)
(-0.00884555 0.195175 0)
(-0.0118066 0.207346 0)
(-0.0141856 0.222352 0)
(-0.0159402 0.239467 0)
(-0.016715 0.257619 0)
(-0.0164547 0.275558 0)
(-0.0151099 0.292006 0)
(-0.0129746 0.305889 0)
(-0.0101948 0.316412 0)
(-0.00709139 0.323227 0)
(-0.00402476 0.326294 0)
(-0.00112177 0.325828 0)
(0.00146263 0.322263 0)
(0.00355465 0.316011 0)
(0.00505018 0.30761 0)
(0.00584566 0.297692 0)
(0.00588301 0.286955 0)
(0.00436681 0.275876 0)
(0.00330564 0.265612 0)
(0.000998139 0.25567 0)
(0.000216222 0.247515 0)
(0.005012 0.165794 0)
(0.00313594 0.17408 0)
(-0.00881852 0.182932 0)
(-0.00839557 0.189696 0)
(-0.0126556 0.198863 0)
(-0.0162674 0.210633 0)
(-0.0194888 0.224863 0)
(-0.0220984 0.240882 0)
(-0.0236199 0.257691 0)
(-0.0239048 0.274254 0)
(-0.0228696 0.289353 0)
(-0.0209433 0.301894 0)
(-0.018266 0.311592 0)
(-0.0151401 0.317951 0)
(-0.011937 0.321018 0)
(-0.0088082 0.32093 0)
(-0.00590506 0.317987 0)
(-0.0033728 0.31258 0)
(-0.00123834 0.305185 0)
(0.000363625 0.296333 0)
(0.000952008 0.286555 0)
(0.000466986 0.276139 0)
(0.000188521 0.26617 0)
(0.000562998 0.254758 0)
(0.000614048 0.247027 0)
(0.00395575 0.171421 0)
(0.00288133 0.180003 0)
(-0.00850282 0.188449 0)
(-0.00978049 0.195112 0)
(-0.01493 0.203939 0)
(-0.0191763 0.215193 0)
(-0.0230726 0.228544 0)
(-0.026143 0.24336 0)
(-0.0279901 0.258684 0)
(-0.0285263 0.273322 0)
(-0.0276783 0.285929 0)
(-0.0259048 0.298425 0)
(-0.023361 0.307081 0)
(-0.0203503 0.312821 0)
(-0.0172019 0.315641 0)
(-0.0140547 0.315641 0)
(-0.0110476 0.313074 0)
(-0.00828282 0.308268 0)
(-0.00577415 0.301635 0)
(-0.00374056 0.293584 0)
(-0.00298409 0.284458 0)
(-0.00293429 0.274582 0)
(-0.00277902 0.264815 0)
(6.08917e-05 0.25569 0)
(0.00128098 0.248174 0)
(0.0036202 0.179069 0)
(0.00303354 0.187589 0)
(-0.00868264 0.195494 0)
(-0.0112213 0.201658 0)
(-0.0165315 0.210011 0)
(-0.0210976 0.220539 0)
(-0.0252868 0.232878 0)
(-0.0283604 0.24639 0)
(-0.0301303 0.260191 0)
(-0.0306331 0.272477 0)
(-0.0302439 0.285022 0)
(-0.0285784 0.295277 0)
(-0.0261556 0.302861 0)
(-0.023316 0.307892 0)
(-0.0203194 0.310351 0)
(-0.0172772 0.310311 0)
(-0.01431 0.307972 0)
(-0.0114721 0.303611 0)
(-0.00894259 0.297564 0)
(-0.00714674 0.290126 0)
(-0.00605233 0.281491 0)
(-0.00541482 0.272024 0)
(-0.00554579 0.262327 0)
(-0.000208748 0.254628 0)
(0.00195282 0.247317 0)
(0.00428768 0.186898 0)
(0.00364049 0.195224 0)
(-0.0100839 0.20278 0)
(-0.0135278 0.208527 0)
(-0.0182272 0.216361 0)
(-0.0226056 0.226071 0)
(-0.0265252 0.237352 0)
(-0.0292239 0.249518 0)
(-0.030692 0.261806 0)
(-0.0310456 0.274342 0)
(-0.0305317 0.285944 0)
(-0.0290433 0.292405 0)
(-0.0268078 0.29898 0)
(-0.0242672 0.303304 0)
(-0.021513 0.305365 0)
(-0.0186735 0.305219 0)
(-0.0158377 0.303022 0)
(-0.0131066 0.299008 0)
(-0.0108314 0.293416 0)
(-0.00936956 0.286452 0)
(-0.00792469 0.278289 0)
(-0.00700801 0.269092 0)
(-0.00733235 0.259304 0)
(-0.000464069 0.248943 0)
(0.00236181 0.241994 0)
(0.00459009 0.193623 0)
(0.00409603 0.201393 0)
(-0.0108763 0.208787 0)
(-0.0151434 0.21464 0)
(-0.0194263 0.222123 0)
(-0.0234501 0.231177 0)
(-0.0267351 0.241515 0)
(-0.0289368 0.25245 0)
(-0.0301283 0.26333 0)
(-0.0303259 0.274802 0)
(-0.0295451 0.283322 0)
(-0.0277173 0.289922 0)
(-0.0259032 0.295533 0)
(-0.0236126 0.299183 0)
(-0.0211417 0.300829 0)
(-0.0185248 0.300521 0)
(-0.0158698 0.298387 0)
(-0.0133982 0.29461 0)
(-0.011397 0.289345 0)
(-0.00986215 0.282755 0)
(-0.00818372 0.274952 0)
(-0.00737993 0.265919 0)
(-0.00730611 0.256089 0)
(0.000342517 0.246659 0)
(0.00284278 0.239771 0)
(0.00371379 0.200157 0)
(0.00307531 0.207402 0)
(-0.00926529 0.214601 0)
(-0.0129842 0.22049 0)
(-0.0183523 0.227555 0)
(-0.0223042 0.235987 0)
(-0.0251629 0.245408 0)
(-0.0270479 0.25519 0)
(-0.0279798 0.264781 0)
(-0.0280867 0.273147 0)
(-0.0270463 0.280109 0)
(-0.0256782 0.287774 0)
(-0.0239886 0.292499 0)
(-0.0219482 0.29551 0)
(-0.0197062 0.296739 0)
(-0.0172927 0.296231 0)
(-0.0148674 0.294095 0)
(-0.012703 0.290454 0)
(-0.0108734 0.285421 0)
(-0.00926505 0.279083 0)
(-0.00752286 0.271458 0)
(-0.00689749 0.262523 0)
(-0.00631255 0.252653 0)
(0.00142024 0.243626 0)
(0.00322717 0.237037 0)
(0.00278539 0.207231 0)
(0.00199858 0.214284 0)
(-0.00713486 0.221283 0)
(-0.0100755 0.226665 0)
(-0.016227 0.233147 0)
(-0.0199095 0.24079 0)
(-0.0224599 0.24919 0)
(-0.0240697 0.257796 0)
(-0.0248061 0.266131 0)
(-0.0247345 0.273367 0)
(-0.0240656 0.280366 0)
(-0.0229897 0.285824 0)
(-0.0214083 0.289784 0)
(-0.0195837 0.292207 0)
(-0.0175331 0.293045 0)
(-0.0153222 0.292338 0)
(-0.0131588 0.29017 0)
(-0.0112485 0.286626 0)
(-0.00953274 0.281782 0)
(-0.00797991 0.275647 0)
(-0.0064187 0.268215 0)
(-0.00574223 0.259423 0)
(-0.00460154 0.249705 0)
(0.00223859 0.240852 0)
(0.00325289 0.234404 0)
(0.00240096 0.213804 0)
(0.00163045 0.220715 0)
(-0.00599921 0.227552 0)
(-0.00864475 0.232433 0)
(-0.014326 0.238364 0)
(-0.01738 0.245202 0)
(-0.0195246 0.252614 0)
(-0.0208472 0.26013 0)
(-0.021386 0.267345 0)
(-0.0213224 0.27386 0)
(-0.0207618 0.279546 0)
(-0.0197432 0.284098 0)
(-0.0183612 0.287363 0)
(-0.0167262 0.289258 0)
(-0.0148641 0.289735 0)
(-0.0128661 0.288833 0)
(-0.0109452 0.286615 0)
(-0.00920776 0.28314 0)
(-0.00758595 0.278436 0)
(-0.00610226 0.272469 0)
(-0.00465705 0.265233 0)
(-0.00351182 0.256645 0)
(-0.00229104 0.247164 0)
(0.00194489 0.238419 0)
(0.00231268 0.23211 0)
(0.00209075 0.219201 0)
(0.00138122 0.225888 0)
(-0.00512734 0.232498 0)
(-0.0074499 0.237261 0)
(-0.0123353 0.242811 0)
(-0.0147522 0.248968 0)
(-0.0165021 0.255528 0)
(-0.0175616 0.262104 0)
(-0.0179587 0.268353 0)
(-0.0178452 0.27398 0)
(-0.0173082 0.278785 0)
(-0.0163897 0.282574 0)
(-0.0151659 0.285217 0)
(-0.0136911 0.28663 0)
(-0.0120026 0.286771 0)
(-0.0102192 0.285675 0)
(-0.0085101 0.283391 0)
(-0.00691499 0.279948 0)
(-0.00541032 0.275339 0)
(-0.00400472 0.269514 0)
(-0.00263351 0.262419 0)
(-0.00106766 0.254201 0)
(-0.000446351 0.244998 0)
(0.000592495 0.236329 0)
(0.000805599 0.23028 0)
(0.00176502 0.22388 0)
(0.00113005 0.230332 0)
(-0.00436894 0.236746 0)
(-0.00633118 0.241397 0)
(-0.010345 0.246578 0)
(-0.0122336 0.252126 0)
(-0.0136338 0.257943 0)
(-0.0144348 0.263706 0)
(-0.0146961 0.269125 0)
(-0.0145355 0.273962 0)
(-0.014017 0.27803 0)
(-0.0131714 0.281176 0)
(-0.0120648 0.283281 0)
(-0.010732 0.284281 0)
(-0.0092156 0.284135 0)
(-0.00765124 0.282879 0)
(-0.00615292 0.280552 0)
(-0.00473016 0.277164 0)
(-0.0033975 0.272665 0)
(-0.00226327 0.26707 0)
(-0.000837003 0.260512 0)
(0.00137018 0.251892 0)
(0.000666021 0.244042 0)
(-0.00114817 0.235158 0)
(-0.000405159 0.229627 0)
(0.00147978 0.227727 0)
(0.000918353 0.234004 0)
(-0.00368052 0.240197 0)
(-0.00524883 0.244769 0)
(-0.00843733 0.249619 0)
(-0.00990205 0.254644 0)
(-0.0110121 0.259817 0)
(-0.0115924 0.264892 0)
(-0.0117295 0.269626 0)
(-0.0115128 0.273797 0)
(-0.0109874 0.277253 0)
(-0.0101973 0.279842 0)
(-0.00917347 0.28151 0)
(-0.00794225 0.282163 0)
(-0.0065779 0.281781 0)
(-0.00518377 0.280402 0)
(-0.00382496 0.278061 0)
(-0.00251857 0.274743 0)
(-0.0011862 0.27054 0)
(0.000193499 0.265198 0)
(0.0017083 0.257358 0)
(0.00492277 0.250837 0)
(0.00185477 0.243105 0)
(-0.00338382 0.233961 0)
(-0.00143794 0.22898 0)
(0.00119971 0.230918 0)
(0.000730931 0.237002 0)
(-0.00301491 0.243042 0)
(-0.00425296 0.247474 0)
(-0.00673686 0.251992 0)
(-0.00787771 0.256546 0)
(-0.0087354 0.261243 0)
(-0.00907459 0.265761 0)
(-0.00909926 0.269862 0)
(-0.00884018 0.27347 0)
(-0.00833496 0.276396 0)
(-0.00757917 0.278607 0)
(-0.00658751 0.279861 0)
(-0.00545521 0.28024 0)
(-0.00424313 0.279654 0)
(-0.00298713 0.278175 0)
(-0.00176436 0.275772 0)
(-0.000621646 0.272504 0)
(0.000596172 0.267241 0)
(0.00198722 0.261944 0)
(0.00315945 0.258096 0)
(0.00561043 0.251842 0)
(0.00285324 0.242011 0)
(-0.00380387 0.235209 0)
(-0.00238289 0.229085 0)
(0.00096235 0.233478 0)
(0.000536195 0.239474 0)
(-0.00239586 0.244974 0)
(-0.00334034 0.249586 0)
(-0.00533549 0.253857 0)
(-0.00616945 0.2581 0)
(-0.00676213 0.261898 0)
(-0.00685523 0.265819 0)
(-0.00678886 0.269933 0)
(-0.00655349 0.273076 0)
(-0.0060541 0.27568 0)
(-0.00523646 0.276651 0)
(-0.00430929 0.278345 0)
(-0.00341046 0.278472 0)
(-0.0023192 0.277779 0)
(-0.0012612 0.2762 0)
(-0.000181349 0.274003 0)
(0.000962419 0.270853 0)
(0.0019313 0.266414 0)
(0.00247807 0.261663 0)
(0.00290466 0.256398 0)
(0.00418906 0.249351 0)
(0.00369592 0.242412 0)
(-0.00254772 0.235849 0)
(-0.00305363 0.229865 0)
(0.000741182 0.235546 0)
(0.000555346 0.240964 0)
(-0.00183514 0.246106 0)
(-0.00266544 0.251257 0)
(-0.00407544 0.255219 0)
(-0.00453729 0.258532 0)
(-0.00490338 0.262044 0)
(-0.00517373 0.265728 0)
(-0.00514167 0.269796 0)
(-0.00473759 0.272682 0)
(-0.00406343 0.273944 0)
(-0.00332699 0.275682 0)
(-0.00275285 0.277118 0)
(-0.00173328 0.277082 0)
(-0.000811678 0.276109 0)
(0.000119618 0.274746 0)
(0.00112165 0.271218 0)
(0.00204551 0.268394 0)
(0.00278845 0.267687 0)
(0.00338083 0.263296 0)
(0.00379105 0.25481 0)
(0.00367567 0.249187 0)
(0.00476595 0.243814 0)
(-0.0010662 0.236111 0)
(-0.0033463 0.231032 0)
(0.000671363 0.23698 0)
(0.000401508 0.241913 0)
(-0.0015596 0.249526 0)
(-0.00203503 0.251718 0)
(-0.0029088 0.256069 0)
(-0.00330962 0.25894 0)
(-0.00372013 0.264674 0)
(-0.00377768 0.268069 0)
(-0.0035986 0.269442 0)
(-0.00300594 0.271072 0)
(-0.0024137 0.273349 0)
(-0.00200003 0.27693 0)
(-0.00136041 0.274698 0)
(-0.000360559 0.274527 0)
(0.000535326 0.274926 0)
(0.00152132 0.272014 0)
(0.00231556 0.270842 0)
(0.00264805 0.26782 0)
(0.00318065 0.264289 0)
(0.00426181 0.260043 0)
(0.0048308 0.256831 0)
(0.00448307 0.251778 0)
(0.00624185 0.244667 0)
(-1.5129e-05 0.2384 0)
(-0.00324351 0.233185 0)
(0.000491492 0.237627 0)
(0.00023979 0.245148 0)
(-0.00111243 0.248896 0)
(-0.00139252 0.252353 0)
(-0.00238557 0.256069 0)
(-0.00263141 0.261676 0)
(-0.00290427 0.263239 0)
(-0.00249131 0.266244 0)
(-0.00192788 0.268166 0)
(-0.00164589 0.270793 0)
(-0.0013882 0.274759 0)
(-0.000693596 0.273756 0)
(0.000330502 0.274146 0)
(0.000681219 0.273935 0)
(0.00149815 0.272073 0)
(0.00227728 0.271681 0)
(0.00282125 0.271876 0)
(0.00365297 0.269111 0)
(0.00435977 0.262554 0)
(0.00489822 0.258689 0)
(0.00550929 0.255671 0)
(0.00534174 0.251117 0)
(0.00796606 0.245179 0)
(0.000602526 0.239347 0)
(-0.00384912 0.233928 0)
(0.00024071 0.238325 0)
(0.000316583 0.244279 0)
(-0.000561326 0.248579 0)
(-0.000990051 0.255138 0)
(-0.00174806 0.256443 0)
(-0.00188403 0.260015 0)
(-0.00161573 0.26213 0)
(-0.00160248 0.26487 0)
(-0.00143098 0.268326 0)
(-0.00123439 0.272411 0)
(-0.000678583 0.27175 0)
(0.000196112 0.271698 0)
(0.000663567 0.27534 0)
(0.00132277 0.275061 0)
(0.00184234 0.271989 0)
(0.00222743 0.272841 0)
(0.0029345 0.268079 0)
(0.00409889 0.265594 0)
(0.00474523 0.264936 0)
(0.00513518 0.261306 0)
(0.00566237 0.255684 0)
(0.00526047 0.25143 0)
(0.00765026 0.247102 0)
(0.000699868 0.23989 0)
(-0.0036966 0.235026 0)
(0.000279219 0.240967 0)
(0.000133287 0.24383 0)
(-0.000709336 0.25189 0)
(-0.000750842 0.253595 0)
(-0.00104578 0.258778 0)
(-0.00127119 0.258989 0)
(-0.00135515 0.265054 0)
(-0.00121511 0.267733 0)
(-0.00100419 0.269867 0)
(-0.000613658 0.269537 0)
(5.6723e-05 0.27001 0)
(0.000229304 0.274172 0)
(0.000725269 0.271952 0)
(0.00169136 0.271651 0)
(0.002183 0.273433 0)
(0.00272842 0.269173 0)
(0.00337267 0.266556 0)
(0.0033968 0.264172 0)
(0.00391417 0.261787 0)
(0.00449793 0.258337 0)
(0.00465384 0.255643 0)
(0.00395164 0.250789 0)
(0.00512169 0.247187 0)
(0.000413398 0.240903 0)
(-0.0019498 0.236427 0)
(0.000285762 0.239729 0)
(9.01049e-05 0.247196 0)
(-0.000411856 0.249551 0)
(-0.000500169 0.252921 0)
(-0.00098911 0.257028 0)
(-0.00103516 0.262194 0)
(-0.00112846 0.262254 0)
(-0.00061503 0.264779 0)
(-0.000128971 0.267155 0)
(0.000262043 0.268177 0)
(0.000314047 0.272746 0)
(0.000800599 0.270849 0)
(0.00152877 0.270474 0)
(0.00165292 0.270113 0)
(0.00226747 0.269876 0)
(0.00279659 0.267967 0)
(0.00303585 0.269464 0)
(0.0032731 0.267153 0)
(0.00343539 0.261133 0)
(0.00330675 0.25804 0)
(0.00302153 0.254847 0)
(0.00225561 0.251598 0)
(0.00217077 0.247402 0)
(-0.00019812 0.242829 0)
(-0.00073358 0.238026 0)
(4.72294e-05 0.239346 0)
(0.000236436 0.244955 0)
(-5.66189e-06 0.249404 0)
(-0.000341897 0.256183 0)
(-0.000783332 0.256232 0)