/*--------------------------------*- C++ -*----------------------------------*\
| =========                 |                                                 |
| \\      /  F ield         | OpenFOAM: The Open Source CFD Toolbox           |
|  \\    /   O peration     | Version:  2312                                  |
|   \\  /    A nd           | Website:  www.openfoam.com                      |
|    \\/     M anipulation  |                                                 |
\*---------------------------------------------------------------------------*/
FoamFile
{
    version     2.0;
    format      ascii;
    arch        "LSB;label=32;scalar=64";
    class       surfaceScalarField;
    location    "0.435/water";
    object      phi.gas;
}
// * * * * * * * * * * * * * * * * * * * * * * * * * * * * * * * * * * * * * //

dimensions      [0 3 -1 0 0 0 0];

oriented        oriented;

internalField   nonuniform List<scalar> 
2928
(
3.41793389243e-07
3.16862515928e-07
2.38088872713e-07
2.11584764159e-07
3.13325136337e-07
1.93779933306e-07
2.9029909754e-07
1.82827338209e-07
3.02766098681e-07
1.84694596251e-07
2.93766238124e-07
1.88519950862e-07
2.48989152564e-07
1.94688981981e-07
2.21102895273e-07
2.11274924727e-07
2.36976991224e-07
3.42877376677e-07
2.08597881639e-07
4.19705390431e-07
1.91754996732e-07
4.44788703518e-07
1.7498067266e-07
4.68292149497e-07
1.59533912746e-07
4.9307231222e-07
1.45019747955e-07
5.19122613958e-07
1.31299077969e-07
5.46518816782e-07
1.18171392959e-07
5.75310795962e-07
1.05443074127e-07
6.05550201155e-07
9.28684700524e-08
6.37292844804e-07
8.02419597805e-08
6.70595100062e-07
7.05501888938e-07
6.74214910222e-08
1.43188507896e-07
3.35805238727e-07
2.43019810981e-07
2.65061230864e-07
2.40521580132e-07
2.42569248813e-07
2.73589550335e-07
2.3526481763e-07
2.74721862367e-07
2.35658138759e-07
2.78343301703e-07
2.41411629818e-07
2.65488031811e-07
2.50168086856e-07
2.36322740162e-07
2.63446210725e-07
1.2776992384e-07
3.16765499726e-07
6.37919077844e-08
3.62168008769e-07
5.5475837331e-08
3.76941867942e-07
4.92830459673e-08
3.93766478623e-07
4.37363766325e-08
4.1158587944e-07
3.85935154196e-08
4.30393839641e-07
3.37294174896e-08
4.50237300429e-07
2.90970359233e-08
4.71184504456e-07
2.46881154271e-08
4.93303572761e-07
2.0486726991e-08
5.16657552081e-07
1.64804353123e-08
5.41307016116e-07
5.67318128495e-07
1.26802982686e-08
1.62688936812e-07
4.07956477145e-07
2.05100071795e-07
3.23053900809e-07
2.17012591034e-07
2.88109561878e-07
2.33512623343e-07
2.75699679079e-07
2.40589669713e-07
2.7392431929e-07
2.42956026535e-07
2.7763533631e-07
2.40036657641e-07
2.85068031537e-07
2.24938448894e-07
2.96601263835e-07
1.6886567627e-07
3.28599615083e-07
5.76826556475e-08
3.68330031183e-07
4.50848127488e-08
3.90860888834e-07
4.22598895553e-08
4.09175105542e-07
3.92053072618e-08
4.2842089572e-07
3.61093634004e-08
4.48663857197e-07
3.28933876878e-08
4.69912057621e-07
2.94776829477e-08
4.92220710668e-07
2.58569002099e-08
5.15668760326e-07
2.20550372024e-08
5.4034426803e-07
1.81358940315e-08
5.66338264572e-07
5.93744508929e-07
1.42355019323e-08
2.22034310988e-07
4.41083042183e-07
2.36940584721e-07
3.70451717806e-07
2.39977009347e-07
3.23497238194e-07
2.42512143396e-07
3.05128730266e-07
2.3877825338e-07
2.99929283448e-07
2.32542123634e-07
3.01647819144e-07
2.24397911271e-07
3.07517522313e-07
2.11630032655e-07
3.17077786901e-07
1.84961187143e-07
3.37459940731e-07
8.81982745238e-08
3.65348154521e-07
3.36594339466e-08
3.88858605316e-07
3.22441704848e-08
4.07682807967e-07
3.05438805039e-08
4.27096296816e-07
2.85385283867e-08
4.47505250562e-07
2.63641514821e-08
4.68897255964e-07
2.39743162979e-08
4.9130278279e-07
2.13321085221e-08
5.14785266513e-07
1.84268494922e-08
5.39429010701e-07
1.53096001418e-08
5.65330900982e-07
5.92596728644e-07
1.21374365541e-08
2.60075508866e-07
4.58226665061e-07
2.74386239067e-07
4.04315403409e-07
2.68552463928e-07
3.56143453376e-07
2.65274463712e-07
3.29940582865e-07
2.55740350371e-07
3.20940963559e-07
2.42584052534e-07
3.20189142455e-07
2.26893518488e-07
3.24298304147e-07
2.09742698157e-07
3.32076656359e-07
1.87198883038e-07
3.46559988721e-07
1.36843862127e-07
3.67534618042e-07
3.71440328993e-08
3.89112432064e-07
2.90727353105e-08
4.08868406375e-07
2.73616697209e-08
4.28579778415e-07
2.52551129263e-08
4.49287850194e-07
2.30352114855e-08
4.70981987511e-07
2.07253636899e-08
4.93677857806e-07
1.82934446598e-08
5.17426121732e-07
1.57017688954e-08
5.4230249237e-07
1.29736276807e-08
5.68401004664e-07
5.95828090915e-07
1.02535648875e-08
2.86746506617e-07
4.6302130409e-07
3.02196187638e-07
4.2573569436e-07
2.92047569097e-07
3.85200273177e-07
2.85485741093e-07
3.53828100607e-07
2.76285154553e-07
3.40071989186e-07
2.62328037006e-07
3.36393364405e-07
2.42994931503e-07
3.384430107e-07
2.20217507453e-07
3.4439267663e-07
1.95189907892e-07
3.55227161537e-07
1.61755511326e-07
3.71398744386e-07
6.72473219206e-08
3.90581386112e-07
3.03775526999e-08
4.10214008864e-07
2.74398239381e-08
4.30273585707e-07
2.44461997802e-08
4.51053861716e-07
2.15117624691e-08
4.72830432637e-07
1.86948958881e-08
4.9561452778e-07
1.59688570949e-08
5.19448153238e-07
1.3277464169e-08
5.44400046207e-07
1.0615872953e-08
5.70559320336e-07
5.98032027546e-07
8.10115049016e-09
2.95450636429e-07
4.64336864153e-07
3.11813485007e-07
4.3865445605e-07
3.02984896388e-07
4.07585991296e-07
2.92938918776e-07
3.78312634255e-07
2.85175635402e-07
3.58888410912e-07
2.75231717926e-07
3.51948497236e-07
2.58594907199e-07
3.51717731072e-07
2.34848458799e-07
3.55673589315e-07
2.0727836136e-07
3.63743038274e-07
1.75702719532e-07
3.76480594951e-07
1.16075356326e-07
3.93066266312e-07
3.43017732683e-08
4.12833671129e-07
2.73227908619e-08
4.33079181577e-07
2.32847557731e-08
4.53680878862e-07
1.9562207063e-08
4.75313139544e-07
1.61914547643e-08
4.97986508115e-07
1.31334843573e-08
5.21736949556e-07
1.03085732882e-08
5.46626136098e-07
7.69358582905e-09
5.72738875299e-07
6.00174218544e-07
5.34202443865e-09
2.89187471163e-07
4.69312943838e-07
3.03674293381e-07
4.49924485837e-07
2.96967867493e-07
4.25910173751e-07
2.86027446075e-07
4.00579524799e-07
2.79153564841e-07
3.78336671549e-07
2.73461613904e-07
3.6710172888e-07
2.62609323661e-07
3.64436654373e-07
2.42605934914e-07
3.66257029828e-07
2.15315015524e-07
3.71799044811e-07
1.84431870337e-07
3.8166631594e-07
1.43719644565e-07
3.95722662351e-07
4.3867027332e-08
4.13936740149e-07
2.22757671143e-08
4.36315198605e-07
1.79670865681e-08
4.56553791602e-07
1.42081685668e-08
4.77856395939e-07
1.09363361139e-08
5.00271476781e-07
8.0921191679e-09
5.2381936049e-07
5.58875269587e-09
5.48554804259e-07
3.37159345907e-09
5.74552739012e-07
6.01904548217e-07
1.44636124594e-09
2.94579392988e-07
4.76808177483e-07
3.05401390535e-07
4.61137561528e-07
2.89746053281e-07
4.42372631496e-07
2.75840712893e-07
4.20567393508e-07
2.66132395132e-07
3.98698672399e-07
2.62036383606e-07
3.82487387395e-07
2.56062492721e-07
3.76551505404e-07
2.41088499569e-07
3.75912264442e-07
2.16288150228e-07
3.78922223106e-07
1.86600816394e-07
3.86031328415e-07
1.5200396479e-07
3.97695325937e-07
8.00018310508e-08
4.13684012461e-07
1.01527515967e-08
4.38186124715e-07
5.93354788941e-09
4.58502680418e-07
3.58109322837e-09
4.79531858039e-07
1.61543320427e-09
5.01695720209e-07
-2.61060326087e-11
5.25065842711e-07
-1.42700010424e-09
5.49685478437e-07
-2.64016649028e-09
5.75617999541e-07
6.02944144213e-07
-3.66338035299e-09
2.98049045143e-07
4.88213351007e-07
2.97094701131e-07
4.71841208635e-07
2.76129652989e-07
4.55376667581e-07
2.60297518402e-07
4.36632426243e-07
2.50059454953e-07
4.16279135879e-07
2.45591774759e-07
3.97782850041e-07
2.42261336657e-07
3.87021377023e-07
2.32571183369e-07
3.83818514798e-07
2.1182459537e-07
3.84385350667e-07
1.83539092488e-07
3.88901405479e-07
1.52669605931e-07
3.98289288574e-07
1.08591489221e-07
4.12329521358e-07
2.20845379199e-10
4.32093406802e-07
-1.24534285378e-08
4.58707053836e-07
-1.16747403887e-08
4.79187842815e-07
-1.09788181346e-08
5.01354473658e-07
-1.03917551513e-08
5.24785063602e-07
-9.92661311116e-09
5.49504348913e-07
-9.5720316753e-09
5.75564161672e-07
6.03034390084e-07
-9.29332632945e-09
2.87617437746e-07
4.97230304345e-07
2.77963339947e-07
4.77562921941e-07
2.60316469893e-07
4.6206265878e-07
2.47084491092e-07
4.46675612507e-07
2.38622296386e-07
4.29441055231e-07
2.33599253564e-07
4.11718139675e-07
2.31082788745e-07
3.97042685485e-07
2.25582926248e-07
3.9019668197e-07
2.09653364413e-07
3.88415648564e-07
1.83487218831e-07
3.90626641653e-07
1.53997301338e-07
3.9785027541e-07
1.20312768436e-07
4.10267260462e-07
4.67651510431e-08
4.27444294166e-07
-3.04159614722e-08
4.53016460634e-07
-2.71365607744e-08
4.76080415324e-07
-2.31915795915e-08
4.98831480611e-07
-2.00274715917e-08
5.22753743399e-07
-1.75127594968e-08
5.47919122463e-07
-1.55223687007e-08
5.74385024853e-07
6.02223629286e-07
-1.39496561953e-08
2.75212766725e-07
5.02094099138e-07
2.7385502764e-07
4.80992094088e-07
2.61583547437e-07
4.66243670699e-07
2.50826519606e-07
4.54080801023e-07
2.43537304525e-07
4.40593485701e-07
2.39209095851e-07
4.2506870374e-07
2.35906645519e-07
4.09617656602e-07
2.3150874519e-07
3.98461029772e-07
2.19543060925e-07
3.93979695795e-07
1.95601882088e-07
3.93775264234e-07
1.65135164586e-07
3.98565897998e-07
1.35267781073e-07
4.09124151857e-07
9.32214183806e-08
4.24632938199e-07
-1.84822840297e-08
4.45016239561e-07
-3.49846120986e-08
4.72252161825e-07
-2.92277970079e-08
4.9524730792e-07
-2.46207071992e-08
5.1987634576e-07
-2.09816334721e-08
5.45668153353e-07
-1.81201334832e-08
5.72687672998e-07
6.01014160432e-07
-1.58818151843e-08
2.69504796001e-07
5.06786210077e-07
2.71593323813e-07
4.84303398953e-07
2.6228015162e-07
4.69760297405e-07
2.55028010329e-07
4.59940934545e-07
2.51658675049e-07
4.49907916239e-07
2.51351160115e-07
4.37368051781e-07
2.50383672821e-07
4.23339876891e-07
2.47424457552e-07
4.10310389212e-07
2.38400860988e-07
4.0290461355e-07
2.17443850764e-07
4.00234417013e-07
1.86941610101e-07
4.02180866155e-07
1.5565674341e-07
4.10299734314e-07
1.23332418752e-07
4.24235327097e-07
6.00469972598e-08
4.4282135171e-07
-2.72197162422e-08
4.67150501248e-07
-2.57393099036e-08
4.92334950701e-07
-2.16677403612e-08
5.17526066253e-07
-1.84705463695e-08
5.43854157079e-07
-1.59934229517e-08
5.71362586384e-07
6.00126524055e-07
-1.40984204285e-08
2.68128678331e-07
5.07367759854e-07
2.76026758662e-07
4.84962388959e-07
2.61103050428e-07
4.72509645151e-07
2.55457322089e-07
4.6463173492e-07
2.5642033345e-07
4.57192184116e-07
2.61600522203e-07
4.4741735758e-07
2.65748537472e-07
4.3587016477e-07
2.65279916066e-07
4.24121590685e-07
2.58050733512e-07
4.14889200155e-07
2.39873352401e-07
4.09960695784e-07
2.10978709833e-07
4.08988587833e-07
1.79190763026e-07
4.14232383696e-07
1.52134139193e-07
4.26228319962e-07
1.14360471626e-07
4.43480051938e-07
1.14900887254e-08
4.64118829825e-07
-1.36943105608e-08
4.90892755197e-07
-1.18303733005e-08
5.16530904155e-07
-1.04344027832e-08
5.43229371147e-07
-9.4890897201e-09
5.71078212164e-07
6.00141262093e-07
-8.89711028707e-09
2.62249064549e-07
5.06323056682e-07
2.74237838639e-07
4.83743691494e-07
2.57237243256e-07
4.73817116191e-07
2.53143641538e-07
4.6792391272e-07
2.57704627658e-07
4.62613012823e-07
2.68722258373e-07
4.55510233408e-07
2.78532012073e-07
4.46940135328e-07
2.81431311217e-07
4.37924297064e-07
2.74853787915e-07
4.29302796274e-07
2.57335889418e-07
4.22561039401e-07
2.30468007702e-07
4.19021258395e-07
2.00730183921e-07
4.21351481749e-07
1.74610301312e-07
4.31027664357e-07
1.46856807535e-07
4.4707364269e-07
8.0489654315e-08
4.67273376775e-07
6.64696715108e-09
4.92646008874e-07
2.76484770003e-09
5.17271615813e-07
1.32032218358e-09
5.44225937394e-07
-1.4731157643e-10
5.72245425824e-07
6.01424771205e-07
-1.5998071843e-09
2.52414123915e-07
5.07902325061e-07
2.68438694656e-07
4.83679021367e-07
2.51593246175e-07
4.75279288811e-07
2.50591198168e-07
4.71018824572e-07
2.5941387941e-07
4.6761894149e-07
2.75488875528e-07
4.63196252913e-07
2.90065480459e-07
4.58074837813e-07
2.95510334147e-07
4.52566827974e-07
2.87820125123e-07
4.4600878249e-07
2.68766063378e-07
4.38404270874e-07
2.4314051701e-07
4.32609734823e-07
2.16334309785e-07
4.32241381896e-07
1.91976191104e-07
4.39268046383e-07
1.6993281372e-07
4.5348047482e-07
1.28859151865e-07
4.72691325869e-07
4.02533952409e-08
4.94963567208e-07
1.92776666702e-08
5.20350159015e-07
1.41250507952e-08
5.47286861088e-07
9.63011664484e-09
5.7517071534e-07
6.04178054178e-07
5.69211385443e-09
2.37115773287e-07
5.14644535694e-07
2.55402418945e-07
4.86972441584e-07
2.4267016465e-07
4.78221339914e-07
2.47582577271e-07
4.75105927524e-07
2.61852805326e-07
4.73816391517e-07
2.82477482397e-07
4.72323684736e-07
2.99724511614e-07
4.70864101527e-07
3.04874192358e-07
4.69040274816e-07
2.94994982116e-07
4.64971219496e-07
2.73950316653e-07
4.57474413067e-07
2.48483006218e-07
4.49694505401e-07
2.23825680605e-07
4.46803081102e-07
2.01407630336e-07
4.50917769501e-07
1.82249709085e-07
4.62592008983e-07
1.51696873012e-07
4.8028851007e-07
6.92811303268e-08
5.00530266706e-07
3.25512173549e-08
5.26201720305e-07
2.36596629656e-08
5.52489715918e-07
1.63014462628e-08
5.79787502559e-07
6.08243424264e-07
1.0091108217e-08
2.18280141476e-07
5.31456910112e-07
2.39213650716e-07
4.96114087297e-07
2.31879050992e-07
4.84299364454e-07
2.42878611027e-07
4.81241201472e-07
2.62083772086e-07
4.81987281854e-07
2.85354767022e-07
4.8349290539e-07
3.02067727444e-07
4.85457023937e-07
3.04769459995e-07
4.86790552097e-07
2.92998870468e-07
4.85095501896e-07
2.70670938009e-07
4.78375871861e-07
2.44885094248e-07
4.6885935861e-07
2.21249517486e-07
4.63637696087e-07
2.00179756915e-07
4.64730199902e-07
1.80326604851e-07
4.73251043663e-07
1.52869775946e-07
4.88584838141e-07
8.40205105166e-08
5.08354678359e-07
3.58028770571e-08
5.33816942259e-07
2.46273945883e-08
5.58959518357e-07
1.58173387377e-08
5.85290620361e-07
6.12875897934e-07
8.49742822151e-09
2.19227575142e-07
5.48797973562e-07
2.47224254607e-07
5.07695919192e-07
2.34661362277e-07
4.94105056805e-07
2.43647601464e-07
4.90751526514e-07
2.61257699552e-07
4.92800094266e-07
2.82296428693e-07
4.96569836993e-07
2.95809635282e-07
5.01075345038e-07
2.96337443873e-07
5.04789241838e-07
2.83463668045e-07
5.05004625723e-07
2.5978954502e-07
4.99432584366e-07
2.329897163e-07
4.88775911332e-07
2.09107662762e-07
4.80509859208e-07
1.88059077736e-07
4.7874329923e-07
1.6618727378e-07
4.83576536802e-07
1.37792368993e-07
4.95497261786e-07
8.49607395896e-08
5.1354057246e-07
2.45802634556e-08
5.43835022176e-07
1.32397135104e-08
5.6503965145e-07
5.34596918848e-09
5.902137582e-07
6.16820983145e-07
-1.17556104217e-09
2.30715014342e-07
5.61539159676e-07
2.65478874118e-07
5.20103028196e-07
2.46865244877e-07
5.0739540896e-07
2.48843730966e-07
5.04870389673e-07
2.60654327351e-07
5.07742723142e-07
2.77186084727e-07
5.12409585243e-07
2.86955968223e-07
5.17781587665e-07
2.84245446163e-07
5.22192044838e-07
2.69148341749e-07
5.22800008736e-07
2.45101079979e-07
5.17603125232e-07
2.17176611998e-07
5.06973398485e-07
1.91587726964e-07
4.95766823645e-07
1.68330981168e-07
4.90127409287e-07
1.4275724785e-07
4.91160255637e-07
1.12185547987e-07
4.98774309959e-07
6.95232424666e-08
5.13797561188e-07
1.25287256694e-09
5.46485430411e-07
-1.10529340272e-08
5.68356364739e-07
-1.54707897612e-08
5.92841186641e-07
6.18658629606e-07
-1.90651405236e-08
2.49146284543e-07
5.70435999402e-07
2.86747442886e-07
5.34299065813e-07
2.63151837947e-07
5.2558291935e-07
2.56301011096e-07
5.25684656003e-07
2.5928885199e-07
5.28449077664e-07
2.67335279866e-07
5.31288565335e-07
2.69356391495e-07
5.34589674435e-07
2.6162052261e-07
5.36947816892e-07
2.4610733322e-07
5.35535478066e-07
2.25948969986e-07
5.29015865643e-07
2.02097767323e-07
5.19009829252e-07
1.75760540118e-07
5.07764616196e-07
1.48486311297e-07
4.97870567115e-07
1.17106841533e-07
4.93510568595e-07
8.29157729858e-08
4.97046241078e-07
4.41745933875e-08
5.09002188686e-07
-2.63513602319e-08
5.32092192062e-07
-4.53757836601e-08
5.68519527506e-07
-4.42492128413e-08
5.91653063077e-07
6.17207814857e-07
-4.31158287235e-08
2.6680300875e-07
5.76917438987e-07
2.94338644061e-07
5.49229704054e-07
2.63453044405e-07
5.46969642868e-07
2.42640329962e-07
5.51238283715e-07
2.327310557e-07
5.52310047612e-07
2.30415933717e-07
5.49981893325e-07
2.26487853381e-07
5.48272039419e-07
2.19089825229e-07
5.46271536314e-07
2.10945999781e-07
5.40988345813e-07
2.01580182323e-07
5.32081290312e-07
1.86219444469e-07
5.22297723682e-07
1.63543516447e-07
5.13295211094e-07
1.35764338882e-07
5.03370442904e-07
1.01735356388e-07
4.92214229304e-07
6.23191780108e-08
4.91668634612e-07
2.50340447918e-08
5.00947379388e-07
-2.15032694763e-08
5.20369447694e-07
-8.30617499231e-08
5.63680499412e-07
-7.58798860986e-08
5.86186073838e-07
6.12202618565e-07
-6.92771071022e-08
2.71365507767e-07
5.83124944397e-07
2.67784303085e-07
5.64876837311e-07
2.24533614367e-07
5.68811192627e-07
1.90597145528e-07
5.76876686571e-07
1.73044990986e-07
5.7429099845e-07
1.6851442403e-07
5.64386539297e-07
1.67756466514e-07
5.5595317697e-07
1.68980932358e-07
5.48580393638e-07
1.72296143472e-07
5.39095448443e-07
1.74084928224e-07
5.28041580132e-07
1.69318836464e-07
5.18880885478e-07
1.54153029658e-07
5.1185302234e-07
1.31523597624e-07
5.05238382215e-07
1.01810509947e-07
4.92957893053e-07
6.14028613709e-08
4.85737343527e-07
2.3632447285e-08
4.92249874799e-07
-1.15417556531e-08
5.09606077026e-07
-1.00591964009e-07
5.38275503362e-07
-1.0417181643e-07
5.78094176525e-07
6.04491775951e-07
-9.27945662767e-08
2.75995111583e-07
5.8724981775e-07
2.37972004587e-07
5.80303980033e-07
1.80545730384e-07
5.91276295542e-07
1.40626147185e-07
6.01088552971e-07
1.21732923728e-07
5.9301945575e-07
1.19789151073e-07
5.74749792931e-07
1.25384383733e-07
5.59045875663e-07
1.35100554943e-07
5.462135401e-07
1.46786884962e-07
5.33241304112e-07
1.56999704386e-07
5.20814328693e-07
1.60246406942e-07
5.12808922483e-07
1.5275589073e-07
5.07891485384e-07
1.35851587928e-07
5.03929120975e-07
1.10409073801e-07
4.95154388562e-07
7.72952014404e-08
4.82375993234e-07
3.92622934548e-08
4.8574909592e-07
8.48085264029e-09
5.01395880418e-07
-3.99244222051e-08
5.25841797173e-07
-1.24819570647e-07
5.72147387198e-07
5.9557782285e-07
-1.09906282222e-07
2.64554516021e-07
5.95734818686e-07
2.09211440154e-07
5.96439024649e-07
1.58395991036e-07
6.11679708343e-07
1.2399646477e-07
6.21890528393e-07
1.06466871709e-07
6.09254534348e-07
1.05585231422e-07
5.8370630649e-07
1.14484974069e-07
5.61300417037e-07
1.28491107096e-07
5.43636158819e-07
1.4521273888e-07
5.28146555882e-07
1.60650600348e-07
5.15810613264e-07
1.66913864475e-07
5.09141315978e-07
1.62208250322e-07
5.04768512105e-07
1.4563720655e-07
5.02821887137e-07
1.24335145477e-07
4.9709603929e-07
9.95956845606e-08
4.8346672446e-07
6.64693559709e-08
4.83464388643e-07
4.03739268631e-08
4.966732569e-07
1.10153662826e-08
5.18972093243e-07
-1.22453307035e-07
5.51943990336e-07
5.87658944743e-07
-1.18431281038e-07
2.49492987377e-07
6.10077715082e-07
1.96823875333e-07
6.11968606056e-07
1.60698767738e-07
6.26143275501e-07
1.34639127258e-07
6.37509136844e-07
1.19570358893e-07
6.23184404548e-07
1.19351944634e-07
5.92452571211e-07
1.29664521371e-07
5.64733747709e-07
1.45564253454e-07
5.43277701049e-07
1.64920149036e-07
5.26245156061e-07
1.80621814342e-07
5.15473813159e-07
1.85700018806e-07
5.1006812212e-07
1.79644717145e-07
5.05482427477e-07
1.63997231153e-07
5.03565960506e-07
1.4393030019e-07
5.00600100694e-07
1.22994317683e-07
4.88926817512e-07
9.61671894889e-08
4.85995707121e-07
7.08337055933e-08
4.95928921208e-07
4.81035769777e-08
5.164404009e-07
-5.02649839301e-08
5.42677395206e-07
5.81089856116e-07
-1.18422925694e-07
2.36279726834e-07
6.28700822777e-07
1.91390499843e-07
6.24612530532e-07
1.65002637398e-07
6.34167876691e-07
1.47170856084e-07
6.45966142775e-07
1.3852931754e-07
6.31949972689e-07
1.42197134687e-07
5.99068862718e-07
1.55004122677e-07
5.68369989917e-07
1.73344253308e-07
5.44633109742e-07
1.93210147203e-07
5.27500443299e-07
2.06262035615e-07
5.19273606248e-07
2.11066816714e-07
5.1537663047e-07
2.04992104905e-07
5.11115236577e-07
1.89541593906e-07
5.08272094195e-07
1.6900514985e-07
5.06647234031e-07
1.47548566249e-07
4.98296884556e-07
1.23488514373e-07
4.92950721852e-07
9.86642752619e-08
4.98870799207e-07
7.81318664079e-08
5.16770953063e-07
2.94823777013e-08
5.41058258781e-07
5.7721677884e-07
-1.10961703222e-07
2.17769643486e-07
6.55772729434e-07
1.78991155158e-07
6.35522659787e-07
1.59796690002e-07
6.36299806358e-07
1.50717366009e-07
6.4608061032e-07
1.51130693383e-07
6.32873019103e-07
1.61235267346e-07
6.00924981591e-07
1.78620853329e-07
5.700772709e-07
2.01358242849e-07
5.46272385682e-07
2.21243865075e-07
5.31132671463e-07
2.33041745466e-07
5.25764003882e-07
2.39026622859e-07
5.23595852593e-07
2.34881628021e-07
5.20450909209e-07
2.20423870151e-07
5.17306539325e-07
1.98854692649e-07
5.16071382615e-07
1.73142006045e-07
5.11477968651e-07
1.47584773271e-07
5.03512912377e-07
1.22866186659e-07
5.04774083142e-07
1.0343322026e-07
5.1919116953e-07
7.27288614394e-08
5.41888456246e-07
5.71665811889e-07
-9.04372312132e-08
2.14686331693e-07
6.8104390849e-07
1.83756763155e-07
6.41575824682e-07
1.63807541698e-07
6.35682707314e-07
1.57724920625e-07
6.4154026483e-07
1.63773682746e-07
6.28232614858e-07
1.79632148701e-07
5.98750041902e-07
2.02944206305e-07
5.69925922767e-07
2.29941434121e-07
5.48205946177e-07
2.48641777432e-07
5.36680916553e-07
2.59881328136e-07
5.33889723837e-07
2.67404207793e-07
5.33367290815e-07
2.65652890329e-07
5.31837368466e-07
2.53850847273e-07
5.29329816169e-07
2.32138179432e-07
5.2900770806e-07
1.99103481494e-07
5.28743703663e-07
1.68600989563e-07
5.17114598375e-07
1.43268030777e-07
5.12734180587e-07
1.24181321533e-07
5.22925929298e-07
1.00007926295e-07
5.43917709607e-07
5.64308036607e-07
-4.23446899158e-08
2.1068183531e-07
7.07598858855e-07
1.87505054341e-07
6.44485763344e-07
1.67893556419e-07
6.32503610916e-07
1.65598729455e-07
6.33490919298e-07
1.77294856604e-07
6.19913358744e-07
1.99616511325e-07
5.93985515445e-07
2.29107779347e-07
5.68878827981e-07
2.57657756923e-07
5.50901793644e-07
2.74536362526e-07
5.43746115317e-07
2.85632982561e-07
5.4327359376e-07
2.94559119632e-07
5.44280831771e-07
2.95260774707e-07
5.44318498233e-07
2.86914286123e-07
5.43028939688e-07
2.65358927765e-07
5.44435740364e-07
2.22936463613e-07
5.48282366544e-07
1.86507583094e-07
5.34004009247e-07
1.60695779598e-07
5.22440732169e-07
1.40052963444e-07
5.27725907403e-07
1.17796873305e-07
5.46756686854e-07
5.65333147466e-07
2.33304149316e-08
2.12819986129e-07
7.31297558633e-07
1.93783935992e-07
6.47210638041e-07
1.76382846531e-07
6.28433674484e-07
1.77980953078e-07
6.24680483835e-07
1.94087780819e-07
6.1100176869e-07
2.21633340018e-07
5.88832639028e-07
2.55092801531e-07
5.68231527936e-07
2.82264737488e-07
5.5502465345e-07
2.97111388001e-07
5.52065435438e-07
3.08998521764e-07
5.53763471047e-07
3.18251182167e-07
5.56195658659e-07
3.20969112679e-07
5.57515804646e-07
3.15886644842e-07
5.57811366037e-07
2.91343450334e-07
5.6138580574e-07
2.41082491852e-07
5.68040056333e-07
2.01379565491e-07
5.54327870949e-07
1.75975102039e-07
5.34460581567e-07
1.54526436008e-07
5.34256711458e-07
1.32729250348e-07
5.5079863171e-07
5.72218064389e-07
8.10822815128e-08
2.14000631212e-07
7.52195902941e-07
1.9766502916e-07
6.50231755956e-07
1.85025309718e-07
6.23522605674e-07
1.91537436971e-07
6.15463810089e-07
2.11981170875e-07
6.02368856644e-07
2.43569222175e-07
5.8425087928e-07
2.7873097859e-07
5.68594007072e-07
3.02620432137e-07
5.60813627519e-07
3.16062491079e-07
5.61405157104e-07
3.28007593804e-07
5.6508362635e-07
3.37413798133e-07
5.68903480808e-07
3.4066264546e-07
5.71466037785e-07
3.36939743293e-07
5.73643180768e-07
3.06612584987e-07
5.80102003856e-07
2.51906857263e-07
5.87569869829e-07
2.11973361309e-07
5.75642464108e-07
1.87704816167e-07
5.49018001611e-07
1.6762261915e-07
5.43398746554e-07
1.47341948176e-07
5.56900912885e-07
5.79595204435e-07
1.14573096767e-07
2.04920600633e-07
7.79096333005e-07
1.9156885911e-07
6.54130100057e-07
1.85867992729e-07
6.16672846575e-07
1.99605244652e-07
6.04200695552e-07
2.26247168869e-07
5.92927307646e-07
2.62505895626e-07
5.79880983799e-07
2.97465469663e-07
5.69895746235e-07
3.18367912915e-07
5.678303822e-07
3.31501286811e-07
5.71436193992e-07
3.43725789355e-07
5.7696785791e-07
3.52234773474e-07
5.82082318791e-07
3.55260843745e-07
5.85857451361e-07
3.50265175524e-07
5.90281410601e-07
3.10081022489e-07
5.99549045893e-07
2.56205924953e-07
6.06661475871e-07
2.17992184879e-07
5.97289811191e-07
1.95271400338e-07
5.66549970709e-07
1.78365914916e-07
5.55748603952e-07
1.60769251425e-07
5.65524970223e-07
5.88080821485e-07
1.32627778266e-07
2.12885628982e-07
7.93617589292e-07
2.07689508797e-07
6.56666344263e-07
1.99346985856e-07
6.11375542395e-07
2.14492945813e-07
5.94784553044e-07
2.44066499926e-07
5.85424885205e-07
2.83262640601e-07
5.77651043418e-07
3.15029063985e-07
5.73639070663e-07
3.3318385701e-07
5.7648236561e-07
3.47090987954e-07
5.82627348478e-07
3.57944243554e-07
5.89591118157e-07
3.64916596159e-07
5.9566434772e-07
3.6621164591e-07
6.00405351819e-07
3.52825550567e-07
6.07145196397e-07
3.05739298999e-07
6.19249376131e-07
2.58166716468e-07
6.26035969133e-07
2.21921153047e-07
6.19416313284e-07
2.00719821727e-07
5.87554933826e-07
1.86342781454e-07
5.71600830884e-07
1.69376337621e-07
5.76586636193e-07
5.97522764159e-07
1.41414009106e-07
2.20053842886e-07
8.02041638269e-07
2.27495881765e-07
6.56232160663e-07
2.19135701131e-07
6.0647860892e-07
2.35400974133e-07
5.87843238e-07
2.6669890994e-07
5.81100534576e-07
3.06094727834e-07
5.78664141782e-07
3.32841847453e-07
5.80492816821e-07
3.49399601875e-07
5.86977450243e-07
3.62360579541e-07
5.95090753303e-07
3.71062986854e-07
6.03068463536e-07
3.74513562651e-07
6.09573885957e-07
3.72824209426e-07
6.15118072883e-07
3.48149623656e-07
6.24227311614e-07
2.98032938851e-07
6.37328411505e-07
2.5909088284e-07
6.45172920197e-07
2.26273396441e-07
6.42347278065e-07
2.05493957794e-07
6.1258757912e-07
1.91145589103e-07
5.90769235574e-07
1.73183263031e-07
5.89532153608e-07
6.07508720829e-07
1.43624472124e-07
2.23254501016e-07
8.00809424846e-07
2.45217466353e-07
6.51627551256e-07
2.41749265091e-07
6.01252363214e-07
2.61679338531e-07
5.83828961412e-07
2.94275462986e-07
5.8112114564e-07
3.29224195772e-07
5.84017999641e-07
3.51679098084e-07
5.90781308206e-07
3.67366348259e-07
5.99832532216e-07
3.78232952275e-07
6.09186690101e-07
3.82448331373e-07
6.17340842663e-07
3.81247133378e-07
6.23440421012e-07
3.73425909307e-07
6.29190283662e-07
3.34332090978e-07
6.38999529956e-07
2.91278934331e-07
6.52220995366e-07
2.62325856235e-07
6.63469508016e-07
2.33566089902e-07
6.66431935168e-07
2.09747495679e-07
6.42377346728e-07
1.9192027097e-07
6.12495882896e-07
1.72095889669e-07
6.03794308019e-07
6.17707433028e-07
1.39835648591e-07
2.18107662972e-07
7.96936330145e-07
2.59634479788e-07
6.42987921716e-07
2.65105889743e-07
5.96175972088e-07
2.91100227553e-07
5.83551065342e-07
3.2376120074e-07
5.86555703504e-07
3.5302271904e-07
5.94707766361e-07
3.72359966114e-07
6.04977534825e-07
3.86132163159e-07
6.15688674018e-07
3.91583520392e-07
6.25250201308e-07
3.88638373884e-07
6.3221120668e-07
3.80488997619e-07
6.36599500206e-07
3.5729521396e-07
6.410839792e-07
3.17342050581e-07
6.50494767574e-07
2.90935803266e-07
6.64797559592e-07
2.70128372681e-07
6.81434891315e-07
2.42920774135e-07
6.92467475154e-07
2.10940079371e-07
6.76664516521e-07
1.8713065019e-07
6.36177761534e-07
1.65659203314e-07
6.19535112213e-07
6.28239830048e-07
1.30577092943e-07
2.07905139231e-07
2.71383790713e-07
2.87557199319e-07
3.20167426505e-07
3.50786000559e-07
3.76421845202e-07
3.93358685707e-07
3.99332204744e-07
3.92392905742e-07
3.78320439981e-07
3.60946871349e-07
3.34615697668e-07
3.09480178392e-07
2.96088070164e-07
2.78843258148e-07
2.46987492486e-07
2.04406211186e-07
1.75290169188e-07
1.52731558699e-07
1.15673941642e-07
5.42112092806e-08
7.07123868913e-07
4.0471050478e-08
6.75195623278e-07
2.61254360421e-08
6.44473476997e-07
1.11448383041e-08
6.14862048346e-07
-4.3551636523e-09
5.86276884785e-07
-2.01437434032e-08
5.58658414155e-07
-3.59324032326e-08
5.31986353511e-07
-5.15064644003e-08
5.06277112227e-07
-6.67651033021e-08
4.81564588335e-07
-8.17483431231e-08
4.57877387606e-07
-9.66131361869e-08
4.35223372584e-07
-1.11667836112e-07
4.13581491186e-07
-1.27383545211e-07
3.92900401594e-07
-1.44217875238e-07
3.73119841423e-07
-1.61813936209e-07
3.54255392618e-07
-1.75321081993e-07
3.36655010386e-07
-2.02896650752e-07
3.19561602092e-07
-1.47996295827e-07
3.06746291519e-07
-1.04347636771e-06
2.50892290979e-07
2.60837372332e-07
9.10174727826e-09
5.66778253766e-07
5.73352210079e-09
5.39758819987e-07
2.53130750921e-09
5.14177307681e-07
-5.65149323992e-10
4.89944480371e-07
-3.60492865399e-09
4.66988360698e-07
-6.62660655642e-09
4.45242621292e-07
-9.65371649395e-09
4.24640446769e-07
-1.27038936714e-08
4.05112755793e-07
-1.57933292045e-08
3.86589876564e-07
-1.89564440101e-08
3.69004721371e-07
-2.2262132222e-08
3.52296683921e-07
-2.58212711056e-08
3.36416866281e-07
-2.97034345781e-08
3.21335785673e-07
-3.36461367047e-08
3.070492844e-07
-3.68212767632e-08
2.9356187444e-07
-3.88874601173e-08
2.80786620665e-07
-4.10738952788e-08
2.68536201139e-07
-4.75121794302e-08
2.54906737714e-07
-1.38414546532e-08
2.44071060035e-07
2.10664735237e-07
1.04337391572e-08
5.9336105628e-07
6.77139570884e-09
5.65248674537e-07
3.30412909281e-09
5.38617698247e-07
3.58612853885e-11
5.13355472916e-07
-3.04361631774e-09
4.8936828288e-07
-5.9442200809e-09
4.66572925494e-07
-8.66980296019e-09
4.44893761059e-07
-1.12340446141e-08
4.24261032975e-07
-1.36650854353e-08
4.04610470937e-07
-1.60176428674e-08
3.85884223002e-07
-1.83524379633e-08
3.68032988478e-07
-2.06657667302e-08
3.51018612607e-07
-2.27119273376e-08
3.34815297375e-07
-2.3860257418e-08
3.19404474357e-07
-2.35412698142e-08
3.04750549397e-07
-2.21762264407e-08
2.90705765585e-07
-2.10812125623e-08
2.76548582456e-07
-2.01452264037e-08
2.60204724826e-07
1.68879920651e-08
2.36303305264e-07
2.05806656363e-07