/*--------------------------------*- C++ -*----------------------------------*\
| =========                 |                                                 |
| \\      /  F ield         | OpenFOAM: The Open Source CFD Toolbox           |
|  \\    /   O peration     | Version:  2312                                  |
|   \\  /    A nd           | Website:  www.openfoam.com                      |
|    \\/     M anipulation  |                                                 |
\*---------------------------------------------------------------------------*/
FoamFile
{
    version     2.0;
    format      ascii;
    arch        "LSB;label=32;scalar=64";
    class       volScalarField;
    location    "0.92/heater";
    object      T;
}
// * * * * * * * * * * * * * * * * * * * * * * * * * * * * * * * * * * * * * //

dimensions      [0 0 0 1 0 0 0];

internalField   nonuniform List<scalar> 
150
(
789.414723047
789.306225165
789.085327219
788.74612617
788.286095107
789.524697692
789.419983952
789.206296543
788.875935074
788.428046388
789.613275913
789.511473393
789.303666046
788.980558974
788.537596778
789.674483117
789.574252071
789.370249601
789.052378056
788.611880882
789.709949047
789.60987146
789.407387825
789.091869207
788.648898642
789.729030361
789.627758875
789.424498737
789.108706722
788.659082093
789.740941394
789.637367073
789.431788811
789.115385898
788.657136482
789.761584112
789.655069317
789.446275494
789.130430104
788.669416548
789.80665274
789.696144135
789.481969036
789.166041951
788.713058025
789.881801373
789.766405947
789.543899509
789.22302509
788.777293974
789.977760219
789.856760372
789.623351422
789.293064737
788.854239626
790.087033942
789.96091312
789.716065166
789.372921775
788.94470433
790.207537004
790.078433142
789.82525438
789.468972842
789.063345143
790.331390874
790.201975739
789.946723621
789.584480674
789.181282227
790.44788101
790.319341462
790.065734021
789.706058565
789.309049467
790.547238879
790.419931168
790.169480023
789.817504461
789.435706209
790.62457415
790.498256751
790.249915443
789.90207282
789.528053645
790.680539796
790.554996256
790.308011953
789.961998334
789.590624843
790.721011561
790.596373347
790.35088666
790.006393957
789.635568285
790.750505543
790.626976595
790.383187838
790.039951263
789.668603995
790.770192581
790.648395518
790.4070553
790.064602547
789.691197745
790.775200657
790.655787844
790.417964542
790.076284863
789.698863748
790.762001233
790.644582334
790.409465895
790.066139695
789.677400296
790.73222324
790.616201542
790.382893714
790.036388528
789.629259328
790.691209846
790.576477397
790.345313958
789.996826358
789.563892107
790.644105639
790.530314008
790.301146043
789.953500931
789.497552065
790.593787415
790.480528158
790.252869908
789.907905044
789.435295989
790.538604301
790.425530281
790.198854081
789.857856509
789.386966213
790.481657394
790.369114393
790.143996348
789.808798354
789.353182165
790.431430536
790.320277793
790.097849956
789.76917463
789.330613267
)
;

boundaryField
{
    emptyPatch
    {
        type            empty;
    }
    minY
    {
        type            zeroGradient;
    }
    maxY
    {
        type            zeroGradient;
    }
    minX
    {
        type            zeroGradient;
    }
    heater_to_water
    {
        type            compressible::turbulentTemperatureTwoPhaseRadCoupledMixed;
        refValue        nonuniform List<scalar> 
60
(
341.647353084
390.374211738
390.371198802
401.501634211
401.499101871
402.127112556
402.125385912
403.438123833
399.137703019
392.346966021
392.346825303
388.005685177
388.005803085
368.443143788
368.442976203
342.067677898
328.613252534
322.012401207
322.011944115
319.734707605
319.734205799
320.809705986
320.809075479
331.199564328
416.682238918
518.887407397
518.886579111
537.242761076
537.241718882
550.443301844
550.442307279
554.958854747
561.321555307
563.22384525
563.22329056
566.513446507
566.513074914
558.35976743
558.359488778
554.146927136
543.241135591
552.8558191
552.855777669
560.711096152
560.711313809
570.21064324
570.21105641
573.980489351
581.174601064
574.572494239
574.57313665
514.555078197
514.556057519
377.983531679
377.984600664
333.956433328
320.912490399
315.723798746
315.723993471
317.756291441
)
;
        refGradient     uniform 0;
        valueFraction   nonuniform List<scalar> 
60
(
0.000745851119053
0.000695570287182
0.000695593686987
0.000691010604339
0.000691027984099
0.000693467664736
0.000693479482408
0.000691204752963
0.000693857491706
0.000693064174737
0.000693065239576
0.000693985653728
0.000693984715907
0.000718909918501
0.000718911698567
0.000746176598682
0.000736876976712
0.000719116507326
0.000719132006154
0.000713653271125
0.000713672218725
0.000719904496371
0.000719927269994
0.000744777318503
0.000657490345809
0.000589046040911
0.000589048279108
0.000589528489322
0.000589531088883
0.000588740244517
0.000588742590799
0.000589494069993
0.000588778925367
0.000589494825313
0.000589496071599
0.000588905945365
0.000588906769063
0.000589494734432
0.00058949537228
0.000588914103842
0.00058949243413
0.00058848786231
0.000588487959035
0.000589448595366
0.000589448101815
0.000588333977819
0.000588333075732
0.000589278396773
0.000588511003035
0.000589274909731
0.000589273527464
0.000602117221408
0.000602114463737
0.000713219960021
0.000713210082329
0.000744023360094
0.000710797338409
0.000685651147389
0.000685642125586
0.000697312242337
)
;
        source          uniform 0;
        value           nonuniform List<scalar> 
60
(
787.954896196
788.011246616
788.152202962
788.161718543
788.271126998
788.27061825
788.344847608
788.346634134
788.379683362
788.375285952
788.385485266
788.382107805
788.380401
788.356350862
788.369301285
788.338163168
788.376337517
788.379762365
788.443961101
788.44489324
788.52186268
788.519713236
788.610287689
788.606393031
788.819026698
788.904717649
789.021088162
789.031779857
789.159309933
789.167281581
789.293934701
789.296417581
789.39260813
789.393566148
789.456087683
789.45815886
789.503114074
789.498176554
789.531266789
789.528920404
789.545039167
789.550944867
789.558438064
789.562840852
789.541142705
789.546986579
789.498594432
789.500608258
789.439316477
789.435266833
789.369114525
789.330216218
789.269903218
789.14195636
789.095504829
789.050070128
789.022364138
789.030586059
789.008109941
789.004000016
)
;
        kappaMethod     solidThermo;
        Tnbr            T.liquid;
        region          solid;
        otherPhase      gas;
    }
    procBoundary0to1
    {
        type            processor;
        value           nonuniform List<scalar> 5(790.385941255 790.276527209 790.057090161 789.734808543 789.319155907);
    }
    procBoundary0to3
    {
        type            processor;
        value           nonuniform List<scalar> 5(789.291922935 789.178750055 788.949112868 788.598242202 788.116947261);
    }
}


// ************************************************************************* //
