/*--------------------------------*- C++ -*----------------------------------*\
| =========                 |                                                 |
| \\      /  F ield         | OpenFOAM: The Open Source CFD Toolbox           |
|  \\    /   O peration     | Version:  2312                                  |
|   \\  /    A nd           | Website:  www.openfoam.com                      |
|    \\/     M anipulation  |                                                 |
\*---------------------------------------------------------------------------*/
FoamFile
{
    version     2.0;
    format      ascii;
    arch        "LSB;label=32;scalar=64";
    class       volScalarField;
    location    "0.925/cooler";
    object      T;
}
// * * * * * * * * * * * * * * * * * * * * * * * * * * * * * * * * * * * * * //

dimensions      [0 0 0 1 0 0 0];

internalField   nonuniform List<scalar> 
187
(
300
300
300
300
300
300
300
300
300
300
300
300
300
300
300
300
300
300
300
300
300
300
300
300
300
300
300
300
300
300
300
300
300
300
300
300
300
300
300
300
300
300
300
300
300
300
300
300
300
300
300
300
300
300
300
300
300
300
300
300
300
300
300.000000001
300.000000001
300.000000001
300.000000001
300.000000001
300.000000001
300.000000001
300.000000001
300.000000001
300.000000001
300.000000003
300.000000003
300.000000003
300.000000003
300.000000003
300.000000005
300.000000006
300.000000006
300.000000006
300.000000006
300.000000012
300.000000012
300.000000012
300.000000012
300.000000012
300.000000025
300.000000026
300.000000026
300.000000027
300.000000027
300.000000054
300.000000055
300.000000056
300.000000057
300.000000057
300.000000114
300.000000117
300.00000012
300.000000121
300.000000122
300.000000239
300.000000245
300.00000025
300.000000253
300.000000254
300.000000489
300.000000501
300.00000051
300.000000516
300.000000519
300.000000974
300.000000997
300.000001012
300.000001021
300.000001025
300.000001896
300.000001929
300.000001944
300.000001949
300.000001951
300.000003653
300.000003636
300.000003597
300.000003561
300.000003541
300.000006748
300.00000649
300.00000626
300.000006097
300.000006014
300.000011207
300.000010475
300.000009898
300.000009512
300.00000932
300.000016068
300.000014838
300.000013911
300.000013298
300.000012996
300.000020163
300.000018661
300.000017533
300.000016785
300.000016413
300.000023092
300.000021542
300.000020362
300.000019569
300.00001917
300.000025096
300.00002358
300.000022408
300.000021612
300.000021211
300.000026495
300.00002499
300.000023826
300.000023037
300.000022639
300.000027419
300.000025875
300.000024706
300.000023925
300.000023534
300.000027763
300.000026209
300.000025096
300.000024368
300.000024005
300.000027692
300.000026355
300.000025333
300.000024646
300.000024301
300.00002802
300.000026696
300.000025679
300.000024996
300.000024654
300.000028852
300.000027342
300.000026267
300.000025567
300.000025219
)
;

boundaryField
{
    emptyPatch
    {
        type            empty;
    }
    minY
    {
        type            zeroGradient;
    }
    maxY
    {
        type            zeroGradient;
    }
    maxX
    {
        type            zeroGradient;
    }
    cooler_to_water
    {
        type            compressible::turbulentTemperatureTwoPhaseRadCoupledMixed;
        refValue        nonuniform List<scalar> 
38
(
300
300
300
300
300
300
300
300
300
300
300
300
300
300
300
300
300
300
300
300
300
300
300
300
300
300.000002009
300.000012086
300.000034362
300.000060281
300.000076461
300.00008076
300.000079902
300.000078851
300.000078275
300.000077557
300.000076862
300.000076408
300.000076353
)
;
        refGradient     uniform 0;
        valueFraction   nonuniform List<scalar> 
38
(
0.0163695515255
0.0163695515255
0.0163695515255
0.0163695515255
0.0163695515255
0.0163695515255
0.0163695515255
0.0163695515255
0.0163695515255
0.0163695515255
0.0163695515255
0.0163695515255
0.0163695515255
0.0163695515255
0.0163695515255
0.0163695515255
0.0163695515255
0.0163695515255
0.0163695515255
0.0163695515255
0.0163695515255
0.0163695515255
0.0163695515255
0.0163695515255
0.0163695515255
0.0163695515255
0.0189905447102
0.0168301515243
0.0165072692912
0.0164007914539
0.0163701912602
0.016498103443
0.0170258660753
0.0182789723406
0.0206091750501
0.0162934150199
0.0160348670008
0.0213154053693
)
;
        source          uniform 0;
        value           nonuniform List<scalar> 
38
(
300
300
300
300
300
300
300
300
300
300
300
300
300
300.000000001
300.000000001
300.000000003
300.000000005
300.000000012
300.000000025
300.000000053
300.000000112
300.000000235
300.000000481
300.000000958
300.000001865
300.000003626
300.000006849
300.000011596
300.000016796
300.000021084
300.000024033
300.000025997
300.000027384
300.000028346
300.000028784
300.00002849
300.000028793
300.000029859
)
;
        kappaMethod     solidThermo;
        Tnbr            T.liquid;
        region          solid;
        otherPhase      gas;
    }
    procBoundary0to1
    {
        type            processor;
        value           nonuniform List<scalar> 6(300 300 300 300 300 300);
    }
    procBoundary0to2
    {
        type            processor;
        value           nonuniform List<scalar> 5(300.000029832 300.000028283 300.00002715 300.000026417 300.000026056);
    }
}


// ************************************************************************* //
