/*--------------------------------*- C++ -*----------------------------------*\
| =========                 |                                                 |
| \\      /  F ield         | OpenFOAM: The Open Source CFD Toolbox           |
|  \\    /   O peration     | Version:  2312                                  |
|   \\  /    A nd           | Website:  www.openfoam.com                      |
|    \\/     M anipulation  |                                                 |
\*---------------------------------------------------------------------------*/
FoamFile
{
    version     2.0;
    format      ascii;
    arch        "LSB;label=32;scalar=64";
    class       surfaceScalarField;
    location    "0.855/water";
    object      phi;
}
// * * * * * * * * * * * * * * * * * * * * * * * * * * * * * * * * * * * * * //

dimensions      [0 3 -1 0 0 0 0];

oriented        oriented;

internalField   nonuniform List<scalar> 
11810
(
7.9731865581e-08
1.97845343592e-07
5.49182723282e-08
1.50180121526e-07
4.07242472614e-08
1.47871823666e-07
3.15522160184e-08
1.49802544404e-07
2.51172767998e-08
1.54059574359e-07
2.05699536516e-08
1.59470473118e-07
1.73283437386e-08
1.65819568981e-07
1.4914632951e-08
1.73024305623e-07
1.29198338855e-08
1.81034837991e-07
1.11248138123e-08
1.89681017492e-07
9.46886501694e-09
1.98824928403e-07
7.95277719344e-09
2.08426730799e-07
6.58613012796e-09
2.18500237157e-07
5.3725886594e-09
2.29075196419e-07
4.3071401763e-09
2.40185191847e-07
3.37752221416e-09
2.51863707961e-07
2.56669031393e-09
2.64142966359e-07
1.85534193381e-09
2.77054104071e-07
1.22341622685e-09
2.90628109031e-07
3.04898202509e-07
6.49424235354e-10
1.1485848572e-07
2.51767317551e-07
7.8925481633e-08
1.78385215878e-07
6.15351519411e-08
1.63693943107e-07
4.96201185759e-08
1.61475537304e-07
4.04947563585e-08
1.63148836624e-07
3.3531678026e-08
1.66428427604e-07
2.81647841024e-08
1.71185672487e-07
2.40241968208e-08
1.77164793548e-07
2.08534085984e-08
1.8420561186e-07
1.828744775e-08
1.9224699032e-07
1.60345040886e-08
2.01077869209e-07
1.39478132019e-08
2.1051343105e-07
1.19772858895e-08
2.20470761956e-07
1.01176110378e-08
2.30934878495e-07
8.37789209029e-09
2.41924908248e-07
6.76642933951e-09
2.53475176274e-07
5.28402777757e-09
2.65625365637e-07
3.92231278089e-09
2.78415823274e-07
2.66395549468e-09
2.91886464223e-07
3.06079166241e-07
1.48299537143e-09
1.16727483548e-07
2.97773091741e-07
7.52779608112e-08
2.09962702649e-07
5.59196151784e-08
1.80962620439e-07
4.48177422687e-08
1.72204755869e-07
3.71348761679e-08
1.70767968798e-07
3.15806426758e-08
1.71970991085e-07
2.7627490827e-08
1.75136423268e-07
2.45614945956e-08
1.80230320346e-07
2.20045034677e-08
1.86762522369e-07
1.98101302357e-08
1.94441372959e-07
1.78244607668e-08
2.03063533796e-07
1.59337398697e-08
2.124041623e-07
1.40762428582e-08
2.22328255403e-07
1.22310013398e-08
2.32780128046e-07
1.04024228804e-08
2.43753484006e-07
8.60630963844e-09
2.55271295586e-07
6.85892872634e-09
2.67372744365e-07
5.17003258814e-09
2.80104723938e-07
3.53911996211e-09
2.93517374744e-07
3.07663907067e-07
1.95438306214e-09
1.3803932897e-07
3.1680338283e-07
9.0720332653e-08
2.43479056753e-07
6.46008785621e-08
2.03683465372e-07
4.84209813511e-08
1.87700136197e-07
3.75473615222e-08
1.81515120677e-07
3.0057521915e-08
1.794356058e-07
2.52647447491e-08
1.79923303164e-07
2.23231498166e-08
1.83170528871e-07
2.02516516671e-08
1.88833748448e-07
1.85492026215e-08
1.96143812787e-07
1.69885824916e-08
2.04624151261e-07
1.54592076494e-08
2.13933549717e-07
1.39059181597e-08
2.23881542831e-07
1.23030160507e-08
2.34383039239e-07
1.06451810805e-08
2.45411316765e-07
8.94114950372e-09
2.56975333876e-07
7.20653981659e-09
2.69107351979e-07
5.45695232222e-09
2.81854316158e-07
3.70252561131e-09
2.95271799397e-07
3.09421203766e-07
1.94523293842e-09
1.49744856372e-07
3.20905044703e-07
1.08111528186e-07
2.68560846891e-07
7.7849854728e-08
2.28963438423e-07
5.67305709281e-08
2.07602981579e-07
4.15223801926e-08
1.96461367236e-07
3.08454445575e-08
1.90055171201e-07
2.39607917911e-08
1.86793608236e-07
2.0141883581e-08
1.86985769164e-07
1.8029970361e-08
1.90944860948e-07
1.65643445656e-08
1.97609352671e-07
1.52853498344e-08
2.05903135113e-07
1.40246246687e-08
2.15194288081e-07
1.27196655277e-08
2.25186497038e-07
1.13423567713e-08
2.35760357854e-07
9.88094455104e-09
2.46872725528e-07
8.33559003484e-09
2.58520695647e-07
6.71498150879e-09
2.70727957914e-07
5.03205094723e-09
2.83537252007e-07
3.29933701624e-09
2.97004510858e-07
3.11194583197e-07
1.52596213122e-09
1.56427421513e-07
3.16862921861e-07
1.24008472341e-07
2.83254282598e-07
9.44120283517e-08
2.52383492102e-07
7.05932442684e-08
2.29617628018e-07
5.1228016818e-08
2.15358407444e-07
3.61445503976e-08
2.05018141597e-07
2.5545906252e-08
1.97358160433e-07
1.93597119544e-08
1.93162279472e-07
1.63656438686e-08
1.93936646679e-07
1.47682535603e-08
1.99206417751e-07
1.35707182393e-08
2.071006452e-07
1.243400739e-08
2.16331015363e-07
1.12622905586e-08
2.26358211272e-07
1.00207052182e-08
2.37001954765e-07
8.69324821337e-09
2.48200179855e-07
7.27440255924e-09
2.59939549646e-07
5.76668914945e-09
2.7223566892e-07
4.17845281605e-09
2.85125494111e-07
2.52070834006e-09
2.98662253016e-07
3.12910690564e-07
8.04605836587e-10
1.54526888331e-07
3.15299360069e-07
1.29706004245e-07
2.90748316813e-07
1.06448149602e-07
2.69047693912e-07
8.38361932463e-08
2.50029775447e-07
6.33863231224e-08
2.35137816677e-07
4.51985114149e-08
2.22999071129e-07
3.05469331313e-08
2.11939255081e-07
2.07147163725e-08
2.02970352918e-07
1.56828980694e-08
1.98961765369e-07
1.34416957903e-08
2.01446448056e-07
1.2114746081e-08
2.08427485774e-07
1.09669935506e-08
2.17478783956e-07
9.81726528809e-09
2.27507934642e-07
8.61631396655e-09
2.38202919044e-07
7.34433806563e-09
2.49472152141e-07
5.99281671921e-09
2.61291080287e-07
4.56050995235e-09
2.73667972949e-07
3.05199502835e-09
2.8663401572e-07
1.47576735175e-09
3.00238478038e-07
3.14544441837e-07
-1.57978232399e-10
1.51558426715e-07
3.17904518772e-07
1.30395281559e-07
2.95493158305e-07
1.12870547315e-07
2.80202367808e-07
9.40844808963e-08
2.66531581178e-07
7.48971253629e-08
2.53541691359e-07
5.58960370075e-08
2.41715512262e-07
3.83629969827e-08
2.29354001736e-07
2.45478810872e-08
2.16734600314e-07
1.62546872095e-08
2.07236997847e-07
1.25694892739e-08
2.0512760892e-07
1.08474097825e-08
2.10149108046e-07
9.56718924342e-09
2.18759010027e-07
8.34338044323e-09
2.28731741468e-07
7.10230380245e-09
2.39444010577e-07
5.82040721681e-09
2.50754045977e-07
4.48699581358e-09
2.62624502149e-07
3.0979597749e-09
2.75057006386e-07
1.65428641434e-09
2.88077696245e-07
1.6053831431e-10
3.01732223597e-07
3.16079930199e-07
-1.37494401994e-09
1.52859386772e-07
3.19417551e-07
1.34808535187e-07
2.97345962626e-07
1.20345306914e-07
2.88308475964e-07
1.04362746124e-07
2.80169305278e-07
8.60356588838e-08
2.71010926942e-07
6.70241498322e-08
2.60380551654e-07
4.80471185129e-08
2.4816335462e-07
3.09664627342e-08
2.33727356727e-07
1.86207457419e-08
2.19542962758e-07
1.22577507272e-08
2.11478651012e-07
9.56918727783e-09
2.12835820978e-07
7.9691965013e-09
2.20358920359e-07
6.57445672479e-09
2.30126473816e-07
5.23266131226e-09
2.40785821958e-07
3.90612953907e-09
2.52080572776e-07
2.57668629193e-09
2.63953956596e-07
1.23362830413e-09
2.76400060723e-07
-1.28890432359e-10
2.89440223005e-07
-1.51117302183e-09
3.0311450292e-07
3.1748001501e-07
-2.91125091834e-09
1.53566138959e-07
3.20255543442e-07
1.3821766065e-07
2.96528103489e-07
1.26089914601e-07
2.94023618637e-07
1.11720962806e-07
2.92127378389e-07
9.41252707625e-08
2.87689818764e-07
7.51394498984e-08
2.78971808722e-07
5.60458014881e-08
2.67046430056e-07
3.7540031023e-08
2.52106103798e-07
2.18470192812e-08
2.35165734764e-07
1.19810643219e-08
2.21316734977e-07
7.58923440861e-09
2.17221629009e-07
5.50013012099e-09
2.2244754617e-07
3.93051938515e-09
2.31696071042e-07
2.52514817468e-09
2.42191211801e-07
1.21214165275e-09
2.5339357538e-07
-4.23214370519e-11
2.65208432421e-07
-1.26037566397e-09
2.77618111441e-07
-2.45812596937e-09
2.90637981987e-07
-3.64800180572e-09
3.04304375605e-07
3.18669347722e-07
-4.83732717675e-09
1.54261300421e-07
3.2068984346e-07
1.39634650668e-07
2.95319016779e-07
1.27833291355e-07
2.99498321347e-07
1.1354072359e-07
3.04001639645e-07
9.59531868714e-08
3.04331015354e-07
7.68523092141e-08
2.97647660775e-07
5.8317198578e-08
2.85340527593e-07
4.01901014592e-08
2.70074283807e-07
2.31581383167e-08
2.52096157611e-07
1.0264122003e-08
2.34160005244e-07
3.68525115499e-09
2.2378543461e-07
1.09091913698e-09
2.2504003889e-07
-4.09864021526e-10
2.3319678289e-07
-1.62677495778e-09
2.43408142889e-07
-2.69025339002e-09
2.54457048522e-07
-3.65547985725e-09
2.66173672724e-07
-4.55990144422e-09
2.78522528874e-07
-5.43131933127e-09
2.91509409653e-07
-6.29093704497e-09
3.05163989594e-07
3.19532516045e-07
-7.15409697634e-09
1.5252413876e-07
3.23161603054e-07
1.34330248641e-07
2.98437067829e-07
1.21078392494e-07
3.06741572364e-07
1.06335266187e-07
3.16420362762e-07
8.90892475263e-08
3.20647882365e-07
7.10197655291e-08
3.15284203052e-07
5.36739340507e-08
3.02428800956e-07
3.68234949652e-08
2.86743656485e-07
2.01462888473e-08
2.68645115597e-07
5.66448923919e-09
2.48565241061e-07
-2.99860176634e-09
2.3241872077e-07
-6.02146928709e-09
2.28057617731e-07
-6.93517982979e-09
2.34110190905e-07
-7.47264532287e-09
2.43945628169e-07
-7.88559112865e-09
2.54869990315e-07
-8.23686194234e-09
2.66524958955e-07
-8.56736941527e-09
2.7885303246e-07
-8.90739977032e-09
2.91849450461e-07
-9.27938140677e-09
3.05535967701e-07
3.19952098669e-07
-9.69895519396e-09
1.46660506228e-07
3.31720371947e-07
1.21857356625e-07
3.09211657975e-07
1.05441730737e-07
3.17784569197e-07
9.02494290684e-08
3.29553814426e-07
7.47794295545e-08
3.35273430607e-07
5.95033249286e-08
3.30145222048e-07
4.44148690286e-08
3.17254445751e-07
2.9554021169e-08
3.01407478305e-07
1.42302589638e-08
2.83817077855e-07
-5.49716222888e-10
2.63241067167e-07
-1.1093896338e-08
2.4291194059e-07
-1.49515194262e-08
2.31902440122e-07
-1.49506749936e-08
2.34108168428e-07
-1.42811804501e-08
2.4327613091e-07
-1.36512162391e-08
2.54240020763e-07
-1.31089309599e-08
2.65982690234e-07
-1.26713319589e-08
2.78415428894e-07
-1.23516402063e-08
2.91529770271e-07
-1.21580593735e-08
3.05342382719e-07
3.19887830598e-07
-1.20937813865e-08
1.39833327586e-07
3.47267946518e-07
1.08055570463e-07
3.27300086978e-07
8.78755879208e-08
3.32974709237e-07
7.29622287438e-08
3.42635014261e-07
6.09139145907e-08
3.46564597344e-07
4.97019138353e-08
3.40962751695e-07
3.77535167883e-08
3.28934874259e-07
2.51287830566e-08
3.13818468195e-07
1.1701891044e-08
2.97067172014e-07
-2.61857187903e-09
2.7742580462e-07
-1.52638185854e-08
2.55475680338e-07
-2.17209059185e-08
2.38330765454e-07
-2.18408099229e-08
2.34223764528e-07
-2.00151170029e-08
2.41450264019e-07
-1.83098405776e-08
2.52534738995e-07
-1.69072124785e-08
2.64580080576e-07
-1.57773624965e-08
2.77285574699e-07
-1.48988301205e-08
2.90651250195e-07
-1.4253501832e-08
3.04697050492e-07
3.19457281038e-07
-1.38229419047e-08
1.32797153047e-07
3.69579565815e-07
9.8413324908e-08
3.46710575364e-07
7.85408683543e-08
3.47547199922e-07
6.62743441343e-08
3.5303497843e-07
5.80763037479e-08
3.54005079223e-07
5.06469935222e-08
3.47989330739e-07
4.18669786557e-08
3.37431194854e-07
3.13298563403e-08
3.24120314795e-07
1.949266181e-08
3.08700142661e-07
5.84218075644e-09
2.90905411195e-07
-8.8602076465e-09
2.700550742e-07
-2.02279799961e-08
2.49638094893e-07
-2.36237321974e-08
2.37604734333e-07
-2.2057268058e-08
2.39882520145e-07
-1.99160325361e-08
2.50393469551e-07
-1.81621759501e-08
2.62826244219e-07
-1.67853924923e-08
2.75908786647e-07
-1.5736138072e-08
2.89602009408e-07
-1.49745210392e-08
3.03935428966e-07
3.18947244453e-07
-1.44644729062e-08
1.41609931658e-07
3.84519953113e-07
1.11738466666e-07
3.59891244581e-07
9.39613344944e-08
3.59109922392e-07
8.24467848959e-08
3.6230518262e-07
7.43073135853e-08
3.61254543377e-07
6.72692034754e-08
3.54576398896e-07
5.96228891559e-08
3.44769687754e-07
5.04260212594e-08
3.33062209992e-07
3.91861474595e-08
3.19713085195e-07
2.55608624379e-08
3.04328864055e-07
9.32988023704e-09
2.86118975042e-07
-7.18461924563e-09
2.66043420089e-07
-1.7281800071e-08
2.47660029202e-07
-1.88408643825e-08
2.41435026181e-07
-1.75436697258e-08
2.49095967368e-07
-1.62672860659e-08
2.61549881093e-07
-1.5304978671e-08
2.74946475351e-07
-1.46251890228e-08
2.88922234377e-07
-1.4189197562e-08
3.03499433269e-07
3.18717467665e-07
-1.39594087114e-08
1.51484864751e-07
3.88008233065e-07
1.27807691163e-07
3.65826925179e-07
1.13543084805e-07
3.66496568097e-07
1.03534358157e-07
3.6975797709e-07
9.54328932698e-08
3.68356161273e-07
8.79635636278e-08
3.61565752932e-07
8.01298791687e-08
3.52291626839e-07
7.12568618649e-08
3.41681077622e-07
6.06909720794e-08
3.30047994955e-07
4.74329896663e-08
3.17369644647e-07
3.10797256968e-08
3.02272218271e-07
1.23768010922e-08
2.84585939855e-07
-3.91518203824e-09
2.63863744451e-07
-1.11031537817e-08
2.48600034846e-07
-1.21012482272e-08
2.50092092207e-07
-1.20333632775e-08
2.61481982636e-07
-1.20308249003e-08
2.74943932912e-07
-1.21571801709e-08
2.89048605875e-07
-1.23977763907e-08
3.0374002465e-07
3.1904771431e-07
-1.27280097391e-08
1.52274522928e-07
3.92140283051e-07
1.3177498533e-07
3.68949989214e-07
1.20752245876e-07
3.70705394136e-07
1.13712941796e-07
3.74187494906e-07
1.07725864354e-07
3.7328933379e-07
1.0141428644e-07
3.67368848517e-07
9.41366298247e-08
3.59246465503e-07
8.56416137352e-08
3.49919746736e-07
7.56452511062e-08
3.39814882012e-07
6.31610958987e-08
3.29632369495e-07
4.76340078426e-08
3.17581019889e-07
2.95331885908e-08
3.02488392879e-07
1.10936437915e-08
2.82165204761e-07
-1.31444870076e-09
2.60954381137e-07
-5.63891459934e-09
2.54408751012e-07
-7.21139564117e-09
2.63054200079e-07
-8.41221847639e-09
2.76144750925e-07
-9.52109510547e-09
2.90157499993e-07
-1.05674047243e-08
3.04786329691e-07
3.2002986984e-07
-1.15495464347e-08
1.52183002599e-07
3.95309139915e-07
1.3444146181e-07
3.69694901712e-07
1.24319578825e-07
3.74259006389e-07
1.18347607874e-07
3.77686084811e-07
1.13729555159e-07
3.7691321335e-07
1.0862480063e-07
3.71992304536e-07
1.02337167255e-07
3.65227591354e-07
9.4559819831e-08
3.57454273045e-07
8.42580790991e-08
3.49899152581e-07
7.14126301689e-08
3.42263068595e-07
5.64434322722e-08
3.32327421099e-07
3.94635511088e-08
3.1924960684e-07
2.16618935335e-08
2.9979341904e-07
6.89203580089e-09
2.75636139303e-07
-5.37166537373e-10
2.61818352016e-07
-3.79616640253e-09
2.66311990132e-07
-6.12196722193e-09
2.78470533145e-07
-8.09730740371e-09
2.9213285937e-07
-9.81928135314e-09
3.06508298512e-07
3.21531339822e-07
-1.13207363062e-08
1.50635054341e-07
4.01372436436e-07
1.33145512143e-07
3.70459544643e-07
1.23920732148e-07
3.77090337182e-07
1.18900070323e-07
3.80344638203e-07
1.15537188448e-07
3.79334570918e-07
1.11792994434e-07
3.75278152098e-07
1.06633263583e-07
3.70096094536e-07
9.87710489519e-08
3.6508993549e-07
8.6524834471e-08
3.61941015972e-07
7.23426793095e-08
3.56235968297e-07
5.74620695373e-08
3.46989354813e-07
4.10206989083e-08
3.3546790289e-07
2.41101896432e-08
3.16513128597e-07
9.41652484096e-09
2.90216785683e-07
5.23046186269e-10
2.70678188316e-07
-3.77465192649e-09
2.70606565818e-07
-6.72825716586e-09
2.81424074167e-07
-9.12830243276e-09
2.94532924935e-07
-1.11307845387e-08
3.08510775904e-07
3.23202163299e-07
-1.28015924689e-08
1.47326687405e-07
4.09837962407e-07
1.28901843714e-07
3.72627586248e-07
1.21312735341e-07
3.78614985714e-07
1.17967145036e-07
3.81512296185e-07
1.15788633108e-07
3.8067221071e-07
1.13015607493e-07
3.77649117282e-07
1.08269395166e-07
3.74588023874e-07
9.81512891535e-08
3.75006661301e-07
8.44600743675e-08
3.75429911986e-07
6.9317459455e-08
3.71176318768e-07
5.37100730353e-08
3.62386673594e-07
3.68686660013e-08
3.52088660323e-07
1.96583610888e-08
3.33525247456e-07
5.10393093728e-09
3.04644095169e-07
-4.02192897427e-09
2.7975916539e-07
-8.33597598774e-09
2.7491510779e-07
-1.11072566145e-08
2.84195203038e-07
-1.32680736653e-08
2.96693763331e-07
-1.4987135025e-08
3.10229832294e-07
3.24561556869e-07
-1.63465119226e-08
1.45946682331e-07
4.21114758664e-07
1.25885932341e-07
3.76835721235e-07
1.1961535076e-07
3.79026849302e-07
1.17726783477e-07
3.81310463481e-07
1.15942283206e-07
3.81659412694e-07
1.12595276469e-07
3.80623209842e-07
1.05697408267e-07
3.81254420542e-07
9.37333046426e-08
3.86768458296e-07
8.02829756004e-08
3.88688948143e-07
6.55422025732e-08
3.85717181124e-07
4.93382143726e-08
3.78382577673e-07
3.06638117196e-08
3.70547893693e-07
1.19469075633e-08
3.52038436481e-07
-3.86404907108e-09
3.20317753641e-07
-1.36076739528e-08
2.89448754538e-07
-1.73241776236e-08
2.78623520601e-07
-1.90618554327e-08
2.85932599996e-07
-2.0293063349e-08
2.97924992633e-07
-2.11625795261e-08
3.11099344053e-07
3.25139892608e-07
-2.17408981833e-08
1.43209435896e-07
4.34730009757e-07
1.22998696756e-07
3.82200315376e-07
1.17330913382e-07
3.79379121178e-07
1.15849561527e-07
3.80911304015e-07
1.13394732461e-07
3.83399338612e-07
1.08291995228e-07
3.85393027885e-07
9.90004240429e-08
3.90330652141e-07
8.79134926368e-08
3.97670349444e-07
7.59252596864e-08
4.0048718983e-07
6.27330243832e-08
3.98715289811e-07
4.6374922392e-08
3.94543503752e-07
2.51970611213e-08
3.91498057511e-07
4.8012822886e-09
3.7222101563e-07
-1.36529054916e-08
3.38620808763e-07
-2.57185419698e-08
3.01448148266e-07
-2.92270672084e-08
2.82120025994e-07
-2.93605428247e-08
2.86065540967e-07
-2.91301349289e-08
2.97694605455e-07
-2.8748036992e-08
3.1071724173e-07
3.24623871688e-07
-2.82319978254e-08
1.46102006118e-07
4.4563056089e-07
1.27245018423e-07
3.86155057746e-07
1.19342361541e-07
3.82001110706e-07
1.14476518218e-07
3.83971576477e-07
1.08603474162e-07
3.88602562092e-07
1.0085453445e-07
3.92830627455e-07
9.13595212216e-08
3.99621754245e-07
8.17258512231e-08
4.07114888444e-07
7.17230064374e-08
4.10304998288e-07
5.9956568421e-08
4.10294806051e-07
4.24974193802e-08
4.11784845713e-07
2.55850113526e-08
4.08161998121e-07
4.33373865508e-09
3.93237015079e-07
-1.80836261706e-08
3.60859343213e-07
-3.53948425861e-08
3.18668777027e-07
-4.09263180887e-08
2.87630672935e-07
-3.98279622546e-08
2.84965897225e-07
-3.80630180319e-08
2.95929673691e-07
-3.63797882654e-08
3.09034008287e-07
3.22987707715e-07
-3.47436055611e-08
1.51638890862e-07
4.49424145668e-07
1.34047043039e-07
3.87832361314e-07
1.22854279957e-07
3.87499686246e-07
1.12495688699e-07
3.92416118788e-07
1.01736509444e-07
3.9866820803e-07
9.0811018947e-08
4.03440268992e-07
8.08893366554e-08
4.09332511573e-07
7.14775620528e-08
4.16344023164e-07
6.08738155961e-08
4.20732386363e-07
4.70062658733e-08
4.23960831511e-07
3.40106656865e-08
4.24542482006e-07
2.46731809768e-08
4.17253416997e-07
9.75130426293e-09
4.07901394177e-07
-1.45241909098e-08
3.84913619658e-07
-3.78837520207e-08
3.41892429827e-07
-4.8844187108e-08
2.98549466461e-07
-4.82183564917e-08
2.84336245104e-07
-4.54366783853e-08
2.9314795897e-07
-4.27888163129e-08
3.06386142543e-07
3.20496661073e-07
-4.02977495674e-08
1.59226101728e-07
4.44945785573e-07
1.40792132638e-07
3.89641869433e-07
1.2487471093e-07
3.9727577712e-07
1.07813258323e-07
4.07365421458e-07
9.1013855818e-08
4.14718300878e-07
7.56848806503e-08
4.18441725745e-07
6.23145827483e-08
4.22497355359e-07
4.9851010473e-08
4.28628609577e-07
3.71373884363e-08
4.33252812028e-07
2.5893853094e-08
4.3498232549e-07
2.02573160393e-08
4.29948260772e-07
1.46938923213e-08
4.2257578446e-07
7.91620775985e-09
4.14424262652e-07
-9.33143316957e-09
4.01901098436e-07
-3.35851901311e-08
3.65949397655e-07
-5.10643003228e-08
3.15946746774e-07
-5.34471907635e-08
2.86707583612e-07
-5.05203746202e-08
2.90220824797e-07
-4.73967614052e-08
3.03262525165e-07
3.17527444106e-07
-4.44275235288e-08
1.62108299187e-07
4.37496866661e-07
1.39786979896e-07
3.95699529915e-07
1.17761042585e-07
4.13015726331e-07
9.1934378811e-08
4.30992333773e-07
6.74535591931e-08
4.38434050616e-07
4.75207105611e-08
4.38048246228e-07
3.02735182651e-08
4.39533113944e-07
1.56033402041e-08
4.43102194068e-07
5.40893559732e-09
4.43238679384e-07
2.27268131924e-09
4.37900982452e-07
1.62455375949e-09
4.30372393613e-07
2.7423541668e-10
4.2368942403e-07
-3.66934398222e-09
4.18121281766e-07
-1.10348294925e-08
4.09003002033e-07
-2.89991006166e-08
3.83674187509e-07
-4.86029063231e-08
3.3541449256e-07
-5.57579910589e-08
2.93832652516e-07
-5.36418733031e-08
2.88103108393e-07
-5.03989130519e-08
3.00019546565e-07
3.14354249968e-07
-4.72256962886e-08
1.57609196898e-07
4.34204765568e-07
1.27430818014e-07
4.10558654705e-07
9.49747607799e-08
4.39777424249e-07
5.65931648417e-08
4.67420526477e-07
2.41416976123e-08
4.70223464957e-07
2.26995094832e-09
4.59628900861e-07
-1.33942782124e-08
4.54985985659e-07
-2.30719375015e-08
4.52576703642e-07
-2.59288127872e-08
4.45891175939e-07
-2.41524541678e-08
4.3592009302e-07
-2.01995595266e-08
4.26210409014e-07
-1.6931171751e-08
4.20198255151e-07
-1.66862539927e-08
4.1763123422e-07
-1.95253532228e-08
4.11586424752e-07
-2.84735381225e-08
3.92362808645e-07
-4.46028225989e-08
3.51359788531e-07
-5.58825001949e-08
3.05050675908e-07
-5.55077122203e-08
2.87722421766e-07
-5.22997023627e-08
2.96811420312e-07
3.11070915457e-07
-4.90163438918e-08
1.56028756261e-07
4.31793776747e-07
1.16026706328e-07
4.35430760325e-07
6.92091978841e-08
4.81367268168e-07
1.82289014775e-08
5.16780988533e-07
-1.88642558889e-08
5.0680549856e-07
-3.86999807823e-08
4.7921222413e-07
-4.82800823378e-08
4.64359016098e-07
-5.07663562082e-08
4.54862516449e-07
-4.85677619344e-08
4.43496329496e-07
-4.36295180927e-08
4.30792072586e-07
-3.89572153107e-08
4.21349283263e-07
-3.41439293481e-08
4.15180501674e-07
-2.96012924293e-08
4.12857169429e-07
-2.80143856729e-08
4.09744692706e-07
-3.06695730268e-08
3.94760695465e-07
-4.18084912101e-08
3.62285971272e-07
-5.45490428408e-08
3.17690919816e-07
-5.65120587712e-08
2.89669315282e-07
-5.34025009085e-08
2.93701277059e-07
3.07646393025e-07
-4.99779555003e-08
1.51076945037e-07
4.34644854335e-07
1.04032151177e-07
4.67464412221e-07
5.06998612643e-08
5.29760335919e-07
-3.09119611645e-09
5.69211708092e-07
-3.86672681112e-08
5.41964668291e-07
-5.48980121756e-08
4.95205471318e-07
-5.94504410302e-08
4.68705897877e-07
-5.76918011732e-08
4.52908217466e-07
-5.29014054343e-08
4.38520492096e-07
-4.79861522766e-08
4.25703362907e-07
-4.50882523542e-08
4.18279206769e-07
-4.20018503184e-08
4.11907639623e-07
-3.6631724197e-08
4.07274670527e-07
-3.1469109604e-08
4.04344115821e-07
-3.12747461332e-08
3.94317820912e-07
-3.91260978381e-08
3.69910226569e-07
-5.15995657009e-08
3.30027394669e-07
-5.62169842118e-08
2.94252787965e-07
-5.3484905533e-08
2.90967088478e-07
3.04090222116e-07
-4.99287307103e-08
1.40182002065e-07
4.49966707686e-07
9.1075566658e-08
5.0186896652e-07
4.53872740728e-08
5.70645597793e-07
-9.96304529903e-11
6.13365141667e-07
-2.88077189388e-08
5.70243351632e-07
-4.20116490151e-08
5.08156271352e-07
-4.48046784514e-08
4.71287552522e-07
-4.22215262301e-08
4.50131479264e-07
-3.80332429599e-08
4.34155058166e-07
-3.51857295585e-08
4.22693988312e-07
-3.46771047883e-08
4.17609009712e-07
-3.43576426715e-08
4.11414370954e-07
-3.15412505292e-08
4.04264732443e-07
-2.71959196743e-08
3.99781720441e-07
-2.66063816914e-08
3.93492270872e-07
-3.36134697827e-08
3.7668450887e-07
-4.60132150581e-08
3.42257725754e-07
-5.35625197017e-08
3.01742703169e-07
-5.19178152857e-08
2.89316460598e-07
3.00594641437e-07
-4.84223204296e-08
1.24792771262e-07
4.83791142321e-07
7.57189379319e-08
5.36878545136e-07
4.5970233841e-08
5.95689269053e-07
1.67543991115e-08
6.41121188025e-07
1.01492800894e-10
5.86373358502e-07
-9.02657132033e-09
5.16986693136e-07
-1.16784068091e-08
4.73711799156e-07
-1.05152269695e-08
4.48771729141e-07
-8.71274128365e-09
4.32179610468e-07
-8.6977018914e-09
4.22524028751e-07
-1.07097142122e-08
4.19465914433e-07
-1.32276303188e-08
4.13766768004e-07
-1.4126288421e-08
4.04982918711e-07
-1.32850825966e-08
3.98740273009e-07
-1.47011034619e-08
3.94684146339e-07
-2.37880096172e-08
3.85534056015e-07
-3.69698948237e-08
3.55239749586e-07
-4.74322792504e-08
3.12113139612e-07
-4.79653126063e-08
2.89835550982e-07
2.97618194776e-07
-4.49892922056e-08
1.05213846527e-07
5.39627777142e-07
5.84548315585e-08
5.71503140067e-07
4.27270610295e-08
6.07441413474e-07
3.5172804437e-08
6.47244641373e-07
3.36453578952e-08
5.87291364432e-07
3.05608090289e-08
5.19725790453e-07
2.87029549913e-08
4.75324160929e-07
2.82204642256e-08
4.49053547982e-07
2.73824269798e-08
4.32847188338e-07
2.45579805968e-08
4.2519770084e-07
1.99958744619e-08
4.23876620862e-07
1.47659001265e-08
4.1883623889e-07
1.03260415942e-08
4.09250386721e-07
7.16185411374e-09
4.01716096509e-07
2.1878613138e-09
3.99441813047e-07
-8.99144249057e-09
3.96463724295e-07
-2.34853611695e-08
3.69504446104e-07
-3.68835436085e-08
3.25382271372e-07
-4.10025838344e-08
2.93926287003e-07
2.96014502146e-07
-3.94003947135e-08
7.63111680511e-08
6.23956258007e-07
4.79377750662e-08
5.89229744447e-07
4.44585199464e-08
6.07085916365e-07
5.75793716436e-08
6.32546364344e-07
6.73679845678e-08
5.7674801145e-07
6.94047167062e-08
5.17271467051e-07
6.85735571802e-08
4.75879141206e-07
6.67631575886e-08
4.50652109992e-07
6.36930437346e-08
4.35744794018e-07
5.83430279011e-08
4.30397628732e-07
5.14584282468e-08
4.30610567079e-07
4.37438309192e-08
4.26392238571e-07
3.61166031518e-08
4.16709347379e-07
2.88358128893e-08
4.0881541019e-07
1.94015126543e-08
4.08662209454e-07
8.10234181448e-09
4.0750074144e-07
-7.32968434508e-09
3.8468249228e-07
-2.30465363149e-08
3.40932479232e-07
-3.14191168333e-08
3.02248747521e-07
2.9672161823e-07
-3.21304886447e-08
1.16406850965e-07
6.61300306277e-07
7.72422114089e-08
6.15551348808e-07
6.93150372804e-08
6.10538314788e-07
8.65251711384e-08
6.13460827861e-07
9.9796044005e-08
5.62570841734e-07
1.04345486915e-07
5.12239441376e-07
1.04077253686e-07
4.75845688189e-07
1.0135177258e-07
4.53157339846e-07
9.63768335733e-08
4.40547123763e-07
8.86446088713e-08
4.37980091863e-07
7.97151173163e-08
4.39388791244e-07
7.00568347228e-08
4.35892442616e-07
5.97769670758e-08
4.26822803925e-07
4.89493631101e-08
4.19463607672e-07
3.53292151592e-08
4.22061224219e-07
2.29016731119e-08
4.19669365528e-07
7.26880442986e-09
4.00053543321e-07
-9.32319855372e-09
3.57328296524e-07
-2.10585837608e-08
3.13907970565e-07
3.00156150018e-07
-2.45027444222e-08
1.14444177891e-07
7.00856647633e-07
7.86318384759e-08
6.37564425404e-07
7.96406785394e-08
6.04485923059e-07
1.05224120561e-07
5.85695691725e-07
1.22489117911e-07
5.44276279843e-07
1.30264798281e-07
5.03937113267e-07
1.3162340542e-07
4.74171707885e-07
1.28933583797e-07
4.55626635025e-07
1.22577193801e-07
4.46734940205e-07
1.1295825723e-07
4.47449931307e-07
1.0249026452e-07
4.49704820964e-07
9.1568873649e-08
4.466554431e-07
7.96227278138e-08
4.38603280506e-07
6.63246524325e-08
4.32581934868e-07
4.99624521123e-08
4.38201563661e-07
3.48900501469e-08
4.34486051679e-07
1.83734858381e-08
4.16299642892e-07
1.47595425434e-09
3.74009190298e-07
-1.22078712633e-08
3.27491057105e-07
3.06040215892e-07
-1.81095444086e-08
1.13136411073e-07
7.39961877781e-07
8.4312183683e-08
6.5140683654e-07
9.37251126427e-08
5.89264850916e-07
1.1938730737e-07
5.57523419087e-07
1.38643276785e-07
5.23889530961e-07
1.48925428356e-07
4.9310458803e-07
1.51790074942e-07
4.7099261455e-07
1.49154993257e-07
4.58049918241e-07
1.41531017172e-07
4.54198114917e-07
1.30689437197e-07
4.58143779042e-07
1.19410256347e-07
4.60830822628e-07
1.07749774639e-07
4.58156369832e-07
9.49191690938e-08
4.51268683272e-07
7.97929559837e-08
4.47527457106e-07
6.17443967467e-08
4.56017618947e-07
4.44091677307e-08
4.51562870951e-07
2.63864339863e-08
4.34054838035e-07
8.49662111255e-09
3.91673510925e-07
-6.48475510057e-09
3.42352835807e-07
3.13754252101e-07
-1.42259002673e-08
1.20432573682e-07
7.73187007143e-07
1.00968256371e-07
6.55537249015e-07
1.11112167413e-07
5.73124393313e-07
1.33612746302e-07
5.32449101113e-07
1.52598382441e-07
5.03755399448e-07
1.63393368318e-07
4.81761775498e-07
1.66506908146e-07
4.6757573642e-07
1.63371089196e-07
4.60986890312e-07
1.54366551099e-07
4.63048688216e-07
1.43031271846e-07
4.69328553205e-07
1.31457659752e-07
4.72248077391e-07
1.19582692911e-07
4.69870027515e-07
1.06326052156e-07
4.64359504581e-07
8.98216356682e-08
4.63846622188e-07
7.10927262531e-08
4.7451210128e-07
5.21871518312e-08
4.70213237805e-07
3.24107698485e-08
4.53561483756e-07
1.24636411119e-08
4.11388623507e-07
-4.18198341501e-09
3.58863596096e-07
3.22905746707e-07
-1.33710687138e-08
1.48139559951e-07
7.74534656714e-07
1.35480502936e-07
6.5039813354e-07
1.40118690115e-07
5.6159297666e-07
1.55728600798e-07
5.14077927964e-07
1.70514180511e-07
4.87804477187e-07
1.78892514058e-07
4.72849836574e-07
1.80295839182e-07
4.65886783062e-07
1.74988950418e-07
4.661093596e-07
1.64194514662e-07
4.73691405429e-07
1.52518038829e-07
4.80855308365e-07
1.40768642478e-07
4.83838520822e-07
1.28651975875e-07
4.81822251299e-07
1.15031609493e-07
4.77813431373e-07
9.74527823085e-08
4.81234339543e-07
7.88403911782e-08
4.92882676025e-07
5.89803209675e-08
4.89815232103e-07
3.74013928787e-08
4.74874564745e-07
1.44992177591e-08
4.34054624767e-07
-4.79104588091e-09
3.78004798985e-07
3.33505955752e-07
-1.54401080033e-08
1.68953869416e-07
7.56077989487e-07
1.63966640692e-07
6.35273896206e-07
1.68385325174e-07
5.49036713322e-07
1.79598622306e-07
4.99724208687e-07
1.89832854888e-07
4.76337386837e-07
1.94697464597e-07
4.67457481058e-07
1.92981457028e-07
4.67334295304e-07
1.8386453995e-07
4.75052670788e-07
1.7168937176e-07
4.85713380021e-07
1.59543305918e-07
4.92843925913e-07
1.47542892756e-07
4.95678942752e-07
1.35256266063e-07
4.93944904701e-07
1.21102779107e-07
4.91793099872e-07
1.03299251237e-07
4.98838159364e-07
8.55907313953e-08
5.10350024206e-07
6.54730170635e-08
5.09679123969e-07
4.21855397956e-08
4.97896191607e-07
1.55270030889e-08
4.60468837568e-07
-7.3635801759e-09
4.00728566268e-07
3.45991484105e-07
-1.99109787809e-08
1.77804802081e-07
7.26326972281e-07
1.81521606627e-07
6.09579004836e-07
1.90386540234e-07
5.30941134246e-07
2.00282842488e-07
4.86300153104e-07
2.06725867528e-07
4.68583659181e-07