/*--------------------------------*- C++ -*----------------------------------*\
| =========                 |                                                 |
| \\      /  F ield         | OpenFOAM: The Open Source CFD Toolbox           |
|  \\    /   O peration     | Version:  2312                                  |
|   \\  /    A nd           | Website:  www.openfoam.com                      |
|    \\/     M anipulation  |                                                 |
\*---------------------------------------------------------------------------*/
FoamFile
{
    version     2.0;
    format      ascii;
    arch        "LSB;label=32;scalar=64";
    class       volScalarField;
    location    "0.765/water";
    object      alpha.gas_0;
}
// * * * * * * * * * * * * * * * * * * * * * * * * * * * * * * * * * * * * * //

dimensions      [0 0 0 0 0 0 0];

internalField   nonuniform List<scalar> 
1503
(
0.168617998322
0.10270558972
0.0295047796507
0.00751343420836
0.00142679493326
0.000220757018574
2.77698249776e-05
2.12839772537e-06
4.90049498078e-08
4.69206739397e-10
2.58686276901e-12
1.12187990003e-14
1e-15
1e-15
1e-15
1e-15
1e-15
1e-15
1e-15
1e-15
0.611541241079
0.254584067874
0.105914546814
0.0362559535426
0.0115220884788
0.0030835197013
0.000698663584811
0.000125716436718
1.32457222005e-05
3.26519288834e-07
1.20890559755e-09
2.13213856775e-12
3.6777179864e-15
1e-15
1e-15
1e-15
1e-15
1e-15
1e-15
1e-15
0.613295062351
0.337428589285
0.165175074928
0.0702941951497
0.0271108102511
0.00908592536666
0.00256746579368
0.000589698209046
9.13547941983e-05
5.21573144908e-06
2.87735535877e-08
3.93501080064e-11
4.32061125532e-14
1.00049596676e-15
1e-15
1e-15
1e-15
1e-15
1e-15
1e-15
0.613294019074
0.416664238246
0.240608624952
0.121811031181
0.0545755990712
0.0210440241672
0.00679419621593
0.00178884608849
0.000343340069287
3.31625346859e-05
5.23032944834e-07
5.72019101408e-10
4.16388994981e-13
1.22505760273e-15
1e-15
1e-15
1e-15
1e-15
1e-15
1e-15
0.597930438106
0.465055166753
0.320238105402
0.193914186389
0.102371112617
0.0455869925701
0.0165704827358
0.00477571529486
0.00102525896543
0.000130095963769
4.89422754747e-06
8.65954355976e-09
5.25894344332e-12
3.73935378695e-15
1.00004016222e-15
1e-15
1e-15
1e-15
1e-15
1e-15
0.569886573647
0.483482865907
0.382497759813
0.272335786085
0.170179817827
0.0899303980575
0.0383962401487
0.0125709530465
0.00296847539964
0.000438460083921
2.69815068685e-05
1.8281954985e-07
1.05436327348e-10
4.76203238411e-14
1.01550718131e-15
1e-15
1e-15
1e-15
1e-15
1e-15
0.552712262863
0.488052597455
0.420879652115
0.337799793149
0.243449322471
0.151782750902
0.078215711557
0.0311066197571
0.00871216406725
0.00150977853414
0.000124931037964
2.47016256083e-06
1.83708545488e-09
7.97347398879e-13
1.30981522621e-15
1.00096038786e-15
1.00083316714e-15
1.00076039485e-15
1.00071220663e-15
1.0005674095e-15
0.557232131465
0.493030157044
0.440195076739
0.379926443616
0.303073867444
0.216275766448
0.132785521494
0.0657197538937
0.0235097863299
0.00519910543084
0.000568945076409
2.07298006977e-05
6.48989152255e-08
2.36400742105e-11
8.65522668887e-15
1.00443024631e-15
1.00209247715e-15
1.00188558016e-15
1.00172250732e-15
1.00136874572e-15
0.555946934627
0.492762075744
0.452773667015
0.405965108474
0.344410880961
0.270123745833
0.19046345756
0.11452394004
0.0528311276415
0.0157387130565
0.00239641950674
0.000136114292263
1.55729055066e-06
6.27314009046e-10
2.02215166178e-13
1.06198094817e-15
1.00393409972e-15
1.00330679174e-15
1.00282228749e-15
1.00210574111e-15
0.557389518873
0.488401072912
0.455419763678
0.418404756151
0.369804710194
0.30938647568
0.240978695104
0.167633116966
0.0955032575506
0.0378801556821
0.00819113321597
0.000708358307383
1.61956292924e-05
2.8647248711e-08
6.90044447101e-12
2.53468050062e-15
1.00623561357e-15
1.0054237532e-15
1.00441766964e-15
1.00310601646e-15
0.555946934627
0.477414967019
0.450248971839
0.419646296798
0.383504649322
0.336974147772
0.280296992811
0.213948789294
0.14129409095
0.0707290826855
0.0211781689375
0.00273307194662
0.000102914372729
5.89211891573e-07
2.039374e-10
4.5314162908e-14
1.01607418661e-15
1.00703142303e-15
1.00556651353e-15
1.00399674538e-15
0.557156362173
0.459664678718
0.43605940651
0.415940385391
0.392068099554
0.357330956915
0.309007540845
0.248558044432
0.180009217274
0.106842404173
0.0419485617799
0.00773992385468
0.00045093900329
5.39191474991e-06
3.81714891301e-09
8.55810100058e-13
1.10965077275e-15
1.00700095615e-15
1.00551312769e-15
1.00404759866e-15
0.555946934627
0.443843059332
0.422780162118
0.413684291296
0.400122196901
0.373285477637
0.329361810087
0.273144708493
0.210468184215
0.141315367076
0.0685132416231
0.0172865435662
0.00154343660188
3.3937823261e-05
7.08397381137e-08
3.22415985827e-12
1.0419063174e-15
1.00554877027e-15
1.00443559683e-15
1.00344908048e-15
0.542982275376
0.442315283301
0.428476030588
0.422745936991
0.413870190079
0.388417893313
0.345637814039
0.294009912478
0.238970288875
0.176761353766
0.101822596268
0.034223584872
0.00468291928949
0.000189007478576
1.45107635284e-06
4.38531910852e-12
1.15497315692e-15
1.00190980842e-15
1.00195849669e-15
1.00177292183e-15
0.535034388313
0.462414598866
0.456791763126
0.451377963006
0.436717704329
0.405510238189
0.363418851882
0.318020177638
0.271214230446
0.217491118467
0.146518616479
0.065390731075
0.0139540564432
0.0010483064189
2.01905440803e-05
7.48949093715e-09
6.91169790001e-14
1.02129390512e-15
1e-15
1.00002266028e-15
0.567512807388
0.515664298195
0.504925833307
0.492104660581
0.465481872909
0.426556755765
0.385226399418
0.345658156493
0.305957092589
0.26151741044
0.201962978835
0.118582548034
0.0393923614727
0.0053009642232
0.000210963256255
1.40811431159e-06
9.42031681278e-12
3.83244705066e-15
1e-15
1e-15
0.615092524203
0.55976705572
0.542986631894
0.525627349157
0.492469006679
0.447424990043
0.40298310265
0.363697951057
0.329343011747
0.295469083364
0.254162333173
0.186882610163
0.0917739932
0.0209755472331
0.00157230203515
2.73668403194e-05
1.41005573468e-08
2.15029821975e-13
1.07885879975e-15
1e-15
0.61878393311
0.570408845989
0.556414994609
0.539341404272
0.505426396069
0.457120566745
0.407796034965
0.364996526893
0.330841776537
0.308918084139
0.288657342711
0.24775753249
0.161613877155
0.0577710057624
0.00758623084709
0.000259919071721
1.47539689123e-06
7.21898291909e-11
2.19812793843e-14
1.00178712611e-15
0.615092524203
0.570095179817
0.563307233817
0.544516985255
0.507757360461
0.457419287836
0.4065679296
0.361626981664
0.325365714604
0.305867474704
0.304032743567
0.288065485571
0.222771439962
0.109375634736
0.0231309887787
0.00142372152622
1.83342947021e-05
9.6176768201e-09
1.49790592138e-12
1.58972490002e-15
0.619507889946
0.565658041757
0.565429077495
0.546337973431
0.506509636838
0.453314907869
0.398799663631
0.348583416161
0.309194480753
0.298008780286
0.303394919953
0.303322950153
0.259602013655
0.15427593151
0.0464278397091
0.00457669470851
0.000100236015221
3.00322943859e-07
6.32329820045e-11
2.73858956191e-14
0.615159609572
0.557034385871
0.562029215869
0.54244962574
0.498130727566
0.439143096247
0.378508842905
0.322673099558
0.296945815172
0.296802321761
0.298087669439
0.303249552852
0.274421795383
0.181807059497
0.0681216731793
0.00940880386445
0.00030700464785
1.72082145583e-06
1.14245499747e-09
5.67866784387e-13
0.619546342369
0.544903985196
0.549549736512
0.527579392548
0.477868023987
0.412408605464
0.346324334258
0.298404942316
0.296704844386
0.296945815172
0.296565617261
0.29943596037
0.280785684325
0.19780421787
0.0837371919087
0.0144790975716
0.00063290051999
4.98461214015e-06
5.71346448117e-09
3.72553359011e-12
0.615159609572
0.532507419565
0.527301543167
0.499039731743
0.445745920477
0.377073025632
0.311926410052
0.296713243252
0.296945815172
0.296002419154
0.296945815172
0.296899033292
0.288673986184
0.21256457457
0.097458470976
0.0199047717212
0.00109370615865
1.08764108116e-05
1.68036766664e-08
1.27754814848e-11
0.61773183089
0.520792060385
0.504823013596
0.466270093654
0.409711723783
0.344526024182
0.297001709578
0.296945815172
0.295917678449
0.296945815172
0.295665153828
0.311693913448
0.310686724214
0.235715626808
0.117521319969
0.0284420557421
0.00198606273422
2.50964629302e-05
4.67153996968e-08
3.45175024047e-11
0.615092524203
0.509047181852
0.485646789609
0.440057886764
0.382694193233
0.325244551755
0.296945815172
0.29614120554
0.296945815172
0.29559249265
0.299773862904
0.353532908479
0.352987801006
0.278505341948
0.156578583159
0.0465917447989
0.00436728191991
7.63325504456e-05
1.82724474506e-07
1.16352666179e-10
0.615515385281
0.493811800287
0.46787629791
0.424880968324
0.373101569724
0.321697110896
0.296572808133
0.296945815172
0.29559249265
0.296945815172
0.350393208203
0.357489979978
0.358067767137
0.334785891179
0.224194147772
0.0841135190834
0.0110477765781
0.000298453824038
1.1859052928e-06
4.59759515651e-10
0.610893567086
0.47308003851
0.452308708016
0.419792038246
0.373703980128
0.325092285926
0.296945815172
0.295882814252
0.302353143157
0.34306194364
0.357489979978
0.35832475783
0.357489979978
0.357800794581
0.292018898815
0.144579370624
0.02766907625
0.00123959157278
9.39471028257e-06
1.9329776278e-09
0.586968248324
0.456779829702
0.448517809297
0.42466204497
0.385265187291
0.343889557723
0.319752094915
0.324184727326
0.343643382183
0.357489979978
0.358004365829
0.357489979978
0.358136649341
0.357489979978
0.336601847324
0.212322164644
0.0595950625497
0.00456674911195
6.73770574644e-05
7.1928014619e-08
0.550703126607
0.462610346112
0.468051400863
0.45708042792
0.422293869964
0.383105305815
0.365548948419
0.365328696951
0.359345477684
0.349382686328
0.342658270029
0.350218033419
0.357489979978
0.357669921438
0.351293944857
0.263058257454
0.105557635526
0.013743391426
0.000389971468218
1.60972857815e-06
0.538010881389
0.508322216373
0.53092532646
0.527475151428
0.481432575315
0.42940978272
0.400612024574
0.380371022366
0.354551855441
0.327506580348
0.311336847012
0.322375958329
0.346675577273
0.356929681697
0.350374846125
0.29370772577
0.156986057773
0.032938458021
0.00168653157854
1.53626223801e-05
0.565678427381
0.592534735559
0.613261348369
0.606529774814
0.54876319622
0.476789462416
0.426076651224
0.386816336551
0.345095916609
0.305418178813
0.286918854527
0.294914946524
0.320227938112
0.341849162276
0.342974406911
0.311285633072
0.206197036722
0.0645674472219
0.00561760768094
9.39326233488e-05
0.649854972791
0.662634385563
0.66724663752
0.66203887995
0.611586820506
0.531024219095
0.457364182719
0.399032401416
0.34490405017
0.295410359795
0.277145367873
0.280502099466
0.294795461718
0.316060406887
0.329739780304
0.321205853444
0.251852215784
0.108365828799
0.0151001960213
0.00044516436155
0.687632664186
0.686116699171
0.68625811126
0.685877399787
0.654160487291
0.583622418007
0.49703707889
0.420700376637
0.351302520641
0.294063146648
0.274494722311
0.275246405268
0.280874287896
0.29394574238
0.31544849976
0.331011283817
0.291411361982
0.160031635161
0.0336275906253
0.00169155202733
0.689906713002
0.68736974638
0.687910438579
0.687282710043
0.673551286942
0.617336850589
0.530227507928
0.442423758955
0.360695531282
0.294581363002
0.273978486733
0.273884190992
0.275226404814
0.281244736973
0.304449308424
0.341110294452
0.324224300056
0.212288749655
0.0625150439512
0.00509960958866
0.688148501292
0.687806405756
0.687686638923
0.687917164914
0.680299914752
0.630621364433
0.545553340402
0.452918197327
0.364214010938
0.293835603694
0.273603908147
0.27346428786
0.273987943248
0.275284869514
0.297588327807
0.348794349209
0.348348134449
0.256637094923
0.0976229385424
0.012114662176
0.69346527016
0.688080418892
0.687917164914
0.687632664186
0.681268307414
0.631576178686
0.546767016137
0.452730709908
0.361120246263
0.289647468116
0.27346428786
0.273140395007
0.27346428786
0.274065083115
0.292596412387
0.351983576138
0.362802794338
0.284837537794
0.130264990053
0.0227890472932
0.688718793331
0.68811863106
0.687911572437
0.687651734799
0.677179464823
0.623140084886
0.537390720766
0.441320880729
0.34691933884
0.281891642652
0.273217999949
0.273230803897
0.273012284478
0.27346428786
0.29016702179
0.353701583488
0.365416859659
0.297752447902
0.154256467895
0.0352204542521
0.69440496952
0.68408997966
0.687651734799
0.685367892682
0.659583709727
0.595922928108
0.508602253982
0.412274345206
0.32131707321
0.275045261159
0.273230803897
0.272768385628
0.273230803897
0.272978646835
0.290830486168
0.355829540387
0.365550069707
0.303638440455
0.171011887966
0.0476728169653
1e-15
1e-15
1e-15
1e-15
1e-15
1e-15
1e-15
1e-15
1e-15
1e-15
1e-15
1e-15
1e-15
1e-15
1e-15
1e-15
1e-15
1e-15
1e-15
1e-15
1e-15
1e-15
1e-15
1e-15
1e-15
1e-15
1e-15
1e-15
1e-15
1e-15
1e-15
1e-15
1e-15
1e-15
1e-15
1e-15
1e-15
1e-15
1e-15
1e-15
1e-15
1e-15
1e-15
1e-15
1e-15
1e-15
1e-15
1e-15
1e-15
1e-15
1e-15
1e-15
1e-15
1e-15
1e-15
1e-15
1e-15
1e-15
1e-15
1e-15
1e-15
1e-15
1e-15
1e-15
1e-15
1e-15
1e-15
1e-15
1e-15
1e-15
1e-15
1e-15
1e-15
1e-15
1e-15
1e-15
1e-15
1e-15
1e-15
1e-15
1e-15
1e-15
1e-15
1e-15
1e-15
1e-15
1e-15
1e-15
1e-15
1e-15
1e-15
1e-15
1e-15
1e-15
1e-15
1.00002494382e-15
1.00304042643e-15
1e-15
1e-15
1e-15
1e-15
1e-15
1e-15
1e-15
1e-15
1e-15
1e-15
1e-15
1e-15
1e-15
1e-15
1e-15
1e-15
1e-15
1e-15
1e-15
1.00304995735e-15
1e-15
1e-15
1.03360744138e-15
1.00057449826e-15
1.00074321076e-15
1.00083718306e-15
1.00088515791e-15
1.00094096738e-15
1.00101984871e-15
1.00112814008e-15
1.00126694038e-15
1.00135472086e-15
1.0016161085e-15
1.00147068952e-15
1.00115621976e-15
1.00056166815e-15
1.00010133238e-15
1.00057287224e-15
1.00371119382e-15
1.00305948827e-15
1e-15
1e-15
1.07733750104e-15
1.00141100653e-15
1.00182721485e-15
1.00189449674e-15
1.00197795246e-15
1.00209479219e-15
1.0022670277e-15
1.0025055302e-15
1.00283767755e-15
1.0042864892e-15
1.00455514155e-15
1.00320315092e-15
1.00241697669e-15
1.00118147795e-15
1.00090596869e-15
1.00785289677e-15
1.00966433454e-15
1.00060070082e-15
1e-15
1e-15
1.1160685284e-15
1.00208422008e-15
1.00272857726e-15
1.00269240607e-15
1.00264800503e-15
1.00280077638e-15
1.00307318401e-15
1.00348718453e-15
1.00406838836e-15
1.00457345711e-15
1.00456248992e-15
1.00423132678e-15
1.00251603111e-15
1.00138379606e-15
1.00198757874e-15
1.00984823037e-15
1.00977649386e-15
1e-15
1e-15
1e-15
1.15135067594e-15
1.00278280082e-15
1.00312242449e-15
1.0031105272e-15
1.0031156839e-15
1.00326100739e-15
1.00356986335e-15
1.00403972656e-15
1.00456972352e-15
1.00458101922e-15
1.004569859e-15
1.00421547014e-15
1.00237299015e-15
1.00153064121e-15
1.0030835678e-15
1.00977649386e-15
1.00892821884e-15
1e-15
1e-15
1e-15
1.18197387223e-15
1.00332666585e-15
1.00330422627e-15
1.00322542022e-15
1.00319426284e-15
1.00329576461e-15
1.00358537138e-15
1.00402760621e-15
1.0045386598e-15
1.00459169221e-15
1.00458101922e-15
1.00391781069e-15
1.00206975232e-15
1.00174768766e-15
1.00403947274e-15
1.00984121288e-15
1.00647275572e-15
1e-15
1e-15
1e-15
1.20884265145e-15
1.00333341266e-15
1.00321950358e-15
1.00308973018e-15
1.00301985285e-15
1.00307663757e-15
1.00333213727e-15
1.00371623158e-15
1.00419191892e-15
1.0046023652e-15
1.00439682464e-15
1.00324918987e-15
1.00178698536e-15
1.00216708902e-15
1.00923930499e-15
1.00977649386e-15
1.0018313369e-15
1e-15
1.00029062107e-15
1e-15
1.2324935777e-15
1.00285805358e-15
1.00268039806e-15
1.00252963314e-15
1.00244957498e-15
1.00246927726e-15
1.00264435504e-15
1.00288149769e-15
1.00368521042e-15
1.00461303819e-15
1.00382936846e-15
1.00235007632e-15
1.00159563503e-15
1.00274579621e-15
1.00979756195e-15
1.00976170828e-15
1e-15
1e-15
1.00159251367e-15
1e-15
1.2538018428e-15
1.00158201312e-15
1.00156688402e-15
1.00158273573e-15
1.00159807269e-15
1.00166755776e-15
1.0017970858e-15
1.00194172139e-15
1.00356503631e-15
1.00479800003e-15
1.00343000251e-15
1.00162637855e-15
1.00157509612e-15
1.00327658025e-15
1.00977684007e-15
1.00868073299e-15
1e-15
1e-15
1.00242935228e-15
1e-15
1.27345105656e-15
1.00004663002e-15
1.0001259214e-15
1.00033413605e-15
1.00065227388e-15
1.00084948649e-15
1.00098703721e-15
1.00173789224e-15
1.00386725043e-15
1.00526038813e-15
1.00348068862e-15
1.00157509612e-15
1.00158208394e-15
1.00480169059e-15
1.00979410054e-15
1.00614485373e-15
1e-15
1e-15
1.0030890858e-15
1e-15
1.29173599371e-15
1e-15
1e-15
1e-15
1e-15
1.00023898378e-15
1.00077616635e-15
1.00220628422e-15
1.00477231005e-15
1.00575171476e-15
1.00407681e-15
1.0015987001e-15
1.00195870605e-15
1.00860870479e-15
1.00977684007e-15
1.00246042883e-15
1e-15
1e-15
1.00425631087e-15
1e-15
1.30872578437e-15
1e-15
1e-15
1e-15
1e-15
1.0003762547e-15
1.00141576069e-15
1.00390802385e-15
1.00599534362e-15
1.00637679899e-15
1.00528590562e-15
1.00254966855e-15
1.00303246809e-15
1.01109184364e-15
1.00943445842e-15
1e-15
1e-15
1e-15
1.00564136652e-15
1e-15
1.32472442351e-15
1e-15
1e-15
1e-15
1.00065209143e-15
1.00214595887e-15
1.00407452683e-15
1.00656763331e-15
1.00749958582e-15
1.00744820576e-15
1.00687347077e-15
1.0045493574e-15
1.00702638212e-15
1.01120740501e-15
1.00862743905e-15
1e-15
1e-15
1.00066384243e-15
1.01606088408e-15
1e-15
1.34037327337e-15
1e-15
1.00151839875e-15
1.00319624882e-15
1.0051875176e-15
1.00676551223e-15
1.00844039902e-15
1.00951779804e-15
1.00947467975e-15
1.00917628543e-15
1.00876300746e-15
1.0071874211e-15
1.01134337004e-15
1.01122218153e-15
1.00730226578e-15
1e-15
1e-15
1.00161966603e-15
1.02086052238e-15
1e-15
1.356349375e-15
1.00840188434e-15
1.01183053304e-15
1.01195074495e-15
1.01189104928e-15
1.01204940627e-15
1.01216161854e-15
1.01207516686e-15
1.01168064637e-15
1.01124060057e-15
1.01076952433e-15
1.01055312678e-15
1.01220931659e-15
1.01109935497e-15
1.00514346123e-15
1e-15
1e-15
1.00241589897e-15
1.02118656723e-15
1e-15
1.37293915142e-15
1.02685340278e-15
1.02078198477e-15
1.01824579455e-15
1.01622210432e-15
1.01476035968e-15
1.01377234881e-15
1.01333839198e-15
1.01303682565e-15
1.01257894813e-15
1.0121978582e-15
1.01245466369e-15
1.01233893366e-15
1.0107701003e-15
1.00158941144e-15
1e-15
1e-15
1.00283379965e-15
1.02086052238e-15
1e-15
1.38982169526e-15
1.0822308658e-15
1.02271447507e-15
1.01953315235e-15
1.01701083493e-15
1.01508284436e-15
1.01382163985e-15
1.01332607788e-15
1.01311060404e-15
1.01273021053e-15
1.01252966236e-15
1.01249215251e-15
1.01240226619e-15
1.01019223132e-15
1e-15
1e-15
1e-15
1.00282560906e-15
1.02110162122e-15
1e-15
1.40626098373e-15
1.24638534037e-15
1.02157741605e-15
1.01858083532e-15
1.01605472188e-15
1.01396755422e-15
1.01248790257e-15
1.01191966669e-15
1.01193788305e-15
1.01183815396e-15
1.01205721795e-15
1.01245466369e-15
1.01233518522e-15
1.00832248721e-15
1e-15
1e-15
1e-15
1.00253977524e-15
1.02086052238e-15
1e-15
1.42163133097e-15
1.50490378867e-15
1.01662621126e-15
1.01451943832e-15
1.01243257183e-15
1.01057311258e-15
1.00906944431e-15
1.00829531781e-15
1.00862347892e-15
1.00922766899e-15
1.01031631847e-15
1.01210125454e-15
1.01157473566e-15
1.0037093481e-15
1e-15
1e-15
1e-15
1.00191301656e-15
1.02099298177e-15
1e-15
1.43587904453e-15
2.05146854358e-15
1.00959478158e-15
1.00888667339e-15
1.00774821862e-15
1.00668528627e-15
1.00581157475e-15
1.00582016893e-15
1.00581007938e-15
1.00606698045e-15
1.00800782571e-15
1.01059089386e-15
1.00917129254e-15
1.00003115904e-15
1e-15
1e-15
1e-15
1.00113763627e-15
1.02086052238e-15
1e-15
1.44953035747e-15
2.63605366908e-15
1.00454339051e-15
1.00465309363e-15
1.0042773676e-15
1.00388801871e-15
1.00516234081e-15
1.00848154594e-15
1.00646644935e-15
1.00512175635e-15
1.00628937918e-15
1.00866020389e-15
1.00478320474e-15
1e-15
1e-15
1e-15
1e-15
1.00027881363e-15
1.02090114168e-15
1e-15
1.46329246066e-15
2.37527602315e-15
1.00145367707e-15
1.00172880554e-15
1.00174103904e-15
1.00176820468e-15
1.00749983663e-15
1.01872277712e-15
1.0182596229e-15
1.00507607497e-15
1.00550310012e-15
1.00695726076e-15
1.0002247355e-15
1e-15
1e-15
1e-15
1e-15
1e-15
1.02086052238e-15
1e-15
1.47762598898e-15
2.03634367143e-14
1.00002459406e-15
1.00010152544e-15
1.00014390194e-15
1.00109302839e-15
1.0139252413e-15
1.02249269892e-15
1.02249185287e-15
1.01473494722e-15
1.00568871715e-15
1.00552667175e-15
1e-15
1e-15
1e-15
1e-15
1e-15
1e-15
1.02068716956e-15
1e-15
1.49260189661e-15
1.19920041142e-12
1e-15
1e-15
1e-15
1.00201494944e-15
1.01922125698e-15
1.0221519318e-15
1.02250556732e-15
1.02207345239e-15
1.0084863374e-15
1.00372648801e-15
1e-15
1e-15
1e-15
1e-15
1e-15
1e-15
1.01982167206e-15
1e-15
1.50814657258e-15
2.03564545346e-10
1e-15
1e-15
1e-15
1.00635980232e-15
1.01949314249e-15
1.02155140006e-15
1.02249185287e-15
1.02250811916e-15
1.01326553185e-15
1.00197550228e-15
1e-15
1e-15
1e-15
1e-15
1e-15
1e-15
1.01900138404e-15
1e-15
1.52437963653e-15
3.82665727416e-08
1e-15
1e-15
1e-15
1.01140593265e-15
1.01896017035e-15
1.02132082347e-15
1.02258205551e-15
1.02249185287e-15
1.01623543415e-15
1.00108014074e-15
1e-15
1e-15
1e-15
1e-15
1e-15
1e-15
1.01879674776e-15
1e-15
1.54140901402e-15
1.06491611331e-06
1e-15
1e-15
1e-15
1.01299590683e-15
1.01880535202e-15
1.02220325987e-15
1.02249185287e-15
1.02265969252e-15
1.0190011497e-15
1.0012366049e-15
1e-15
1e-15
1e-15
1e-15
1e-15
1e-15
1.01926982237e-15
1e-15
1.55900257606e-15
1.06714356068e-05
1.01902571036e-15
1e-15
1e-15
1.01366605656e-15
1.0193685967e-15
1.02245478425e-15
1.02289839374e-15
1.02249185287e-15
1.02038153527e-15
1.00267524541e-15
1e-15
1e-15
1e-15
1e-15
1e-15
1.00324949603e-15
1.0212262145e-15
1.00401912738e-15
1.57793431665e-15
6.5235332582e-05
1.04734275122e-15
1e-15
1e-15
1.0149127564e-15
1.02188124356e-15
1.0229183108e-15
1.02249185287e-15
1.02288517188e-15
1.02129825024e-15
1.00512655397e-15
1e-15
1e-15
1e-15
1e-15
1e-15
1.00992304507e-15
1.02387171447e-15
1.01858269642e-15
1.59824159137e-15
0.000279012998944
9.25476319244e-10
1e-15
1e-15
1.01702905742e-15
1.02270324462e-15
1.02249185287e-15
1.02323413316e-15
1.02249185287e-15
1.02249585933e-15
1.00782653476e-15
1e-15
1e-15
1e-15
1e-15
1e-15
1.01435730909e-15
1.02657433186e-15
1.025063464e-15
1.61937826538e-15
0.00086394057854
1.11689949745e-06
1e-15
1e-15
1.02024313728e-15
1.02247551038e-15
1.02342400447e-15
1.02249185287e-15
1.02296888878e-15
1.02249185287e-15
1.01059692637e-15
1e-15
1e-15
1e-15
1e-15
1.00585139859e-15
1.01782068665e-15
1.02941891724e-15
1.02834680861e-15
1.64034536889e-15
0.00200976365002
7.94895208965e-06
1e-15
1e-15
1.01616579022e-15
1.02308603394e-15
1.02249185287e-15
1.02321261456e-15
1.02249185287e-15
1.02262463557e-15
1.0129996632e-15
1.00441672397e-15
1.00327347807e-15
1.0052314402e-15
1.00901973127e-15
1.01333590508e-15
1.02057823298e-15
1.0317291726e-15
1.03057390018e-15
1.66029065804e-15
0.00373800364751
2.81095066016e-05
1e-15
)
;

boundaryField
{
    emptyPatch
    {
        type            empty;
    }
    minY
    {
        type            fixedValue;
        value           uniform 1e-15;
    }
    maxY
    {
        type            inletOutlet;
        phi             phi.gas;
        inletValue      nonuniform List<scalar> 0();
        value           nonuniform List<scalar> 0();
    }
    maxX
    {
        type            zeroGradient;
    }
    water_to_heater
    {
        type            zeroGradient;
    }
    procBoundary2to3
    {
        type            processor;
        value           nonuniform List<scalar> 
41
(
0.688718793331
0.673834769314
0.678301829613
0.666539992976
0.623771230548
0.55170522354
0.463502168444
0.369857547035
0.292345385073
0.273230803897
0.272875969785
0.27317552731
0.27249637547
0.273230803897
0.29637900216
0.360931698933
0.365683278002
0.308706436534
0.186200775325
0.0604233733672
1.00012340596e-15
1.00453994559e-15
1.02249185287e-15
1.02346765589e-15
1.02249185287e-15
1.02290681429e-15
1.02249185287e-15
1.01470406627e-15
1.01125119854e-15
1.01075421778e-15
1.01172481359e-15
1.0134406281e-15
1.01619451496e-15
1.02237410181e-15
1.03377681766e-15
1.03139099359e-15
1.6774956975e-15
0.00600984792357
6.75829541455e-05
1.00012340596e-15
1e-15
)
;
    }
}


// ************************************************************************* //
