/*--------------------------------*- C++ -*----------------------------------*\
| =========                 |                                                 |
| \\      /  F ield         | OpenFOAM: The Open Source CFD Toolbox           |
|  \\    /   O peration     | Version:  2312                                  |
|   \\  /    A nd           | Website:  www.openfoam.com                      |
|    \\/     M anipulation  |                                                 |
\*---------------------------------------------------------------------------*/
FoamFile
{
    version     2.0;
    format      ascii;
    arch        "LSB;label=32;scalar=64";
    class       volScalarField;
    location    "0.765/water";
    object      Tf.gasAndLiquid;
}
// * * * * * * * * * * * * * * * * * * * * * * * * * * * * * * * * * * * * * //

dimensions      [0 0 0 1 0 0 0];

internalField   nonuniform List<scalar> 
1503
(
314.287412411
306.063419205
302.61019709
301.063688891
300.45249939
300.090748747
300.003735885
300.000021035
300.000000017
300
300
300
300
300
300
300
300
300
300
300
320.254038234
308.319688386
303.008212286
301.10182018
300.400295119
300.14600205
300.046242034
300.005056358
300.000073589
300.000000078
300
300
300
300
300
300
300
300
300
300
320.320447372
307.872073032
302.69741659
300.906216147
300.300642819
300.099436817
300.032502488
300.008009546
300.000560627
300.000005929
300.000000002
300
300
300
300
300
300
300
300
300
319.452042234
307.866491833
302.814206762
300.946099515
300.308267689
300.097623145
300.029649276
300.008620821
300.001398023
300.000052746
300.000000379
300
300
300
300
300
300
300
300
300
318.594512486
307.705153126
302.926796565
301.032303477
300.349491979
300.11508481
300.035571055
300.010091068
300.002717153
300.000244002
300.000005596
300.000000001
300
300
300
300
300
300
300
300
317.628044501
307.385286756
302.924083826
301.084969074
300.385418567
300.134653313
300.044923885
300.013296204
300.00357999
300.00067222
300.000030345
300.000000491
300
300
300
300
300
300
300
300
316.975673734
307.031124798
302.8200265
301.085314052
300.402859514
300.148673137
300.05379688
300.017311175
300.004720028
300.001252861
300.000130673
300.000003388
300
300
300
300
300
300
300
300
316.866781099
306.838589948
302.71073062
301.056407483
300.40699278
300.158007916
300.061414308
300.021597384
300.006120443
300.001557174
300.000358569
300.000016197
300.000000011
300
300
300
300
300
300
300
316.869601347
306.784744691
302.680622893
301.053231387
300.416882018
300.168826605
300.069348676
300.026236085
300.007840556
300.001907054
300.000507561
300.000064186
300.000000385
300
300
300
300
300
300
300
316.915635492
306.772776263
302.674071535
301.058509762
300.428319141
300.180002394
300.07733114
300.030979598
300.009768106
300.00229898
300.000552716
300.000152848
300.000004986
300.000000004
300
300
300
300
300
300
316.991492112
306.756471947
302.652146678
301.055457331
300.434313715
300.188086482
300.084035855
300.035534465
300.011948161
300.002750887
300.00058528
300.000167666
300.000019494
300.000000098
300
300
300
300
300
300
317.03405721
306.711401242
302.59164749
301.027548973
300.428451607
300.190561081
300.088306704
300.039243621
300.014239037
300.003424333
300.000636936
300.000156176
300.000038909
300.000000796
300
300
300
300
300
300
316.954716077
306.593315272
302.482281253
300.971624346
300.409046019
300.187233279
300.090339922
300.042233249
300.01650737
300.004302317
300.000738282
300.000146491
300.000044232
300.000002705
300.000000004
300
300
300
300
300
316.525343542
306.449723138
302.412572036
300.929036687
300.390771812
300.183695123
300.092491102
300.045524852
300.019097998
300.005466656
300.000915337
300.000143659
300.000034298
300.000005278
300.000000038
300
300
300
300
300
316.164527009
306.385161484
302.394501374
300.912932765
300.384063016
300.185384445
300.097413302
300.050318773
300.022490477
300.007061547
300.001215945
300.000155995
300.000028262
300.000008146
300.000000262
300
300
300
300
300
316.709137606
306.701375292
302.529383716
300.963081995
300.405714968
300.198923822
300.107503841
300.05749487
300.026985464
300.009175166
300.001688218
300.000195774
300.000028935
300.000006969
300.000000956
300.000000006
300
300
300
300
317.71692618
307.174727661
302.758921626
301.071379392
300.455896901
300.224200171
300.122223335
300.066628543
300.03229204
300.011642441
300.002312088
300.000268071
300.000036363
300.000007766
300.000002102
300.000000082
300
300
300
300
317.938933459
307.318802635
302.874104295
301.146657299
300.499310586
300.248863301
300.137071567
300.07579403
300.037541811
300.014055113
300.002974372
300.000360843
300.000048628
300.000009666
300.000002343
300.00000037
300.000000003
300
300
300
318.001745747
307.366188303
302.935130208
301.190050922
300.526494218
300.26657801
300.149062475
300.083754682
300.042190554
300.0161083
300.003570042
300.000457218
300.000063247
300.000012056
300.000002664
300.000000707
300.000000024
300
300
300
318.031693692
307.368869171
302.949199487
301.205494345
300.538606265
300.276699814
300.157281581
300.089860564
300.04612303
300.017709008
300.004060115
300.000537954
300.000075904
300.000014209
300.000002893
300.000000668
300.000000049
300
300
300
318.068467926
307.312113124
302.904803689
301.190872749
300.537850841
300.280842232
300.162491873
300.094353255
300.048940927
300.018966311
300.004471726
300.00060926
300.000083923
300.000015628
300.000002988
300.0000006
300.000000042
300
300
300
318.045050072
307.203048174
302.815811107
301.152983531
300.527894337
300.281243803
300.165744064
300.097424234
300.05072881
300.020034129
300.004900315
300.000678117
300.000088344
300.000016349
300.000002984
300.000000529
300.000000012
300
300
300
317.963020565
307.011273957
302.679434152
301.092937585
300.510025939
300.278749656
300.167198088
300.098804148
300.051809971
300.021080613
300.005416818
300.000765566
300.00009337
300.000016822
300.00000293
300.000000473
300
300
300
300
317.822838291
306.933480025
302.626850544
301.063247856
300.49941785
300.276786394
300.16718737
300.099028079
300.052511594
300.022163041
300.006064034
300.000887236
300.000104006
300.000017886
300.000002904
300.000000431
300
300
300
300
317.723717134
306.955377499
302.653471931
301.073672084
300.501822024
300.277006521
300.1664485
300.098601086
300.052961566
300.023196804
300.006781515
300.001106526
300.00012297
300.000019392
300.000002893
300.000000376
300
300
300
300
317.66660701
307.022568722
302.709787729
301.103005662
300.512139424
300.278792746
300.165544434
300.097885438
300.053351802
300.024169982
300.007862919
300.001391034
300.000137646
300.000018257
300.000002608
300.000000271
300
300
300
300
317.472730798
307.002131374
302.717665187
301.114559963
300.5167345
300.278123498
300.164188058
300.097653096
300.054144993
300.025977949
300.009239497
300.001755088
300.000159125
300.000016581
300.000001996
300.000000121
300
300
300
300
316.812288503
306.726839419
302.611885843
301.073642343
300.498302061
300.270049324
300.161896299
300.09852123
300.056722329
300.028798134
300.011035553
300.002256906
300.000192497
300.000015715
300.000001499
300.000000009
300
300
300
300
315.897526746
306.412709878
302.490750594
301.003125959
300.461708671
300.257258906
300.16145588
300.10279612
300.062118158
300.033275413
300.013601204
300.002982599
300.000248172
300.000015873
300.000001363
300
300
300
300
300
315.36179933
306.213775134
302.384601123
300.930486798
300.426229115
300.251629813
300.16845263
300.112572306
300.07103197
300.039905291
300.017277664
300.00408054
300.000346271
300.000017959
300.000001695
300
300
300
300
300
315.660298731
306.301141091
302.37338801
300.906369981
300.421748891
300.264716318
300.185302308
300.128146258
300.083591246
300.048949287
300.022422142
300.005783902
300.000534506
300.000026175
300.000002893
300.000000083
300
300
300
300
317.429565627
306.854178863
302.520447333
300.977264578
300.470790143
300.296043103
300.209251992
300.147642475
300.098987003
300.060161117
300.029173486
300.008305345
300.000882018
300.00005068
300.000006117
300.00000054
300
300
300
300
318.741664878
307.404727004
302.783138811
301.123352956
300.558535047
300.342616906
300.237633166
300.168685951
300.115383054
300.072359478
300.037026032
300.011638933
300.001449638
300.000103307
300.000013531
300.000001647
300
300
300
300
319.080200069
307.781680668
303.066926754
301.28553413
300.6496833
300.391316552
300.266057813
300.188511011
300.130507418
300.083847296
300.044947305
300.015453399
300.002249818
300.000191311
300.000026966
300.000003699
300.000000206
300
300
300
319.266054024
308.00057109
303.261673284
301.407297972
300.717631631
300.430404093
300.289421388
300.204468395
300.142502334
300.092879385
300.051346487
300.019119188
300.003249266
300.000308459
300.00004545
300.000006602
300.000000578
300
300
300
319.343412102
308.094810318
303.357553565
301.475526872
300.759595723
300.457022973
300.306106322
300.215715415
300.150637218
300.098654974
300.055060076
300.021389697
300.004189671
300.000442932
300.000064687
300.000009715
300.000001008
300
300
300
319.386935929
308.04192628
303.34284495
301.489053196
300.777976718
300.470994967
300.315710918
300.222181449
300.154949742
300.10112019
300.056105565
300.02206383
300.004668902
300.000559822
300.000079457
300.000012227
300.00000135
300
300
300
319.224314175
307.828026576
303.227425346
301.461779042
300.775290578
300.472572348
300.318295977
300.224043414
300.155602361
300.100347823
300.054776449
300.021420913
300.004717296
300.000619173
300.000086954
300.000013751
300.000001559
300
300
300
300
300
300
300
300
300
300
300
300
300
300
300
300
300
300
300
300
300
300
300
300
300
300
300
300
300
300
300
300
300
300
300
300
300
300
300
300
300
300
300
300
300
300
300
300
300
300
300
300
300
300
300
300
300
300
300
300
300
300
300
300
300
300
300
300
300
300
300
300
300
300
300
300
300
300
300
300
300
300
300
300
300
300
300
300
300
300
300
300
300
300
300
300
300
300
300
300
300
300
300
300
300
300
300
300
300
300
300
300
300
300
300
300
300
300
300
300
300
300
300
300
300
300
300
300
300
300
300
300
300
300
300
300
300
300
300
300
300
300
300
300
300
300
300
300
300
300
300
300
300
300
300
300
300
300
300
300
300
300
300
300
300
300
300
300
300
300
300
300
300
300
300
300
300
300
300
300
300
300
300
300
300
300
300
300
300
300
300
300
300
300
300
300
300
300
300
300
300
300
300
300
300
300
300
300
300
300
300
300
300
300
300
300
300
300
300
300
300
300
300
300
300
300
300
300
300
300
300
300
300
300
300
300
300
300
300
300
300
300
300
300
300
300
300
300
300
300
300
300
300
300
300
300
300
300
300
300
300
300
300
300
300
300
300
300
300
300
300
300
300
300
300
300
300
300
300
300
300
300
300
300
300
300
300
300
300
300
300
300
300
300
300
300
300
300
300
300
300
300
300
300
300
300
300
300
300
300
300
300
300
300
300
300
300
300
300
300
300
300
300
300
300
300
300
300
300
300
300
300
300
300
300
300
300
300
300
300
300
300
300
300
300
300
300
300
300
300
300
300
300
300
300
300
300
300
300
300
300
300
300
300
300
300
300
300
300
300
300
300
300
300
300
300
300
300
300
300
300
300
300
300
300
300
300
300
300
300
300
300
300
300
300
300
300
300
300
300
300
300
300
300
300
300
300
300
300
300
300
300
300
300
300
300
300
300
300
300
300
300
300
300
300
300
300
300
300
300
300
300
300
300
300
300
300
300
300
300
300
300
300
300
300
300
300
300
300
300
300
300
300
300
300
300
300
300
300
300
300
300
300
300
300
300
300
300
300
300
300
300
300
300
300
300
300
300
300
300
300
300
300
300
300
300
300
300
300
300
300
300
300
300
300
300
300
300
300
300
300
300
300
300
300
300
300
300
300
300
300
300
300
300
300
300
300
300
300
300
300
300
300
300
300
300
300
300
300
300
300
300
300
300
300
300
300
300
300
300
300
300
300
300
300
300
300
300
300
300
300
300
300
300
300
300
300
300
300
300
300
300
300
300
300
300
300
300
300
300
300
300
300
300
300
300
300
300
300
300
300
300
300
300
300
300
300
300
300
300
300
300
300
300
300
300
300
300
300
300
300
300
300
300
300
300
300
300
300
300
300
300
300
300
300
300
300
300
300
300
300
300
300
300
300
300
300
300
300
300
300
300
300
300
300
300
300
300
300
300
300
300
300
300
300
300
300
300
300
300
300
300
300
300
300
300
300
300
300
300
300
300
300
300
300
300
300
300
300
300
300
300
300
300
300
300
300
300
300
300
300
300
300
300
300
300
300
300
300
300
300
300
300
300
300
300
300
300
300
300
300
300
300
300
300
300
300
300
300
300
300
300
300
300
300
300
300
300
300
300
300
300
300
300
300.000000001
300
300
300
300
300
300
300
300
300
300
300
300
300
300
300
300
300
300
300
300.000000006
300
)
;

boundaryField
{
    emptyPatch
    {
        type            empty;
    }
    minY
    {
        type            calculated;
        value           nonuniform List<scalar> 
40
(
300
300
300
300
300
300
300
300
300
300
300
300
300
300
300
300
300
300
300
300
300
300
300
300
300
300
300
300
300
300
300
300
300
300
300
300
300
300
300
300
)
;
    }
    maxY
    {
        type            calculated;
        value           nonuniform List<scalar> 0();
    }
    maxX
    {
        type            calculated;
        value           nonuniform List<scalar> 
37
(
300
300
300
300
300
300
300
300
300
300
300
300
300
300
300
300
300
300
300
300
300
300
300
300
300
300
300
300
300
300
300
300
300
300
300
300
300
)
;
    }
    water_to_heater
    {
        type            calculated;
        value           nonuniform List<scalar> 
61
(
788.564586211
788.515974674
788.250048042
788.250631499
788.122076274
788.12186185
788.057580171
788.058304955
788.042081759
788.04311675
788.040598401
788.040339746
788.039742764
788.039512552
788.038189369
788.038411993
788.032097582
788.032291755
788.019766202
788.01965049
788.003750039
788.004758984
787.988225275
787.989138022
787.970251513
787.966207824
787.953652627
787.954082123
787.944137097
787.943886177
787.936796163
787.93714722
787.932041807
787.93237776
787.928521137
787.928188888
787.925261695
787.925496574
787.924375838
787.924220015
787.924295652
787.924315334
787.923445651
787.92482464
787.923355968
787.926426709
787.925362496
787.926748035
787.923739998
787.918703212
787.920704504
787.92204561
787.926803647
787.927438245
787.936114579
787.936694174
787.950813306
787.951197359
787.973561493
787.973163509
788.007245891
)
;
    }
    procBoundary2to3
    {
        type            processor;
        value           nonuniform List<scalar> 
41
(
319.017366836
307.722906372
303.175969872
301.443603602
300.76408835
300.466907099
300.315840116
300.222110509
300.152915903
300.096682255
300.051672745
300.019970197
300.004511799
300.000632715
300.00008902
300.000014472
300.000001631
300
300
300
300
300
300
300
300
300
300
300
300
300
300
300
300
300
300
300
300
300
300.000000005
300
300
)
;
    }
}


// ************************************************************************* //
