/*--------------------------------*- C++ -*----------------------------------*\
| =========                 |                                                 |
| \\      /  F ield         | OpenFOAM: The Open Source CFD Toolbox           |
|  \\    /   O peration     | Version:  2312                                  |
|   \\  /    A nd           | Website:  www.openfoam.com                      |
|    \\/     M anipulation  |                                                 |
\*---------------------------------------------------------------------------*/
FoamFile
{
    version     2.0;
    format      ascii;
    arch        "LSB;label=32;scalar=64";
    class       volScalarField;
    location    "0.27/water";
    object      km;
}
// * * * * * * * * * * * * * * * * * * * * * * * * * * * * * * * * * * * * * //

dimensions      [0 2 -2 0 0 0 0];

internalField   nonuniform List<scalar> 
1496
(
5.13768316919
2.31715438643
1.16056111886
0.639336547345
0.38425985898
0.249688737405
0.169930254881
0.108046042899
0.0629990942908
0.0374876647684
0.0242269351618
0.0174861805799
0.0140982409449
0.0122303856399
0.0107640793269
0.00921772016365
0.00747407817637
0.0057082224012
0.0042150707337
0.00307200080713
4.89216037893
2.27490367601
1.20311699387
0.693570824296
0.427839305396
0.279315045918
0.187957504786
0.119334841253
0.0708611184331
0.0423167379447
0.0270069012931
0.0191884947208
0.0153004337481
0.0131420395817
0.0115189646293
0.00990570902499
0.00812807495714
0.00631827593502
0.00474263135702
0.00348476860546
4.27209809207
2.11530493933
1.18232660958
0.712807603406
0.454315672495
0.302046628826
0.204092033316
0.13146789879
0.0797994562097
0.0480331937661
0.0303669695719
0.021222102324
0.0166402897577
0.0140891933119
0.0122813162927
0.01058871194
0.00876871706206
0.00690992858002
0.005256031901
0.00388705384106
3.46417232094
1.83919720338
1.08184484582
0.683394451057
0.453815997781
0.310881243658
0.21366812293
0.14073361187
0.0876045024749
0.0534432748816
0.0337275737351
0.0233037886046
0.017994378249
0.0150466192515
0.0130494619398
0.0112656785391
0.00938889924293
0.00747033734971
0.00573760774748
0.0042550331942
2.85228019509
1.54855922647
0.939309207212
0.617824206035
0.427774615568
0.303197710644
0.21320195882
0.14378271844
0.09181702782
0.0570134171025
0.0362451859451
0.0250063473144
0.0191946512167
0.0159626782519
0.0138053826785
0.0119221813573
0.00996859612367
0.00797409649968
0.00615325432456
0.00454935297965
2.4578037359
1.31237345992
0.80182174038
0.540886499791
0.386698860606
0.281979773886
0.202472260015
0.139387323819
0.0910487144323
0.0576503682019
0.0372182396938
0.0259815611284
0.0201017618066
0.0167769592432
0.0145133081966
0.0125226606009
0.0104666118689
0.00837228953072
0.00643821698722
0.00473513318375
2.17560505035
1.13834684779
0.691284036054
0.469743096405
0.340710023495
0.252226044226
0.183515664243
0.128258951755
0.0853063615369
0.0551442516635
0.0364719394939
0.0261360134083
0.0206648436033
0.0174443480124
0.0151208969804
0.0130049623457
0.0108119184629
0.00856165087702
0.00652296410406
0.00482902523121
1.94635320521
1.01068621895
0.612440745062
0.411800683616
0.295765328082
0.218264952028
0.159242324936
0.112263581618
0.0757825589581
0.0501857720255
0.0343901845412
0.0256709812856
0.0209535624934
0.0179431531593
0.0155586862856
0.0132767010224
0.010859952441
0.00844149972734
0.00645334664562
0.00485806783034
1.71386418502
0.935303533853
0.571906863053
0.372794014613
0.256715383515
0.184399787258
0.133227164084
0.0941438351558
0.0645232758864
0.0441477019321
0.0318031107683
0.0250144361171
0.0211060323033
0.0182475152354
0.0157300204489
0.0131619955353
0.0104767778988
0.00809188256562
0.00631210249056
0.00482689874648
1.56579403888
0.908007953267
0.557344916303
0.346719845607
0.224051545112
0.153640348513
0.108846257605
0.0769434454536
0.0539130789871
0.0386529776873
0.0296518237978
0.0245793652755
0.0211844930559
0.0182763508453
0.0154380280109
0.0124963421913
0.00978698317024
0.00767303855669
0.00613289249107
0.00473396803384
1.66722306567
0.943799073213
0.562354433438
0.326977395965
0.196164567608
0.127721294261
0.0886792575861
0.0631402017309
0.0458588433982
0.034936202046
0.0285145521205
0.024444241724
0.021065767081
0.0177894072966
0.0144843229213
0.0114664681314
0.00905392793439
0.00725833660801
0.00593703437376
0.00455903314702
2.01895851955
1.04148326765
0.582917077147
0.316095492945
0.176507238125
0.109215319276
0.0746852092507
0.0541961117467
0.0413096090417
0.0333512932576
0.0282523148467
0.0242559712169
0.0204012364083
0.0165553177808
0.0131552822323
0.0104531108936
0.00839217054998
0.00689751976534
0.00568625289339
0.00429297759142
2.40224585652
1.13283283323
0.598755032799
0.310012700106
0.165587791127
0.0990720864647
0.067480566561
0.050306913355
0.0399634540816
0.0332022754922
0.0281056563269
0.0235115132487
0.0189602710946
0.0150131093708
0.0119462506441
0.00961424917273
0.00786950179204
0.00653821696584
0.00535556240813
0.00394848622596
2.55114237241
1.15835245248
0.595060350713
0.304957005659
0.162804902919
0.0972093094519
0.0666051580236
0.05049465641
0.0405635563301
0.0334691097477
0.0275810403909
0.0220984105337
0.017324943562
0.0136817575687
0.010967986989
0.00895099917749
0.00739854040684
0.00613148646521
0.00496324099205
0.00357270295297
2.47433026538
1.15681900001
0.599838856452
0.314374069344
0.170966533749
0.10259704536
0.0702544387449
0.05303233015
0.0419987004263
0.0336058059246
0.0264647050214
0.0205008747244
0.0159647630185
0.012623688049
0.0101873769697
0.00836046836969
0.00689348805189
0.00569534749946
0.00452547328999
0.00318780324391
2.38906972761
1.22471001191
0.653816700735
0.348089003871
0.189405765847
0.113362106261
0.0771630278867
0.0572060456625
0.0436812691067
0.0332720587309
0.0252221127706
0.0192559074845
0.0149225494152
0.0117898477648
0.00951688299834
0.00779228015322
0.00639639818387
0.00523821138045
0.00406650346564
0.00279793583366
2.71013951739
1.45943492304
0.772600814985
0.399717529466
0.213470882588
0.128072348646
0.0869140964517
0.0625384383459
0.0454175567886
0.0330889154744
0.0244315103189
0.018410459866
0.0141481496764
0.0111170946572
0.00894074121151
0.00729167118487
0.00594005905745
0.00477953058257
0.00360380835597
0.00240273669557
3.56317653336
1.86939659166
0.897872261905
0.433042778345
0.228329580887
0.141261894067
0.0977274482908
0.0692338852882
0.0483229943857
0.0336860102646
0.0240954897184
0.0178284534672
0.013580957845
0.0106091461294
0.00850112497418
0.00690346921864
0.00555948727662
0.00436144219202
0.00315996781617
0.00201162519013
4.75392420399
2.18923944614
0.939811042304
0.433605158504
0.233490795253
0.152440725225
0.10938814594
0.0775521441469
0.0521826836204
0.0345177572079
0.023757455925
0.0172588959358
0.0131097427522
0.0102666286426
0.00822483871941
0.00665515825615
0.00528639389159
0.00401689590964
0.00275828369362
0.00164269741492
5.56953848569
2.25642429314
0.944325681967
0.4354001653
0.245056831401
0.168858974246
0.125129075781
0.0881951725678
0.0558511839001
0.034942511067
0.0232183009345
0.0166566448153
0.0126925564613
0.0100577659065
0.00811436053601
0.00655835298784
0.00513562050347
0.00376122378012
0.00241538696989
0.00131933170306
5.92495080252
2.37238747255
0.97790231225
0.452567785152
0.264116488959
0.189129905958
0.143526657465
0.101094433603
0.0587295998029
0.0348689580047
0.0226418854532
0.0162059234251
0.0124424125897
0.00998269296497
0.0081441916225
0.00659008748089
0.00509015292928
0.00358018143109
0.00212805874212
0.00105068991808
6.22774736081
2.49521676372
1.02680238201
0.479072173634
0.286119900427
0.208400880169
0.158355627829
0.109111534917
0.0592502661352
0.0340999650167
0.0220701622365
0.01594706093
0.01238295121
0.0100377928655
0.00826265402777
0.00669235222832
0.00509851767046
0.00343439965701
0.00187834874513
0.0008319991851
6.54783487565
2.63669505181
1.08966208113
0.512962177797
0.30957235032
0.226157477175
0.1694807348
0.107740356094
0.0567723044171
0.0326454563169
0.0214912397596
0.0158194144135
0.0124528762573
0.0101802076164
0.00841695971438
0.00680387043851
0.00510397066656
0.00328423886076
0.00164887546835
0.00065376902406
6.88877386061
2.79708259527
1.16861462951
0.555461262394
0.335289056941
0.242726577238
0.178729736322
0.100879897029
0.0524746527194
0.0308401899996
0.0209351520056
0.0157701617474
0.0125920544201
0.0103627011299
0.00856962047931
0.00688371197775
0.00506818385719
0.00310790621041
0.00143273089686
0.000509011242803
7.20469899308
2.95217401633
1.24896954799
0.601324664629
0.360868306909
0.254586734028
0.179439267357
0.0914018121323
0.0478221514883
0.0291359330863
0.0204513421989
0.0157610235999
0.0127541479093
0.0105474274111
0.00869574963404
0.00691190369109
0.00497689801118
0.00290468999402
0.00123321951095
0.000394909541248
7.52640990956
3.09248354651
1.3286265446
0.651610022361
0.38818132618
0.263687872915
0.165542293215
0.0812460754671
0.0435129729399
0.0275095083795
0.019974363241
0.0157416199034
0.0129016024003
0.0107094391513
0.00878041626267
0.00688122170047
0.00483087292159
0.00268829135615
0.00105933051789
0.000310901610488
7.86052347516
3.23385119877
1.4177840918
0.710854421825
0.419380197467
0.271821800052
0.145869346389
0.0715427910581
0.0393496110256
0.0258299817137
0.0193868919
0.0156278157911
0.0129747619664
0.0108051609324
0.00879873821814
0.00677945945499
0.00463158855077
0.00247607751653
0.000920688293628
0.000256708047349
8.20305155982
3.37607689176
1.52192576365
0.781348790051
0.454981160636
0.270145987443
0.132269647286
0.0638994637445
0.0357067181346
0.0241873056347
0.0187115210446
0.0154170657565
0.0129640800167
0.010825291963
0.00874147129489
0.00659711433708
0.00436205663059
0.00225121143506
0.000814963032344
0.000229909194625
8.54347822619
3.5584252769
1.6887570491
0.902343578557
0.5236963314
0.28217052444
0.130767581396
0.060777786352
0.0333629011247
0.0228176159893
0.0180289126561
0.0151380030714
0.0128770355356
0.0107681512681
0.008608252695
0.00634181823657
0.00403906799208
0.00200662369314
0.000714654085116
0.000214054199153
8.36826841494
3.76091190938
1.91981296521
1.06908345114
0.623010581407
0.325288740936
0.147356533255
0.0649421572012
0.0333196538822
0.0220580813439
0.0174670718342
0.0148443851985
0.012733154644
0.0106365984311
0.0083949476499
0.0060118591958
0.0036676833846
0.00174423972196
0.000611523057572
0.000201421938187
7.13705855408
3.65920031219
2.06257491237
1.22087521592
0.733349961727
0.391711746787
0.180458701736
0.0771001438075
0.0361960151746
0.0221881028709
0.0171508294475
0.0145947166743
0.0125537161597
0.0104377787571
0.00809897130897
0.00560374116078
0.00325044777495
0.0014680076537
0.000506474267302
0.000193063852393
5.47590500517
3.31528794976
2.08537596786
1.32039682025
0.829857102856
0.460778922954
0.220073354213
0.0944727053193
0.0416631945103
0.0232696488104
0.0171470084371
0.0144286932798
0.0123642986325
0.0101877962356
0.00772717973428
0.00512255998514
0.00279672770433
0.00118814155311
0.000406964857245
0.000195857371978
4.02653082162
2.77718838858
1.93393316748
1.32126531777
0.879605873376
0.512831702707
0.255538393602
0.112805034835
0.0486888045572
0.0251585461144
0.017453598849
0.0143700748977
0.0122048434918
0.00991920431744
0.00730570579316
0.00459173846255
0.00232895048182
0.00092016824383
0.000321940882654
0.000222578922028
3.15382246764
2.30901629717
1.73054681978
1.26469297096
0.889102183927
0.543387697065
0.283132095779
0.130027802576
0.0565898510309
0.0277224341851
0.0180677635837
0.0144672012262
0.0121280010739
0.00968699147715
0.00688780427219
0.00405912654132
0.00188345159417
0.00068427990328
0.000258689368396
0.000277591549929
2.65751993504
1.95437563304
1.5331021452
1.19381824016
0.88294383316
0.561464626697
0.305358947359
0.146667046449
0.0654395539969
0.0310389001674
0.0190706002332
0.014787348776
0.0122061230541
0.00957189004096
0.0065564916599
0.00359494139546
0.00150426265356
0.000500002170555
0.000220620094628
0.000345228766874
2.336722619
1.70192848238
1.36812010584
1.12655364796
0.872050647524
0.572277421122
0.323176637928
0.162194377718
0.074833419737
0.0350566643555
0.0205075743594
0.0153926782728
0.0125155711393
0.00966885693142
0.00641848362445
0.00328332511374
0.00123290599788
0.000377579088975
0.000206345548738
0.000398598276821
2.12591680267
1.53499660254
1.24629893735
1.06372955873
0.852721649406
0.576068784286
0.335240619831
0.173989101563
0.0826759575399
0.0388901903376
0.0221600655986
0.016263045896
0.013097393543
0.0100520580104
0.0065636915853
0.00320256406639
0.00110322169842
0.000318999611773
0.000217326204872
0.000426422969031
0.000128368090236
9.02979091145e-05
7.17564266596e-05
6.80165009769e-05
0.000113613233355
0.000747600455425
0.00521298507578
0.0149687349772
0.0222057386475
0.02361651351
0.0148847449593
0.00791135993577
0.00445864794304
0.00301495278439
0.00229317030043
0.00343797421045
0.0020967039255
0.00122419478217
0.00059081458062
0.000265515850062
0.000137860086891
9.55250070081e-05
7.81738274082e-05
8.34506791464e-05
0.000170872583256
0.00119331297882
0.00614172861478
0.0170964091279
0.0238372428987
0.0228773340269
0.0132785622808
0.00717582544752
0.00424566534979
0.00295459796839
0.00225915112525
0.00324885918545
0.0023678414012
0.0013615999448
0.000652877855513
0.000289167520718
0.000147133744842
0.000101513393417
8.922525334e-05
0.000111405781008
0.000281693087404
0.00185051802697
0.00786906421282
0.0194579614657
0.0249707470235
0.0207083130592
0.0117718689976
0.00657553774519
0.00409128203635
0.00289782620819
0.00222420207637
0.00308253212936
0.00262243270106
0.00149001100342
0.000711161613456
0.000311905124382
0.000157037542028
0.00010949124289
0.000106210249153
0.00015500826295
0.000453434258734
0.00263647200391
0.010237316046
0.0219484505995
0.0254155886553
0.0184865594384
0.0107848639805
0.00620787424457
0.00401272476835
0.00285487692478
0.0021931773343
0.00295997233781
0.00284465789216
0.00160556590452
0.000763662014899
0.000333236751254
0.000167463217205
0.000120177130812
0.00012939487634
0.000216460443948
0.000681184117658
0.00344469875504
0.0128832311453
0.0243959797369
0.0251250889188
0.0172262159373
0.0103911267751
0.00608987239725
0.00401259394607
0.0028532287885
0.00218189744357
0.00289658887558
0.00302005262253
0.00170118486692
0.000805057349226
0.000350619172342
0.000177251782564
0.000133438367496
0.000157487179391
0.00029446117774
0.000942055871063
0.00417671200678
0.0152836061529
0.0265450088961
0.0247647388211
0.0170960291348
0.010492627237
0.00619245765889
0.00410300011882
0.00292467133269
0.00220935125109
0.00288997761859
0.00314670104907
0.00176613898567
0.00082760278661
0.000360467887799
0.000184647875784
0.000147866095616
0.00018795463832
0.000384296173195
0.00120591228337
0.0047090552937
0.0170034382699
0.0282488667697
0.0250134853681
0.0177168175437
0.0109735002215
0.00649609593801
0.00427313945014
0.00303844480994
0.00226054849228
0.00291681940649
0.00322161810938
0.00178723388782
0.000825272189668
0.000359684499294
0.000188165056389
0.000160500820597
0.000217998137438
0.00046789394032
0.00141112387469
0.00533431467881
0.0180048734569
0.0294347305656
0.0259339042251
0.0188410245005
0.0117863520446
0.0069795738594
0.00452121684441
0.00320637690867
0.00233498451035
0.00296322976494
0.00323489576095
0.00175594685551
0.000798367052918
0.000348167469579
0.000187169399988
0.000167891467412
0.000247074785299
0.000523113890628
0.00152049167018
0.006068333564
0.0190159977209
0.0305772696813
0.0274652402855
0.0203748503283
0.0127923217753
0.00751269824788
0.0047565764183
0.00337323478601
0.00242168717673
0.00302200197858
0.00317845957948
0.00167348779829
0.000753194806544
0.000328700338788
0.000181151965693
0.000168938227568
0.00027584068575
0.000550069289944
0.00155389586444
0.00700337792102
0.0204705659114
0.0321190923554
0.0297839592411
0.022126381957
0.0136927148271
0.00787081947526
0.00486195262276
0.00346896991076
0.00249845065454
0.00307391452465
0.00304546671906
0.00155296142028
0.000696562422643
0.000302683478189
0.00016914816397
0.000168080862524
0.000305064841838
0.000569936706811
0.00154995130971
0.00832466895274
0.0224934540805
0.0339418782939
0.0326641514557
0.0236106123283
0.0141148161659
0.00789159921843
0.00478614554449
0.00342993987639
0.00254076742179
0.00308347484747
0.00283563173313
0.00141839752191
0.000634893580989
0.00027056683799
0.000151205026467
0.000174068537807
0.000334644367011
0.000610770556353
0.00160066142525
0.0103339080633
0.0251330248816
0.0357613534766
0.0353519086274
0.0242104659738
0.0138816662869
0.00759247590126
0.00457650755809
0.00328592744762
0.00251934091884
0.00302226388557
0.00258845765297
0.00129578761377
0.000573916073135
0.000233538532427
0.000132550812769
0.000189837097255
0.000368771338647
0.000701345616108
0.0018778546401
0.0135193510541
0.0281609149953
0.0374628782418
0.0370792077149
0.0236524810169
0.0128930413617
0.00698587515677
0.00427289533973
0.00311765625284
0.00244197053856
0.00290365900039
0.00235341540486
0.00119393303905
0.000511131923448
0.000196150401248
0.000126561530872
0.000213718490345
0.000422150311645
0.000912502263554
0.00290004004818
0.0178969228233
0.0313199586388
0.0389324890829
0.0374164651955
0.0219751394274
0.0112553594637
0.00615617574047
0.00391034884154
0.0029162819656
0.00234151038714
0.00275858465254
0.00212964551934
0.0010790100372
0.000431888764617
0.000162948156106
0.000137011881767
0.000254324576572
0.000531628166577
0.00137706036749
0.00493447120657
0.0227021810481
0.0340855509911
0.0396773266201
0.0364142497676
0.0193475185206
0.00937115348142
0.00528524448408
0.00354837177809
0.00270526331948
0.00223466236091
0.00260415024594
0.00189800306429
0.00093380680028
0.000341736355012
0.000139784619102
0.000157366377524
0.000320280319096
0.000736479421241
0.00216396724646
0.00794336357521
0.0267547817726
0.0357821567416
0.0391659948072
0.0340012940813
0.0159670735512
0.0075745407493
0.00451665200809
0.00320958194313
0.00249781886772
0.00212276779913
0.00244729757582
0.00164500606816
0.000759072760149
0.000256374542552
0.000126616479733
0.000187871040265
0.000418189872492
0.00105690573481
0.00333378036861
0.0111875384066
0.0292965584604
0.0360478272385
0.0369941182109
0.0297584940907
0.0123357957469
0.00608826845246
0.00391892087855
0.00289407517951
0.00230387522465
0.00201396033296
0.00229662096487
0.00136188014151
0.000575544569031
0.000188903687429
0.000125492017644
0.000230493109606
0.000559111081052
0.00151843475896
0.00475531866481
0.0144496381988
0.0304717423347
0.0350039822608
0.0336284371739
0.0241500447467
0.0091985108496
0.00500151090426
0.00346764623146
0.0026229325085
0.00212828273098
0.00191502168015
0.00215995817531
0.0010719671677
0.000411249304919
0.000142032805644
0.000133266943016
0.000287999258449
0.000743889144203
0.00205183648407
0.0059906707635
0.0170703474596
0.0305640453701
0.0330225720401
0.0293930642993
0.0183636428933
0.00703198069819
0.00426862380523
0.00309300049697
0.0023881567556
0.00197579350203
0.00183133861475
0.00204019868549
0.000805947623286
0.000282117877818
0.00011153040132
0.000148433510985
0.000361271602774
0.00095666093313
0.0025470052323
0.00673688329806
0.0184551893078
0.0297497409425
0.0302943047658
0.0242997370569
0.0131751080709
0.00568540479072
0.00377004109271
0.00279421435162
0.00218838198267
0.00184635187157
0.00176580302353
0.00193856528883
0.000586299016759
0.000190845709742
9.59355950586e-05
0.000172796894703
0.000457838432777
0.00120742726733
0.00295696899484
0.00703276296852
0.0188785507401
0.0283157793399
0.0271431718637
0.019075734494
0.00921768825338
0.00480045873385
0.00337082959925
0.00254123568885
0.00201327622865
0.00173427390833
0.00172147987374
0.00186911392718
0.000418773497462
0.000131060429084
9.22269205723e-05
0.000211504724273
0.000593117207069
0.00151474380729
0.00319966811507
0.00723064405507
0.0189063865072
0.0264963049716
0.0232635405221
0.0143121600405
0.00673647067715
0.00417307277522
0.00303123538558
0.00231560560496
0.00185004582777
0.00163327868772
0.00170514160054
0.00186201351814
0.000296309541636
9.3575602663e-05
0.000100277627568
0.000277519422555
0.000803075601206
0.00184052501443
0.00340577824697
0.00758341376914
0.0188305528764
0.0243720908517
0.0188005144743
0.010276072857
0.00531397549908
0.00366688782117
0.00272244293113
0.00209657368302
0.00169298010069
0.00154989635302
0.00172270481083
0.00193343327308
0.000209209054031
7.30898304032e-05
0.000124060310745
0.000394000579385
0.00110527817665
0.00213397461635
0.00373137008883
0.0081242066707
0.0184044873485
0.0214233087408
0.0143893807196
0.00730817319866
0.00442084635391
0.00319248707535
0.00241682015771
0.0018764089055
0.00155128198191
0.00150863537488
0.00178307074826
0.00206485352175
0.000149629345398
6.79773696327e-05
0.000168728903428
0.000585629099522
0.00139360134504
0.00238730417175
0.00409728989922
0.00850948416945
0.0172821369079
0.0173535785025
0.0103850955265
0.00541959312189
0.00368235589494
0.00272252604202
0.00209595806957
0.00167829674748
0.00148259563833
0.00156823540789
0.00189948351101
0.00218528159198
0.000112117080417
7.42499409694e-05
0.000242656293914
0.000800863146249
0.00157166407322
0.00256103350157
0.00423985203206
0.00824909204231
0.0152380321221
0.0132539228849
0.00723930333622
0.00421468866845
0.00296448225623
0.00226248732542
0.00183252769098
0.0016136772161
0.00161383364257
0.00181851043709
0.00209973750544
0.00227152111279
9.35070627766e-05
8.91787853933e-05
0.000331093685005
0.000935061178138
0.00160749558501
0.00253298194382
0.0039810018943
0.00718535091765
0.0125758587014
0.00999079303222
0.00531126175005
0.0033014164103
0.00239447714698
0.00193750046662
0.0017538591844
0.0017771874822
0.00197526055805
0.00227028982201
0.00256448019552
0.00282109775799
9.06450297558e-05
0.000114701511538
0.000405987451151
0.000897608613532
0.00147418599032
0.00225735868586
0.00336362798088
0.00555279313121
0.00954219263121
0.00745690652939
0.00424848936486
0.00289465902734
0.00231472146492
0.00203596250174
0.00195583198852
0.0020482485169
0.0023022477083
0.00267975533346
0.003234069006
0.00409443844372
0.000100741859034
0.00015206525518
0.000417041422764
0.000756477587144
0.00119545099278
0.00179996420423
0.00258798751765
0.00388854678719
0.00639639419858
0.00532968665701
0.00339284214153
0.00237322576795
0.00180983749205
0.00161891096496
0.00187708101395
0.00245464658855
0.00300673482755
0.00341467540068
0.00390942347113
0.00547236104517
0.000118983312137
0.000203996078496
0.000360462392943
0.000588715576762
0.000881025414133
0.00129789481692
0.00180218870946
0.00254961934279
0.00385196218784
0.00351297514231
0.00256197950628
0.00185449710691
0.00142073743308
0.00115964182216
0.00122681422456
0.00197945416737
0.00372505845017
0.0051964422071
0.00459472513568
0.00656156341716
0.000148219782649
0.000228776544791
0.000313902987389
0.000449899573687
0.000620069249387
0.000877845310844
0.001178330095
0.00155663487596
0.00215630756135
0.00213340512199
0.00173464363052
0.0013061685917
0.000986882460559
0.000865576849867
0.00102327588123
0.00200020716068
0.00468842660487
0.00713475161987
0.0048255682404
0.00721336088381
0.000199189806275
0.000232305733897
0.000289046661052
0.000353393742499
0.000439558146693
0.000575903517826
0.000753601822626
0.000923519058087
0.00113595188783
0.00119885852382
0.00104028576383
0.000808783303286
0.000680616705641
0.00083542509299
0.00157574116666
0.00340789040892
0.00586807095007
0.00826217846613
0.00458593680427
0.00720217697372
0.000265591494911
0.000248198793776
0.000281387478083
0.000297715719919
0.000326571062477
0.000385983947581
0.000482694301938
0.000558690640767
0.000615593102713
0.00062623261106
0.00056027876954
0.00048306848084
0.000655090658443
0.00136771177013
0.00249113552337
0.00396778407473
0.00669183773426
0.00950300515434
0.00417482873381
0.00637614731233
0.000302614752836
0.000278971119781
0.000289110323517
0.000276651322942
0.000268997455949
0.000281260845206
0.000322035895125
0.000348521269638
0.000349545746318
0.000330886128633
0.000302398384242
0.000388011305876
0.00108396973609
0.00197326343791
0.00284938166219
0.00458159837021
0.00751966813511
0.0103224502719
0.00370895995331
0.00552126174217
0.000341084728924
0.000320974428638
0.000313581660183
0.000284305082101
0.000252204103386
0.000233781475591
0.000236664709728
0.000233544604033
0.000213239486047
0.000192611090744
0.000216305180833
0.000519465928334
0.00158622466543
0.0022143554474
0.00325983326516
0.00513855506171
0.00836480669415
0.0113653631682
0.00346470180601
0.00469889927049
0.000392879790693
0.000374634956498
0.000361873595273
0.000320999119999
0.000268685961622
0.000226144814307
0.000201421448616
0.000178663548845
0.000149258466553
0.000143443199747
0.000228995295343
0.000702312756003
0.00159342622446
0.00215108305138
0.00320277908654
0.00569195460658
0.00971959703239
0.0128428148658
0.00393575529183
0.00384637152861
0.000459961851729
0.000459419877692
0.000449269596507
0.000393792524633
0.000316460555915
0.000248699471875
0.000199796500305
0.000159485600622
0.000125369431953
0.000133289915028
0.000236686181675
0.00065859665436
0.00127110161968
0.00174681039804
0.00299675410651
0.00671673870053
0.0114723596371
0.0138331901976
0.0042567447853
0.00288991887275
0.000563170784882
0.000587957750952
0.000564228362932
0.000487262000483
0.000385755577315
0.000295575602982
0.000220423400008
0.000161780941561
0.000121858032146
0.000127215475996
0.000208055604496
0.000413312109848
0.000767703945946
0.00112061628897
0.00272209781741
0.00778746560884
0.0124913952887
0.0138065250684
0.00344377853782
0.00240798358417
)
;

boundaryField
{
    emptyPatch
    {
        type            empty;
    }
    minY
    {
        type            fixedValue;
        value           nonuniform List<scalar> 0();
    }
    maxY
    {
        type            inletOutlet;
        inletValue      uniform 1e-05;
        value           nonuniform List<scalar> 
40
(
2.12591680267
1.53499660254
1.24629893735
1.06372955873
0.852721649406
0.576068784286
0.335240619831
0.173989101563
0.0826759575399
0.0388901903376
0.0221600655986
0.016263045896
0.013097393543
0.0100520580104
0.0065636915853
0.00320256406639
0.00110322169842
0.000318999611773
0.000217326204872
0.000426422969031
0.000563170784882
0.000587957750952
0.000564228362932
0.000487262000483
0.000385755577315
0.000295575602982
0.000220423400008
0.000161780941561
0.000121858032146
0.000127215475996
0.000208055604496
0.000413312109848
0.000767703945946
0.00112061628897
0.00272209781741
0.00778746560884
0.0124913952887
0.0138065250684
0.00344377853782
0.00240798358417
)
;
    }
    maxX
    {
        type            kqRWallFunction;
        value           nonuniform List<scalar> 
38
(
0.00343797421045
0.00324885918545
0.00308253212936
0.00295997233781
0.00289658887558
0.00288997761859
0.00291681940649
0.00296322976494
0.00302200197858
0.00307391452465
0.00308347484747
0.00302226388557
0.00290365900039
0.00275858465254
0.00260415024594
0.00244729757582
0.00229662096487
0.00215995817531
0.00204019868549
0.00193856528883
0.00186911392718
0.00186201351814
0.00193343327308
0.00206485352175
0.00218528159198
0.00227152111279
0.00282109775799
0.00409443844372
0.00547236104517
0.00656156341716
0.00721336088381
0.00720217697372
0.00637614731233
0.00552126174217
0.00469889927049
0.00384637152861
0.00288991887275
0.00240798358417
)
;
    }
    water_to_heater
    {
        type            kqRWallFunction;
        value           nonuniform List<scalar> 
59
(
5.13768316919
5.13768316919
4.89216037893
4.27209809207
3.46417232094
3.46417232094
2.85228019509
2.85228019509
2.4578037359
2.4578037359
2.17560505035
1.94635320521
1.71386418502
1.71386418502
1.56579403888
1.56579403888
1.66722306567
1.66722306567
2.01895851955
2.40224585652
2.55114237241
2.55114237241
2.47433026538
2.47433026538
2.38906972761
2.38906972761
2.71013951739
3.56317653336
4.75392420399
4.75392420399
5.56953848569
5.56953848569
5.92495080252
5.92495080252
6.22774736081
6.54783487565
6.88877386061
6.88877386061
7.20469899308
7.20469899308
7.52640990956
7.52640990956
7.86052347516
8.20305155982
8.54347822619
8.54347822619
8.36826841494
8.36826841494
7.13705855408
7.13705855408
5.47590500517
4.02653082162
3.15382246764
3.15382246764
2.65751993504
2.65751993504
2.336722619
2.336722619
2.12591680267
)
;
    }
    procBoundary0to1
    {
        type            processor;
        value           nonuniform List<scalar> 
41
(
5.19328679498
2.30506553728
1.10155617174
0.579332643831
0.339427877622
0.221106356781
0.153724027136
0.100110778096
0.0571993178505
0.0339164976264
0.0221657597778
0.0161762158308
0.013081802832
0.0113558664803
0.0100053377902
0.00851817204283
0.00680691444137
0.0050863312491
0.00368444222689
0.00266417045946
0.000118451510539
8.55511918761e-05
6.92046506647e-05
6.20572899636e-05
9.92302517887e-05
0.00057543744745
0.00514629327563
0.0134788376198
0.0200869638884
0.0223310021212
0.0157483266136
0.00852880902624
0.00467411708154
0.00308559179017
0.00231867189324
0.00362051198151
0.00182296534958
0.00107595691828
0.000525854714085
0.000240200606902
0.000240200606902
)
;
    }
}


// ************************************************************************* //
