/*--------------------------------*- C++ -*----------------------------------*\
| =========                 |                                                 |
| \\      /  F ield         | OpenFOAM: The Open Source CFD Toolbox           |
|  \\    /   O peration     | Version:  2312                                  |
|   \\  /    A nd           | Website:  www.openfoam.com                      |
|    \\/     M anipulation  |                                                 |
\*---------------------------------------------------------------------------*/
FoamFile
{
    version     2.0;
    format      ascii;
    arch        "LSB;label=32;scalar=64";
    class       volScalarField;
    location    "0.55/water";
    object      p_rgh;
}
// * * * * * * * * * * * * * * * * * * * * * * * * * * * * * * * * * * * * * //

dimensions      [1 -1 -2 0 0 0 0];

internalField   nonuniform List<scalar> 
1503
(
101108.558988
101105.17584
101104.642034
101104.001965
101103.369681
101102.772703
101102.214942
101101.701942
101101.238879
101100.824107
101100.455696
101100.13055
101099.844101
101099.592013
101099.370748
101099.17748
101099.010022
101098.866804
101098.746873
101098.649757
101091.750867
101096.802027
101099.93183
101101.320753
101101.509703
101101.393881
101101.166583
101100.906305
101100.632563
101100.359063
101100.101104
101099.864152
101099.646182
101099.444919
101099.259717
101099.091013
101098.939701
101098.806809
101098.69345
101098.600738
101079.836708
101086.757972
101093.211704
101096.950598
101098.526529
101099.215616
101099.48235
101099.5486
101099.520429
101099.441401
101099.335864
101099.22178
101099.10771
101098.995256
101098.884599
101098.776774
101098.67376
101098.578084
101098.492494
101098.419558
101070.430051
101077.90231
101086.76114
101092.658144
101095.802235
101097.410943
101098.152748
101098.453814
101098.561261
101098.585764
101098.570054
101098.533833
101098.48817
101098.438118
101098.384973
101098.329268
101098.272125
101098.215409
101098.161518
101098.112855
101061.886702
101068.704304
101078.275459
101086.171718
101091.613585
101095.020533
101096.828201
101097.613273
101097.891252
101097.971209
101097.982777
101097.969359
101097.945214
101097.916756
101097.886402
101097.854616
101097.821652
101097.78822
101097.755542
101097.724924
101055.788635
101061.280516
101069.575048
101077.87739
101085.193664
101090.943907
101094.709231
101096.64825
101097.380207
101097.561129
101097.568323
101097.535785
101097.495784
101097.456297
101097.420188
101097.387831
101097.358789
101097.332703
101097.309533
101097.289275
101050.6332
101055.22099
101061.734867
101068.947079
101076.740625
101084.375559
101090.621739
101094.683348
101096.601516
101097.161863
101097.203035
101097.135139
101097.061516
101096.996873
101096.943678
101096.901647
101096.869433
101096.845544
101096.828657
101096.817353
101045.147501
101049.550888
101054.773822
101060.430948
101067.542644
101075.844597
101084.023191
101090.623691
101094.700555
101096.350653
101096.658227
101096.596322
101096.504612
101096.430008
101096.374476
101096.33641
101096.313313
101096.302534
101096.301511
101096.307691
101038.568195
101042.801582
101046.853872
101051.473498
101057.953912
101066.329023
101075.446767
101083.981899
101090.665006
101094.438263
101095.631152
101095.744344
101095.694224
101095.658162
101095.643018
101095.645478
101095.662142
101095.689689
101095.724981
101095.76503
101030.354789
101033.586255
101036.754393
101040.857415
101047.283023
101055.835614
101065.301186
101074.901079
101083.817521
101090.533189
101093.725967
101094.474947
101094.591771
101094.668477
101094.753966
101094.845163
101094.939394
101095.034361
101095.12786
101095.217746
101017.849159
101021.004655
101024.425975
101028.682643
101035.371043
101044.132684
101053.796237
101063.904313
101074.249247
101083.93015
101090.429652
101092.812801
101093.354405
101093.612712
101093.842883
101094.053963
101094.246826
101094.422571
101094.581801
101094.72471
101000.956602
101008.401614
101013.684939
101017.881287
101024.025291
101032.492138
101042.20757
101052.462097
101063.331002
101074.86954
101085.16352
101090.767556
101092.357843
101092.834262
101093.180987
101093.484435
101093.750231
101093.982825
101094.185661
101094.361293
100991.151302
101000.041276
101006.037205
101009.915682
101015.115944
101022.763234
101032.142308
101042.308237
101052.920833
101064.579714
101077.355922
101087.520793
101091.703939
101092.634245
101093.01105
101093.321056
101093.589001
101093.819604
101094.016809
101094.183823
100985.978144
100996.188348
101001.056704
101004.995836
101010.193249
101017.432531
101025.756116
101034.882667
101044.269575
101054.480468
101067.269334
101081.440243
101090.483891
101092.949881
101093.373862
101093.599474
101093.790208
101093.951885
101094.086934
101094.197773
100979.962435
100990.726503
100995.083604
100999.814262
101006.063631
101014.103772
101022.716764
101030.343603
101037.717723
101045.54757
101056.486153
101072.298611
101087.111453
101093.241744
101094.131716
101094.225123
101094.275642
101094.313164
101094.33846
101094.35277
100975.257323
100988.767105
100991.645229
100996.408501
101003.432529
101012.413029
101021.24311
101028.426944
101033.486561
101038.592635
101047.173057
101062.509758
101081.314346
101092.70934
101095.049866
101095.042946
101094.905323
101094.778062
101094.660966
101094.553068
100970.334511
100986.035267
100988.679711
100994.117461
101002.507986
101012.69422
101021.654594
101027.477842
101030.411222
101033.357035
101040.19951
101054.463793
101074.704321
101090.88158
101095.737427
101095.803395
101095.464362
101095.161117
101094.896414
101094.665936
100965.217496
100985.527587
100989.283211
100995.670751
101004.76456
101015.208648
101023.208209
101026.534183
101027.085706
101028.563899
101034.401341
101047.867759
101068.421699
101087.947462
101095.734262
101096.155252
101095.668657
101095.230483
101094.856981
101094.540718
100958.264095
100982.062741
100988.616262
100997.22546
101006.943799
101016.584925
101022.258664
101022.586905
101022.131054
101022.56228
101027.643811
101040.518308
101061.531868
101083.778713
101094.622248
101095.750053
101095.242991
101094.770069
101094.375286
101094.049546
100948.176239
100976.178239
100984.221615
100993.919414
101003.77638
101012.360449
101016.391228
101015.976489
101014.414455
101013.989379
101017.94721
101029.922858
101051.500506
101076.949073
101091.840677
101094.363112
101094.033169
101093.663471
101093.368426
101093.136551
100939.384195
100969.999846
100977.068246
100985.895184
100995.764087
101004.194332
101007.490038
101005.796219
101003.004858
101001.777961
101004.393481
101014.078815
101034.661235
101063.97741
101085.970111
101091.840597
101092.067307
101091.950275
101091.883148
101091.852995
100934.374548
100961.860731
100966.313791
100973.275673
100982.389176
100990.441026
100992.955811
100991.064928
100988.943219
100989.092107
100991.124494
100995.25759
101009.228998
101039.886087
101073.476414
101087.723435
101089.584578
101089.862725
101090.118067
101090.369216
100926.250189
100945.787836
100945.809793
100949.253012
100958.393516
100968.397695
100973.174938
100974.52875
100976.503271
100980.385251
100982.716742
100983.037778
100985.748328
101008.282903
101049.907302
101079.998392
101086.854302
101087.787111
101088.389338
101088.942637
100909.81751
100917.416768
100913.463359
100915.769108
100927.73805
100942.916135
100953.097297
100959.975932
100967.572052
100974.046993
100976.846834
100976.116851
100976.698195
100983.317737
101018.568702
101064.901558
101083.454049
101086.098673
101087.030063
101087.844295
100890.963453
100885.84271
100881.07561
100884.834182
100899.648933
100919.79374
100936.089129
100948.75834
100961.184592
100972.189559
100976.21014
100973.321647
100970.838462
100971.710532
100994.061606
101043.538782
101077.816926
101084.986418
101086.320059
101087.300514
100870.554182
100864.112331
100861.975785
100865.369405
100879.166625
100901.542903
100922.988833
100941.231416
100958.429126
100974.057467
100978.718996
100975.200687
100968.691749
100967.673263
100981.530022
101024.074053
101069.083685
101084.218303
101086.407148
101087.442138
100853.10471
100853.26015
100853.498202
100855.479313
100866.594222
100889.053587
100914.118924
100937.309423
100958.861094
100975.906342
100977.370934
100977.833814
100971.954498
100967.611976
100976.919008
101010.815943
101059.047285
101083.314911
101087.267431
101088.284705
100840.10496
100847.834612
100848.766307
100850.317814
100860.287272
100882.563023
100909.916693
100936.4632
100962.166515
100975.60873
100976.27493
100976.993999
100976.986704
100971.868015
100975.752455
101001.190685
101049.284478
101081.985084
101088.744063
101089.753147
100832.801776
100844.057052
100845.35212
100846.710132
100857.031847
100880.114186
100909.155036
100939.628201
100968.232203
100975.876079
100976.276463
100976.955127
100977.220643
100977.29193
100974.909088
100992.36107
101039.183744
101079.856381
101090.594453
101091.724212
100829.198821
100842.850452
100843.425189
100844.842855
100856.289915
100880.904782
100912.743042
100947.066126
100974.722169
100976.865908
100977.179437
100977.185911
100977.676832
100977.437169
100972.227968
100981.573087
101027.012402
101076.033052
101092.474376
101094.065239
100827.529019
100842.797615
100841.630443
100844.890834
100859.217258
100886.660082
100921.648629
100957.687933
100978.425385
100978.120714
100978.026063
100978.311565
100977.796875
100977.968214
100964.94466
100968.625636
101012.384973
101069.241702
101093.853962
101096.656602
100823.787036
100845.722288
100844.004416
100849.44204
100867.088635
100897.538733
100934.571909
100969.804488
100979.878456
100979.422316
100979.413588
100978.767753
100978.912033
100977.57209
100957.432151
100958.012304
100997.627839
101059.230473
101094.09931
101099.354599
100822.580658
100848.871215
100849.683876
100858.001682
100878.956016
100911.769448
100949.155251
100979.357915
100980.919729
100980.567407
100979.96917
100979.832299
100978.688149
100977.873787
100949.871911
100950.923199
100985.394559
101048.262283
101092.933347
101101.925958
100817.42152
100854.103548
100859.127614
100872.126244
100895.9793
100929.608293
100965.025434
100982.401867
100981.485255
100980.904983
100980.511406
100979.441435
100979.034447
100965.461093
100948.146659
100948.213212
100976.282594
101038.402765
101090.440267
101104.020459
100815.320811
100859.885549
100870.541533
100889.666557
100916.47251
100949.008307
100979.044664
100982.252896
100981.438355
100980.789802
100979.663525
100978.94702
100976.916492
100952.540316
100946.210439
100946.36158
100969.754592
101029.31668
101086.376946
101105.255466
100810.395138
100870.627168
100887.19227
100911.210522
100938.975243
100966.979857
100982.962427
100981.700182
100980.671095
100979.427367
100978.728089
100976.880989
100970.094215
100943.84569
100943.754633
100943.248061
100963.680025
101018.558074
101079.652168
101105.202924
100809.419075
100885.480464
100908.516804
100934.085726
100957.984793
100977.948955
100981.684147
100980.18888
100978.728141
100977.720038
100975.792367
100974.550061
100951.738293
100940.485951
100939.710555
100939.289166
100954.784013
101002.283106
101068.264807
101103.281178
100805.223164
100908.652288
100934.876665
100955.641202
100969.241188
100979.455346
100979.320582
100977.609583
100976.234762
100974.05146
100972.857431
100968.231783
100944.829499
100937.310069
100935.35856
100933.835598
100940.13623
100978.238261
101050.059227
101098.576964
101098.577134
101098.53063
101098.508465
101098.507802
101098.526486
101098.562972
101098.616226
101098.685637
101098.770946
101098.872199
101098.989741
101099.124294
101099.277187
101099.450714
101099.64813
101099.871249
101100.116843
101100.390303
101100.761727
101104.513002
101098.531078
101098.486494
101098.465458
101098.465002
101098.482697
101098.516548
101098.564882
101098.626246
101098.699359
101098.783138
101098.876817
101098.980157
101099.093589
101099.217781
101099.351507
101099.488766
101099.622314
101099.753966
101099.901573
101099.908851
101098.362137
101098.322966
101098.301853
101098.29647
101098.304445
101098.323555
101098.351776
101098.387287
101098.428536
101098.474333
101098.523951
101098.577087
101098.633407
101098.691254
101098.745922
101098.790595
101098.821845
101098.844852
101098.870178
101098.766933
101098.071594
101098.040393
101098.020321
101098.010108
101098.008025
101098.012399
101098.021737
101098.034813
101098.05075
101098.069065
101098.089616
101098.112303
101098.136404
101098.159664
101098.178288
101098.189802
101098.197443
101098.210779
101098.229688
101098.139309
101097.697116
101097.673913
101097.656862
101097.645371
101097.638375
101097.634908
101097.634199
101097.635738
101097.639311
101097.644964
101097.652826
101097.662736
101097.673695
101097.683492
101097.689566
101097.69185
101097.695348
101097.70542
101097.71123
101097.632943
101097.271091
101097.255518
101097.243667
101097.234941
101097.228613
101097.224155
101097.221267
101097.21988
101097.220134
101097.222265
101097.226385
101097.232128
101097.238291
101097.242863
101097.244313
101097.244243
101097.248245
101097.256111
101097.255098
101097.194747
101096.809398
101096.803803
101096.800597
101096.798931
101096.798183
101096.798049
101096.798494
101096.799688
101096.801928
101096.805484
101096.810375
101096.816088
101096.821396
101096.824676
101096.82545
101096.826597
101096.832555
101096.837662
101096.832952
101096.786894
101096.317625
101096.328581
101096.339683
101096.350174
101096.35967
101096.368153
101096.37586
101096.383178
101096.390532
101096.398225
101096.406234
101096.414021
101096.420489
101096.424516
101096.426611
101096.430401
101096.437606
101096.439829
101096.434166
101096.398891
101095.80539
101095.842092
101095.874295
101095.902097
101095.925852
101095.946139
101095.963664
101095.979147
101095.993232
101096.006334
101096.018499
101096.02928
101096.037826
101096.043594
101096.048002
101096.054716
101096.062056
101096.062065
101096.056903
101096.029395
101095.299495
101095.368966
101095.426651
101095.474479
101095.51414
101095.547189
101095.57503
101095.598871
101095.619675
101095.638066
101095.654244
101095.667941
101095.678621
101095.68636
101095.693331
101095.702355
101095.708844
101095.707528
101095.703325
101095.681427
101094.847881
101094.948295
101095.028818
101095.093743
101095.146393
101095.189443
101095.225065
101095.254981
101095.28049
101095.302435
101095.321186
101095.336665
101095.348669
101095.357878
101095.366942
101095.377004
101095.381944
101095.379937
101095.376557
101095.358699
101094.507786
101094.623839
101094.7146
101094.786224
101094.843256
101094.889171
101094.926653
101094.957731
101094.983884
101095.006055
101095.024692
101095.039843
101095.05159
101095.061136
101095.071165
101095.080665
101095.083577
101095.081041
101095.078092
101095.063091
101094.319673
101094.424575
101094.504732
101094.566656
101094.61506
101094.65345
101094.684449
101094.709975
101094.731366
101094.74943
101094.764516
101094.776665
101094.786161
101094.79457
101094.804022
101094.811392
101094.811941
101094.808656
101094.805663
101094.792591
101094.284148
101094.347651
101094.394017
101094.428325
101094.45416
101094.474111
101094.490044
101094.503241
101094.514516
101094.524257
101094.532507
101094.539159
101094.544602
101094.550519
101094.557863
101094.561932
101094.55993
101094.555529
101094.55206
101094.54017
101094.356922
101094.35392
101094.347653
101094.340157
101094.332702
101094.326081
101094.320751
101094.316884
101094.314424
101094.313095
101094.312468
101094.312194
101094.312673
101094.315385
101094.319606
101094.319899
101094.315396
101094.309636
101094.305405
101094.294113
101094.45595
101094.373282
101094.305566
101094.250462
101094.205985
101094.170472
101094.142502
101094.120823
101094.104301
101094.091871
101094.082575
101094.075809
101094.071911
101094.071786
101094.072838
101094.069767
101094.063201
101094.056167
101094.051133
101094.040033
101094.470941
101094.314217
101094.191494
101094.095374
101094.02022
101093.961676
101093.916342
101093.881506
101093.854986
101093.834998
101093.820155
101093.809696
101093.803853
101093.802595
101093.801655
101093.796574
101093.788897
101093.781116
101093.775544
101093.764436
101094.281865
101094.080872
101093.928386
101093.812579
101093.7247
101093.658177
101093.608046
101093.57052
101093.542711
101093.52243
101093.508146
101093.499153
101093.495561
101093.496169
101093.495606
101093.490692
101093.483391
101093.475833
101093.4703
101093.459213
101093.792008
101093.60011
101093.460773
101093.359979
101093.287522
101093.235895
101093.199581
101093.174528
101093.157806
101093.147371
101093.141996
101093.141314
101093.145338
101093.151697
101093.154717
101093.152656
101093.1476
101093.141556
101093.136874
101093.126057
101092.965948
101092.851144
101092.778195
101092.734424
101092.71073
101092.700574
101092.699342
101092.703835
101092.711959
101092.722501
101092.735059
101092.74991
101092.767033
101092.783154
101092.793142
101092.796643
101092.795768
101092.792606
101092.789665
101092.779531
101091.856249
101091.885653
101091.930373
101091.983192
101092.039028
101092.094433
101092.147258
101092.19633
101092.24127
101092.282358
101092.320471
101092.356782
101092.391316
101092.420388
101092.440106
101092.451319
101092.456202
101092.457059
101092.456621
101092.447647
101090.608978
101090.829487
101091.026665
101091.202138
101091.357216
101091.493224
101091.611686
101091.714326
101091.803105
101091.880231
101091.948127
101092.008974
101092.062914
101092.106427
101092.137286
101092.15728
101092.168731
101092.174214
101092.176709
101092.169308
101089.435378
101089.858195
101090.215071
101090.517699
101090.774688
101090.992788
101091.177638
101091.334144
101091.466775
101091.579742
101091.677007
101091.761685
101091.834055
101091.891279
101091.932885
101091.961335
101091.979141
101091.98913
101091.994525
101091.988932
101088.556229
101089.153658
101089.647617
101090.058718
101090.402124
101090.689464
101090.930052
101091.131605
101091.300771
101091.443461
101091.564901
101091.668867
101091.755732
101091.823682
101091.8738
101091.908962
101091.93185
101091.945472
101091.953242
101091.949445
101088.154024
101088.865253
101089.448657
101089.930329
101090.329696
101090.661642
101090.937953
101091.168228
101091.360564
101091.52198
101091.658481
101091.774073
101091.869124
101091.942968
101091.997844
101092.036802
101092.062615
101092.078364
101092.087567
101092.085298
101088.33581
101089.081584
101089.692628
101090.19594
101090.6121
101090.957047
101091.243428
101091.481507
101091.679894
101091.845992
101091.985981
101092.103581
101092.199052
101092.272782
101092.327676
101092.366756
101092.392759
101092.408714
101092.41813
101092.416909
101089.119659
101089.82058
101090.396339
101090.870857
101091.263032
101091.587785
101091.857072
101092.080651
101092.266741
101092.422428
101092.553442
101092.662726
101092.75035
101092.817499
101092.867272
101092.90248
101092.925691
101092.939749
101092.948034
101092.947238
101090.451302
101091.040829
101091.526782
101091.927662
101092.258826
101092.532709
101092.759434
101092.94735
101093.103584
101093.234316
101093.344264
101093.435211
101093.506987
101093.561222
101093.60081
101093.628203
101093.645662
101093.65573
101093.661535
101093.660465
101092.234518
101092.663359
101093.016968
101093.307853
101093.547081
101093.743877
101093.905875
101094.03946
101094.150201
101094.242921
101094.320849
101094.384374
101094.433049
101094.468556
101094.493284
101094.509199
101094.518146
101094.522258
101094.524306
101094.522227
101094.361194
101094.593363
101094.781763
101094.933512
101095.055384
101095.153159
101095.23167
101095.295023
101095.346906
101095.390404
101095.426855
101095.455143
101095.474463
101095.486163
101095.491927
101095.493123
101095.491092
101095.487474
101095.484596
101095.480754
101096.730408
101096.732324
101096.725883
101096.712819
101096.695299
101096.675307
101096.654521
101096.634434
101096.61651
101096.601666
101096.588969
101096.575746
101096.560681
101096.544448
101096.52788
101096.511673
101096.496591
101096.483729
101096.474903
101096.468541
101099.230441
101098.965546
101098.735182
101098.534131
101098.358549
101098.205706
101098.07348
101097.960256
101097.864786
101097.785286
101097.718203
101097.659278
101097.606467
101097.559499
101097.518283
101097.482782
101097.453152
101097.429921
101097.414357
101097.404748
101101.695402
101101.135404
101100.66019
101100.256038
101099.911314
101099.617508
101099.368021
101099.157606
101098.981762
101098.835456
101098.712288
101098.606428
101098.514895
101098.436319
101098.369666
101098.31416
101098.269351
101098.235223
101098.212499
101098.199024
101103.884701
101103.033135
101102.314211
101101.708697
101101.197305
101100.765708
101100.402707
101100.09917
101099.846919
101099.637305
101099.461094
101099.310986
101099.182941
101099.074476
101098.983673
101098.909062
101098.84965
101098.804945
101098.775177
101098.757429
101105.542935
101104.435616
101103.498204
101102.712257
101102.052477
101101.499613
101101.038236
101100.655273
101100.338607
101100.075883
101099.855312
101099.668325
101099.509836
101099.376371
101099.265257
101099.174447
101099.102517
101099.048633
101099.012629
101098.990536
101106.436449
101105.131599
101104.020639
101103.093249
101102.31939
101101.675948
101101.14366
101100.705468
101100.345199
101100.047015
101099.797084
101099.585862
101099.407383
101099.257424
101099.132771
101099.030981
101098.950374
101098.889967
101098.849363
101098.823307
101106.327814
101104.915645
101103.699552
101102.691133
101101.856283
101101.169298
101100.607554
101100.150058
101099.776792
101099.469062
101099.211738
101098.994724
101098.81153
101098.65755
101098.529335
101098.424312
101098.340792
101098.277904
101098.235246
101098.20611
101104.960166
101103.590997
101102.368722
)
;

boundaryField
{
    emptyPatch
    {
        type            empty;
    }
    minY
    {
        type            zeroGradient;
    }
    maxY
    {
        type            prghTotalPressure;
        U               U.gas;
        p0              nonuniform List<scalar> 0();
        value           nonuniform List<scalar> 0();
    }
    maxX
    {
        type            fixedFluxPressure;
        gradient        uniform 0;
        value           nonuniform List<scalar> 
37
(
101104.513002
101099.908851
101098.766933
101098.139309
101097.632943
101097.194747
101096.786894
101096.398891
101096.029395
101095.681427
101095.358699
101095.063091
101094.792591
101094.54017
101094.294113
101094.040033
101093.764436
101093.459213
101093.126057
101092.779531
101092.447647
101092.169308
101091.988932
101091.949445
101092.085298
101092.416909
101092.947238
101093.660465
101094.522227
101095.480754
101096.468541
101097.404748
101098.199024
101098.757429
101098.990536
101098.823307
101098.20611
)
;
    }
    water_to_heater
    {
        type            fixedFluxPressure;
        gradient        uniform 0;
        value           nonuniform List<scalar> 
61
(
101108.558988
101091.750867
101091.750867
101079.836708
101079.836708
101070.430051
101070.430051
101061.886702
101055.788635
101050.6332
101050.6332
101045.147501
101045.147501
101038.568195
101038.568195
101030.354789
101017.849159
101000.956602
101000.956602
100991.151302
100991.151302
100985.978144
100985.978144
100979.962435
100975.257323
100970.334511
100970.334511
100965.217496
100965.217496
100958.264095
100958.264095
100948.176239
100939.384195
100934.374548
100934.374548
100926.250189
100926.250189
100909.81751
100909.81751
100890.963453
100870.554182
100853.10471
100853.10471
100840.10496
100840.10496
100832.801776
100832.801776
100829.198821
100827.529019
100823.787036
100823.787036
100822.580658
100822.580658
100817.42152
100817.42152
100815.320811
100810.395138
100809.419075
100809.419075
100805.223164
100805.223164
)
;
    }
    procBoundary2to3
    {
        type            processor;
        value           nonuniform List<scalar> 
41
(
100804.867622
100937.420586
100953.802167
100963.384904
100968.874547
100975.975701
100976.184335
100974.038095
100971.640076
100970.044072
100967.573533
100959.200735
100948.149087
100941.425817
100934.498024
100926.194816
100918.545356
100947.995335
101023.079851
101089.265607
101101.367563
101100.548527
101099.884894
101099.351431
101098.923787
101098.578932
101098.296523
101098.06115
101097.862849
101097.695184
101097.553697
101097.435134
101097.337167
101097.258427
101097.19849
101097.157279
101097.126654
101101.97478
101100.97013
101101.367563
101099.890697
)
;
    }
}


// ************************************************************************* //
