/*--------------------------------*- C++ -*----------------------------------*\
| =========                 |                                                 |
| \\      /  F ield         | OpenFOAM: The Open Source CFD Toolbox           |
|  \\    /   O peration     | Version:  2312                                  |
|   \\  /    A nd           | Website:  www.openfoam.com                      |
|    \\/     M anipulation  |                                                 |
\*---------------------------------------------------------------------------*/
FoamFile
{
    version     2.0;
    format      ascii;
    arch        "LSB;label=32;scalar=64";
    class       volScalarField;
    location    "0.48/water";
    object      km;
}
// * * * * * * * * * * * * * * * * * * * * * * * * * * * * * * * * * * * * * //

dimensions      [0 2 -2 0 0 0 0];

internalField   nonuniform List<scalar> 
1496
(
2.01340908
1.05058219562
0.665194563135
0.50909995723
0.426894271879
0.365721791709
0.308466380544
0.248473160498
0.183865426122
0.116084068922
0.0674805034404
0.0379909876426
0.0221083468464
0.0142310540828
0.0103724666683
0.00818470602093
0.00661418265238
0.00533405339028
0.00435456372625
0.00375618588976
2.0596995152
1.04191768474
0.622865227988
0.45723915615
0.382151918334
0.334465926279
0.292210287037
0.246615289764
0.193436192664
0.132696249623
0.0801785137018
0.0466006106639
0.0274892466732
0.0174383265147
0.012343398845
0.00951089637867
0.00757426819229
0.0060648696338
0.00493649958707
0.00422948728338
1.91689366745
0.988916118585
0.586730624854
0.41500691429
0.339973162846
0.299333200128
0.267200063573
0.232814033456
0.190444996888
0.138611481145
0.0878824655321
0.052930102618
0.0320877192897
0.0205919213922
0.0144957196302
0.0110460962069
0.00870558167498
0.00693107036613
0.0056514851734
0.00486720693732
1.75989339459
0.929762494197
0.54623020469
0.37652383514
0.300996085631
0.264138472387
0.238729486838
0.212682927516
0.179567750183
0.136491595592
0.0899943230402
0.0561732696593
0.0351777477359
0.0231582939396
0.016531408916
0.0126615953452
0.00996490143301
0.00792006710803
0.00650073500046
0.00567826368903
1.66760335305
0.870361737871
0.498178379864
0.332293356009
0.261824427378
0.229250409296
0.208796111713
0.18879413742
0.162797241063
0.127425988568
0.0869144181921
0.0562792230965
0.0365888194473
0.0249481034789
0.0183189954584
0.014293146949
0.0113382028569
0.00904503819777
0.00751195456769
0.00670931640558
1.68913316749
0.838964615945
0.461452612281
0.293493753226
0.225902429728
0.196069690896
0.178971668679
0.163094163785
0.142182788015
0.113099810188
0.0797457073738
0.0538287677715
0.0365776072022
0.0260694491842
0.0198960683908
0.0159555779696
0.0128400458268
0.0103384276791
0.00873860381859
0.00804049549667
1.76484665811
0.827700471223
0.437716434318
0.26478726375
0.193696124746
0.165038779094
0.150157070328
0.136990896353
0.119622911304
0.0959249000788
0.0703350378592
0.0498371515575
0.0356941517799
0.0268313155949
0.0214372175241
0.0177467927556
0.0145334600399
0.0118646480874
0.0102577343562
0.00976303166551
1.82916524154
0.829475218888
0.426910762951
0.248641478703
0.170544100708
0.138746457315
0.12410266005
0.112485000041
0.098014626785
0.0795971115321
0.0609060737048
0.0455739981588
0.0347005631834
0.0276976369718
0.0232368482305
0.019845851754
0.0165489904155
0.0137483059609
0.0121775480845
0.011872473454
1.85523189249
0.838938890912
0.428080512048
0.245225109292
0.159361220921
0.121344988744
0.10404210073
0.0925258389662
0.0804706758773
0.0668112882715
0.0535010058551
0.0425085366075
0.0345611014517
0.0292809444273
0.0256884552276
0.0224886200692
0.019134526598
0.0162375615963
0.0146151078375
0.0139828761934
1.85145085171
0.85163798792
0.439573265706
0.253692498792
0.160040155411
0.114545347738
0.0927354819811
0.0800385103311
0.0695328683257
0.0592574326329
0.0497620622119
0.0419698465433
0.0361985914083
0.0322005281319
0.0291380913715
0.0259731656561
0.0227734839393
0.0198146911022
0.0173883404451
0.0147712814644
1.8160983485
0.869370825731
0.461733760106
0.272630212258
0.171179874371
0.117492392455
0.090319908716
0.0755131223511
0.0655286833411
0.057338961099
0.0503114601795
0.0445503692395
0.0401140921288
0.0368255401348
0.0338715433179
0.0308505220158
0.0283257529473
0.0251753045921
0.0194397616149
0.0142506055655
1.77354975183
0.888718038135
0.489677025304
0.295857161644
0.187252064794
0.126394336814
0.0939015261449
0.0766082454114
0.0666266049567
0.0598330810503
0.0544983377002
0.0500552319626
0.0464489816283
0.0433999051674
0.0403739014826
0.0376886389797
0.0361980666361
0.0314854616915
0.0196778210655
0.0138486295007
1.77734143866
0.920268917345
0.51760793616
0.312100756548
0.199797030428
0.135629013929
0.0996352905229
0.0802625427339
0.0702420880466
0.0646419263175
0.060688499988
0.0573786421214
0.0543968979013
0.0512899448886
0.0476520236251
0.0442337565662
0.041601448743
0.0352177928782
0.0201939410338
0.013363102281
1.9304006691
0.981177236826
0.532728670519
0.31560814601
0.204817484847
0.141143978061
0.104029842268
0.0837290382323
0.0739213006747
0.0691043428164
0.065930828198
0.0631994694192
0.0602927829996
0.0563599060119
0.0509496230565
0.0458484952631
0.0425863047213
0.0368781064368
0.020722422567
0.0124324085986
2.23854431911
1.0325949786
0.532829221339
0.313057549338
0.203887403759
0.141818315643
0.104970797419
0.0849466547583
0.075475461208
0.0707735192436
0.0681229876281
0.06596325788
0.0631345380752
0.0586083434974
0.0524169918702
0.0471833280362
0.0435022977844
0.036985200882
0.0206642165993
0.0115048291229
2.27441179259
1.04717167799
0.534655001291
0.309387706328
0.199225208353
0.137892725084
0.101512903753
0.0828192943746
0.0745196262362
0.0712717025463
0.0702530559467
0.0690474679811
0.0665415242259
0.0620554479439
0.0557447482704
0.0497164403786
0.0443278522291
0.0361892752014
0.0193684856321
0.0112846563495
2.1723794541
1.02446636717
0.526229217769
0.301437926163
0.191445142253
0.130351678892
0.094268435515
0.0783842506578
0.0733352897232
0.0732042814583
0.0737941382596
0.0730948154068
0.0705033149362
0.0657377537127
0.0590393542774
0.0517735723335
0.0442750739636
0.0334943686209
0.0174085767979
0.0118526709307
2.03129588843
0.98225636101
0.510920273904
0.29222712083
0.183445235475
0.122153702787
0.085979432801
0.0739683224671
0.0728122791678
0.0750946212376
0.0763847040438
0.0755526822958
0.0725302326307
0.067241711303
0.0600050719606
0.0516349163603
0.0420983830264
0.0275870510251
0.0162179977189
0.0128584030263
1.91037582421
0.944716326795
0.498280415122
0.285683320404
0.177693494128
0.115514337637
0.0785023916142
0.0696965197413
0.071588773018
0.0750410269314
0.0762582099551
0.0750078693964
0.0714759509159
0.0657720749446
0.0581344746507
0.0489630330511
0.0365166316821
0.0223742014089
0.0158220801138
0.0141620570212
1.85441894994
0.92505504713
0.492044706727
0.28267537541
0.174417057798
0.11056639269
0.0718897595643
0.0649120426591
0.0686515139768
0.0723691889735
0.0732034133494
0.0714760217076
0.067566645253
0.0615950494285
0.0536307800077
0.043012650191
0.0288776725444
0.0195521054951
0.0163507416908
0.0156160920365
1.86545499725
0.928058197907
0.494804612647
0.283872619748
0.173319535019
0.106729605677
0.0656386427459
0.0587560438083
0.0636972385249
0.0674211176158
0.0678701257555
0.0657763770154
0.0615700175403
0.0553087040084
0.0465253472207
0.0343558054749
0.0236550249476
0.0187585680962
0.0176103878378
0.016949607476
1.92695959455
0.948570786069
0.506721247906
0.289174501594
0.173622762412
0.103009419251
0.0592806915965
0.0509244851751
0.0570740446075
0.0609462691893
0.0612489833691
0.0587575514182
0.0540537822904
0.0470418177146
0.0372531350912
0.0273547664962
0.0214222213548
0.0195247643906
0.0192232090267
0.0178597856716
2.0201094234
0.995453762957
0.532051065073
0.299443725403
0.174775650286
0.0985823941277
0.0534133317959
0.0429175462718
0.0491114492882
0.0534372345031
0.053881481017
0.0507293378108
0.0451652650446
0.0375633370858
0.029556310386
0.0238964907327
0.021518363236
0.0211554268081
0.020637305872
0.0181288438292
2.15514057361
1.08428440984
0.575068167358
0.315769216695
0.176784056331
0.0944946547925
0.0490442142829
0.0364786911606
0.0406488475279
0.0451132284044
0.0458650845629
0.0419503586493
0.0361689926148
0.0300774679329
0.0255304500324
0.0233745862163
0.0230222827055
0.0228856965396
0.0212501333606
0.0178454673883
2.40227818029
1.23226027882
0.640451902229
0.34189006664
0.183039857872
0.0929081460112
0.0464022224395
0.0321198648657
0.0333713127955
0.0369078244944
0.0377220414584
0.0339072650338
0.0294518250282
0.0261350587345
0.0246994005679
0.0246901993121
0.0248411920444
0.0237779216881
0.0208693214594
0.0172176008859
2.85868893015
1.46781246436
0.744671092711
0.383460226029
0.196329011349
0.0959275731546
0.0465047343188
0.0298434541013
0.0282651659862
0.0301633494287
0.030740230892
0.0281728588174
0.0258745378831
0.0252060332443
0.0258060279611
0.0263780931094
0.0256898958289
0.0232576918525
0.0199548647879
0.0164781019108
3.63039509845
1.82962868483
0.89388635478
0.443574189949
0.220579035534
0.106316955749
0.0504219270178
0.029654838601
0.0252280432016
0.0255240356447
0.0259022999106
0.0249117293256
0.0247506774473
0.025974960895
0.0271396936903
0.0268583353373
0.024903544595
0.0221024499371
0.0190375689591
0.0157950568355
4.84756877861
2.32143172238
1.07781962147
0.519015027304
0.256001836192
0.124213245464
0.0582174044252
0.0313377378135
0.023749997819
0.0225956251716
0.0229102062259
0.0233427371312
0.0248832079642
0.0268462889999
0.0271654163098
0.025783154885
0.0235964767931
0.0210547193529
0.0183160350853
0.0153545956068
6.52884329844
2.84266751059
1.27361055308
0.598510008968
0.29475692203
0.14479845334
0.0678946048614
0.0345398468951
0.0237981408427
0.0212462980498
0.0214796689102
0.0229767212514
0.0254503078235
0.02678968167
0.0260298512932
0.0244911235863
0.0225921852484
0.0203963676749
0.0180508215223
0.0152775357503
7.83317300521
3.14206534175
1.3987285094
0.656646504126
0.324120730416
0.160771513038
0.0762878726773
0.0382760617356
0.0250594088742
0.0213763643492
0.0214461222681
0.0234124917017
0.0259327518578
0.0261585306247
0.0250323920686
0.0237855663129
0.0222358404843
0.0204672695234
0.0184143481064
0.0155436068816
8.57339977406
3.40737343722
1.50545683782
0.70002636343
0.342377581319
0.170461671475
0.0827379207258
0.042427300446
0.0273315423111
0.0225587533025
0.0222762086089
0.024294255633
0.0264145275409
0.0258659945107
0.0248295754303
0.02395703305
0.0228754401836
0.0214632666553
0.0193171972194
0.0159591484897
8.9539209721
3.68322532111
1.62414482665
0.743641580871
0.355981589018
0.176193356575
0.0882964973898
0.0477910387398
0.0311214387156
0.0249941554212
0.0240365852666
0.0257502976504
0.0273756817449
0.0264221627275
0.0256131261165
0.0252188759947
0.0245689174541
0.0231459069754
0.0204672769287
0.0163363642892
8.35372356812
3.72176603027
1.68023454993
0.767452873575
0.360560873158
0.17762446174
0.0932958900933
0.054635799437
0.0369720846688
0.0293611428555
0.0273444632265
0.0283589733333
0.0294117795612
0.0282561911501
0.0276471715288
0.0275303101806
0.0268269895697
0.0248486235604
0.0213033192378
0.0162991709791
7.06780975711
3.38948682872
1.57739131494
0.728766296899
0.344360061538
0.174999999182
0.0999118591446
0.0643920956761
0.0459988317567
0.0367497681711
0.0333858149639
0.0332916450814
0.0335103321155
0.0323092194899
0.0314280544277
0.0307169728939
0.0289813787814
0.0257789520755
0.0211311138937
0.0154247858266
5.59636035702
2.78893625185
1.32256332553
0.622715107573
0.308851388465
0.172603513334
0.110873728628
0.0787551978831
0.0597246186697
0.0488079236894
0.0439741984425
0.0426651019351
0.0419276016133
0.0402339300581
0.0381257298501
0.0355228489821
0.0314733539025
0.0261020674659
0.0201116844136
0.014143170521
4.38683044905
2.21646837336
1.06667886888
0.525212723079
0.28722202706
0.181647913844
0.129917656999
0.0998061234683
0.0799186806613
0.0672669929276
0.0607908099889
0.0583862771469
0.0562544017466
0.0526919514415
0.0486610398398
0.0432996447458
0.0360477644869
0.0279199475733
0.0202550514575
0.0138790789886
3.67111911725
1.83809994896
0.905031152033
0.474260947019
0.283444458046
0.196102048501
0.150542677998
0.121815284936
0.100979954273
0.0859728857841
0.0766981139366
0.0719063674863
0.0674615263584
0.0624127831422
0.0571119814485
0.0500436114176
0.0409996694688
0.0311653697647
0.0220910333313
0.0150367567375
0.00133074719451
0.00105977844216
0.000999313264858
0.000893822218087
0.000744180609779
0.000341957875634
0.000262117133054
0.00062876417482
0.00115079529025
0.00235462901132
0.00399678403474
0.00500253255135
0.00531256856374
0.00525850705077
0.00542838140327
0.00568470814473
0.00364064949309
0.00381682832567
0.00340446908495
0.00234606416725
0.0015061494587
0.00125229323365
0.00125409214022
0.00125144961343
0.000827125434101
0.000339589748105
0.000223987396724
0.000419448191033
0.000967115002791
0.00212868702203
0.00377251328911
0.00488010639777
0.00551505095314
0.00556841624354
0.00567761299828
0.00595387587788
0.00392842375907
0.00395705923734
0.00354770384474
0.00257953916723
0.00180606658002
0.00161314498732
0.00173115996263
0.00151624505929
0.000958291937493
0.000392784214491
0.000220158377854
0.00028424716397
0.00086371153198
0.00194737088613
0.00355035029366
0.00473444775459
0.00557537226077
0.00583167164328
0.00589132293174
0.00617280506951
0.00446544004213
0.0043329266349
0.00385052530088
0.00296883126443
0.00228355212062
0.00221848948829
0.00224724342181
0.0018047817987
0.00116215082576
0.000489716542982
0.000223939961255
0.000213943549228
0.000793549824099
0.001825823523
0.00335606018888
0.00461286126598
0.0055435807337
0.00600159325061
0.00605321781561
0.00633158965762
0.00524642085004
0.00499459209955
0.00439541431687
0.00355368910372
0.00297154210322
0.00290831519078
0.00262970684941
0.00220830416544
0.00142475971042
0.000618928150287
0.000220676128098
0.000183089757537
0.000756424014619
0.00176504217846
0.00321852086267
0.00452020818939
0.00549706440757
0.00607577420292
0.00615816505593
0.00643286337831
0.0063244382146
0.00597880448685
0.00520295227291
0.00434086489958
0.00374712451352
0.00346800215472
0.0031365173107
0.00268720269927
0.00169081216301
0.000734428222283
0.000226090911599
0.00017678495623
0.000761596702576
0.0017607378575
0.00315282327553
0.00447705637887
0.00547766928872
0.00609043450002
0.00620634892349
0.00648118002587
0.00777227799152
0.00716407590229
0.00617128159322
0.00527475390258
0.00454499679943
0.00410802609391
0.00375151611671
0.00317333685106
0.00189877212692
0.000806576256123
0.000243659580565
0.000188862900064
0.000803919665556
0.00180810974104
0.00316224329362
0.00449817928834
0.00549329998934
0.00607327300529
0.00620435653658
0.0064819061974
0.00953291318904
0.00817829873313
0.00717088786232
0.00634454881792
0.00547409683925
0.00489568640893
0.0044260472214
0.00358624696752
0.00201218548841
0.000833546762647
0.000270015593035
0.000224816868575
0.000867657887655
0.0018863244649
0.00322669737995
0.00457248789641
0.00552442925215
0.00602166501539
0.00615477030856
0.00643647773276
0.0109675706992
0.00903339538869
0.00831630382558
0.00758136242883
0.00660996561046
0.00582119289038
0.00512134656472
0.00386637467216
0.00202987129073
0.000827665335877
0.000303525099978
0.000279128547741
0.000922633751505
0.00197201107381
0.00331436755243
0.00465229310662
0.00552211370161
0.00592395006765
0.0060517627851
0.00634658114555
0.011542348888
0.0101310720669
0.00969023789997
0.0089240640406
0.00789947600889
0.00684962429987
0.00577990786198
0.0039865283901
0.00196892867076
0.00079942369526
0.000331310182565
0.000322314809132
0.000956680567814
0.00204007156412
0.00338444827142
0.00469350893523
0.00544648323847
0.00576558084827
0.00590804526574
0.00622353308502
0.0119742242332
0.0114196222798
0.0110766171328
0.0102649934072
0.00911936208255
0.00785300612648
0.0063212421191
0.0039531304866
0.0018534049625
0.000761021167639
0.000344084684122
0.000343178785587
0.000967154801448
0.00208084291715
0.00342312653567
0.0046742896427
0.00532790225261
0.00559442911246
0.00575758458668
0.00608717471784
0.0124909177518
0.0124089462069
0.0121544171552
0.0113059876392
0.0100945746064
0.00858324843006
0.00664034044036
0.00378304122591
0.00171088638881
0.000721570704735
0.000343414027857
0.000349788912261
0.000976354515469
0.0021118047752
0.00345379021882
0.00463045788759
0.00522097541851
0.00546558751422
0.00564240636386
0.00597096012017
0.0125354551127
0.0126318453348
0.0125651196192
0.0117323085633
0.0105177620389
0.00888024555447
0.00659894696348
0.00348427393836
0.00156420922612
0.000686166719147
0.000334961396621
0.000352892081437
0.00100155138954
0.00216468399794
0.0035052680769
0.00462129453097
0.00518510738167
0.00542135575949
0.00559705428594
0.00591832585373
0.0118739526945
0.0119875853417
0.0121177077091
0.0113727008812
0.0102209327951
0.00856694166351
0.00611804609286
0.00310000100647
0.00143619454228
0.000651638481747
0.000318749235312
0.000361360626355
0.00105548278298
0.00226017416058
0.00360566149618
0.00469948454741
0.0052552126772
0.00548255974536
0.0056491663126
0.00600444798296
0.0108423319664
0.0109232673643
0.0110567867015
0.0104215554745
0.00936059283549
0.00776997579404
0.00532964159831
0.00273871511427
0.00131122759622
0.00061112387939
0.000297487172438
0.000372291622225
0.00112907905572
0.00238774353482
0.00375387160076
0.00484838448862
0.00540050532582
0.00561434778889
0.00576665799041
0.00615800390489
0.0101200854825
0.0100780347964
0.0100068613539
0.00937439907646
0.00835259417575
0.00679758898555
0.00453413127375
0.00241360709014
0.00118541314109
0.00056330346828
0.000270398679102
0.000390918481176
0.00123771641269
0.00256884529304
0.00397261913697
0.00507667212289
0.00561451655935
0.00580043240717
0.00592663264515
0.00627291162872
0.0102015279055
0.00989747664691
0.00943941370567
0.00863248577943
0.00750987798526
0.00593211542799
0.00387038067128
0.00213132765248
0.00106091544771
0.000508618365984
0.000239132661069
0.00042332498698
0.00137868319116
0.00279128480787
0.00423877537013
0.00534565005414
0.00584461000723
0.00598213463259
0.00607873335467
0.00635183648096
0.0109904030899
0.0102990372649
0.00936076994592
0.00823799902644
0.00690295010109
0.00521737746334
0.00334700105817
0.00188013846834
0.000936541553994
0.000446998738585
0.000205198311301
0.000455814312661
0.00150944196926
0.00299911951702
0.00448810095056
0.00558141348377
0.00601264929381
0.00608427624349
0.0061648275598
0.0064463955261
0.0121220825182
0.0109361905982
0.00950306216304
0.00800673603739
0.00639635201244
0.00460431764365
0.00292471274178
0.00163237277584
0.000809101681385
0.000378613256072
0.000170398538214
0.000470710145718
0.00158836033151
0.00313687716404
0.00465646249315
0.00571497556405
0.00604839306533
0.00603645404371
0.00610599512764
0.00649484981961
0.0132718067544
0.0114964331827
0.00959757831723
0.00773844007895
0.00587326892677
0.00406866659092
0.00255081842254
0.00137407492567
0.000677489988223
0.000305141376751
0.000136680341244
0.000455523005801
0.00159064629453
0.00316728136283
0.00469740781592
0.00569894266177
0.00591067968533
0.00581029947591
0.00587714699138
0.00642815882426
0.0141594232945
0.0118105676526
0.0095080251254
0.00733760873494
0.0053170985429
0.00358433134321
0.00216053262848
0.00111263818041
0.00054232645871
0.000230747050002
0.000105725569151
0.000412703427817
0.00151884530057
0.00308376912233
0.0045986355433
0.00552644093485
0.00562119173395
0.0054648573606
0.00556629069881
0.00636373411785
0.0146754671349
0.0118550979382
0.00919840398391
0.00681252548242
0.00476173927929
0.00307963343947
0.00172479042288
0.000852829755702
0.000406718832286
0.000160547055126
8.04881196164e-05
0.000363370327221
0.00140363638034
0.00291153229119
0.00438416592164
0.0052232588934
0.00526819696677
0.00513930717188
0.00533779936778
0.00645650411254
0.0147978801909
0.0116326869759
0.00870858641459
0.00623827498204
0.00416237619811
0.00246673240681
0.00127604285674
0.000608003455227
0.000277666770076
0.00010077907614
6.49707826206e-05
0.00033018366915
0.00128841633329
0.00269110372767
0.00408115459346
0.00480316850788
0.00495233983996
0.00495773320457
0.00530059384135
0.00676677469222
0.014594914721
0.0111941464994
0.00815000001873
0.00559269101135
0.00338835105427
0.00179270194356
0.000854163581474
0.000394241134096
0.000165249953492
5.75872417747e-05
6.36294670368e-05
0.000327083995169
0.00121313957814
0.00246436554491
0.00369108722759
0.00433460829628
0.00476120949727
0.00497410903583
0.00544586278536
0.00722947996083
0.0141464597355
0.0106531022156
0.00753836206634
0.00471952372896
0.00247489435808
0.00115220077806
0.000506915325343
0.000223011124876
8.27718056216e-05
3.75256141355e-05
8.48371322128e-05
0.000375897129443
0.00122904872685
0.00229541561523
0.00325085806197
0.00402524481976
0.00478621741466
0.00518059878501
0.0057123039089
0.00774579122857
0.0135236898245
0.0100470114558
0.0067200574736
0.0036189520856
0.00159582773785
0.000645811366733
0.000262866737735
0.000106299872842
4.25635774461e-05
5.47717207452e-05
0.000168611974768
0.000564450874934
0.00143234541395
0.00224799908809
0.00299544228011
0.00413091004262
0.00514143428409
0.00557431254749
0.0060889486929
0.00827710516615
0.0128632500264
0.00925099751712
0.00552915347958
0.00251949469067
0.00092394185356
0.000326787404377
0.000124159957565
5.55753239006e-05
6.57422322982e-05
0.000174690061248
0.00046479758745
0.00106790915193
0.00182385959827
0.00234457080514
0.00331431874904
0.0047638925818
0.00582707197894
0.00616539411356
0.00663274944208
0.00883477572227
0.0122179814991
0.00820481001038
0.00421259137616
0.00159834198895
0.000491353718191
0.000157029184144
6.91889810014e-05
8.27645688014e-05
0.000216347011632
0.000545900275785
0.00111270818549
0.00174740632919
0.00223398037821
0.00288829718991
0.00427305285849
0.00570306373116
0.00670152313729
0.00699028187345
0.00745093069556
0.0094514734811
0.0116762227398
0.0070911233945
0.00303689806371
0.00094933486291
0.000254340352637
8.36363228453e-05
7.29036816934e-05
0.000184093610849
0.000515182421976
0.00111283022787
0.00174998226467
0.0022276974394
0.00278399501674
0.00385863599585
0.00526777857576
0.0065719476327
0.00764906296821
0.00813170606674
0.00862175162519
0.0102282442253
0.0113482922803
0.0062429021831
0.00219063534321
0.000571116458235
0.000150043513405
5.89630636542e-05
8.58362843593e-05
0.000270637961552
0.000750096249643
0.00139719123776
0.00194493132991
0.00255602621472
0.00349932047361
0.00476962272514
0.00595911480104
0.00713191002319
0.00850737314022
0.0095687505378
0.0101821314516
0.011335946025
0.0112135786321
0.00575783632719
0.00179763807097
0.000426287459794
0.000130697618727
5.75051120995e-05
7.55945502126e-05
0.000237183038813
0.000676805128159
0.00114077309435
0.00168392533188
0.00258208203724
0.00371032919704
0.00495101049309
0.00616461155376
0.00734508969692
0.00881007668984
0.0105620475212
0.0116032719743
0.0124648487588
0.0111524363592
0.0056616660091
0.00187467272703
0.000496867923917
0.000184880658295
9.66564393144e-05
0.000100334637007
0.000190229717767
0.00040868287616
0.00061261039832
0.000999465714882
0.0018493170998
0.00281624446885
0.00390033160247
0.00523001748546
0.00684058577846
0.00830889055464
0.00982206367086
0.0111083925296
0.0121800522697
0.0110343687019
0.00576614337043
0.00225414696546
0.000746684755911
0.000330029351951
0.000225943082846
0.000289883693106
0.000303536273922
0.000276160399833
0.00025258436721
0.0004043651986
0.000796077904243
0.00143338645899
0.00240207916498
0.00367929956988
0.00543068113522
0.00736024959849
0.00878793751255
0.00936458011118
0.0113895660858
0.0105631248357
0.00572617282844
0.00270444540172
0.00118186166959
0.000669023180777
0.000579898537227
0.000533612091642
0.000398600729693
0.000346838847479
0.000248925060895
0.000216593064888
0.00031685011411
0.000509330983753
0.00107878646419
0.00243005585857
0.00353341394062
0.0063511575281
0.00924238739606
0.00880245810579
0.0109696553499
0.0095937736481
0.00531109570171
0.00299119279209
0.0017149577301
0.00114983324972
0.000831609270998
0.000624559880023
0.000508410307498
0.00042841819333
0.000379200736458
0.000321255469341
0.000298770864698
0.000358418874293
0.000544277598457
0.00146230655343
0.00234582668968
0.00592259496885
0.0113303091057
0.00951265005431
0.0106369966477
0.00877538848414
0.00513995810287
0.00325719692423
0.00207034069997
0.00137304211906
0.00101786382004
0.000832789520661
0.000703293017061
0.000608451967177
0.00053792652764
0.000504207776239
0.000520314156365
0.000570755554376
0.00067031894516
0.00115836091973
0.00223151780659
0.00672792120186
0.0137813812576
0.0113231525349
0.0119744366126
0.00899752014991
0.00586583243913
0.00412271149599
0.00285549521117
0.00200570513651
0.00155705913915
0.00128660604917
0.00107089762924
0.000873604134787
0.000767531942609
0.000787693105997
0.000913322298331
0.00108883875863
0.00125559560267
0.00154152802222
0.00264740078427
0.0085331945671
0.0124747113995
0.0144925960022
0.0206565028929
0.0100855112946
0.007146241696
0.005473979503
0.0041847040631
0.00325213681159
0.00252998487959
0.00196065132713
0.00149787869757
0.00119439681606
0.00106342808374
0.00116379610612
0.00145606077565
0.00177879897152
0.00206315295871
0.00200651759539
0.00351900588797
0.0123794169854
0.0130362488112
0.00685626196926
0.0419956602456
)
;

boundaryField
{
    emptyPatch
    {
        type            empty;
    }
    minY
    {
        type            fixedValue;
        value           nonuniform List<scalar> 0();
    }
    maxY
    {
        type            inletOutlet;
        inletValue      uniform 1e-05;
        value           nonuniform List<scalar> 
40
(
3.67111911725
1.83809994896
0.905031152033
0.474260947019
0.283444458046
0.196102048501
0.150542677998
0.121815284936
0.100979954273
0.0859728857841
0.0766981139366
0.0719063674863
0.0674615263584
0.0624127831422
0.0571119814485
0.0500436114176
0.0409996694688
0.0311653697647
0.0220910333313
0.0150367567375
0.0100855112946
0.007146241696
0.005473979503
0.0041847040631
0.00325213681159
0.00252998487959
0.00196065132713
0.00149787869757
0.00119439681606
0.00106342808374
0.00116379610612
0.00145606077565
0.00177879897152
0.00206315295871
0.00200651759539
0.00351900588797
0.0123794169854
0.0130362488112
0.00685626196926
1e-05
)
;
    }
    water_to_cooler
    {
        type            kqRWallFunction;
        value           nonuniform List<scalar> 
38
(
0.00568470814473
0.00595387587788
0.00617280506951
0.00633158965762
0.00643286337831
0.00648118002587
0.0064819061974
0.00643647773276
0.00634658114555
0.00622353308502
0.00608717471784
0.00597096012017
0.00591832585373
0.00600444798296
0.00615800390489
0.00627291162872
0.00635183648096
0.0064463955261
0.00649484981961
0.00642815882426
0.00636373411785
0.00645650411254
0.00676677469222
0.00722947996083
0.00774579122857
0.00827710516615
0.00883477572227
0.0094514734811
0.0102282442253
0.011335946025
0.0124648487588
0.0121800522697
0.0113895660858
0.0109696553499
0.0106369966477
0.0119744366126
0.0206565028929
0.0419956602456
)
;
    }
    water_to_heater
    {
        type            kqRWallFunction;
        value           nonuniform List<scalar> 
59
(
2.01340908
2.01340908
2.0596995152
1.91689366745
1.75989339459
1.75989339459
1.66760335305
1.66760335305
1.68913316749
1.68913316749
1.76484665811
1.82916524154
1.85523189249
1.85523189249
1.85145085171
1.85145085171
1.8160983485
1.8160983485
1.77354975183
1.77734143866
1.9304006691
1.9304006691
2.23854431911
2.23854431911
2.27441179259
2.27441179259
2.1723794541
2.03129588843
1.91037582421
1.91037582421
1.85441894994
1.85441894994
1.86545499725
1.86545499725
1.92695959455
2.0201094234
2.15514057361
2.15514057361
2.40227818029
2.40227818029
2.85868893015
2.85868893015
3.63039509845
4.84756877861
6.52884329844
6.52884329844
7.83317300521
7.83317300521
8.57339977406
8.57339977406
8.9539209721
8.35372356812
7.06780975711
7.06780975711
5.59636035702
5.59636035702
4.38683044905
4.38683044905
3.67111911725
)
;
    }
    procBoundary0to1
    {
        type            processor;
        value           nonuniform List<scalar> 
41
(
1.90833508137
1.09811348795
0.740652240035
0.573287426314
0.47007733402
0.387360382689
0.311365549216
0.236148848872
0.161869765239
0.0945541410966
0.0531294661098
0.0293941545463
0.0172558541188
0.0115757617078
0.00880476594132
0.00712834191922
0.0058330231182
0.00473768478631
0.00390937681292
0.00347868999748
0.00123823473195
0.000986585125723
0.000884692379927
0.000754961355176
0.000622341054833
0.000381195788831
0.000343983518844
0.000856576913272
0.00147802637724
0.00262083235822
0.0042089068609
0.00502816952453
0.00502369715199
0.00494517783243
0.00515816563876
0.00542094649588
0.0035940440574
0.00381500233575
0.00331286611846
0.00220699440999
0.00220699440999
)
;
    }
}


// ************************************************************************* //
