/*--------------------------------*- C++ -*----------------------------------*\
| =========                 |                                                 |
| \\      /  F ield         | OpenFOAM: The Open Source CFD Toolbox           |
|  \\    /   O peration     | Version:  2312                                  |
|   \\  /    A nd           | Website:  www.openfoam.com                      |
|    \\/     M anipulation  |                                                 |
\*---------------------------------------------------------------------------*/
FoamFile
{
    version     2.0;
    format      ascii;
    arch        "LSB;label=32;scalar=64";
    class       volScalarField;
    location    "0.205/water";
    object      T.gas;
}
// * * * * * * * * * * * * * * * * * * * * * * * * * * * * * * * * * * * * * //

dimensions      [0 0 0 1 0 0 0];

internalField   nonuniform List<scalar> 
1497
(
300.772302233
300.541124478
300.407445939
300.30401422
300.215139935
300.140532312
300.08192066
300.040772853
300.017051781
300.00609543
300.002037897
300.000698709
300.000357891
519.904087325
391.805002888
337.998369952
315.887250379
306.953902293
303.290749495
301.69765595
300.972170328
300.629516517
300.447801562
300.323236223
300.224835559
300.146452507
300.08673871
300.045351862
300.020586713
300.008350035
300.003254823
300.001379018
300.000795432
475.432894602
381.712661953
337.217191373
317.129892079
308.104718047
303.997292013
302.067967593
301.149161993
300.709203182
300.48290648
300.338958953
300.23233159
300.151431031
300.091630056
300.050190201
300.024719292
300.011137351
300.004979285
300.002459958
300.001574537
460.080811505
373.28286904
334.807014712
316.928850977
308.401704887
304.280953605
302.243502286
301.240340939
300.751574804
300.500569921
300.345335887
300.234950587
300.154241801
300.095702544
300.055162803
300.029215366
300.014547507
300.007267878
300.004068198
300.002830343
456.620320534
368.622458921
331.499860997
315.355149065
307.794823683
304.060441479
302.164041132
301.211440986
300.739424554
300.492678339
300.338460621
300.231117164
300.154169562
300.098972747
300.060061603
300.03423838
300.01858388
300.010267977
300.006304915
300.004673089
455.379379077
358.210981032
325.013202159
312.160593761
306.316341881
303.380150755
301.855133913
301.074252912
300.677354096
300.460105956
300.318574021
300.221386747
300.151989924
300.101757887
300.06540018
300.039903505
300.023509396
300.014115489
300.00936623
300.007188334
452.438581065
343.368633237
317.106111432
308.351164453
304.478414699
302.49898449
301.443543048
300.886840325
300.589500879
300.411082946
300.292018374
300.209464155
300.149933059
300.105648868
300.071867378
300.046851033
300.029639956
300.019204542
300.013429986
300.010358931
448.662618485
334.185784934
311.143146826
305.302302551
302.932652871
301.730728473
301.075232906
300.712886315
300.49930337
300.360768668
300.267391227
300.200874175
300.151433245
300.112404588
300.080829749
300.055967203
300.037767809
300.025631674
300.018390871
300.014133518
445.926315637
336.580554134
309.067088244
303.638159029
301.966805707
301.218872545
300.816786945
300.577039227
300.424892378
300.323830272
300.252720236
300.20042833
300.159276738
300.123887729
300.093069136
300.067298662
300.047329935
300.033313717
300.024275366
300.018419971
430.402773142
341.080401057
310.361123367
303.245296574
301.512969574
300.931058917
300.652302455
300.487565742
300.379728787
300.305125063
300.251556036
300.20993756
300.173242684
300.139049861
300.107707435
300.080514906
300.058563228
300.042256939
300.030980609
300.023077719
408.115471459
342.098872826
312.375064227
303.616448453
301.410373581
300.802591728
300.571059512
300.444963127
300.36271298
300.306162889
300.263618463
300.227488752
300.192459869
300.158006431
300.125309637
300.096057049
300.071570825
300.052483048
300.038427892
300.028013458
394.452463255
341.387515783
315.365981372
305.159808231
301.782702733
300.811011523
300.552592745
300.443474069
300.374213151
300.325812467
300.287985316
300.253034307
300.21739143
300.181195297
300.146075612
300.113931928
300.086210286
300.063732799
300.046398218
300.033078686
401.002517914
354.205807254
326.554157469
310.475359129
303.385619342
301.092314894
300.634134647
300.495038844
300.41959459
300.367757186
300.325661982
300.286589869
300.247503664
300.208037155
300.169404587
300.133489552
300.101855703
300.07549991
300.054528088
300.038037959
467.139274751
387.219334499
340.579846383
315.724802009
305.112030128
301.59443985
300.799845316
300.588524923
300.491749766
300.429358082
300.37814823
300.328566285
300.281161209
300.236482651
300.193568449
300.153415029
300.117557463
300.087121812
300.062363303
300.04258733
569.762185567
411.60057291
346.836985406
317.512639707
305.875419609
302.001811003
300.982132152
300.691898093
300.567428547
300.490062041
300.428745367
300.372213444
300.315181396
300.263087178
300.21575723
300.171724593
300.131958069
300.097679929
300.069295487
300.046322771
613.46248029
422.13741017
347.69052289
317.177945671
305.919046676
302.2115301
301.118775942
300.774604245
300.627589767
300.537200056
300.466126143
300.404328239
300.34285356
300.285222494
300.233446377
300.186535602
300.143753563
300.106298476
300.07473561
300.048915715
622.390181965
422.319351344
345.728323384
316.107818288
305.657511317
302.248255904
301.181572289
300.821844474
300.664700691
300.567531545
300.490404861
300.423796079
300.359430375
300.300101711
300.245717345
300.196828897
300.152181961
300.112427573
300.078269575
300.050145805
616.463487229
415.716253
341.424921578
314.162411305
305.008961819
302.096239666
301.160880367
300.828701082
300.677158941
300.58058847
300.50217591
300.432249492
300.366632332
300.306942869
300.252381573
300.202597496
300.157067764
300.115913161
300.07994486
300.049946459
603.637672861
403.729860937
334.811305889
311.367756457
304.025222971
301.787462759
301.065582608
300.796264271
300.664192154
300.574979988
300.502307106
300.431988473
300.3670902
300.307633251
300.253732266
300.2042907
300.158578832
300.116752366
300.079658717
300.048505623
586.069266482
388.456904672
326.957765261
308.238215622
302.939907338
301.423019845
300.934357546
300.740952904
300.637766084
300.56317037
300.491799933
300.424862679
300.362434999
300.304365518
300.251410146
300.202694366
300.157045426
300.115028719
300.077340528
300.046095718
566.588633882
372.980906958
319.548160162
305.499029411
302.02534651
301.110532145
300.823688201
300.695697069
300.614578955
300.545725904
300.475698722
300.413466022
300.353805099
300.297690389
300.246044646
300.198121367
300.152758252
300.110688141
300.073228586
300.042848732
554.396818168
362.583544437
314.634006774
303.803637814
301.495598674
300.952161001
300.755990084
300.659580742
300.589552599
300.524132228
300.459642117
300.400543716
300.343275232
300.288997065
300.238533713
300.191100073
300.146066188
300.104255766
300.067856863
300.039019152
552.007538482
358.372877438
312.251066503
302.947921719
301.266038423
300.852789079
300.711344209
300.632989522
300.568428341
300.504750435
300.44521918
300.387968901
300.332341952
300.279340462
300.229491495
300.18207601
300.137325399
300.096366877
300.061598517
300.034937985
559.255585178
360.367584845
312.150644154
302.780464152
301.183801137
300.818781327
300.692353689
300.617843688
300.552893375
300.491746354
300.433322428
300.376661694
300.321754464
300.269167853
300.219066515
300.171507337
300.12702924
300.087503019
300.054993051
300.030794707
564.973882554
367.342854247
315.441942012
303.835040255
301.579437489
300.962520826
300.730752186
300.622999767
300.549715439
300.485633041
300.42531342
300.367611334
300.312053635
300.258565972
300.207534598
300.159626027
300.115800107
300.078285871
300.048442675
300.026811736
564.683332456
377.99501415
322.094111178
306.736911916
302.702788647
301.404655027
300.896030306
300.676966102
300.565626881
300.488584236
300.422668501
300.361505065
300.303245939
300.247730535
300.195522696
300.147243028
300.104408415
300.069266052
300.042329121
300.0226526
564.322958788
387.67811238
329.151400656
310.354412031
304.338684217
302.121875765
301.200492431
300.796168886
300.60886862
300.504174393
300.426367149
300.358180547
300.295663643
300.237749255
300.184105681
300.135441274
300.093881773
300.061151145
300.036767839
300.018663789
566.944469288
395.498424399
335.152218974
313.724934021
306.042391988
302.944461587
301.585312902
300.965475448
300.67844023
300.531689765
300.436130787
300.35783717
300.290176263
300.229308371
300.174065594
300.125131334
300.084940944
300.054130875
300.031146691
300.015029232
571.275175889
401.827311283
339.964183197
316.580175717
307.553133189
303.725736681
301.97960824
301.154439006
300.76296772
300.567555888
300.44942285
300.359529565
300.286007572
300.22193744
300.165119601
300.116163717
300.076839882
300.047338152
300.026132673
300.011656825
575.87271259
406.112058079
343.099902003
318.509823584
308.632072766
304.33436405
302.315697009
301.329722439
300.846870205
300.604117966
300.462951543
300.360867194
300.281236215
300.214145819
300.156045516
300.107248205
300.069065854
300.041093299
300.02140502
300.008271988
580.449394518
407.628393563
343.987353584
319.161508835
309.121360909
304.683820633
302.542462582
301.461854599
300.914493741
300.633249808
300.471580259
300.358248002
300.27320148
300.203837269
300.14529897
300.097534376
300.061086455
300.03475368
300.016473887
300.004684638
583.771119374
405.7487987
342.584525346
318.786586133
309.114910946
304.781007018
302.638712893
301.527790701
300.949637872
300.645820741
300.469561538
300.347662031
300.259200041
300.189019927
300.131544203
300.086093415
300.052024563
300.027459707
300.010004861
300.002794174
586.207330917
400.394205501
339.278627642
317.834554932
308.833083389
304.696964326
302.611412831
301.517242503
300.942110832
300.634762855
300.450589974
300.325452667
300.23714452
300.168536958
300.114194373
300.072273892
300.040774535
300.017063235
300.005950113
300.001520819
588.379754895
396.780929185
338.593743432
317.464244969
308.648671079
304.554714784
302.505073553
301.448827678
300.899330832
300.598310645
300.411093784
300.291463629
300.207066242
300.142961802
300.093496092
300.054975965
300.024981884
300.010096012
300.003300658
300.00069664
591.612247388
394.483431672
339.086965473
317.681489336
308.571591207
304.382046903
302.357469626
301.351065557
300.827179598
300.52980524
300.357487886
300.248288412
300.171434949
300.113954083
300.068395334
300.033086794
300.014787641
300.005597601
300.001577434
300.000283405
590.99960541
401.585080974
340.21081484
317.598408304
308.263609648
304.117884574
302.173002482
301.205938609
300.70657793
300.445018378
300.295869486
300.200861001
300.133704041
300.080960062
300.041062342
300.019984121
300.008228141
300.002739021
300.000687294
300.000103182
569.786667541
393.266790766
336.098693626
315.705689978
307.373422234
303.605523809
301.815547191
300.972997702
300.56355618
300.352679556
300.233016621
300.15450319
300.094530291
300.050370193
300.026694105
300.011726553
300.004186076
300.001252313
300.000293141
300.00003347
487.31036538
369.275304589
327.922096943
312.48803097
305.679562658
302.672427094
301.320029647
300.705188058
300.414098728
300.26613365
300.177538708
300.112440637
300.064085193
300.036636919
300.017739077
300.006715552
300.00207963
300.000604695
300.000138647
300.000013744
300.000282497
300.000270883
300.000277746
300.000271845
300.000235715
300.000181376
300.000125561
300.000076232
300.000037579
300.000010725
300.000002733
300.000003346
300.00000358
300.000003237
300.000003773
300.000004219
300.000004539
300.000004767
300.000004829
300.000004602
300.000642727
300.000595899
300.000578236
300.000537711
300.000444055
300.00032276
300.000208009
300.000118114
300.000053469
300.000013217
300.000001565
300.000003212
300.000003534
300.000003105
300.000003112
300.000003678
300.000004079
300.000004344
300.000004458
300.000004284
300.001297028
300.001170856
300.001071728
300.000927177
300.000707335
300.000470148
300.000271372
300.000135212
300.000050021
300.000008428
300
300.000003002
300.000003706
300.000002849
300.000002736
300.000002959
300.000003548
300.000003887
300.000004043
300.000003924
300.002363474
300.002078958
300.001786791
300.001416813
300.000978802
300.00058633
300.00030177
300.000126883
300.000034509
300.000001372
300
300.000003409
300.000003439
300.000002353
300.00000223
300.000002482
300.000002946
300.000003408
300.000003642
300.00000356
300.00392981
300.003354259
300.002696591
300.001940412
300.001201566
300.000647363
300.0002997
300.000104747
300.000018417
300
300
300.000003795
300.000002753
300.000001778
300.000001769
300.000002071
300.000002464
300.000002878
300.00000326
300.000003215
300.005996063
300.004940435
300.003702187
300.002408388
300.001339091
300.000651136
300.000261107
300.000072143
300.000003628
300
300.000000719
300.000003719
300.000001918
300.000001226
300.000001364
300.000001719
300.00000212
300.000002376
300.000002888
300.000002903
300.008460244
300.006675572
300.004658779
300.002752591
300.001389557
300.000615692
300.000202245
300.000037522
300
300
300.000003096
300.000003172
300.000001161
300.000000781
300.000001032
300.000001419
300.000001812
300.000002032
300.000002536
300.000002629
300.011178625
300.008383509
300.005441935
300.002933773
300.001358693
300.000542242
300.000134466
300.000010987
300
300
300.000004612
300.000002464
300.00000063
300.000000466
300.000000773
300.000001172
300.000001549
300.000001773
300.00000221
300.000002391
300.014013016
300.009930043
300.005988138
300.002957497
300.001260957
300.000434653
300.000077608
300
300
300.000000802
300.000005314
300.000001771
300.000000267
300.000000242
300.000000572
300.000000973
300.000001322
300.000001563
300.000001916
300.000002184
300.016849585
300.011272965
300.006335794
300.002875566
300.001123485
300.000318811
300.000041912
300
300
300.00000679
300.000004859
300.000001015
300.000000017
300.000000089
300.000000422
300.000000813
300.000001135
300.000001393
300.000001653
300.000002
300.019625923
300.012468696
300.006644395
300.002763831
300.000961498
300.000219349
300.000021505
300
300
300.000008946
300.000003343
300.000000352
300
300.000000008
300.000000316
300.000000679
300.000000981
300.000001249
300.000001432
300.000001834
300.022316294
300.013514554
300.006862878
300.002678345
300.000782333
300.000146354
300.000012297
300
300.000000439
300.000006916
300.000001848
300.00000001
300
300
300.000000233
300.000000563
300.00000085
300.000001114
300.000001247
300.000001681
300.024778407
300.014355467
300.006934243
300.002550364
300.000630332
300.000096619
300.000009156
300
300.000009147
300.000004346
300.000000886
300
300
300
300.000000159
300.00000046
300.000000733
300.000000977
300.000001089
300.00000154
300.026815603
300.01490294
300.006834411
300.002328827
300.0005218
300.000067575
300.000007152
300.000000049
300.00001449
300.000003168
300.000000288
300
300
300
300.000000094
300.000000369
300.000000627
300.000000847
300.000000954
300.00000141
300.028216613
300.015050153
300.00654896
300.002058878
300.000420085
300.000047557
300.000004633
300.000002041
300.000012111
300.000001949
300
300
300
300
300.000000041
300.000000287
300.000000529
300.000000729
300.000000848
300.000001297
300.028794615
300.014736046
300.006085453
300.001754708
300.00032369
300.000031265
300.000001865
300.000007215
300.00000658
300.000000997
300
300
300
300
300.000000004
300.000000214
300.000000439
300.000000623
300.000000791
300.000001204
300.028506422
300.014007928
300.005460332
300.001454974
300.000246489
300.000018931
300
300.0000097
300.000003263
300.000000319
300
300
300
300
300
300.000000148
300.000000358
300.000000541
300.00000079
300.000001135
300.02744699
300.012949623
300.004725476
300.001186787
300.000185647
300.000011449
300
300.000006895
300.000001666
300
300
300
300
300
300
300.00000009
300.000000293
300.000000508
300.000000871
300.000001088
300.02577015
300.011653017
300.004081994
300.000959455
300.000138455
300.000007979
300.000000252
300.000003273
300.000000715
300
300
300
300
300
300
300.000000046
300.000000273
300.000000613
300.00000098
300.000001055
300.023799363
300.010502286
300.003497199
300.000774043
300.000093392
300.000006197
300.000001155
300.000001658
300.000000197
300
300
300
300
300
300
300.00000004
300.000000389
300.000000796
300.000000992
300.000001044
300.021787405
300.009342067
300.00294784
300.000620941
300.000062899
300.000004453
300.000001146
300.000000878
300
300
300
300
300
300
300
300.000000167
300.000000589
300.000000849
300.000000998
300.000001054
300.019559344
300.008028963
300.002402564
300.00048843
300.000043201
300.000003717
300.000000937
300.000000421
300
300
300
300
300
300
300
300.000000347
300.000000632
300.000000863
300.000001022
300.000001084
300.017243498
300.006687616
300.001912537
300.000321954
300.000035858
300.000003478
300.00000077
300.000000144
300
300
300
300
300
300
300.000000117
300.000000355
300.000000638
300.000000887
300.000001059
300.000001126
300.014639346
300.005397387
300.001443939
300.00018849
300.000025718
300.000002745
300.000000368
300
300
300
300
300
300
300.000000006
300.000000101
300.000000352
300.000000651
300.000000915
300.000001097
300.000001167
300.012034665
300.004148373
300.000932426
300.000123854
300.000017759
300.000002125
300
300
300
300
300
300.000000085
300.000000002
300
300.000000092
300.000000353
300.000000667
300.000000942
300.000001132
300.000001204
300.009651938
300.003064828
300.000499905
300.000081661
300.000011883
300.000001298
300
300
300
300
300
300.000000172
300
300
300.000000084
300.000000355
300.000000678
300.000000962
300.000001158
300.000001231
300.007404383
300.001871602
300.000297955
300.000050329
300.000007717
300.000000377
300
300
300
300
300
300.000000193
300.000000001
300
300.000000077
300.000000353
300.000000683
300.000000973
300.000001172
300.000001245
300.005318602
300.000982168
300.000180228
300.00002981
300.000004455
300
300
300
300.00000002
300
300.000000038
300.000000165
300.000000001
300
300.000000068
300.000000346
300.000000679
300.000000971
300.000001172
300.000001247
300.003158383
300.000571659
300.000098525
300.000016665
300.000002017
300
300
300
300
300
300.000000025
300.000000065
300.000000001
300
300.000000059
300.000000333
300.000000664
300.000000956
300.000001159
300.000001234
300.001749676
300.00031813
300.000048922
300.000008357
300.000000516
300
300
300
300
300
300
300.000000012
300.000000004
300
300.000000047
300.000000313
300.000000639
300.00000093
300.000001132
300.000001208
300.001011494
300.00014413
300.000021845
300.000003844
300
300
300
300
300
300
300
300
300
300
300.000000034
300.000000288
300.000000606
300.000000894
300.000001095
300.000001171
300.000483608
300.000055613
300.000009776
300.000001746
300
300
300
300
300
300
300
300
300
300
300.000000023
300.00000026
300.000000569
300.000000851
300.00000105
300.000001127
300.000189624
300.000020963
300.000005
300.000000781
300
300
300
300
300
300
300
300
300
300
300.000000013
300.000000233
300.000000529
300.000000806
300.000001002
300.000001079
300.000068987
300.000009785
300.000003048
300.000000324
300
300
300
300
300
300
300
300
300
300
300.000000006
300.000000206
300.000000491
300.00000076
300.000000953
300.00000103
300.000026154
300.000006147
300.000002099
300.000000122
300
300
300
300
300
300
300
300
300
300
300.000000002
300.000000182
300.000000454
300.000000717
300.000000906
300.000000982
300.00001261
300.000004996
300.000001548
300.000000047
300
300
300
300
300
300
300
300
300
300
300
300.000000161
300.000000422
300.000000678
300.000000863
300.000000938
300.000009549
300.000004616
300.000001078
300.000000009
300
300
300
300
300
300
300
300
300
300
300
300.000000143
300.000000394
300.000000644
300.000000825
300.000000899
300.000012676
300.000004402
300.000000573
300
)
;

boundaryField
{
    emptyPatch
    {
        type            empty;
    }
    minY
    {
        type            fixedValue;
        value           nonuniform List<scalar> 0();
    }
    maxY
    {
        type            inletOutlet;
        inletValue      nonuniform List<scalar> 0();
        value           nonuniform List<scalar> 0();
    }
    water_to_cooler
    {
        type            copiedFixedValue;
        sourceFieldName T.liquid;
        value           nonuniform List<scalar> 
37
(
300.000000188
300.000000172
300.000000154
300.000000137
300.000000122
300.000000108
300.000000096
300.000000086
300.000000077
300.000000069
300.000000063
300.000000057
300.000000051
300.000000046
300.000000042
300.000000038
300.000000035
300.000000033
300.000000033
300.000000033
300.000000036
300.000000038
300.000000039
300.000000041
300.000000043
300.000000044
300.000000044
300.000000044
300.000000043
300.000000042
300.00000004
300.000000038
300.000000036
300.000000034
300.000000031
300.00000003
300.000000028
)
;
    }
    water_to_heater
    {
        type            copiedFixedValue;
        sourceFieldName T.liquid;
        value           nonuniform List<scalar> 
60
(
796.614543386
796.63278741
796.568998946
796.61984032
796.613440685
796.672215642
796.671669154
796.735787577
796.735450795
796.791680371
796.789914595
796.841199964
796.840329892
796.88549976
796.867185922
796.905767682
796.908590108
796.933611538
796.929834762
796.952733794
796.989195912
797.010902213
797.174512191
797.213873474
797.220073691
797.215347651
797.211933136
797.191623802
797.184243448
797.131245678
797.121072458
797.049165276
797.042108696
797.020368798
797.018920941
797.017143876
797.020854359
797.018202407
797.019607377
797.007355978
797.006562685
796.992170778
796.993423381
796.966166215
796.969397772
796.924584507
796.92629956
796.876372544
796.877360679
796.840422481
796.842327478
796.816741454
796.817389817
796.793097864
796.794999124
796.753762189
796.7259868
796.69512439
796.570059309
796.56288299
)
;
    }
    procBoundary1to0
    {
        type            processor;
        value           nonuniform List<scalar> 
41
(
420.658596849
349.773004783
320.894572974
308.917307011
303.873183271
301.740870424
300.855049876
300.470071683
300.296357927
300.20325376
300.137284303
300.085835892
300.051956274
300.028246774
300.012335118
300.004201271
300.00118157
300.000354982
300.000100269
300.000022492
300
300
300
300
300
300
300
300
300
300
300
300.00000013
300.000000372
300.000000615
300.000000792
300.000000865
300.000023271
300.000004169
300.000000123
300
300
)
;
    }
    procBoundary1to3
    {
        type            processor;
        value           nonuniform List<scalar> 
41
(
300.615351679
300.471646686
300.373192674
300.286593684
300.20610971
300.135472465
300.077909974
300.037103357
300.014137817
300.004424569
300.001213603
300.000319143
300.000137879
568.580529777
393.662753145
334.179632824
312.753995979
305.11505319
302.354920978
301.254177142
301.254177142
300.000105557
300.000106363
300.000114442
300.000114431
300.000100278
300.000078068
300.000054151
300.000031009
300.000012857
300.000002414
300.000001721
300.000002898
300.00000287
300.000003696
300.000004189
300.000004566
300.000004862
300.000005054
300.000005062
300.000004789
)
;
    }
}


// ************************************************************************* //
