/*--------------------------------*- C++ -*----------------------------------*\
| =========                 |                                                 |
| \\      /  F ield         | OpenFOAM: The Open Source CFD Toolbox           |
|  \\    /   O peration     | Version:  2312                                  |
|   \\  /    A nd           | Website:  www.openfoam.com                      |
|    \\/     M anipulation  |                                                 |
\*---------------------------------------------------------------------------*/
FoamFile
{
    version     2.0;
    format      ascii;
    arch        "LSB;label=32;scalar=64";
    class       volScalarField;
    location    "5.1/fluidRegion";
    object      p_rgh;
}
// * * * * * * * * * * * * * * * * * * * * * * * * * * * * * * * * * * * * * //

dimensions      [1 -1 -2 0 0 0 0];

internalField   nonuniform List<scalar> 
40
(
139703
139110
138517
137924
137331
136738
136145
135552
134959
134366
133388
132052
130709
129359
128002
126637
125265
123885
122499
121106
119707
118303
116896
115485
114071
112655
111238
109819
108399
106978
105973
105347
104721
104094
103467
102840
102212
101584
100956
100327
)
;

boundaryField
{
    inlet
    {
        type            fixedValue;
        value           uniform 140000;
    }
    outlet
    {
        type            fixedValue;
        value           uniform 100000;
    }
    fixedWalls
    {
        type            empty;
    }
}


// ************************************************************************* //
