/*--------------------------------*- C++ -*----------------------------------*\
| =========                 |                                                 |
| \\      /  F ield         | OpenFOAM: The Open Source CFD Toolbox           |
|  \\    /   O peration     | Version:  2312                                  |
|   \\  /    A nd           | Website:  www.openfoam.com                      |
|    \\/     M anipulation  |                                                 |
\*---------------------------------------------------------------------------*/
FoamFile
{
    version     2.0;
    format      ascii;
    arch        "LSB;label=32;scalar=64";
    class       volScalarField;
    location    "0.25/water";
    object      d.gas;
}
// * * * * * * * * * * * * * * * * * * * * * * * * * * * * * * * * * * * * * //

dimensions      [0 1 0 0 0 0 0];

internalField   nonuniform List<scalar> 
750
(
0.00497116189797
0.00497118719102
0.00497121031279
0.00497123023513
0.00497124716237
0.00497126141313
0.00497127340345
0.00497128352943
0.00497129194722
0.00497129863064
0.00497130355849
0.00497130685053
0.0049713088126
0.00497130981265
0.00497130996924
0.00497130900212
0.00497130645917
0.00497130151434
0.00497127360855
0.00497188523126
0.00497188372314
0.00497188084855
0.00497188130208
0.00497188450175
0.00497188934201
0.00497189496141
0.00497190076103
0.00497190630346
0.00497191125828
0.00497191536567
0.00497191852615
0.00497192091273
0.00497192282792
0.00497192445818
0.00497192583313
0.00497192688187
0.00497192756129
0.00497192907667
0.00497255490809
0.00497256004908
0.00497256238603
0.00497256554943
0.00497256944665
0.0049725739314
0.00497257878468
0.00497258380766
0.00497258873995
0.00497259332239
0.00497259737045
0.00497260077859
0.00497260357685
0.00497260587463
0.00497260772939
0.00497260913916
0.00497261010894
0.00497261068098
0.00497261144813
0.00497328732873
0.00497329925296
0.0049733076475
0.00497331433783
0.00497331974461
0.00497332458876
0.00497332920524
0.00497333381554
0.00497333839562
0.00497334274765
0.00497334670755
0.00497335015779
0.00497335306346
0.00497335544693
0.00497335733562
0.00497335875551
0.00497335974341
0.00497336034878
0.00497336090631
0.00497418912329
0.00497416332327
0.00497415340063
0.00497415269033
0.00497415520946
0.00497415837341
0.0049741610855
0.00497416344466
0.00497416580312
0.00497416823145
0.0049741706525
0.00497417289663
0.00497417484367
0.00497417646331
0.00497417776162
0.00497417874099
0.00497417942638
0.00497417985458
0.00497418020409
0.0049750903199
0.00497506654884
0.0049750520948
0.00497504501062
0.00497503997028
0.00497503779747
0.0049750377295
0.00497503811396
0.00497503848555
0.00497503886121
0.00497503937684
0.00497503998094
0.0049750405687
0.00497504109074
0.00497504153812
0.00497504189237
0.00497504216787
0.0049750423964
0.00497504259227
0.00497592256675
0.00497593307666
0.00497593186552
0.00497592689113
0.00497592248952
0.00497591733459
0.00497591193099
0.00497590836383
0.00497590627862
0.00497590476082
0.00497590346127
0.00497590230239
0.00497590129026
0.00497590046681
0.00497589987276
0.00497589950099
0.00497589938994
0.00497589960391
0.0049758998004
0.00497695932554
0.00497690343034
0.00497686801447
0.00497683823471
0.00497681307409
0.00497679194938
0.00497677496287
0.00497676082593
0.0049767483282
0.00497673763196
0.00497672881909
0.00497672159774
0.00497671572028
0.00497671112053
0.00497670776957
0.00497670559081
0.00497670468668
0.00497670510242
0.00497670493394
0.00497756870057
0.00497750759221
0.00497746788572
0.0049774412979
0.00497742030936
0.00497740293421
0.00497738893132
0.00497737791546
0.00497736800491
0.00497735868312
0.00497735017065
0.00497734289721
0.00497733672067
0.00497733161358
0.00497732768508
0.00497732507259
0.00497732466445
0.00497732616542
0.00497732175412
0.00497789566598
0.00497785920411
0.0049778324583
0.00497781536313
0.00497780502964
0.00497779654751
0.00497778984881
0.00497778505229
0.00497778049066
0.00497777566087
0.00497777068781
0.00497776595857
0.00497776170949
0.00497775809157
0.00497775549685
0.00497775431712
0.00497775505349
0.00497775585141
0.00497774624134
0.00497831797527
0.00497827463216
0.00497822770008
0.00497819185573
0.00497816550678
0.00497814827481
0.00497813775706
0.00497813117823
0.00497812696426
0.00497812374744
0.00497812116203
0.00497811883806
0.00497811620263
0.0049781131166
0.00497811040366
0.00497810930406
0.00497810867975
0.00497810675326
0.00497810776713
0.00497809816233
0.00497847866915
0.00497847644625
0.0049784592408
0.00497844711827
0.00497843989997
0.00497843725995
0.00497843864927
0.00497844228001
0.00497844656945
0.00497845063446
0.00497845429615
0.00497845758989
0.00497846021877
0.00497846184629
0.00497846319899
0.00497846502913
0.00497846175025
0.00497845592464
0.00497846096884
0.00497846875382
0.00497857807988
0.00497858943037
0.00497858965032
0.00497858905474
0.00497859002198
0.00497859328465
0.0049785990137
0.00497860636131
0.0049786140921
0.00497862122813
0.00497862753847
0.00497863296101
0.0049786367097
0.00497863940361
0.00497864636745
0.00497864946673
0.00497863895261
0.00497863892879
0.0049786388385
0.00497867463402
0.00497865157115
0.00497865733181
0.0049786615321
0.00497866375909
0.00497866398245
0.00497866371934
0.00497866423875
0.00497866575751
0.00497866784366
0.00497866989579
0.00497867151764
0.00497867254168
0.00497867226086
0.00497867384052
0.00497868803062
0.00497868506863
0.00497867865766
0.00497867870823
0.00497867877307
0.00497869677195
0.0049786911168
0.00497869437618
0.00497869695703
0.00497869738125
0.00497869763583
0.004978698266
0.00497869899572
0.00497869996791
0.00497870115668
0.00497870254001
0.00497870415831
0.00497870601223
0.0049787081039
0.00497871580731
0.00497874267054
0.00497873044712
0.004978732087
0.00497873209882
0.00497873212298
0.0049787321619
0.0049787219346
0.00497872785616
0.00497872786187
0.00497872615914
0.00497872583601
0.00497872879043
0.00497873411339
0.004978739808
0.00497874512482
0.0049787501535
0.00497875517643
0.00497876043753
0.0049787681396
0.00497878495183
0.00497880506213
0.00497879076345
0.0049787905877
0.00497879047536
0.00497879041652
0.00497879039583
0.00497875847967
0.00497876804414
0.00497876732752
0.0049787650256
0.00497876375841
0.00497876631605
0.00497877331152
0.00497878190212
0.00497879014703
0.00497879808342
0.00497880587488
0.00497881425865
0.00497882675069
0.0049788490948
0.00497883905188
0.00497883878385
0.00497883871048
0.00497883868087
0.00497883866681
0.00497883867035
0.00497880752231
0.00497881435436
0.00497881098601
0.00497880737001
0.00497880463561
0.00497880544911
0.0049788115943
0.00497882111852
0.00497883097096
0.00497884064574
0.00497885063433
0.00497886251031
0.00497888024772
0.00497888753556
0.00497887789429
0.0049788778717
0.0049788778696
0.00497887787406
0.00497887788216
0.00497887789799
0.00497884263467
0.00497884048488
0.00497883125717
0.00497882496015
0.00497881979039
0.00497881842787
0.00497882478814
0.00497883707692
0.00497884996126
0.00497886215034
0.00497887594164
0.00497889372473
0.00497891559028
0.00497891811252
0.00497891220244
0.00497891218728
0.00497891217555
0.00497891215819
0.00497891213547
0.00497892759457
0.00497891604626
0.00497890709215
0.0049788821943
0.00497886845669
0.00497885705319
0.00497884954365
0.004978850081
0.0049788588804
0.00497886831218
0.0049788803476
0.00497889914666
0.00497892221138
0.00497894308231
0.00497894791446
0.0049789433311
0.00497894337601
0.00497894339772
0.00497894339298
0.00497894338107
0.00497896937112
0.00497896238802
0.0049789509784
0.00497891342561
0.00497889351819
0.00497887602749
0.00497886258762
0.0049788593209
0.00497887010991
0.00497887782654
0.00497888904574
0.00497891602968
0.00497894485953
0.00497896616762
0.0049789748878
0.00497897393818
0.00497897398889
0.00497897397981
0.00497897396399
0.00497897571326
0.00497898551466
0.00497900608193
0.00497899989849
0.00497897616023
0.00497895924642
0.00497894089596
0.0049789266259
0.00497892216486
0.00497893548482
0.00497894588119
0.00497893744194
0.00497895868117
0.00497898017118
0.00497899435019
0.00497900089612
0.00497900184331
0.00497900144186
0.00497900187599
0.0049790024873
0.00497902357771
0.00497901500254
0.00497909955229
0.00497911052134
0.00497911628718
0.00497912199954
0.00497912084285
0.00497912150556
0.00497912750982
0.00497913506271
0.00497916713864
0.00497913299771
0.00497913375707
0.00497914116126
0.00497914629458
0.0049791486679
0.00497914918952
0.00497914848301
0.00497914825612
0.0049791554945
0.00497917441162
0.00497915252806
0.00497919937266
0.00497921113476
0.00497920042165
0.00497919223621
0.00497918156807
0.00497917271299
0.00497916743717
0.00497917066708
0.00497917719722
0.00497918739218
0.0049791711205
0.00497917971314
0.00497918526145
0.00497918628905
0.00497918635144
0.00497918766566
0.00497919069457
0.0049792032534
0.00497922412414
0.00497917971071
0.00497940387884
0.00497942167847
0.00497936578874
0.00497931689661
0.00497927313122
0.00497923585286
0.00497921443183
0.00497920918809
0.00497920924899
0.0049792246817
0.00497920608522
0.00497920286107
0.00497920089403
0.00497919743579
0.00497919089928
0.00497918274538
0.00497917721225
0.00497918729382
0.00497921171095
0.0049791609668
0.004979430521
0.00497945862048
0.00497940852484
0.00497935441778
0.00497930226189
0.00497926083457
0.00497924420572
0.00497923201582
0.00497923184942
0.00497923745835
0.00497922515229
0.00497921825657
0.00497921545744
0.0049792126048
0.00497920899228
0.00497920431322
0.00497919977279
0.00497920791177
0.00497922340917
0.00497917303876
0.00497946292474
0.00497950619215
0.00497944831972
0.00497938695917
0.00497932868831
0.0049792994057
0.00497927864924
0.00497926619076
0.00497926641337
0.00497926165826
0.0049792526227
0.00497924628165
0.00497924299381
0.00497924002916
0.00497923712037
0.00497923402827
0.00497923150122
0.00497924144722
0.0049792581439
0.00497920919015
0.00497969875087
0.00497972544191
0.00497960746149
0.0049794941665
0.00497938986141
0.00497937604315
0.00497931398071
0.00497931372584
0.00497930807212
0.00497929822763
0.00497929471311
0.0049792929456
0.00497929195366
0.00497929099612
0.00497929022779
0.00497928952388
0.00497928918782
0.00497929677467
0.00497931036238
0.00497928037536
0.00497992908934
0.00497993744099
0.00497977144104
0.00497961201406
0.00497947423791
0.00497947543553
0.00497938472664
0.00497936397076
0.00497934378021
0.00497934171118
0.0049793531795
0.00497936536297
0.00497937463703
0.00497938199406
0.00497938816812
0.00497939330195
0.00497939768856
0.00497940612725
0.00497941799423
0.00497939912032
0.00498011784579
0.0049801438166
0.00498002177174
0.00497988458109
0.00497979195797
0.00498002946638
0.00497988732627
0.00497979738667
0.0049797624877
0.00497977627573
0.00497980851156
0.00497983430914
0.00497985398358
0.00497986951209
0.00497988236777
0.00497989308288
0.00497990206268
0.00497991270505
0.00497992417425
0.00497991383064
0.00498043343126
0.00498057607328
0.00498076861191
0.00498102574766
0.00498129091134
0.00498125696629
0.00498121470705
0.00498113654775
0.0049810804151
0.00498104446216
0.00498101908601
0.00498099876951
0.00498098292587
0.00498097097113
0.00498096267459
0.0049809573955
0.00498095461824
0.00498095576001
0.00498095923076
0.00498095508346
0.00498105399629
0.00498133037249
0.00498141073851
0.00498140113927
0.00498138695861
0.00498138692762
0.00498138676903
0.00498138762904
0.00498140364374
0.00498135786235
0.00498132680156
0.00498131517707
0.00498130720765
0.00498130214878
0.00498129906217
0.00498129730393
0.00498129653402
0.0049812974945
0.004981299476
0.00498129983865
0.00498138812724
0.00498144001293
0.00498144004053
0.00498143982731
0.00498143946764
0.00498143931911
0.00498143924126
0.00498143935713
0.00498143964618
0.00498149047446
0.00498144511517
0.00498139486245
0.00498137866127
0.0049813756932
0.00498137565594
0.00498137583089
0.00498137576742
0.00498137636113
0.00498137723982
0.00498137571985
0.00498147041471
0.0049814736459
0.00498147409397
0.0049814744378
0.00498147466766
0.00498147477129
0.00498147480745
0.00498147486481
0.00498147491367
0.00498147510796
0.00498159466251
0.00498144666223
0.00498139006949
0.00498137747772
0.00498137905481
0.00498138171069
0.00498138289198
0.00498138386163
0.00498138455459
0.00498138026699
0.0049815129291
0.00498150783208
0.00498150804411
0.00498150801375
0.00498150775824
0.00498150732308
0.00498150678939
0.00498150619959
0.00498150573563
0.00498150550918
0.00498154787467
0.00498156596173
0.00498141492341
0.00498136762283
0.00498136186858
0.00498136304895
0.00498136361931
0.00498136406606
0.00498136417947
0.00498135459482
0.00498154232339
0.00498154670542
0.00498154718123
0.00498154690247
0.00498154653598
0.00498154621125
0.00498154599297
0.00498154481057
0.00498154490198
0.00498154523401
0.00498156586821
0.00498182119867
0.00498147675337
0.0049813300152
0.0049812928247
0.00498128730262
0.00498128521247
0.00498128525974
0.00498128643664
0.00498126634662
0.00498151426327
0.00498163244436
0.00498161681206
0.00498161401305
0.00498160498303
0.00498158803173
0.00498156490994
0.00498154754124
0.00498153866495
0.00498152830739
0.00498152406818
0.00498163687096
0.00498178418337
0.00498124276809
0.00498099341549
0.00498091482331
0.00498088394611
0.00498087246169
0.00498087187346
0.004980827989
0.00498340720603
0.00498323340501
0.00498309680151
0.0049830092563
0.00498292266053
0.0049828371646
0.00498276124603
0.00498270813757
0.00498266887678
0.00498262990023
0.00498259725035
0.0049825928125
0.00498265272417
0.00498280579134
0.00498264372872
0.00498222916935
0.0049820180718
0.00498194194443
0.00498189837687
0.00498179375865
)
;

boundaryField
{
    emptyPatch
    {
        type            empty;
    }
    minY
    {
        type            calculated;
        value           nonuniform List<scalar> 
19
(
0.00497096783037
0.00497098651211
0.00497100517894
0.00497102210231
0.00497103708794
0.00497105012217
0.00497106136141
0.0049710710358
0.00497107919977
0.0049710857496
0.00497109060894
0.00497109386557
0.00497109580977
0.00497109680073
0.0049710969533
0.0049710959817
0.00497109343867
0.00497108849468
0.00497106059367
)
;
    }
    maxY
    {
        type            calculated;
        value           nonuniform List<scalar> 0();
    }
    maxX
    {
        type            calculated;
        value           nonuniform List<scalar> 
38
(
0.00497127360855
0.00497192907667
0.00497261144813
0.00497336090631
0.00497418020409
0.00497504259227
0.0049758998004
0.00497670493394
0.00497732175412
0.00497774624134
0.00497809816233
0.00497846875382
0.00497867463402
0.00497869677195
0.0049787321619
0.00497879039583
0.00497883867035
0.00497887789799
0.00497892759457
0.00497896937112
0.00497898551466
0.00497901500255
0.00497915252807
0.00497917971072
0.00497916096681
0.00497917303878
0.00497920919019
0.00497928037541
0.00497939912037
0.0049799138307
0.0049809550835
0.00498129983866
0.00498137571986
0.004981380267
0.00498135459484
0.00498126634667
0.00498082798914
0.00498179375887
)
;
    }
    water_to_heater
    {
        type            calculated;
        value           nonuniform List<scalar> 0();
    }
    procBoundary1to0
    {
        type            processor;
        value           nonuniform List<scalar> 
38
(
0.00497832227218
0.00497848573338
0.00497857918052
0.00497865572258
0.0049786944099
0.00497872605857
0.00497875468366
0.00497879458388
0.00497883385946
0.00497891198165
0.00497895503019
0.00497898375354
0.00497906256209
0.0049791943494
0.00497940324429
0.00497943059521
0.00497946357549
0.00497968385348
0.00497992865702
0.004980117513
0.00498043149643
0.0049809186286
0.00498132479539
0.00498138856252
0.0049814383494
0.00498146637864
0.00498140906662
0.00497113310458
0.00497189296954
0.00497254370537
0.00497327367301
0.00497425066167
0.00497511252187
0.00497590692732
0.0049770449738
0.00497764761612
0.00497794707773
0.00497794707773
)
;
    }
    procBoundary1to2
    {
        type            processor;
        value           nonuniform List<scalar> 
20
(
0.00498632468482
0.00498606536123
0.00498603854768
0.00498599056331
0.00498594436209
0.0049859607877
0.00498604557633
0.00498619361896
0.00498634274199
0.00498646822954
0.00498657156209
0.00498665959447
0.00498673971232
0.00498681121672
0.00498689986791
0.00498702553945
0.00498710455108
0.00498716078336
0.00498724051723
0.00498708239163
)
;
    }
    procBoundary1to3
    {
        type            processor;
        value           uniform 0.00498348346621;
    }
}


// ************************************************************************* //
