/*--------------------------------*- C++ -*----------------------------------*\
| =========                 |                                                 |
| \\      /  F ield         | OpenFOAM: The Open Source CFD Toolbox           |
|  \\    /   O peration     | Version:  2312                                  |
|   \\  /    A nd           | Website:  www.openfoam.com                      |
|    \\/     M anipulation  |                                                 |
\*---------------------------------------------------------------------------*/
FoamFile
{
    version     2.0;
    format      ascii;
    arch        "LSB;label=32;scalar=64";
    class       volScalarField;
    location    "0.395/water";
    object      d.gas;
}
// * * * * * * * * * * * * * * * * * * * * * * * * * * * * * * * * * * * * * //

dimensions      [0 1 0 0 0 0 0];

internalField   nonuniform List<scalar> 
1496
(
0.00499140633126
0.00499140651953
0.0049914064235
0.00499140137873
0.0049914003345
0.00499139930961
0.00499139512757
0.00499138942711
0.00499138445994
0.0049913812022
0.00499138045957
0.00499138004217
0.00499138044528
0.00499138299484
0.00499139040263
0.00499141089948
0.00499145406349
0.00499152851703
0.00499163198869
0.00499175585555
0.00499145252384
0.00499145292712
0.00499144765341
0.00499144073839
0.00499144156624
0.00499144450021
0.00499144554719
0.00499144495481
0.00499144468593
0.00499144530403
0.00499144573331
0.00499144636982
0.00499145087154
0.00499146465672
0.00499149772657
0.004991558783
0.00499164023247
0.00499173090353
0.00499182854167
0.00499194960457
0.00499150380565
0.00499150428918
0.00499148959332
0.00499148021654
0.00499148180627
0.00499148792233
0.00499149449316
0.00499150136697
0.0049915094701
0.00499151849572
0.00499152662202
0.00499153661014
0.00499155718861
0.00499160711054
0.00499169632514
0.00499177903316
0.00499184042459
0.00499190187679
0.00499197335964
0.00499208450417
0.00499155729006
0.00499155717856
0.00499153326603
0.00499152138162
0.00499152353678
0.00499153180237
0.0049915424266
0.00499155591043
0.00499157308552
0.00499159205836
0.00499161133977
0.00499164020861
0.00499170366735
0.00499182113067
0.00499191236132
0.00499193806677
0.00499195957136
0.00499199506579
0.00499205679524
0.00499216241593
0.00499163205071
0.004991607162
0.00499157258473
0.00499156136253
0.00499156653099
0.00499157828354
0.00499159328621
0.00499161280423
0.00499163783805
0.00499166626439
0.00499170580287
0.00499177849135
0.00499190841026
0.0049920227758
0.00499201984356
0.00499201290252
0.00499202572741
0.00499205397788
0.00499211663939
0.00499220644755
0.00499175557407
0.00499167874315
0.00499161748423
0.00499160612684
0.00499161771247
0.00499163599738
0.00499165743919
0.00499168392499
0.00499171609596
0.0049917595412
0.00499183042315
0.00499194066438
0.00499210819825
0.00499210694382
0.00499207932212
0.00499208094565
0.00499208931862
0.00499211688024
0.0049921710905
0.00499222786286
0.00499201450144
0.0049917832635
0.00499169636731
0.00499168402373
0.00499170343156
0.00499172930786
0.00499175671989
0.00499178890002
0.00499182871735
0.00499189407177
0.00499198545235
0.00499215656525
0.00499221549851
0.00499217045124
0.00499216441939
0.0049921645521
0.00499217071925
0.00499219301919
0.00499222091078
0.00499224671855
0.00499224718627
0.0049919332037
0.00499180872399
0.00499179010019
0.00499181914905
0.00499185699434
0.00499189267704
0.00499193064246
0.00499198684434
0.00499206658581
0.00499218766449
0.00499234941997
0.00499231276017
0.00499228754712
0.00499228429895
0.00499228025758
0.00499228378103
0.00499228832928
0.00499228905002
0.00499228794033
0.00499241577357
0.00499214886291
0.00499198416215
0.00499195067528
0.00499198426239
0.00499203232514
0.00499207530745
0.00499212607803
0.00499219948843
0.00499229480191
0.00499246227707
0.00499252023114
0.00499246568244
0.00499245448565
0.00499244770276
0.00499244391555
0.00499244345873
0.00499243447785
0.00499242066785
0.00499239965438
0.0049925971744
0.00499241307972
0.00499223263588
0.00499218371612
0.00499221447403
0.00499226569038
0.00499231706222
0.0049923866172
0.0049924686467
0.00499255549585
0.00499271055217
0.00499271682338
0.00499267547816
0.00499266695515
0.00499266222272
0.004992666343
0.00499266815758
0.00499265787065
0.004992644153
0.00499262653477
0.00499290797342
0.00499271453014
0.00499246613224
0.00499241015329
0.00499244784629
0.0049925153339
0.00499259578511
0.00499267469633
0.00499273541243
0.00499283046535
0.00499298182136
0.00499297383846
0.00499293771276
0.0049929312849
0.00499293986291
0.00499295787108
0.0049929695399
0.00499296885707
0.00499296483843
0.00499297050489
0.00499320284219
0.00499300569185
0.00499270721183
0.00499264328137
0.00499269258363
0.00499279685094
0.00499290028997
0.00499296949085
0.00499304485424
0.00499314790142
0.00499328449948
0.00499329022432
0.00499325805851
0.00499326659204
0.00499329902391
0.00499333805591
0.00499336810212
0.00499338544427
0.00499339542289
0.0049934246536
0.0049934833792
0.00499331008855
0.00499299269075
0.00499291739026
0.00499298888365
0.00499312906854
0.00499323281705
0.00499331436235
0.00499339214745
0.00499350463673
0.00499365356277
0.00499368353483
0.00499367114092
0.00499370717326
0.00499377078282
0.00499384231921
0.00499390670124
0.00499396060307
0.00499400712823
0.00499406920371
0.00499370288746
0.00499362120533
0.00499331793689
0.00499325621531
0.00499337917979
0.00499353953186
0.00499364345687
0.00499372499794
0.0049938218155
0.00499393109853
0.00499408584315
0.00499419214077
0.00499420864127
0.00499426945468
0.0049943676385
0.0049944888219
0.00499461268832
0.0049947432317
0.0049948996856
0.00499507088387
0.00499418651942
0.00499419524047
0.00499388719761
0.00499384088872
0.0049939749082
0.0049940902286
0.00499415820483
0.00499424010052
0.00499432069483
0.00499443770344
0.00499463833556
0.00499474785739
0.00499478422477
0.00499487406801
0.00499501450161
0.00499517995321
0.00499536348534
0.00499558718163
0.00499581132368
0.00499589006401
0.00499466473988
0.00499466697607
0.00499438882986
0.00499439408839
0.00499450793629
0.00499458328587
0.00499465101963
0.00499471495979
0.00499480909474
0.00499495004052
0.00499516195648
0.00499525785855
0.00499531243194
0.00499544274936
0.00499561886065
0.00499582171696
0.00499605219049
0.00499624319276
0.00499630327568
0.00499629120281
0.00499498703465
0.00499506362762
0.00499486189659
0.00499487061678
0.00499495039911
0.00499502021509
0.00499507111065
0.00499514983347
0.00499528296588
0.00499549683837
0.00499563908278
0.0049956765848
0.00499579585364
0.00499596689479
0.00499616440793
0.00499637423953
0.00499654077977
0.00499660983654
0.00499660817944
0.00499658477354
0.00499611063593
0.00499620611875
0.00499597063776
0.00499591113427
0.00499593298688
0.00499596276465
0.0049960308747
0.00499616846197
0.00499626739174
0.00499626855206
0.00499623638063
0.00499629836263
0.00499641709812
0.00499655027047
0.00499669244332
0.00499681799562
0.00499688794744
0.00499690114697
0.00499688531122
0.00499686005357
0.00499859467063
0.00499872995407
0.00499856784782
0.00499852450215
0.00499853625054
0.00499856741975
0.00499857399409
0.00499846279917
0.00499820915406
0.00499787215694
0.0049976089054
0.00499746554215
0.0049973899862
0.00499733727349
0.00499729555671
0.00499726356597
0.004997234366
0.00499720379729
0.00499717290274
0.00499713985891
0.0049998649151
0.00499993272807
0.00499988238847
0.00499984153776
0.00499980096538
0.00499975665253
0.00499970751198
0.00499967693138
0.00499967575227
0.00499959769634
0.00499936611407
0.00499894437693
0.00499853946076
0.00499823352971
0.00499796505369
0.00499773787412
0.0049975800944
0.00499748474863
0.00499743229844
0.0049973918651
0.00499970028655
0.00499970125502
0.00499970167452
0.00499970189852
0.00499970192642
0.00499970173947
0.00499970134526
0.0049997008442
0.00499970082591
0.00499970127072
0.0049997010164
0.00499966468036
0.00499936457059
0.00499893884119
0.00499857041968
0.00499823141844
0.00499793633022
0.00499774792484
0.00499765573059
0.0049976130628
0.00499971431982
0.00499971428672
0.00499971415981
0.00499971405209
0.00499971394542
0.00499971385012
0.00499971377832
0.00499971373944
0.00499971373808
0.0049997137837
0.00499971385192
0.00499971366823
0.00499968816729
0.00499945290547
0.00499906276642
0.00499870763782
0.004998378768
0.00499806982012
0.0049978940594
0.00499781990109
0.00499972649775
0.00499972651467
0.00499972650661
0.00499972646628
0.00499972640615
0.00499972633099
0.00499972623503
0.00499972611561
0.00499972598695
0.00499972584286
0.00499972561613
0.00499972525187
0.0049997204846
0.00499966708682
0.0049994585948
0.0049991261424
0.00499880449468
0.0049984820776
0.00499820315695
0.0049980597244
0.00499973912504
0.00499973914491
0.00499973915239
0.00499973913621
0.00499973910164
0.00499973905175
0.004999738986
0.00499973890944
0.00499973882656
0.00499973874307
0.00499973866159
0.00499973861088
0.00499973848651
0.00499971688729
0.00499963254281
0.0049994471442
0.00499917706645
0.00499889062575
0.00499859723396
0.00499838186163
0.00499975178859
0.00499975178859
0.00499975177471
0.00499975174335
0.0049997516965
0.00499975163724
0.00499975156771
0.00499975148955
0.00499975139986
0.00499975127979
0.00499975111396
0.00499975088349
0.00499975050631
0.00499973765648
0.00499969085926
0.0049995943942
0.00499942952184
0.00499920905479
0.00499897099132
0.00499875296575
0.00499976418021
0.00499976419021
0.00499976418792
0.00499976416795
0.00499976413263
0.00499976408596
0.00499976402999
0.00499976396458
0.00499976389015
0.00499976378739
0.00499976365175
0.00499976349909
0.00499976331793
0.00499975518422
0.00499972354166
0.00499966098841
0.00499955906432
0.00499940925386
0.00499923260559
0.00499905958386
0.00499977659683
0.00499977659026
0.00499977657713
0.00499977655523
0.00499977652424
0.00499977648511
0.00499977643562
0.0049997763747
0.00499977630069
0.00499977619964
0.00499977606546
0.00499977590221
0.00499977575427
0.00499977036757
0.00499974776402
0.00499970226966
0.00499962930463
0.00499952268893
0.0049993909436
0.00499925660902
0.00499978880701
0.00499978881209
0.00499978881007
0.00499978879905
0.0049997887786
0.00499978874681
0.00499978870158
0.00499978864008
0.00499978855829
0.00499978843959
0.00499978825921
0.00499978796983
0.00499978751774
0.00499978263579
0.00499976475438
0.00499972971365
0.00499967341001
0.00499959168645
0.00499948941859
0.00499938131808
0.00499980095028
0.00499980094489
0.00499980093477
0.00499980092467
0.0049998009151
0.00499980090062
0.00499980088167
0.004999800859
0.00499980083392
0.00499980081281
0.00499980079771
0.00499980079419
0.00499979957345
0.00499979344748
0.0049997765614
0.00499974648556
0.00499969982604
0.00499963460353
0.00499955488871
0.00499946861912
0.00499981278668
0.00499981278732
0.00499981277744
0.00499981277126
0.00499981277397
0.00499981277415
0.00499981276821
0.00499981275606
0.00499981273757
0.00499981273024
0.00499981274007
0.00499981276922
0.00499981050635
0.00499980331626
0.00499978712738
0.00499975997991
0.00499971967858
0.00499966720655
0.0049996056408
0.004999537347
0.00499982442953
0.00499982441579
0.00499982438286
0.00499982435225
0.00499982433697
0.00499982432504
0.00499982430304
0.00499982426877
0.00499982422374
0.00499982419504
0.00499982419854
0.00499982425072
0.00499982137782
0.00499981373808
0.00499979870903
0.00499977454156
0.00499974062198
0.00499969977796
0.0049996524465
0.0049995978632
0.00499983597621
0.00499983595245
0.00499983589416
0.00499983582482
0.00499983576466
0.00499983571106
0.00499983564728
0.0049998355684
0.00499983547954
0.00499983540811
0.00499983537406
0.00499983540996
0.00499983147064
0.00499982373893
0.00499980995904
0.00499978880771
0.00499976177088
0.00499973162684
0.0049996955353
0.00499965242859
0.00499984790981
0.00499984786431
0.00499984776395
0.00499984763034
0.00499984748933
0.00499984735056
0.0049998472049
0.00499984704349
0.00499984686585
0.00499984667344
0.00499984644768
0.00499984611507
0.00499984126021
0.00499983357984
0.00499982044101
0.00499980180871
0.00499978157142
0.00499976141842
0.00499973474115
0.00499970071095
0.0049998609827
0.00499986088906
0.00499986070846
0.00499986046122
0.00499986018591
0.00499985990951
0.00499985965326
0.00499985942567
0.00499985924625
0.00499985914217
0.00499985914315
0.004999857432
0.004999851948
0.004999843316
0.00499983041882
0.00499981438501
0.0049998021294
0.00499979116519
0.00499977062398
0.00499974633959
0.00499987680148
0.00499987658169
0.00499987610737
0.00499987548506
0.00499987477052
0.00499987405116
0.00499987339804
0.00499987283424
0.00499987235045
0.00499987189888
0.00499987139738
0.00499986736247
0.00499986201182
0.00499985304536
0.00499984073965
0.00499982992896
0.00499982812749
0.00499982328246
0.00499980983535
0.00499979264189
0.00499990044039
0.00499990017628
0.00499989922841
0.00499989700336
0.00499989404145
0.00499989168017
0.00499988986034
0.00499988849597
0.00499988757021
0.00499988720563
0.00499988596612
0.00499988383717
0.00499987694888
0.00499986718437
0.00499985752837
0.00499985884029
0.00499986688863
0.00499986577883
0.00499985810638
0.00499985226973
0.00499995964156
0.00499996000303
0.00499996056568
0.00499996038063
0.00499996777292
0.00499998134932
0.00499999099004
0.00499999817566
0.0050000028606
0.00500000038301
0.00499998807986
0.00499997410277
0.00499995890461
0.00499994373979
0.00499993559388
0.00499993715008
0.00499993766501
0.00499993364611
0.00499993229394
0.00499994252962
0.00499222272368
0.00499222274668
0.00499222249316
0.00499222219381
0.00499222190635
0.00499222165999
0.00499222144989
0.00499222126399
0.00499222112202
0.00499222104515
0.00499222102092
0.00499222100729
0.00499222100419
0.00499222075609
0.00499222041124
0.00499222718006
0.00499191693007
0.00499215110557
0.00499225530757
0.00499222710445
0.00499222698665
0.00499222678275
0.00499222661753
0.00499222645692
0.00499222630861
0.00499222620092
0.00499222614151
0.00499222611714
0.00499222611475
0.00499222611703
0.00499222610804
0.00499222608078
0.00499222604021
0.00499222599875
0.00499222708479
0.00499223273539
0.00499212937392
0.00499224957576
0.00499223145651
0.00499223131321
0.00499223117378
0.00499223112247
0.00499223104035
0.00499223094281
0.00499223089059
0.00499223091322
0.00499223100432
0.00499223112444
0.00499223123461
0.00499223131835
0.00499223138237
0.00499223144624
0.00499223158134
0.00499223166674
0.00499223250439
0.00499223662925
0.00499222541978
0.00499223552675
0.00499223570145
0.00499223566346
0.00499223571175
0.00499223574663
0.00499223572362
0.00499223573501
0.0049922358586
0.00499223610874
0.00499223643524
0.00499223674594
0.00499223697092
0.0049922370994
0.00499223715327
0.00499223714494
0.0049922369976
0.00499223699166
0.00499223752573
0.00499224033487
0.00499223932301
0.00499223968368
0.00499223995584
0.00499224013776
0.00499224030317
0.00499224041408
0.00499224051648
0.00499224076644
0.00499224125695
0.00499224205438
0.00499224311098
0.00499224384049
0.00499224427602
0.00499224452459
0.00499224470546
0.00499224475919
0.00499224448346
0.00499224421716
0.00499224457065
0.00499224615353
0.00499224336331
0.00499224437768
0.00499224457795
0.00499224475285
0.00499224489187
0.00499224498899
0.00499224512857
0.00499224544202
0.0049922470609
0.00499225207435
0.00499225345803
0.00499225447297
0.00499225482495
0.00499225487908
0.00499225469975
0.00499225450314
0.00499225424629
0.0049922540545
0.00499225450369
0.00499225523089
0.0049922494207
0.00499224940027
0.0049922495301
0.00499224966071
0.00499224976927
0.00499224985891
0.00499225000376
0.0049922498245
0.00499225554463
0.00499227095265
0.00499227355924
0.0049922716889
0.00499227157056
0.00499227119855
0.00499227120326
0.00499227100783
0.00499227046043
0.00499227030422
0.00499227069199
0.00499227072494
0.00499225698794
0.00499225486701
0.00499225514314
0.00499225532391
0.00499225548626
0.0049922556782
0.00499225556697
0.00499225459665
0.00499226962755
0.00499230202007
0.00499230064115
0.00499229440856
0.00499229452578
0.00499229398806
0.00499229310281
0.00499229247238
0.00499229230725
0.00499229287872
0.00499229364015
0.00499229344431
0.00499227742329
0.00499226489006
0.0049922622897
0.00499226234522
0.0049922625252
0.00499226272432
0.00499226142255
0.00499226535982
0.00499229696714
0.00499234608709
0.00499232820852
0.00499231954637
0.00499231875666
0.00499231774721
0.00499231817269
0.00499231917617
0.00499232159125
0.00499232434034
0.00499232672026
0.00499232696959
0.00499236101007
0.00499233076797
0.00499231745489
0.00499231053559
0.00499230795714
0.00499230751948
0.00499230830022
0.00499232139698
0.00499237164551
0.00499240897663
0.00499236539152
0.00499235467325
0.00499235553512
0.0049923591315
0.00499236356567
0.00499237176706
0.00499238150204
0.00499239000585
0.00499239674568
0.00499239901774
0.00499257555425
0.00499251946987
0.00499249203915
0.00499248191458
0.00499247755546
0.00499247516567
0.00499248466343
0.0049925231456
0.00499258103175
0.00499258883143
0.00499253395208
0.00499251249558
0.0049925055351
0.00499250612164
0.0049925169695
0.00499253418464
0.00499255167004
0.00499256662984
0.00499257831384
0.00499258334619
0.00499294564791
0.00499289504291
0.00499285056751
0.0049928284395
0.00499282443151
0.00499283747855
0.0049928784063
0.00499292109523
0.0049929630391
0.00499294364328
0.00499289205772
0.00499285828586
0.00499285001877
0.00499284985972
0.00499286295934
0.00499288212411
0.00499290183811
0.00499291832632
0.004992930483
0.00499293626962
0.00499343651152
0.00499343605289
0.00499342047893
0.00499341167464
0.0049934135725
0.00499343849497
0.00499345408416
0.00499346983951
0.0049934917008
0.00499344663402
0.00499339790781
0.0049933653784
0.00499336013945
0.00499336514309
0.00499337931195
0.00499339676039
0.0049934129847
0.00499342598822
0.00499343476719
0.00499343442295
0.00499414202389
0.00499409849024
0.00499410117341
0.00499411699526
0.00499412529666
0.00499411900297
0.00499411094692
0.00499413462722
0.00499413389435
0.00499407673864
0.00499402975055
0.00499400511366
0.00499400088755
0.00499400329183
0.00499401014402
0.00499401948319
0.0049940289389
0.00499403724726
0.00499404307771
0.00499403955282
0.00499517700372
0.00499515176286
0.00499502040458
0.0049949376783
0.00499490911298
0.00499490746746
0.00499494782321
0.00499497281945
0.00499492035935
0.00499484828438
0.00499479717658
0.00499476464805
0.00499474510913
0.00499473203426
0.00499472509604
0.00499472231671
0.00499472142476
0.00499472234367
0.0049947244966
0.00499472456626
0.00499592766224
0.00499599695109
0.00499603213996
0.00499599872786
0.00499596508713
0.00499594695619
0.00499592259998
0.00499585596636
0.00499576632007
0.00499567197408
0.00499559256891
0.00499553046076
0.00499548519283
0.00499545170799
0.00499542657895
0.00499540689078
0.00499539188864
0.00499538210509
0.00499537774441
0.00499537696203
0.00499628908487
0.00499633331848
0.00499637638865
0.00499640879336
0.00499640972294
0.00499638556062
0.00499634104907
0.00499630264535
0.00499626818225
0.00499621859903
0.00499615616951
0.00499609659459
0.00499604691492
0.00499600632215
0.0049959736729
0.00499594784011
0.00499592807525
0.00499591413787
0.0049959056936
0.00499590333403
0.00499656608247
0.00499656009269
0.00499655898676
0.00499655613681
0.00499655163456
0.00499653832192
0.00499652168479
0.00499650719203
0.00499649964985
0.0049964858889
0.00499646116673
0.00499643093766
0.00499640106816
0.00499637371162
0.00499635017975
0.00499633082521
0.00499631554493
0.00499630415519
0.0049962964517
0.00499629353746
0.00499683403413
0.00499681249018
0.00499679077624
0.0049967700183
0.00499675021746
0.00499673325432
0.00499671856734
0.00499670449524
0.00499669300199
0.00499668331264
0.00499667216959
0.00499665999155
0.00499664726111
0.00499663415206
0.00499662176866
0.0049966106957
0.00499660165167
0.00499659495567
0.00499659064748
0.00499658894109
0.00499710119277
0.00499707027717
0.0049970392893
0.0049970092984
0.00499698061388
0.00499695463019
0.0049969298045
0.00499691058262
0.00499689600019
0.00499688685993
0.0049968807513
0.00499687573248
0.00499687041974
0.0049968641844
0.00499685767403
0.00499685185799
0.00499684788414
0.00499684557791
0.00499684465642
0.00499684442712
0.00499735327508
0.00499731427807
0.00499727850865
0.00499724179266
0.00499720622781
0.00499717309255
0.00499714677336
0.0049971265986
0.00499711433777
0.00499710895028
0.00499710661612
0.00499710496252
0.00499710285959
0.00499710006063
0.00499709689231
0.00499709446904
0.00499709395235
0.00499709489983
0.00499709673642
0.00499709962311
0.00499757655953
0.00499754403862
0.00499750753852
0.00499747210958
0.00499743555462
0.00499740370321
0.00499737992962
0.00499736548138
0.00499735931342
0.00499735820134
0.00499735739015
0.00499735619563
0.00499735486366
0.00499735342826
0.00499735071025
0.00499734722326
0.0049973448794
0.00499734486572
0.00499734655667
0.00499734850398
0.00499778716781
0.0049977567304
0.00499772895432
0.00499769865567
0.00499767043884
0.00499764840165
0.00499763601347
0.00499763171206
0.00499763147861
0.00499763263049
0.00499763384339
0.00499763542637
0.00499763648802
0.00499763685879
0.00499763514903
0.00499763199277
0.00499763103412
0.00499763479135
0.00499764028912
0.00499763931295
0.00499800161719
0.0049979724049
0.0049979481735
0.00499792812624
0.00499791610727
0.00499791312361
0.00499791570444
0.00499792044129
0.00499792591942
0.00499793412334
0.00499794659477
0.00499796128317
0.00499797674007
0.00499799058453
0.00499800341495
0.0049980148933
0.00499802456716
0.00499802784275
0.00499801716017
0.00499801102041
0.00499827627942
0.004998228306
0.00499820158966
0.0049981908728
0.00499819382533
0.00499819997374
0.00499820698068
0.00499821614099
0.00499823084403
0.00499825794295
0.00499829783263
0.00499833495377
0.00499835821197
0.00499837156544
0.00499837999264
0.00499838242272
0.00499837748806
0.00499836504135
0.00499835045183
0.00499834850997
0.00499861015804
0.00499853447124
0.00499849541317
0.00499848509502
0.00499848333081
0.00499847807517
0.004998478541
0.00499849016881
0.0049985202703
0.00499857486683
0.00499862310477
0.00499862790879
0.00499862393383
0.00499861628097
0.00499860745463
0.00499859904191
0.00499859096413
0.00499858227095
0.00499857418173
0.0049985767671
0.0049989220075
0.00499883096824
0.00499877828139
0.00499875161098
0.00499872706804
0.00499870570503
0.00499869478432
0.00499870195289
0.00499873414812
0.00499877145818
0.00499876611421
0.00499876573732
0.00499876305669
0.00499875269076
0.00499873915431
0.0049987284187
0.00499872149689
0.00499871696949
0.00499871352359
0.00499871602174
0.00499913922618
0.00499904665348
0.00499898247699
0.00499893941602
0.00499890687643
0.00499887359786
0.00499884144026
0.00499881922532
0.00499880599032
0.00499879161057
0.00499877757434
0.00499877760171
0.00499877825926
0.00499877782202
0.00499877638182
0.004998775395
0.00499877446331
0.00499877335796
0.00499877508222
0.00499877933236
0.004999280961
0.00499919570454
0.00499913147312
0.00499908578711
0.00499905138146
0.00499901744175
0.00499896783149
0.00499891300481
0.00499886370649
0.00499883205748
0.00499881790181
0.00499881740165
0.00499881740253
0.00499881683542
0.00499881788933
0.00499881970112
0.0049988193807
0.00499881851607
0.00499882080585
0.00499882841008
0.00499938438546
0.00499931115634
0.00499925868394
0.00499921541096
0.00499918510746
0.004999158991
0.0049991101342
0.00499904399035
0.00499898489628
0.00499894677979
0.00499892762877
0.00499891958643
0.00499891177771
0.00499890487222
0.00499890298317
0.0049989002617
0.00499889850215
0.0049988952309
0.00499889601248
0.00499890465081
0.00499946857006
0.00499940895907
0.00499936535177
0.00499933157955
0.00499930553533
0.00499928656305
0.00499925447643
0.00499919345308
0.0049991331332
0.00499908876461
0.004999061973
0.00499904974374
0.0049990390053
0.00499902807654
0.0049990203101
0.00499901713466
0.00499900566076
0.00499899771489
0.00499899667264
0.00499900809624
0.00499954247826
0.00499949617352
0.00499946089495
0.00499943096435
0.00499940942171
0.00499939188748
0.00499938262218
0.00499934554019
0.00499928950419
0.00499923963136
0.0049992049277
0.00499918623144
0.00499917228666
0.00499915991024
0.00499914991792
0.00499914652811
0.00499914931772
0.0049991281502
0.00499912276497
0.00499913220192
0.00499960888811
0.00499957543539
0.00499954494659
0.00499952131034
0.00499950261737
0.00499948745224
0.00499947893223
0.00499947273369
0.00499943710813
0.00499939116045
0.00499935375727
0.00499932849215
0.00499930989929
0.00499929517598
0.00499927985717
0.0049992695711
0.00499927296201
0.00499925572912
0.00499924413342
0.00499925328283
0.00499966833477
0.00499964763172
0.00499962638992
0.00499960122652
0.00499958480426
0.00499957147983
0.00499955988844
0.00499955553724
0.00499954285885
0.00499950490965
0.00499946703978
0.00499943861017
0.00499941543095
0.00499939375898
0.00499937504307
0.00499935764106
0.00499937680229
0.00499935218071
0.00499933859081
0.00499934637439
0.00499972364529
0.00499971959383
0.00499970157559
0.00499968069354
0.00499966615112
0.00499965146195
0.00499964032261
0.00499963031888
0.00499962095625
0.00499959024272
0.00499954812583
0.0049995135921
0.0049994855106
0.0049994598123
0.00499943403987
0.00499941974312
0.00499948753949
0.00499943433772
0.00499942891742
0.00499943864493
0.0049997850776
0.00499980187391
0.00499978593964
0.00499976457763
0.00499974951416
0.00499973798079
0.00499972435916
0.00499971157669
0.00499970094905
0.00499968377134
0.00499965122685
0.00499961558428
0.00499958627107
0.00499956506921
0.00499957133973
0.00499966958161
0.00499962695975
0.0049996039011
0.00499960385897
0.0049996149619
0.00499987306834
0.00499989190605
0.00499987044337
0.00499985402153
0.00499984345908
0.00499983195266
0.0049998227353
0.00499982111415
0.00499983096198
0.00499985387648
0.00499987236727
0.00499987763843
0.00499988103141
0.00499990960514
0.00499992167963
0.00499987307177
0.00499985317112
0.00499984357557
0.00499983948274
0.00499984440879
0.00499996507463
0.0049999656276
0.00499995424632
0.00499994998818
0.00499994445828
0.00499994091824
0.00499994296124
0.0049999587768
0.00499998529927
0.00499999158342
0.00499999429968
0.00500000100242
0.00500000618106
0.00500000200026
0.00499999385862
0.00499999369462
0.00499999075316
0.00499998733355
0.00499998366155
0.00499998554955
)
;

boundaryField
{
    emptyPatch
    {
        type            empty;
    }
    minY
    {
        type            calculated;
        value           nonuniform List<scalar> 0();
    }
    maxY
    {
        type            calculated;
        value           uniform 0.005;
    }
    maxX
    {
        type            calculated;
        value           nonuniform List<scalar> 
38
(
0.00499222718006
0.00499223273539
0.00499223662925
0.00499224033487
0.00499224615353
0.00499225523089
0.00499227072494
0.00499229344431
0.00499232696959
0.00499239901774
0.00499258334619
0.00499293626962
0.00499343442295
0.00499403955282
0.00499472456626
0.00499537696203
0.00499590333403
0.00499629353746
0.00499658894109
0.00499684442712
0.00499709962311
0.00499734850398
0.00499763931296
0.00499801102043
0.00499834850999
0.00499857676712
0.00499871602178
0.00499877933244
0.00499882841022
0.00499890465106
0.00499900809706
0.00499913220363
0.00499925328524
0.00499934637734
0.00499943864854
0.00499961496669
0.00499984441352
0.00499998555432
)
;
    }
    water_to_heater
    {
        type            calculated;
        value           nonuniform List<scalar> 
59
(
0.00499139647268
0.00499142113129
0.00499144857581
0.00499149966916
0.00499153149338
0.00499156017987
0.00499161259782
0.00499164272431
0.00499174277492
0.0049917761959
0.0049920101614
0.00499224307617
0.00499237137105
0.00499242532071
0.00499256536132
0.00499262110199
0.00499288997681
0.00499294594754
0.00499319880139
0.0049934793256
0.00499365646394
0.00499371297943
0.00499415448958
0.00499421056265
0.00499464753672
0.00499469939766
0.00499498279992
0.00499610647425
0.00499854990749
0.00499860388179
0.00499983876258
0.00499988159441
0.00499969057634
0.00499971369105
0.00499971171704
0.00499972435529
0.0049997298672
0.00499973949639
0.00499974487214
0.00499975467231
0.00499975975194
0.00499976937956
0.00499977457229
0.00499978677701
0.00499979156973
0.00499980137062
0.00499980589844
0.00499981560798
0.00499981993711
0.00499982973867
0.00499983387912
0.0049998457087
0.00499985107549
0.00499986106301
0.00499986786253
0.00499987982146
0.00499989248519
0.00499990831452
0.00499995555675
)
;
    }
    procBoundary0to1
    {
        type            processor;
        value           nonuniform List<scalar> 
41
(
0.0049913691424
0.00499136927821
0.00499136923253
0.00499136699638
0.0049913636527
0.00499135961806
0.00499135320049
0.00499134621415
0.00499134033199
0.00499133518665
0.00499133194553
0.00499133140936
0.00499133175231
0.00499133249566
0.00499133559686
0.00499134546106
0.00499136789743
0.00499141024735
0.00499148117366
0.00499158415359
0.00499218093077
0.0049922351568
0.00499221698763
0.00499221709042
0.00499221695732
0.00499221663735
0.00499221615695
0.00499221558354
0.0049922151963
0.00499221503259
0.0049922148344
0.00499221444504
0.00499221389835
0.00499221339652
0.00499220734982
0.00499220985972
0.00499171384052
0.00499187982527
0.00499211147016
0.00499225589997
0.00499225589997
)
;
    }
}


// ************************************************************************* //
