/*--------------------------------*- C++ -*----------------------------------*\
| =========                 |                                                 |
| \\      /  F ield         | OpenFOAM: The Open Source CFD Toolbox           |
|  \\    /   O peration     | Version:  2312                                  |
|   \\  /    A nd           | Website:  www.openfoam.com                      |
|    \\/     M anipulation  |                                                 |
\*---------------------------------------------------------------------------*/
FoamFile
{
    version     2.0;
    format      ascii;
    arch        "LSB;label=32;scalar=64";
    class       volScalarField;
    location    "0.95/water";
    object      rhom;
}
// * * * * * * * * * * * * * * * * * * * * * * * * * * * * * * * * * * * * * //

dimensions      [1 -3 0 0 0 0 0];

internalField   nonuniform List<scalar> 
1496
(
611.785362427
657.935714019
651.028253525
655.259978572
653.512522389
650.236360309
648.030363096
648.433480349
655.301984522
671.982016437
698.785905615
741.265506312
802.306134767
867.094923395
894.028453051
886.021263204
804.318524613
782.719308515
783.278973865
825.017571701
612.639905549
666.815120899
658.417351865
671.874831767
681.303408029
683.591209504
680.006337593
674.133104079
672.010394
679.53972544
701.080969265
741.354239602
801.504610312
866.187724185
894.152014375
878.733953668
794.786774356
782.5010757
795.183017034
843.750744213
612.394795435
679.823153757
674.661056648
694.937294314
718.089318842
733.672691071
732.739204914
722.055251234
708.234043425
703.87103683
715.582409268
750.560018981
808.973295511
869.812814336
890.851026313
854.012219547
779.220955305
782.826408682
818.686000205
872.16617989
612.641203105
705.763620173
705.0753357
725.652845132
755.550773398
785.832246469
793.528817614
783.443658609
762.429385612
747.704980875
750.997309938
777.132887992
827.143675799
869.127976556
865.302515825
805.668859403
770.691803502
790.130560824
838.509482128
891.148902089
617.769757509
744.089892162
748.091375767
764.488033278
789.519295743
813.568491556
813.960937126
814.309382025
811.859598258
800.723110291
796.632679206
809.068925911
829.121114014
839.180060947
799.421128731
760.886518548
770.000459675
798.41863564
844.450886215
895.608280092
651.824145852
781.475781567
783.690649573
795.839663178
812.606296183
813.960620206
815.056106373
813.961030875
815.476372312
813.96119174
814.861113489
813.961283045
803.449159093
770.315848975
745.56674902
749.213122227
771.028748433
801.732588127
844.31392005
894.735890118
708.800134164
788.631391161
788.887599497
798.859433937
813.959875236
815.004635687
813.960850046
816.660396676
813.961049187
816.834130547
813.961163722
797.612847395
755.469987083
742.316305144
742.296475884
751.009966015
774.789502143
805.273598408
844.714371649
890.580540269
733.740193206
768.78274385
766.605495734
781.914206568
807.497718869
813.960467471
816.432445807
813.960823593
816.93029894
813.960990499
799.182945814
762.087843426
745.815850846
745.512888885
749.642750572
764.017377343
786.969603002
814.685659664
848.76021449
890.802348724
699.945084004
687.681324815
696.735374637
717.669921262
750.442583309
780.769257767
791.624412686
791.362472002
774.257007745
750.234276875
730.162885148
731.84086208
745.364363302
760.081940676
775.787832053
793.9696071
814.034283129
836.034583464
860.969613717
894.422028655
616.451711445
605.963857261
623.291761242
635.93544706
652.057378352
670.28600986
679.235697074
672.13447665
652.696993687
637.084551714
639.142969742
670.261112868
715.367006156
752.940655384
784.21999085
812.15954776
837.377840675
860.067527307
879.055569116
902.340943495
556.94785028
579.871239513
593.252366999
594.762756291
595.310743602
595.129925525
593.016075192
589.903437325
585.127629038
582.743803801
585.269570825
601.610213831
639.444017508
697.206487751
757.257713795
801.921219469
835.402540614
863.128560411
886.984417708
910.891899967
549.267579337
574.46017182
583.351430926
582.543895381
579.868975892
576.24450674
574.292044625
573.779955758
573.139131933
572.811007228
573.01355131
576.723937784
593.091760523
632.255356639
695.031733725
759.87131854
813.587911013
855.370151755
885.251331799
911.715219468
548.409393351
569.370752379
577.425002751
577.314120384
575.029921712
572.199318813
571.728698141
571.564191204
571.556492296
571.583766967
571.973299568
574.69035199
586.068700794
612.04336558
656.104313462
713.497474177
775.615213183
834.376878492
878.001264524
909.799518033
549.209100867
562.597826187
572.077536745
573.734922984
572.336887042
570.841130427
570.790897039
570.856001233
571.401508484
572.272715889
573.644455726
577.202911551
587.990388282
611.730608306
647.898348985
693.107458674
748.531908655
811.290673507
866.588380826
906.07145783
548.296231326
556.232152574
567.417835524
571.186553913
570.678874663
570.183651226
570.258486091
570.867907638
572.813435418
576.483205275
580.950450753
586.911162753
597.002267623
616.569225534
648.451972145
689.062839249
739.067838073
798.678623446
857.430270242
902.702148472
549.212206321
552.697387727
564.420177989
569.883331797
569.974849926
570.023465718
570.093818627
571.749404608
577.133673618
585.779795355
595.4541485
605.202436916
615.707045318
630.871794559
655.087983925
690.857474374
738.704588775
796.368486695
854.470419151
901.523554848
548.352859553
551.836524644
563.230894638
569.576967492
569.882840417
569.954838028
570.262413266
573.688419131
582.94791663
597.398369861
613.920455198
629.280650765
642.1865022
654.926158626
672.923729727
702.115049877
745.296315346
799.808138449
855.861535244
902.456287403
549.284420876
551.775861979
563.019440371
569.874947216
570.342377194
570.37515947
571.190230973
576.141536365
587.986114898
607.174931887
631.062010343
654.392132514
671.831882715
685.195784219
701.817761224
727.805335839
766.338641004
814.600300527
864.118104005
907.075008537
548.441549714
551.897708692
563.195467933
571.247543621
572.423507178
572.510661096
573.794235778
579.370994939
592.275537932
614.032217975
643.500017129
674.790235672
699.192845701
717.861658984
738.202931704
765.465217461
801.007901307
841.033362848
879.919507827
916.082870022
549.35268886
551.996579404
564.186431208
574.528565727
577.42681194
578.002284685
579.442793508
584.749924957
597.510274225
619.767597929
651.259780204
688.007645064
720.751325182
748.568354825
776.633126475
807.998998181
840.626024676
870.438782088
898.298980091
927.462107931
548.622251223
552.577781135
566.736876451
580.361290465
586.207816995
588.116863983
589.750716902
594.388261756
606.004568445
627.116289477
658.092756734
696.73101483
735.901716868
773.362217171
810.648839921
846.062177362
873.554171007
893.890198839
914.71023537
933.91865885
549.363246757
553.979454537
571.41346559
589.057863205
598.858606028
603.245555319
606.025502961
610.508306372
620.674938987
639.552465397
668.483038737
706.390074616
748.473948913
792.325390244
836.101188739
871.965984884
893.664479195
909.236255768
924.067858878
933.923177873
548.718977633
557.168466426
578.455327637
600.304859366
614.424164943
622.727867162
628.669847929
634.794058716
644.689961597
661.609727863
687.572986572
722.475320963
764.001662298
809.663775885
854.363046212
886.798908406
904.909392844
917.571527462
924.114090309
922.409918026
549.436548652
562.210662404
587.839362504
613.107431234
630.818182621
644.873043184
657.271108109
668.114288484
680.062490043
696.446190742
719.456608698
749.914806557
787.562309313
830.145355923
870.111497981
896.810748363
911.814229419
918.908644438
921.434211194
864.32260944
549.056575962
570.163663198
599.046317109
625.98381108
645.587577556
667.594516048
689.606202985
708.393720606
725.69143267
743.991570299
765.136050105
790.744004637
821.822088399
856.54952154
887.132415971
905.479981929
914.145556096
917.734815847
890.706419752
756.198467691
549.500315481
582.139989591
611.436690601
637.085210678
657.645798448
687.769692362
721.81432224
752.066302407
777.606145662
800.182402204
821.396490828
842.63092833
864.915128449
887.399577112
905.346025032
912.869643508
914.09998144
900.930986454
806.004871227
697.564222175
556.067929041
600.115608215
624.347942422
645.158675593
666.603599528
702.792105072
748.702418913
792.002489193
827.770713809
857.065548008
880.361660169
897.097828271
908.868903317
916.486808753
920.534645134
918.361696563
904.718683732
834.947357673
717.331925301
696.087022061
587.880512755
625.245152731
636.786773253
650.032696901
670.984259643
711.548949027
767.496247391
823.241092088
869.700955168
904.725788112
922.931194897
928.59198653
930.429092663
931.007294981
928.166237669
913.683297718
857.029725368
748.095316234
696.252598717
695.637464078
654.099184206
653.631030309
647.777076779
652.586789176
672.259908353
716.995784287
781.360193035
847.896313892
901.998405431
928.532450551
932.077851755
932.166961475
932.13067694
932.084040238
926.64001582
885.591460562
784.58512418
717.594931383
698.074204519
696.086952626
715.166011885
682.284578628
657.812244485
657.466169085
676.191325794
725.450315913
796.669020186
870.252380286
921.263345111
932.201850372
932.43900321
932.340735594
932.271360358
931.981058317
915.558196153
834.264669043
750.965755094
720.54137148
710.839794422
708.592577787
721.314553696
706.206710817
671.438876224
666.940392313
686.766892151
740.218564899
815.566724594
889.672475061
928.297667131
932.567819566
932.554000724
932.504663565
932.308175507
930.08445596
890.582892768
799.42195437
753.407384004
741.663565206
742.784723818
745.050115823
718.973370264
721.333510283
688.118094977
682.007070975
703.508237762
759.693503742
835.509352168
903.812852109
930.545986985
932.668634795
932.633666548
932.554019318
932.29744712
924.716812825
865.74492533
797.320048631
777.182711477
782.080573415
788.685365074
789.684313061
714.313911885
734.058091253
705.359747848
700.121843937
722.510325737
779.529152802
853.365765271
913.471332761
931.788274537
932.742045761
932.668663114
932.702642247
932.245880008
918.594358268
857.80186177
812.446307957
814.196278562
818.904731872
814.816843338
801.144414052
712.104569579
751.916303671
724.009485824
719.605429878
741.820818305
798.136412206
868.799812295
920.632105857
932.593352809
932.730828384
932.861572956
932.668675115
932.510873612
914.23323951
857.592059641
833.509317579
830.644357759
824.493950039
812.492436738
793.522005017
714.313671244
776.767913354
746.199285951
742.665902304
764.567605639
819.103974775
884.855834566
926.566887499
932.730783022
932.892927145
932.73084676
932.983924461
932.668676535
908.305518427
854.672577779
835.028914447
827.666815582
815.606373328
795.960926417
786.073119787
712.749517258
806.653627721
774.154748778
772.657526378
795.009770501
847.166579142
905.37051308
931.53794684
932.874281609
932.835669229
932.990519718
932.730850261
929.712313734
886.575136319
840.922458837
824.763895676
810.67803736
796.030321581
789.246776101
787.492545127
714.656593836
814.03018721
814.042938672
810.731786103
828.979123549
873.501618805
916.331118783
932.662475213
932.835622288
932.896275803
932.835672413
917.371162865
879.78553493
831.218127582
811.977994136
802.074288716
795.071917588
793.643128028
795.901753854
808.732290547
887.389952258
840.812309641
780.21167629
747.017190205
740.618815345
754.169101489
777.036562572
796.127819606
804.322059123
802.661425792
807.080275835
875.341643894
946.439540778
989.24069354
999.637157894
999.934964414
886.922024534
923.926602737
929.947095766
903.746572483
872.900163009
834.368478851
785.400775989
761.659525612
756.725214721
766.150977393
784.068247343
805.011448305
815.401107212
810.069548416
807.20958314
861.929361368
941.112979843
986.695241902
999.291606778
999.935047097
895.477127499
925.899655535
925.208042684
873.547981373
822.009378044
802.621534149
781.367141579
763.874847242
757.974226613
763.592222199
780.506919448
808.701392665
828.561675634
826.704832545
807.341332896
843.347021817
913.875881534
971.800123724
997.652985733
999.93499319
913.694775599
932.467123752
923.50820595
857.140704206
787.782446119
767.455315619
763.701095192
755.814129733
750.906639559
751.622877029
773.292964756
814.020362115
848.055455761
852.504378075
809.685735542
839.406556672
887.032162732
932.995006712
986.76899703
999.935046797
927.921532871
939.468445138
926.378268135
865.979959938
798.790868149
760.088234729
730.610066302
726.119638557
729.934774854
739.340033019
775.35495719
828.641106034
872.303509505
880.792665686
824.285911981
843.708136067
887.50908743
886.85267106
935.875868277
999.934987325
933.213204421
944.767649406
937.823985116
901.972768023
845.226955173
760.507479953
697.752902148
696.731863626
707.500831823
739.443947102
790.280679731
855.004672675
898.273229592
903.388845069
835.395768514
854.729263412
903.214847552
869.16507703
862.010102346
999.53983602
933.969340685
948.277433861
949.49635266
941.46718506
886.910589692
748.534881625
696.088045286
695.528891074
697.222349038
747.151982109
819.80983524
886.885346737
922.717166887
916.36871351
845.674119755
877.416376306
930.247908885
860.292294334
840.079245983
998.817848464
932.938212646
949.887489596
950.813742978
949.92762254
871.067810333
703.75600058
694.620364636
696.087970189
698.011340237
766.216567739
855.323776925
915.920239218
943.655616166
923.061053136
863.975383503
908.833779688
940.458908048
855.765267958
835.472969249
998.733672514
932.168877678
950.878778313
950.952896628
946.062658527
827.918717814
694.063054183
696.087883936
695.791124296
705.847470399
794.407565158
887.351372013
938.402530369
960.964676864
933.771914574
890.980949801
936.746893651
940.702300978
862.75896224
833.002353091
999.029885522
933.414759914
950.978912897
950.878763338
935.312062661
781.917544928
696.087799893
694.576217839
696.087812171
726.401989591
828.381602345
912.791450142
954.314014251
974.637215288
953.194415288
916.196246308
940.703877587
940.535413622
870.850885502
832.885760872
999.634227394
936.035777185
950.933620063
951.074285753
919.145896871
743.815481779
694.061034749
696.087731022
697.591358998
753.923357528
855.551606617
927.055923574
961.278266806
979.472915581
979.81424986
936.329790004
940.535414944
940.780214156
843.319738441
849.773591396
999.924401836
939.396013263
951.147874622
950.933611722
902.021604535
714.834237027
696.087659247
694.907806791
707.224672525
771.443751021
856.61405971
924.017570271
958.468223208
977.680100823
990.047936367
939.607018952
940.773198388
929.848352879
720.456622865
900.899730963
999.924411411
941.038348238
950.994862692
951.127757934
890.387642551
699.666288794
694.08071384
696.087607912
718.704041652
771.813248163
850.419818235
916.588460335
953.716338727
977.184268122
989.953158884
853.701035807
904.543721589
822.345392554
673.150380712
927.411945857
999.924407593
939.982612573
951.142759024
950.994861491
896.339093652
699.246263507
696.087557689
694.787515699
714.847079347
765.237650001
843.191831957
914.897189542
954.648079837
981.669193696
989.094900416
853.376124405
894.554071841
772.29042992
671.220703708
953.018238786
999.924417399
938.100060346
951.048424097
951.211014414
910.776595172
703.285261568
693.87851779
696.0875229
695.510396003
750.198090293
841.840643768
919.742804397
962.095335808
989.187382765
992.107871454
853.98177774
886.519967268
758.915404386
673.109152899
974.188772932
999.924410547
937.332974253
951.206890883
951.014305089
922.104674388
703.847621795
696.087482317
694.087877837
696.08749285
737.464459668
843.241807364
930.272206236
973.187617566
994.462439265
997.494306669
938.587807927
886.756359493
722.437868676
671.228718763
973.652395801
999.924416566
937.369688654
951.014293674
951.22745297
919.11785708
698.842125619
693.886669127
696.087457304
695.022686466
731.568811523
846.590092254
939.801271136
981.161843734
996.676326597
999.588417414
985.302973
870.369938805
684.384094432
673.108958924
923.074376648
999.924409334
938.855914791
951.155686833
950.939090079
893.049430747
694.849298988
696.087422965
694.292705358
696.087434614
731.062636718
850.045074871
945.556910721
985.167595716
997.674510384
999.850975365
986.978160742
838.78277393
676.756908244
671.484400349
851.086111307
999.924354645
943.0896345
950.939081079
951.190292385
816.346583388
696.087384763
694.250064379
696.087403984
695.376972185
735.148016326
855.221799875
949.083692399
987.06337641
998.135958028
999.903996247
989.891661246
857.983342819
695.715583349
673.101553945
811.722740499
999.615575278
947.836702715
951.141071771
924.209443327
720.207376181
694.463823116
696.087373092
695.217301002
696.087385222
749.806989216
864.92524946
951.538173891
987.847567906
998.318056123
999.916982681
997.426568832
913.025576664
722.838867337
671.446165019
806.467969369
999.704647718
947.866420012
945.686326346
816.363601158
694.974176509
696.087340808
695.311843513
696.087357514
709.89450571
780.257501309
879.896165779
953.655436212
987.423165387
998.076228939
999.914277949
999.85069158
943.765692903
708.478003462
673.040285789
817.292974787
999.876949822
944.961589874
886.779547946
707.886788604
696.087303663
695.372583237
696.087327306
707.480964661
750.342811019
820.860752416
897.977977514
955.710893341
986.139294787
997.41676195
999.846919502
999.874562017
925.397280451
673.74922299
671.131390192
806.091426841
999.840027213
913.405808837
759.018336613
696.087259554
695.390196612
696.087291908
707.965904813
746.068702197
799.436999804
859.955966465
916.084310327
958.436691473
984.432311849
996.335759038
999.656577535
999.440944333
846.241252753
671.583046327
672.905493291
695.765949983
995.613796486
817.651874432
696.313766921
695.27432786
696.087249583
704.082299818
744.772368013
794.926655756
842.031643089
889.66794884
931.163671102
962.152425576
983.506912303
995.496103637
998.494211002
985.307994155
765.880585951
672.905680375
671.291177565
672.849195012
979.080171169
712.872252032
695.263874256
696.087201515
696.642029854
732.96941224
791.692758629
837.43914203
871.792983024
908.632181422
941.95743941
967.073840313
984.304428244
991.691844753
986.53004079
931.194518004
790.644066638
690.617069955
672.904309337
671.957595319
971.743134358
695.263812935
696.087147463
695.615771235
710.716096171
771.355638574
835.026649991
869.507709631
890.826273208
919.53988991
949.640806938
972.277067616
979.519605314
965.565161466
942.037547044
937.496004128
879.814557025
783.320383024
697.79808735
672.902702028
976.365680354
696.087087607
695.311517037
696.087121856
734.71508659
806.810695354
869.560744822
893.804638569
905.597179662
926.55494208
954.788612062
972.385894713
955.203743597
894.664733277
927.08264513
965.885566265
952.121589368
900.182175609
814.540064311
772.223351077
988.233484122
695.318335891
696.087066501
704.321013349
760.782102099
834.825703592
894.835341158
913.441438535
919.582973052
933.385508078
957.719696507
960.863774963
857.765327588
853.970898414
962.846608827
984.699194544
984.139352593
969.069746414
941.765959756
930.475838948
997.97517738
696.087010865
695.879597237
724.01827423
788.253594978
857.171383127
909.465791876
926.424945399
931.23557089
940.987481753
957.769135158
931.804745383
732.121317648
726.680602669
982.334337601
996.788200853
996.986593844
996.170417695
994.620482833
996.276801347
999.781794259
696.487985681
707.997710143
753.123369964
816.361435369
873.281809497
911.666766242
929.98840068
937.756818128
946.348150138
953.69509919
879.738838658
670.133650037
658.520289022
887.895603463
997.734724517
999.719696996
999.746015673
999.785486235
999.811681598
999.812478265
713.965598939
739.610851475
786.932661966
837.430811211
878.140622989
910.233865543
930.532995821
941.11638174
946.83960977
944.584192805
818.722241164
659.197696523
659.552215653
786.686901272
990.122352247
999.811495906
999.813594503
999.811781851
999.813341295
999.812364243
754.508038614
778.254037796
809.552071836
842.549930591
877.453296625
909.424174239
931.8978942
943.420223676
946.846702727
933.684777581
773.992775104
659.946182655
658.473323364
766.785951853
987.353806616
999.812551679
999.811709807
999.813609202
999.811853536
999.812736068
789.90680542
795.975945652
812.40612238
842.059663266
877.792825025
911.235974305
935.431016766
945.121635333
946.839598487
917.893864086
744.054077874
659.288328509
659.946100096
762.605837343
985.2183715
999.285486355
999.114712066
999.568110049
999.812737969
999.811848884
791.682652028
795.272549782
811.977370222
843.549347291
882.19308304
918.327935385
941.28081768
945.496529332
946.181513023
889.757221783
713.113716298
660.308858376
658.894396501
732.049584009
970.574805718
997.077232691
996.418713655
997.745549269
999.289652184
999.664111769
786.116606825
792.42552151
814.660475734
852.525949605
895.957858046
932.153725324
945.221989749
945.426144289
936.887642155
822.302871225
678.434207701
660.276450163
660.308736273
672.810297285
921.300263275
993.315514516
994.202901554
995.649299321
998.494724237
999.415116124
786.040225303
796.795995226
831.027223537
878.139263261
922.673906539
944.52377848
945.212622539
943.019681148
869.000978179
710.475129017
661.658667405
660.703797729
660.378428722
660.70359526
829.168466545
987.281211036
994.489857456
994.675042904
997.187654128
999.162964676
794.70149787
824.541838067
873.907712282
921.683682079
943.413387608
944.6151317
938.590344275
864.596212896
720.033457957
670.338140455
666.29483591
669.882626712
676.598777796
675.517660306
707.346575594
917.056539122
990.52092748
993.050089252
994.101789685
997.257504085
840.935123749
887.620432801
924.262856748
938.686565346
940.217667782
918.996430479
834.850611348
722.947076079
681.814311874
676.761555727
681.895157482
691.947162304
704.856806883
705.267126835
706.083384844
732.13321169
837.503104323
914.545132044
938.788428989
960.376313624
)
;

boundaryField
{
    emptyPatch
    {
        type            empty;
    }
    minY
    {
        type            calculated;
        value           nonuniform List<scalar> 0();
    }
    maxY
    {
        type            calculated;
        value           nonuniform List<scalar> 
40
(
714.656479595
814.030136262
814.042876803
810.731720691
828.97906339
873.501573496
916.331089659
932.662453521
932.835602023
932.89625642
932.835654501
917.371144616
879.785515932
831.218105853
811.977970447
802.074266391
795.071897629
793.643109662
795.901736488
808.732273495
840.935107447
887.620419346
924.262846747
938.686557146
940.217660264
918.996422702
834.850606309
722.947063972
681.814288559
676.761528565
681.895129924
691.947134598
704.856777648
705.267093995
706.083351308
732.133191093
837.5030939
914.545112346
938.788405993
960.376295651
)
;
    }
    maxX
    {
        type            calculated;
        value           nonuniform List<scalar> 
38
(
999.934964417
999.935047103
999.934993201
999.935046815
999.934987357
999.539836433
998.817850361
998.733675875
999.029889439
999.634229468
999.924402377
999.92441203
999.924408263
999.924418075
999.924411221
999.92441727
999.924410101
999.924355475
999.615579764
999.704651374
999.876951404
999.840029303
995.613858546
979.0805086
971.743629445
976.366125154
988.233722283
997.975220276
999.781799961
999.812484253
999.812371066
999.812744022
999.811858471
999.664130683
999.415151388
999.163011244
997.257645702
960.377937222
)
;
    }
    water_to_heater
    {
        type            calculated;
        value           nonuniform List<scalar> 
59
(
611.633473253
611.633473988
612.487843089
612.242252003
612.487830185
612.487822448
617.609778805
617.609764787
651.657486776
651.657464402
708.642132677
733.586582773
699.781347605
699.781308684
616.308135393
616.308093688
556.851270422
556.851241033
549.189745195
548.336595856
549.137249032
549.137225576
548.222996295
548.222977098
549.137206579
549.137192624
548.276796115
549.208618126
548.36563418
548.365638099
549.275475374
549.275493768
548.541101397
548.541122957
549.275516788
548.62369545
549.339766745
549.339762841
548.962417985
548.962417743
549.410362833
549.410370657
555.977994569
587.775034651
653.966212264
653.966211187
715.025074383
715.025077806
721.160060932
721.160074195
718.810653599
714.146942488
711.936291839
711.936312171
714.14695049
714.146972853
712.582214955
712.582225436
714.490291107
)
;
    }
    procBoundary0to1
    {
        type            processor;
        value           nonuniform List<scalar> 
41
(
612.637069231
649.999214952
648.006307067
646.47970017
640.449122723
636.367110842
636.002507724
639.770469708
651.624767297
672.335847864
705.401893377
754.849657765
819.042225985
878.260237248
894.147549781
885.804691935
805.890792491
782.158657355
782.719361827
821.180850565
882.970309353
827.8794517
757.230592053
717.132574117
708.487578858
720.173873408
746.163581014
771.791976249
788.80650093
797.6992378
812.32398635
874.043755791
936.17351943
984.976858655
999.684545774
999.934999721
888.081804853
925.661013271
930.884254919
913.705033541
913.705033541
)
;
    }
}


// ************************************************************************* //
