/*--------------------------------*- C++ -*----------------------------------*\
| =========                 |                                                 |
| \\      /  F ield         | OpenFOAM: The Open Source CFD Toolbox           |
|  \\    /   O peration     | Version:  2312                                  |
|   \\  /    A nd           | Website:  www.openfoam.com                      |
|    \\/     M anipulation  |                                                 |
\*---------------------------------------------------------------------------*/
FoamFile
{
    version     2.0;
    format      ascii;
    arch        "LSB;label=32;scalar=64";
    class       volScalarField;
    location    "0.5/water";
    object      alphat.gas;
}
// * * * * * * * * * * * * * * * * * * * * * * * * * * * * * * * * * * * * * //

dimensions      [1 -1 -1 0 0 0 0];

internalField   nonuniform List<scalar> 
1503
(
1.96216454004e-07
8.13892807245e-08
3.49230455292e-08
2.40503051825e-08
9.45902033906e-08
7.02199612757e-07
2.97004673994e-06
6.69427507818e-06
1.01116816676e-05
1.2285951669e-05
1.34258219544e-05
1.39560470934e-05
1.41775579611e-05
1.42568776747e-05
1.42763354544e-05
1.42735865964e-05
1.42646038125e-05
1.42555145904e-05
1.42482725474e-05
1.4243225286e-05
9.03645036377e-07
6.45284535536e-07
3.31270164815e-07
1.74975952403e-07
7.24393672577e-08
5.5646567881e-08
1.21828493198e-07
7.12549472785e-07
3.07411820865e-06
7.00694245677e-06
1.0417086817e-05
1.24962301425e-05
1.35524683266e-05
1.40268990237e-05
1.42138985922e-05
1.42722349911e-05
1.42788273378e-05
1.42681218628e-05
1.42543372232e-05
1.4242702299e-05
1.24258925864e-06
1.07737762171e-06
7.15886483284e-07
3.95195194502e-07
2.17611904827e-07
1.03129193374e-07
7.55285927294e-08
1.81079952367e-07
9.70475478113e-07
3.46454461918e-06
7.13567033303e-06
1.03261509016e-05
1.23828698483e-05
1.34952787528e-05
1.40234044514e-05
1.42417061203e-05
1.43131486226e-05
1.43226571211e-05
1.43105596149e-05
1.42944111872e-05
1.47267496282e-06
1.33492372251e-06
9.81772400843e-07
6.1776341357e-07
4.02540934244e-07
1.9049029632e-07
1.0237449818e-07
9.95289283549e-08
3.73332485781e-07
1.72131472946e-06
4.66765582438e-06
8.12753173935e-06
1.08950250158e-05
1.26613672195e-05
1.36308385892e-05
1.40991541343e-05
1.42941849031e-05
1.43563832243e-05
1.43617980561e-05
1.43477874563e-05
1.63942665488e-06
1.52210773337e-06
1.17301489001e-06
8.03633887925e-07
4.87002754149e-07
3.24756361065e-07
1.40444441506e-07
9.24685934325e-08
1.80997173243e-07
8.8601924603e-07
3.02870256462e-06
6.26192871589e-06
9.36984128095e-06
1.16554035233e-05
1.30713831316e-05
1.38405463486e-05
1.42085888542e-05
1.43577790835e-05
1.44006772377e-05
1.43989187788e-05
1.74732571528e-06
1.65965531703e-06
1.32012079394e-06
9.48033518835e-07
6.23855596601e-07
3.57921520675e-07
2.19338049863e-07
9.49477064478e-08
1.10005185275e-07
4.64428022774e-07
1.95106996417e-06
4.77203520455e-06
7.95331578715e-06
1.05912231563e-05
1.23992497966e-05
1.34790210425e-05
1.40505925161e-05
1.43155045777e-05
1.44158808797e-05
1.44379699762e-05
1.81914861576e-06
1.76095570283e-06
1.42815896646e-06
1.05311350774e-06
7.27196786644e-07
4.58373908996e-07
2.42964724423e-07
1.27044904812e-07
7.43018424127e-08
2.36887467517e-07
1.21922555794e-06
3.58616498906e-06
6.68585177811e-06
9.53925952106e-06
1.16668713175e-05
1.30402293183e-05
1.38274621247e-05
1.4228171037e-05
1.44033330368e-05
1.44607070135e-05
1.85990610337e-06
1.81371961087e-06
1.48581148697e-06
1.11772469327e-06
8.00456870027e-07
5.38053373585e-07
3.16950717711e-07
1.6215451157e-07
6.98736598797e-08
1.0782454526e-07
6.9128594566e-07
2.60775262378e-06
5.54729807693e-06
8.52689072349e-06
1.09107882294e-05
1.25500167449e-05
1.35518714406e-05
1.40997254367e-05
1.43629036224e-05
1.44655004968e-05
1.89123146164e-06
1.83363630279e-06
1.50694599038e-06
1.1541324371e-06
8.51857108844e-07
6.00574277649e-07
3.84707841774e-07
2.00592253344e-07
9.86365138824e-08
5.38240853262e-08
3.03048189155e-07
1.73424492512e-06
4.47533084781e-06
7.54344333152e-06
1.0147602293e-05
1.20284808691e-05
1.32376499087e-05
1.39371732822e-05
1.42968363323e-05
1.445235766e-05
1.87308118721e-06
1.81466989747e-06
1.5125230203e-06
1.17897980021e-06
8.89949139885e-07
6.49834978687e-07
4.42791002043e-07
2.5854073328e-07
1.10434235326e-07
5.16312141287e-08
9.51889079086e-08
9.19953175278e-07
3.38692420842e-06
6.54653868653e-06
9.37317137925e-06
1.14863722039e-05
1.28959284063e-05
1.3747231588e-05
1.42081934547e-05
1.44218541087e-05
1.87280555954e-06
1.81824029295e-06
1.52573702442e-06
1.200337366e-06
9.19317820461e-07
6.88818505847e-07
4.92216787769e-07
3.13253308851e-07
1.53388514867e-07
5.47377240677e-08
4.11205310617e-08
3.05309404142e-07
2.21511482537e-06
5.46635080213e-06
8.55906212139e-06
1.09197104848e-05
1.25307670685e-05
1.35343073276e-05
1.40989739278e-05
1.43742037877e-05
1.86338160643e-06
1.82065188057e-06
1.53590892106e-06
1.21600253018e-06
9.41248531454e-07
7.19456231097e-07
5.33621656775e-07
3.62702111705e-07
1.97731563895e-07
7.02879138263e-08
3.53661660919e-08
7.61654680277e-08
1.059575996e-06
4.2392052718e-06
7.65442660879e-06
1.03048647355e-05
1.21340274854e-05
1.32960493754e-05
1.39685214144e-05
1.43087726053e-05
1.84934436534e-06
1.81994797086e-06
1.53997347665e-06
1.22386223634e-06
9.55503703644e-07
7.43075464093e-07
5.6786071465e-07
4.0504790796e-07
2.38023422205e-07
9.02778706482e-08
2.91251491231e-08
3.7925350316e-08
3.11795294163e-07
2.87660895728e-06
6.60366051795e-06
9.59557280997e-06
1.16808159352e-05
1.30220203569e-05
1.38132435941e-05
1.42241007676e-05
1.83495872502e-06
1.81456484303e-06
1.53642513722e-06
1.22383272034e-06
9.62860100006e-07
7.60688542172e-07
5.95725542393e-07
4.39763189173e-07
2.71081296417e-07
1.07727555601e-07
3.17593069617e-08
2.52214545496e-08
9.16068483684e-08
1.57231142161e-06
5.39331048065e-06
8.73370575897e-06
1.1131186938e-05
1.26948806976e-05
1.36268885839e-05
1.41180769901e-05
1.83155809272e-06
1.81333632521e-06
1.53320455638e-06
1.22136144584e-06
9.6760795136e-07
7.75731246146e-07
6.19564117898e-07
4.67888206875e-07
2.96328458896e-07
1.217560922e-07
3.43873203947e-08
1.9707321058e-08
4.72874119129e-08
6.48148515935e-07
4.03635851903e-06
7.65049368359e-06
1.04389014434e-05
1.22921641296e-05
1.34004708234e-05
1.39878380164e-05
1.8339064391e-06
1.817364858e-06
1.53503682914e-06
1.22361016213e-06
9.76405256894e-07
7.92824815847e-07
6.42207943513e-07
4.91461255901e-07
3.15864382625e-07
1.34398649746e-07
3.79167459679e-08
1.86191132532e-08
3.06578939668e-08
2.26171603623e-07
2.59702928695e-06
6.32248079559e-06
9.5620493892e-06
1.17875528428e-05
1.31220632259e-05
1.38293820114e-05
1.84842373877e-06
1.82965637494e-06
1.54618337913e-06
1.23770980325e-06
9.9590208584e-07
8.15717417851e-07
6.655702184e-07
5.1270103669e-07
3.33490906521e-07
1.49119173532e-07
4.43033479305e-08
1.89949967356e-08
1.99848675446e-08
7.88161212535e-08
1.36374826627e-06
4.80058702199e-06
8.46772624837e-06
1.11518758773e-05
1.27767047389e-05
1.36370229793e-05
1.87247507967e-06
1.85435157059e-06
1.57477527898e-06
1.27185572623e-06
1.03024529139e-06
8.45116792681e-07
6.8958749346e-07
5.32374810813e-07
3.52142903269e-07
1.7069073037e-07
5.50113080513e-08
2.06362748988e-08
1.67089433213e-08
3.76513001829e-08
5.91576928182e-07
3.25853407376e-06
7.15451921969e-06
1.03591807181e-05
1.23478215429e-05
1.34032183174e-05
1.91457013068e-06
1.90424687358e-06
1.64060681013e-06
1.33682179719e-06
1.07907894626e-06
8.77243650306e-07
7.10999059935e-07
5.49217040675e-07
3.75895209461e-07
2.0106560641e-07
7.04985907851e-08
2.34354370978e-08
1.67606863126e-08
2.76563079765e-08
1.9655474394e-07
1.90571796432e-06
5.67640020947e-06
9.39844854263e-06
1.1821068126e-05
1.31192838727e-05
2.03109815625e-06
2.04753418808e-06
1.77422229387e-06
1.42860058561e-06
1.12982125632e-06
9.03341425697e-07
7.25042287998e-07
5.64642492064e-07
4.04375587404e-07
2.3796961457e-07
9.13623479723e-08
2.73075810969e-08
1.72734912379e-08
1.91719456328e-08
5.90385932324e-08
9.18146582018e-07
4.17060899536e-06
8.28257658677e-06
1.11869676132e-05
1.27762930705e-05
2.21196285854e-06
2.24202220645e-06
1.91429479992e-06
1.50137666947e-06
1.16294161682e-06
9.18245926349e-07
7.34380559589e-07
5.80230078046e-07
4.34818634636e-07
2.78420052718e-07
1.17314228163e-07
3.21378611155e-08
1.77201195908e-08
1.91435029751e-08
3.78113331759e-08
2.93480039381e-07
2.78576610533e-06
7.06022555177e-06
1.04467475649e-05
1.23672353888e-05
2.34678725571e-06
2.34508168444e-06
1.96505547289e-06
1.52650958551e-06
1.17755279554e-06
9.26743978183e-07
7.41605968952e-07
5.95603302098e-07
4.65032474678e-07
3.19345401131e-07
1.46557271793e-07
3.80324491658e-08
1.79103937143e-08
1.88152950926e-08
2.6002041783e-08
8.9333371312e-08
1.52149597566e-06
5.78309271963e-06
9.60402159696e-06
1.18857106903e-05
2.31283315449e-06
2.31430647867e-06
1.95977448271e-06
1.53425931229e-06
1.18579184944e-06
9.31301874696e-07
7.46380700828e-07
6.081166383e-07
4.91072692423e-07
3.56433765056e-07
1.7624927209e-07
4.47240327996e-08
1.8073776334e-08
1.81180143236e-08
2.3978889671e-08
5.81432019333e-08
5.40044272038e-07
4.45643446179e-06
8.65952557751e-06
1.13246171964e-05
2.32034223237e-06
2.31540958272e-06
1.96210626545e-06
1.54211753276e-06
1.1930084282e-06
9.35660046359e-07
7.50381375029e-07
6.17778817561e-07
5.12309494593e-07
3.87305063469e-07
2.01845136588e-07
5.1630229276e-08
1.84231965696e-08
1.74401937722e-08
2.18273436518e-08
3.51666466022e-08
1.8112752934e-07
3.07095432369e-06
7.62225761564e-06
1.06782329254e-05
2.3272237159e-06
2.32209877866e-06
1.9690838739e-06
1.54929058706e-06
1.19809061057e-06
9.39198564637e-07
7.54362228837e-07
6.26915857338e-07
5.31540190344e-07
4.12720005239e-07
2.22284696128e-07
5.81441222869e-08
1.89827059384e-08
1.70638265748e-08
2.01098409263e-08
2.82110004249e-08
9.9059774113e-08
1.79166625857e-06
6.49320663885e-06
9.93784901516e-06
2.33413634284e-06
2.33121725789e-06
1.9776183945e-06
1.55418495038e-06
1.20015320767e-06
9.41095508875e-07
7.58702733578e-07
6.37763240527e-07
5.50303309824e-07
4.32979997028e-07
2.38227682809e-07
6.45405748543e-08
1.98504281059e-08
1.70482742424e-08
1.9112763659e-08
2.37721028985e-08
6.63973253361e-08
9.01836562591e-07
5.27803596332e-06
9.0920463266e-06
2.32942792163e-06
2.3398658771e-06
1.98701747489e-06
1.55736294978e-06
1.20052264601e-06
9.42469826779e-07
7.64647029091e-07
6.51252748674e-07
5.68125702661e-07
4.48296976546e-07
2.49758135956e-07
7.04459543824e-08
2.09994577671e-08
1.72851767813e-08
1.87487800985e-08
2.14087072662e-08
4.39812252341e-08
4.20640521199e-07
4.04246977799e-06
8.14076709416e-06
2.32996533707e-06
2.35017394759e-06
1.99452110414e-06
1.55915276144e-06
1.2007593633e-06
9.44819678154e-07
7.72792846709e-07
6.66222994573e-07
5.83442346787e-07
4.58190000219e-07
2.55691027043e-07
7.45424915939e-08
2.20321022473e-08
1.75994340695e-08
1.88540725658e-08
2.04780840311e-08
2.83853056193e-08
1.90390093529e-07
2.85819873533e-06
7.09060583086e-06
2.32952910001e-06
2.35319638017e-06
1.99497751155e-06
1.55693381003e-06
1.19920286605e-06
9.47234380639e-07
7.82126302285e-07
6.80575762918e-07
5.9480325557e-07
4.61464203869e-07
2.54665858493e-07
7.57005157424e-08
2.25468998662e-08
1.78362214317e-08
1.91378703472e-08
2.03012873315e-08
2.3495617894e-08
9.05803763258e-08
1.79395703546e-06
5.95368635721e-06
2.33913895598e-06
2.35656906795e-06
1.99239127949e-06
1.55093403307e-06
1.19495526072e-06
9.48677033094e-07
7.91297557452e-07
6.9260238847e-07
6.01117832266e-07
4.56652505214e-07
2.46254578422e-07
7.38567949839e-08
2.24338617367e-08
1.79433465551e-08
1.93458083983e-08
2.03952222526e-08
2.20795995395e-08
5.3697705999e-08
9.72722933557e-07
4.7834237169e-06
2.33694401762e-06
2.3509639934e-06
1.98160987593e-06
1.53904462666e-06
1.18769627555e-06
9.49377648869e-07
7.99709688055e-07
7.01572990265e-07
6.01225244964e-07
4.42874845164e-07
2.31899132297e-07
7.02761406557e-08
2.20515801519e-08
1.79775633455e-08
1.94080569134e-08
2.04894071819e-08
2.14381903392e-08
3.98193657862e-08
4.64996840855e-07
3.65274517265e-06
2.3239019366e-06
2.32883465431e-06
1.95529683841e-06
1.51925348593e-06
1.17896523114e-06
9.51250055436e-07
8.07760617644e-07
7.06980466426e-07
5.93062254125e-07
4.20503686899e-07
2.14627521531e-07
6.67637789068e-08
2.20547188089e-08
1.80649488352e-08
1.93739290918e-08
2.0419213772e-08
2.10064508486e-08
2.73527237986e-08
2.07306789512e-07
2.59583053685e-06
2.28440666879e-06
2.27974061119e-06
1.91370604655e-06
1.49893612505e-06
1.17612127138e-06
9.57676378665e-07
8.16002776736e-07
7.06598866219e-07
5.73691753937e-07
3.91621102967e-07
1.97738554777e-07
6.5053270001e-08
2.30655580849e-08
1.82380627352e-08
1.92939474153e-08
2.0259956562e-08
2.06397112349e-08
2.24565600249e-08
9.53030827921e-08
1.67862024997e-06
2.2066810675e-06
2.20417032642e-06
1.89351285499e-06
1.5122041834e-06
1.19387596705e-06
9.71284823957e-07
8.21649515933e-07
6.94426143084e-07
5.42776950796e-07
3.61780636798e-07
1.85642086658e-07
6.74226906514e-08
2.50712605081e-08
1.85361243752e-08
1.92199437594e-08
2.01104180721e-08
2.03732143459e-08
2.12515709167e-08
5.26540048072e-08
9.98962672141e-07
2.24210657582e-06
2.29694322169e-06
2.0204843562e-06
1.60478619941e-06
1.2351225196e-06
9.8215996246e-07
8.12759187112e-07
6.67288742986e-07
5.10842748104e-07
3.42797425697e-07
1.84551896724e-07
7.4098642606e-08
2.821129627e-08
1.90543823834e-08
1.91891026667e-08
2.00271444732e-08
2.02190309582e-08
2.06737808366e-08
3.82121458313e-08
5.44481885054e-07
2.5847766449e-06
2.68500569477e-06
2.29228167999e-06
1.71972874842e-06
1.25662417253e-06
9.73289808034e-07
7.91717420545e-07
6.41204717686e-07
4.94115302347e-07
3.43871238948e-07
1.98483028631e-07
8.71806126684e-08
3.32487346493e-08
1.9973502044e-08
1.92359551919e-08
1.99684882767e-08
2.00106808901e-08
2.03621574444e-08
2.75623988426e-08
2.41177278279e-07
3.09656653056e-06
3.1326110628e-06
2.52224019111e-06
1.7930909961e-06
1.27904154278e-06
9.79283816293e-07
7.87049257277e-07
6.37985671463e-07
5.05050581282e-07
3.71652076992e-07
2.32934728107e-07
1.11599855409e-07
4.19983009994e-08
2.1640043122e-08
1.93997575928e-08
1.98483381563e-08
1.96762358777e-08
2.00927691287e-08
2.28171305795e-08
8.67836955491e-08
3.27396001361e-06
3.23618210298e-06
2.61843007144e-06
1.90362178308e-06
1.37696875659e-06
1.0431474988e-06
8.23772380164e-07
6.67101391367e-07
5.42331361737e-07
4.23196919218e-07
2.90221487361e-07
1.53751536088e-07
5.78666283978e-08
2.47165573542e-08
1.97993764414e-08
1.97387351881e-08
1.93636234353e-08
1.96386507146e-08
2.18851713086e-08
4.98381276004e-08
1.42402757407e-05
1.42390868922e-05
1.42392265478e-05
1.42403868315e-05
1.42422880135e-05
1.42444135127e-05
1.42454734611e-05
1.42422129733e-05
1.42267547309e-05
1.41808141723e-05
1.40635796349e-05
1.37877857958e-05
1.31775184672e-05
1.19131281535e-05
9.54002030675e-06
5.86148739689e-06
2.09937243762e-06
3.48473765429e-07
1.09143439451e-07
4.96371190933e-07
1.4234925443e-05
1.42310218576e-05
1.42301210182e-05
1.42311818133e-05
1.42327408247e-05
1.42318802244e-05
1.42221057707e-05
1.41891065188e-05
1.41026918774e-05
1.39026353965e-05
1.3476956182e-05
1.26372450193e-05
1.11164747892e-05
8.66509716581e-06
5.38400043701e-06
2.23283018303e-06
5.34324545598e-07
1.40328846012e-07
2.56494852563e-07
9.86138682294e-07
1.42813792552e-05
1.42734915459e-05
1.42698189611e-05
1.42680759073e-05
1.4264209352e-05
1.42501279257e-05
1.42092943189e-05
1.41090729009e-05
1.38888914766e-05
1.34451760114e-05
1.26199527661e-05
1.12131244029e-05
9.05876121679e-06
6.21525493255e-06
3.23541804464e-06
1.1084543457e-06
2.74864965816e-07
1.73158607936e-07
5.16492491335e-07
1.44034842118e-06
1.43314368212e-05
1.43191627083e-05
1.43107515708e-05
1.43021863366e-05
1.42852175738e-05
1.4243786608e-05
1.41476349925e-05
1.39430013878e-05
1.35419469753e-05
1.28160315255e-05
1.16074182383e-05
9.77900958118e-06
7.32579892613e-06
4.53781075517e-06
2.08326181268e-06
6.52896521304e-07
2.11560595421e-07
2.84832809957e-07
8.53897767935e-07
1.81165342797e-06
1.43833164116e-05
1.43671763688e-05
1.43519976021e-05
1.43316551654e-05
1.42922874462e-05
1.42079129132e-05
1.40333276327e-05
1.36960029786e-05
1.30912785228e-05
1.20894036705e-05
1.05671657177e-05
8.47633182569e-06
5.94754109137e-06
3.38621754774e-06
1.41567322924e-06
4.41015559502e-07
2.23570541597e-07
4.70435048726e-07
1.19631553966e-06
2.08081175572e-06
1.4428447029e-05
1.44095428719e-05
1.43855003621e-05
1.4347874724e-05
1.42762861886e-05
1.4134184167e-05
1.3862750223e-05
1.3376557708e-05
1.2566945075e-05
1.13214186525e-05
9.56706899506e-06
7.33934249249e-06
4.86034323403e-06
2.57363118219e-06
1.00535995827e-06
3.42361634615e-07
2.89696834706e-07
7.09426993464e-07
1.48792371289e-06
2.26330076448e-06
1.44629851627e-05
1.44425730239e-05
1.44073767309e-05
1.43466452414e-05
1.42332593483e-05
1.40207879903e-05
1.36399769213e-05
1.29996374946e-05
1.19980314796e-05
1.05506928864e-05
8.63704614066e-06
6.35968812942e-06
3.99514256186e-06
1.98386137533e-06
7.4540306193e-07
3.09383948496e-07
4.06142475176e-07
9.64725824228e-07
1.71196014258e-06
2.38338653943e-06
1.4484906146e-05
1.44640540196e-05
1.4415166226e-05
1.432545953e-05
1.41615502678e-05
1.38688728927e-05
1.33718310647e-05
1.25801947893e-05
1.1406800491e-05
9.79943833006e-06
7.78490911745e-06
5.51560716675e-06
3.2971679603e-06
1.54707652536e-06
5.81762561315e-07
3.23758568714e-07
5.65259990767e-07
1.2027966383e-06
1.87637564259e-06
2.46020998473e-06
1.44932919573e-05
1.44726284724e-05
1.44072976889e-05
1.4282981794e-05
1.40610839081e-05
1.36813025118e-05
1.30659117244e-05
1.21310746473e-05
1.08086485469e-05
9.07866752461e-06
7.00793145507e-06
4.78435066609e-06
2.72699925787e-06
1.22091476588e-06
4.85076800468e-07
3.78482376934e-07
7.51233676066e-07
1.40606896063e-06
1.99507156467e-06
2.5070571323e-06
1.4487517843e-05
1.44671517795e-05
1.43825263149e-05
1.42184578936e-05
1.39325844996e-05
1.34615308563e-05
1.27292553232e-05
1.16622301588e-05
1.02132898765e-05
8.39244955669e-06
6.29914761958e-06
4.14634210523e-06
2.25731517043e-06
9.78868562107e-07
4.38587398244e-07
4.69465662207e-07
9.44809103405e-07
1.57164189796e-06
2.08002193385e-06
2.53300663908e-06
1.44668196236e-05
1.44464544543e-05
1.43397514635e-05
1.4131474793e-05
1.37771676295e-05
1.3213011221e-05
1.2367812879e-05
1.11808848539e-05
9.62632212622e-06
7.74096372649e-06
5.65060778111e-06
3.58615542907e-06
1.86949667761e-06
8.03476769898e-07
4.32580696701e-07
5.90899532998e-07
1.12994911041e-06
1.7041174086e-06
2.14020470531e-06
2.54431655244e-06
1.4430202319e-05
1.44093926746e-05
1.42780794881e-05
1.40219456235e-05
1.35961979161e-05
1.29389889064e-05
1.19864328714e-05
1.0692109928e-05
9.05067157594e-06
7.12253974505e-06
5.05500787197e-06
3.0923810144e-06
1.55091452252e-06
6.8252435701e-07
4.61337765488e-07
7.33941514448e-07
1.2973478878e-06
1.80988841912e-06
2.18223987444e-06
2.54536116671e-06
1.43766404593e-05
1.43551120593e-05
1.41970613931e-05
1.38902642408e-05
1.33913563042e-05
1.2642573639e-05
1.15891425615e-05
1.01995392205e-05
8.4877831258e-06
6.53499208682e-06
4.50648882127e-06
2.65713719686e-06
1.29285492327e-06
6.0705576538e-07
5.20869521479e-07
8.88081269245e-07
1.4440194655e-06
1.89465508778e-06
2.21100869697e-06
2.53926180768e-06
1.43053497536e-05
1.42833500858e-05
1.40969568055e-05
1.3737498563e-05
1.31647822229e-05
1.23269191344e-05
1.11795043341e-05
9.70600630945e-06
7.9384833397e-06
5.97642951683e-06
4.00094927181e-06
2.27540448362e-06
1.08889532805e-06
5.70354449838e-07
6.0710534176e-07
1.04354678069e-06
1.57090189323e-06
1.96294280908e-06
2.23009157001e-06
2.52829394439e-06
1.4215830435e-05
1.41945362492e-05
1.39788240084e-05
1.35654433852e-05
1.29191081155e-05
1.19953059291e-05
1.07608320724e-05
9.21393271021e-06
7.40346463536e-06
5.44562809208e-06
3.53599888301e-06
1.94419179715e-06
9.33692035644e-07
5.6732711439e-07
7.14881268652e-07
1.19314480798e-06
1.68052432508e-06
2.01827226458e-06
2.24209215442e-06
2.51413638536e-06
1.41075500833e-05
1.4089546738e-05
1.38443003601e-05
1.33763968594e-05
1.26572414382e-05
1.16509751716e-05
1.03361304414e-05
8.72538629145e-06
6.88339822071e-06
4.94204644598e-06
3.11062331868e-06
1.66158228896e-06
8.22257350904e-07
5.93951592988e-07
8.37957650164e-07
1.33282479568e-06
1.77562679856e-06
2.06338200492e-06
2.2488738265e-06
2.49800900995e-06
1.39793374193e-05
1.39691520773e-05
1.36950862946e-05
1.31726569198e-05
1.23818828084e-05
1.12967075405e-05
9.90777604726e-06
8.2418724464e-06
6.37878334962e-06
4.46560598093e-06
2.72465761706e-06
1.42581502592e-06
7.49747935966e-07
6.46680681318e-07
9.69813758354e-07
1.46117451759e-06
1.85864518144e-06
2.10039452245e-06
2.25172862367e-06
2.48073627496e-06
1.38287817229e-05
1.38333611289e-05
1.35322989825e-05
1.29558940408e-05
1.20949397226e-05
1.09343153126e-05
9.47711956887e-06
7.76404587693e-06
5.88971807101e-06
4.01639851777e-06
2.37821414264e-06
1.23463592897e-06
7.11622300329e-07
7.21915161028e-07
1.10465701785e-06
1.57846374438e-06
1.93164199254e-06
2.13095048809e-06
2.25150857828e-06
2.46277395405e-06
1.36519915146e-05
1.3680949427e-05
1.33559668015e-05
1.272667039e-05
1.17971027178e-05
1.05643036e-05
9.04424687359e-06
7.29155857988e-06
5.41578270481e-06
3.59448872663e-06
2.07124232121e-06
1.0851031528e-06
7.03899944182e-07
8.15725816041e-07
1.23814034018e-06
1.68575959629e-06
1.9963588093e-06
2.15632620014e-06
2.24874580692e-06
2.44423782328e-06
1.34437975536e-05
1.35094039548e-05
1.31649116024e-05
1.24843349363e-05
1.14877854232e-05
1.01858727118e-05
8.60804735117e-06
6.82317965532e-06
4.95616886075e-06
3.19994053294e-06
1.80335841191e-06
9.73838895054e-07
7.23272345936e-07
9.23894157162e-07
1.36756547986e-06
1.78434248279e-06
2.0542571209e-06
2.17753071758e-06
2.24377282562e-06
2.4249661822e-06
1.31986755585e-05
1.33154058872e-05
1.29570738411e-05
1.22273037116e-05
1.11654129854e-05
9.79724367599e-06
8.1665893927e-06
6.35721757779e-06
4.5101080767e-06
2.83310835472e-06
1.57394958637e-06
8.97499903669e-07
7.66959141432e-07
1.04218866471e-06
1.49163925922e-06
1.87541321682e-06
2.10653484135e-06
2.19537840019e-06
2.23683803481e-06
2.40462969751e-06
1.29111298512e-05
1.30953437866e-05
1.27299456244e-05
1.19534638189e-05
1.08278617185e-05
9.39617467884e-06
7.71773044767e-06
5.89221220516e-06
4.07756046171e-06
2.49508545986e-06
1.38238862226e-06
8.53158205003e-07
8.32370093434e-07
1.16671625472e-06
1.61000620884e-06
1.95998756652e-06
2.15414170822e-06
2.21053846726e-06
2.22820033096e-06
2.38287555417e-06
1.25755695822e-05
1.28454284004e-05
1.24807571716e-05
1.16604663286e-05
1.04729035255e-05
8.98057175349e-06
7.2598775e-06
5.42778326628e-06
3.65996861463e-06
2.18802671423e-06
1.22811996019e-06
8.38392134385e-07
9.16742498218e-07
1.2942045072e-06
1.72278764376e-06
2.03888460857e-06
2.1978097023e-06
2.22356667277e-06
2.2181859207e-06
2.35946993464e-06
1.21862363148e-05
1.25615504902e-05
1.220652058e-05
1.13459860057e-05
1.00986732464e-05
8.5491290804e-06
6.79274059649e-06
4.96537850937e-06
3.26072125802e-06
1.91501245087e-06
1.11049102993e-06
8.51089509095e-07
1.01693861619e-06
1.42213847357e-06
1.8302665806e-06
2.11275627627e-06
2.23809819044e-06
2.2349242351e-06
2.20720008487e-06
2.33439749123e-06
1.17361451999e-05
1.22392090501e-05
1.19042882474e-05
1.10081234415e-05
9.70414474659e-06
8.10183479809e-06
6.31781321843e-06
4.50859179862e-06
2.88499303649e-06
1.67934100341e-06
1.02843944637e-06
8.89117234665e-07
1.12950298706e-06
1.5487509399e-06
1.93274381015e-06
2.18213276088e-06
2.2754427259e-06
2.24498798085e-06
2.19570160277e-06
2.30789405107e-06
1.12175220703e-05
1.18741602876e-05
1.15717765941e-05
1.06458767008e-05
9.28942772905e-06
7.64011526798e-06
5.83836467823e-06
4.06287680688e-06
2.53890901566e-06
1.48352801393e-06
9.80283821812e-07
9.50043105487e-07
1.25093910632e-06
1.67291404295e-06
2.03051181315e-06
2.24746714323e-06
2.31019496991e-06
2.25405502748e-06
2.18415902489e-06
2.28041878336e-06
1.06250693767e-05
1.14637316137e-05
1.12080703596e-05
1.02594150147e-05
8.85571151211e-06
7.16655941151e-06
5.35898970638e-06
3.63478780802e-06
2.22834286806e-06
1.32852593113e-06
9.63762094452e-07
1.03102884366e-06
1.37805724882e-06
1.79399021917e-06
2.12387228875e-06
2.30916617011e-06
2.34264693969e-06
2.26234512102e-06
2.17300957874e-06
2.25259630236e-06
9.95528259312e-06
1.10070519095e-05
1.08137774995e-05
9.84995091293e-06
8.40491258942e-06
6.68444593112e-06
4.88502148756e-06
3.23109927987e-06
1.95783981058e-06
1.21353979945e-06
9.7624372049e-07
1.12890816681e-06
1.5082333175e-06
1.91168207513e-06
2.21314524024e-06
2.36760170526e-06
2.37304118985e-06
2.2700032858e-06
2.16263279764e-06
2.22516450685e-06
9.20501683729e-06
1.05043866638e-05
1.03906462518e-05
9.41940052436e-06
7.93935816936e-06
6.19746108685e-06
4.42217372507e-06
2.85814331971e-06
1.73004211596e-06
1.13641982112e-06
1.01493409307e-06
1.24037747411e-06
1.63949250698e-06
2.02589912499e-06
2.29865453344e-06
2.42310859004e-06
2.40157527385e-06
2.27710444301e-06
2.15333707605e-06
2.19894887768e-06
8.37758042932e-06
9.95715493658e-06
9.94110059242e-06
8.9701327229e-06
7.46177039354e-06
5.7098148739e-06
3.97652924993e-06
2.52144702889e-06
1.54566428484e-06
1.09428605335e-06
1.07695050922e-06
1.36220220206e-06
1.7704321676e-06
2.13665153423e-06
2.38070333284e-06
2.47598236077e-06
2.42841022354e-06
2.28366011568e-06
2.1453459165e-06
2.17485751599e-06
7.47821887025e-06
9.36569698716e-06
9.46725831419e-06
8.50473759752e-06
6.97550196139e-06
5.22663616248e-06
3.5546658013e-06
2.22549617399e-06
1.40379858908e-06
1.08402107163e-06
1.15928131443e-06
1.49137872764e-06
1.90006678568e-06
2.24398262563e-06
2.45956165918e-06
2.52648871411e-06
2.45368821251e-06
2.28962612956e-06
2.13876808267e-06
2.15386771715e-06
6.49873474383e-06
8.72476288972e-06
8.96964458363e-06
8.02589357027e-06
6.48490646005e-06
4.75434698581e-06
3.16354520714e-06
1.9734122626e-06
1.30230134775e-06
1.10247880855e-06
1.2587336627e-06
1.62524739643e-06
2.0276892026e-06
2.34794954052e-06
2.53547900995e-06
2.57488684535e-06
2.47755710476e-06
2.29491064535e-06
2.13354408235e-06
2.13696603747e-06
5.44215889649e-06
8.02622353029e-06
8.44745855563e-06
7.53662739568e-06
5.99561730282e-06
4.3005783486e-06
2.80983466681e-06
1.76651403883e-06
1.23814439601e-06
1.14648619841e-06
1.37198476209e-06
1.76158270449e-06
2.15280514718e-06
2.44864831862e-06
2.60871712198e-06
2.62145702956e-06
2.50019353068e-06
2.2993842e-06
2.12937733713e-06
2.125013031e-06
4.35497449295e-06
7.26585381622e-06
7.89994514561e-06
7.04059875293e-06
5.51433659123e-06
3.87334329598e-06
2.49875181308e-06
1.60403302478e-06
1.20775886547e-06
1.21281841801e-06
1.49578229783e-06
1.89867679292e-06
2.27514108773e-06
2.54626159722e-06
2.67958383631e-06
2.66651696166e-06
2.52181510368e-06
2.30289693778e-06
2.12567656e-06
2.11852606167e-06
3.28724866266e-06
6.43942810779e-06
7.32645915823e-06
6.54194154899e-06
5.04806226136e-06
3.47970101733e-06
2.23300538987e-06
1.48329939467e-06
1.20741548522e-06
1.29828587068e-06
1.62724444764e-06
2.03540631449e-06
2.3946843213e-06
2.64109828109e-06
2.74844746751e-06
2.71041479988e-06
2.54267575061e-06
2.30530902957e-06
2.12154884578e-06
2.11740285602e-06
2.2927826015e-06
5.54584303571e-06
6.72750876917e-06
6.04527819105e-06
4.60309194723e-06
3.12441901761e-06
2.01237825051e-06
1.40042014701e-06
1.23362197587e-06
1.39995079129e-06
1.76414604382e-06
2.17125057108e-06
2.51169985182e-06
2.73359589486e-06
2.81571757804e-06
2.75349453125e-06
2.56304142428e-06
2.30653275022e-06
2.11588003643e-06
2.12064744822e-06
1.45848681983e-06
4.60911631188e-06
6.10800425412e-06
5.5557852826e-06
4.18398238169e-06
2.80920602083e-06
1.83421756532e-06
1.35122514521e-06
1.28346138946e-06
1.51536023303e-06
1.9050542763e-06
2.30621177834e-06
2.62667391162e-06
2.82426599023e-06
2.88178964666e-06
2.79603876111e-06
2.58314301588e-06
2.30655397659e-06
2.10745687146e-06
2.12609877444e-06
7.76288182963e-07
3.67497748547e-06
5.47735719522e-06
)
;

boundaryField
{
    emptyPatch
    {
        type            empty;
    }
    minY
    {
        type            zeroGradient;
    }
    maxY
    {
        type            calculated;
        value           nonuniform List<scalar> 0();
    }
    water_to_cooler
    {
        type            compressible::alphatWallBoilingWallFunction;
        phaseType       vapor;
        relax           constant 1;
        partitioningModel
        {
            type            Lavieville;
            alphaCrit       0.2;
        }
        otherPhase      liquid;
        dmdt            uniform 0;
        dDep            uniform 1e-05;
        qQuenching      uniform 0;
        alphatConv      uniform 0;
        value           uniform 3.01273722487e-05;
    }
    water_to_heater
    {
        type            compressible::alphatWallBoilingWallFunction;
        phaseType       vapor;
        relax           constant 1;
        partitioningModel
        {
            type            Lavieville;
            alphaCrit       0.2;
        }
        otherPhase      liquid;
        dmdt            uniform 0;
        dDep            uniform 1e-05;
        qQuenching      uniform 0;
        alphatConv      uniform 0;
        value           nonuniform List<scalar> 
61
(
5.48179496265e-11
1.04322269197e-07
1.04322269197e-07
1.0432142965e-07
1.0432142965e-07
1.04322269197e-07
1.04322269197e-07
8.01831583203e-08
4.65412878603e-08
2.95530733651e-08
2.95530733651e-08
2.88533690924e-08
2.88533690924e-08
3.25038504855e-08
3.25038504855e-08
5.09967422449e-08
5.75013191623e-08
5.52426886553e-08
5.52426886553e-08
5.91871014299e-08
5.91871014299e-08
5.52426886553e-08
5.52426886553e-08
5.859203305e-08
5.48680387238e-08
5.67969348315e-08
5.67969348315e-08
5.45876938993e-08
5.45876938993e-08
5.04637432552e-08
5.04637432552e-08
3.41519113491e-08
3.16839796723e-08
5.5114470408e-08
5.5114470408e-08
1.53167629584e-07
1.53167629584e-07
1.83546670721e-07
1.83546670721e-07
1.75332764386e-07
1.90973145588e-07
1.76556546121e-07
1.76556546121e-07
1.91391908946e-07
1.91391908946e-07
1.76556546121e-07
1.76556546121e-07
1.90792717639e-07
1.75332764386e-07
1.8520341667e-07
1.8520341667e-07
1.7442529619e-07