/*--------------------------------*- C++ -*----------------------------------*\
| =========                 |                                                 |
| \\      /  F ield         | OpenFOAM: The Open Source CFD Toolbox           |
|  \\    /   O peration     | Version:  2312                                  |
|   \\  /    A nd           | Website:  www.openfoam.com                      |
|    \\/     M anipulation  |                                                 |
\*---------------------------------------------------------------------------*/
FoamFile
{
    version     2.0;
    format      ascii;
    arch        "LSB;label=32;scalar=64";
    class       surfaceScalarField;
    location    "0.03/water";
    object      phi;
}
// * * * * * * * * * * * * * * * * * * * * * * * * * * * * * * * * * * * * * //

dimensions      [0 3 -1 0 0 0 0];

oriented        oriented;

internalField   nonuniform List<scalar> 
2914
(
1.81353829091e-07
2.26736340219e-07
1.65759394699e-07
3.5113288221e-07
1.61272316188e-07
4.0549124175e-07
1.59864081091e-07
4.58135430645e-07
1.56764933411e-07
5.06437561737e-07
1.52245599212e-07
5.28836302159e-07
1.47355399749e-07
5.32331373078e-07
1.43190040629e-07
5.36597167946e-07
1.39473514354e-07
5.49581364255e-07
1.35782668713e-07
5.65043715702e-07
1.31735152995e-07
5.7872313428e-07
1.27179542033e-07
5.95401830954e-07
1.22238504448e-07
6.19653449029e-07
1.17044964848e-07
6.4851497371e-07
1.11631055805e-07
6.79310838405e-07
1.05997750897e-07
7.11501794341e-07
1.00142613699e-07
7.45032367033e-07
9.40601367602e-08
7.80058004627e-07
8.77432689034e-08
8.16849503309e-07
8.55630844902e-07
8.11804044973e-08
1.76361159899e-07
2.07247705943e-07
1.61006741852e-07
3.50918213196e-07
1.56832105013e-07
4.06519179498e-07
1.5554240108e-07
4.58921558732e-07
1.52815497226e-07
5.09263624301e-07
1.48738687003e-07
5.33231080117e-07
1.44462920285e-07
5.36968194525e-07
1.40779433107e-07
5.40596145219e-07
1.37454444456e-07
5.5315816385e-07
1.34119834219e-07
5.68562129972e-07
1.30335980258e-07
5.82617234504e-07
1.25904587129e-07
5.99886761164e-07
1.21009703203e-07
6.24581919986e-07
1.15857344385e-07
6.53698388754e-07
1.10492064779e-07
6.84706882334e-07
1.04914640833e-07
7.17109139525e-07
9.91205228028e-08
7.50854323618e-07
9.31036793143e-08
7.86099635061e-07
8.68558747449e-08
8.23118637336e-07
8.62140314036e-07
8.03642037637e-08
1.72360621648e-07
1.86648269356e-07
1.5627261105e-07
3.50691762953e-07
1.52266572825e-07
4.07291398566e-07
1.50763051022e-07
4.59912567611e-07
1.48015627966e-07
5.12116550412e-07
1.44299226226e-07
5.37269178719e-07
1.40654338515e-07
5.40974934929e-07
1.37528226388e-07
5.4403612613e-07
1.34634176849e-07
5.56298922803e-07
1.31588109243e-07
5.71785110251e-07
1.28016526627e-07
5.86293246934e-07
1.23745524052e-07
6.04208502735e-07
1.18986383399e-07
6.29373789122e-07
1.13966604489e-07
6.58748801732e-07
1.08732817728e-07
6.89971121597e-07
1.03285165644e-07
7.22586473381e-07
9.76175695213e-08
7.56549579072e-07
9.1723626587e-08
7.92018229625e-07
8.55960446496e-08
8.2926744706e-07
8.68531236455e-07
7.92228539246e-08
1.68295291344e-07
1.65746845924e-07
1.5012623483e-07
3.52303717878e-07
1.46441848474e-07
4.07823989612e-07
1.45163699288e-07
4.60669561486e-07
1.42719033354e-07
5.14662169062e-07
1.39528066481e-07
5.40781751625e-07
1.36458154561e-07
5.44405307597e-07
1.33856457331e-07
5.4694718052e-07
1.31238282181e-07
5.59156463353e-07
1.28283500269e-07
5.74908963834e-07
1.24792983231e-07
5.8988222263e-07
1.20705599069e-07
6.08343848948e-07
1.16183304437e-07
6.33927875217e-07
1.11398001251e-07
6.6356420078e-07
1.06385495777e-07
6.95013646225e-07
1.01145222087e-07
7.27856070801e-07
9.56712279549e-08
7.62050948923e-07
8.99577380124e-08
7.97756151433e-07
8.39992902e-08
8.35246952023e-07
8.74761840649e-07
7.77862921738e-08
1.57511507586e-07
1.53173693017e-07
1.40130890947e-07
3.55466431391e-07
1.37640549743e-07
4.0812630682e-07
1.37742108335e-07
4.60254022365e-07
1.36738908833e-07
5.15799342116e-07
1.34692455524e-07
5.43153547524e-07
1.32324183732e-07
5.47131503166e-07
1.30051289614e-07
5.49523662113e-07
1.27534178e-07
5.61905923859e-07
1.24564955096e-07
5.78041056953e-07
1.21107781977e-07
5.93433597323e-07
1.17217954081e-07
6.1227951056e-07
1.12967767979e-07
6.38208933462e-07
1.08450645175e-07
6.68110783964e-07
1.03689142927e-07
6.99804617573e-07
9.86833855427e-08
7.32890673501e-07
9.34293364895e-08
7.67331977233e-07
8.79224141114e-08
8.0328719063e-07
8.21583706965e-08
8.41031806498e-07
8.80807601127e-07
7.61300294385e-08
1.53571103562e-07
1.42873546526e-07
1.36981829955e-07
3.58535268337e-07
1.34029098415e-07
4.09227148328e-07
1.34480633902e-07
4.59612102938e-07
1.34078997994e-07
5.16361614907e-07
1.32355452574e-07
5.45204145577e-07
1.29985346345e-07
5.49856481656e-07
1.27499848908e-07
5.52308565939e-07
1.24704458292e-07
5.64929127723e-07
1.2148456082e-07
5.81419988245e-07
1.17891107167e-07
5.97118678196e-07
1.14024711814e-07
6.16190210308e-07
1.0990943493e-07
6.42354224104e-07
1.05559686933e-07
6.72489305979e-07
1.00976402078e-07
7.04416745769e-07
9.61540125502e-08
7.37741343168e-07
9.10862485277e-08
7.72426230797e-07
8.57665009876e-08
8.08630649465e-07
8.01882723683e-08
8.46630524168e-07
8.86669640434e-07
7.43434046752e-08
1.53599940997e-07
1.31141113085e-07
1.36756910856e-07
3.61382366039e-07
1.33163383154e-07
4.10720398156e-07
1.33314263071e-07
4.59249106547e-07
1.3280923035e-07
5.17031959297e-07
1.30976550229e-07
5.47362031648e-07
1.28400284016e-07
5.5278431548e-07
1.25617525748e-07
5.55386987846e-07
1.22508228433e-07
5.6826263225e-07
1.18991314838e-07
5.85092943232e-07
1.15191859223e-07
6.01007860012e-07
1.11231147968e-07
6.20194178913e-07
1.0713018458e-07
6.46484414712e-07
1.02846745733e-07
6.76800810754e-07
9.8361607679e-08
7.08930058618e-07
9.36612740229e-08
7.42469338076e-07
8.87343679858e-08
7.77379072557e-07
8.35700864534e-08
8.13818165832e-07
7.81578435636e-08
8.52062866238e-07
8.92358433445e-07
7.2485918436e-08
1.53798025487e-07
1.19074945175e-07
1.36067357744e-07
3.64564728361e-07
1.32125426381e-07
4.12158746913e-07
1.31619963858e-07
4.5945105634e-07
1.30491609055e-07
5.18316409662e-07
1.28495911993e-07
5.49679264541e-07
1.25999514205e-07
5.55628566118e-07
1.2316683053e-07
5.58511536809e-07
1.1989828004e-07
5.71751536101e-07
1.1619915534e-07
5.88945157272e-07
1.12280689274e-07
6.0501433481e-07
1.08298735758e-07
6.24218532727e-07
1.04244210538e-07
6.5056741161e-07
1.00044713925e-07
6.81027640739e-07
9.56681654129e-08
7.1333407253e-07
9.10962006425e-08
7.47068296607e-07
8.63136788453e-08
7.82186924843e-07
8.13069069282e-08
8.18847642978e-07
7.60630386875e-08
8.57326390173e-07
8.97870060128e-07
7.05679261067e-08
1.51900483189e-07
1.09104892371e-07
1.32171987146e-07
3.69794484416e-07
1.28028001886e-07
4.13586008851e-07
1.27168600518e-07
4.59938655799e-07
1.25760817227e-07
5.19870828497e-07
1.23978196325e-07
5.5178004183e-07
1.21949043583e-07
5.58000647184e-07
1.19409177899e-07
5.61337984349e-07
1.16216279539e-07
5.75160393046e-07
1.12520104436e-07
5.92791403996e-07
1.0863660619e-07
6.08984294584e-07
1.04782011909e-07
6.28114722324e-07
1.00898831709e-07
6.54478314476e-07
9.68839777128e-08
6.85069061999e-07
9.26977006236e-08
7.17547057307e-07
8.8319716825e-08
7.51472552075e-07
8.37332878776e-08
7.86798027795e-07
7.89239081282e-08
8.23679154331e-07
7.38789207957e-08
8.62390548782e-07
9.03180865976e-07
6.85842351393e-08
1.427577416e-07
1.1062675985e-07
1.23208984989e-07
3.76751318552e-07
1.1938791474e-07
4.15230672114e-07
1.19053386186e-07
4.60044744323e-07
1.18497974581e-07
5.20602074664e-07
1.17697086377e-07
5.52900089752e-07
1.16450083637e-07
5.59584179004e-07
1.14411135487e-07
5.6365642405e-07
1.11540479251e-07
5.78241780809e-07
1.08054283291e-07
5.96424723746e-07
1.04366261609e-07
6.12757650589e-07
1.00757806097e-07
6.31764153724e-07
9.71450262485e-08
6.58118081317e-07
9.33998524983e-08
6.88840021238e-07
8.94755167334e-08
7.21497311524e-07
8.53521842753e-08
7.55621392763e-07
8.10131110884e-08
7.91161077199e-07
7.64438067755e-08
8.28269981312e-07
7.16322324831e-08
8.67220778966e-07
9.08263743384e-07
6.65650516901e-08
1.4150996704e-07
1.17939286483e-07
1.21287720643e-07
3.84080076765e-07
1.15385912926e-07
4.18692466747e-07
1.1433649849e-07
4.60911215572e-07
1.13824373764e-07
5.21315051253e-07
1.13220679226e-07
5.5382460024e-07
1.12029090696e-07
5.61106228293e-07
1.10025391597e-07
5.65932920907e-07
1.07223490871e-07
5.81249647554e-07
1.03812937765e-07
5.99980106043e-07
1.00234105587e-07
6.16421246245e-07
9.67969722469e-08
6.35241928943e-07
9.3408535531e-08
6.61532897244e-07
8.9909781514e-08
6.92363822194e-07
8.62412193703e-08
7.25191024463e-07
8.2377223293e-08
7.59510138271e-07
7.82967593814e-08
7.95264811799e-07
7.39819709508e-08
8.32605668944e-07
6.94184563634e-08
8.71802416522e-07
9.13105908569e-07
6.45915456218e-08
1.42682415562e-07
1.29491156488e-07
1.20499459678e-07
3.92168723574e-07
1.12333309098e-07
4.23562496117e-07
1.10436186045e-07
4.62491171577e-07
1.09933177357e-07
5.22010682438e-07
1.09326291548e-07
5.54746765793e-07
1.0805919327e-07
5.62697055791e-07
1.05994420731e-07
5.68264751171e-07
1.03201573092e-07
5.84244850581e-07
9.98538357862e-08
6.03471328737e-07
9.63680000602e-08
6.19991910666e-07
9.30678373603e-08
6.38582731376e-07
8.98729696431e-08
6.64753644059e-07
8.65970337433e-08
6.95664155932e-07
8.31701063788e-08
7.28642405638e-07
7.95581824408e-08
7.63146104083e-07
7.57334111952e-08
7.99112178462e-07
7.1672514842e-08
8.36686852947e-07
6.73569798168e-08
8.76135541007e-07
9.17708431666e-07
6.27692602505e-08
1.38306681809e-07
1.50658198777e-07
1.13267517842e-07
4.02229330905e-07
1.05354228172e-07
4.27304516016e-07
1.03522098265e-07
4.63760810777e-07
1.0327399933e-07
5.22414476588e-07
1.03152196094e-07
5.55176185477e-07
1.02482961488e-07
5.63685605374e-07
1.00833501322e-07
5.70178086335e-07
9.84021499282e-08
5.86877015787e-07
9.53996250114e-08
6.06617346031e-07
9.22252397776e-08
6.23251998064e-07
8.92221613299e-08
6.41626831602e-07
8.63380209685e-08
6.67663314961e-07
8.33768023467e-08
6.98649221483e-07
8.02598444321e-08
7.31783196651e-07
7.69478375583e-08
7.6648150238e-07
7.34090745055e-08
8.02672899586e-07
6.96181717662e-08
8.40497451721e-07
6.55556179202e-08
8.8021515536e-07
9.22075218024e-07
6.12031778911e-08
1.17718109751e-07
2.04878996569e-07
9.1206434517e-08
4.139961164e-07
8.70749234599e-08
4.26800152654e-07
8.76827340632e-08
4.6239856962e-07
8.94125442824e-08
5.20802521319e-07
9.16303156135e-08
5.53259785136e-07
9.31036572229e-08
5.62529163295e-07
9.30458956292e-08
5.70498834883e-07
9.18205932944e-08
5.88303458838e-07
8.97984152095e-08
6.08784424073e-07
8.74087576012e-08
6.2572910569e-07
8.50417943644e-08
6.44035590721e-07
8.27154258338e-08
6.70014997765e-07
8.02510723699e-08
7.01136925695e-07
7.75730093647e-08
7.34484500636e-07
7.46463403292e-08
7.69430924732e-07
7.14441989525e-08
8.05896363042e-07
6.79469982947e-08
8.44013748709e-07
6.4140783388e-08
8.84037885752e-07
9.26217859455e-07
6.00120121814e-08
6.47966724229e-08
3.22386485471e-07
4.75255382674e-08
4.19871683485e-07
5.11301705287e-08
4.19560951795e-07
5.86210476207e-08
4.54364350511e-07
6.70379028764e-08
5.12528173457e-07
7.48809811197e-08
5.4571865272e-07
8.03692647535e-08
5.57353904854e-07
8.3128007227e-08
5.68000228556e-07
8.40540398494e-08
5.87578269887e-07
8.37366440141e-08
6.09248173801e-07
8.26434414384e-08
6.26911715582e-07
8.1223298696e-08
6.45498435647e-07
7.96262954144e-08
6.71637099037e-07
7.77497893547e-08
7.03036235832e-07
7.55516424216e-08
7.36705232533e-07
7.30174979681e-08
7.719871156e-07
7.0136310295e-08
8.08798169491e-07
6.69016591811e-08
8.47266833107e-07
6.33101895874e-08
8.87645269588e-07
9.30184436185e-07
5.93569595342e-08
6.70893616828e-08
4.28386586474e-07
4.43940201108e-08
4.30023815033e-07
4.41501587443e-08
4.16433896856e-07
5.14758775552e-08
4.46685430832e-07
6.11731419843e-08
5.03015184018e-07
6.98416247723e-08
5.37354785646e-07
7.58161584755e-08
5.51687792433e-07
7.91611409721e-08
5.649117315e-07
8.08175326631e-08
5.86121364416e-07
8.12626683922e-08
6.08949739068e-07
8.08187966619e-08
6.27445985237e-07
7.98586880896e-08
6.46501634646e-07
7.85926076894e-08
6.72927814389e-07
7.69868086693e-08
7.04664112705e-07
7.50142422796e-08
7.38699557005e-07
7.26649659827e-08
7.74357570523e-07
6.99322387209e-08
8.11550666635e-07
6.68143416468e-08
8.50402374342e-07
6.33114528122e-08
8.91163366046e-07
9.34085498001e-07
5.94231289603e-08
1.13645187018e-07
4.79195250562e-07
7.7230482413e-08
4.50512752028e-07
6.60543463499e-08
4.2345000885e-07
6.74135450396e-08
4.44947173808e-07
7.3137398459e-08
4.97482475489e-07
7.82167696677e-08
5.32564355377e-07
8.15096727398e-08
5.48686551389e-07
8.3245325303e-08
5.63421063876e-07
8.40063640884e-08
5.85553021164e-07
8.39643216925e-08
6.09134647095e-07
8.31929952671e-08
6.28305836729e-07
8.19406143965e-08
6.47796148401e-07
8.04115288831e-08
6.74480573103e-07
7.8597579212e-08
7.06499067998e-07
7.64606494674e-08
7.40857119111e-07
7.39775108377e-08
7.76860757333e-07
7.11312513269e-08
8.14415622049e-07
6.79118997984e-08
8.53638392359e-07
6.43159376218e-08
8.94773686133e-07
9.38074175177e-07
6.03392817164e-08
1.40220702249e-07
5.00120341526e-07
1.01828571014e-07
4.70979076739e-07
8.51532901169e-08
4.34904091197e-07
8.2920770182e-08
4.466038712e-07
8.61959618047e-08
4.94387688884e-07
8.88382929179e-08
5.30191996683e-07
9.01073534831e-08
5.47688505458e-07
9.045664637e-08
5.63300955106e-07
9.03073466406e-08
5.85883354975e-07
8.95977612637e-08
6.09978741856e-07
8.82444211017e-08
6.29742812244e-07
8.64524862035e-08
6.49627904742e-07
8.44370647174e-08
6.76518098465e-07
8.21877646288e-08
7.08767840898e-07
7.9661950992e-08
7.43402036915e-07
7.68306353412e-08
7.79710639462e-07
7.36712817812e-08
8.17592302447e-07
7.01688855369e-08
8.57156253967e-07
6.63162918423e-08
8.98639602847e-07
9.42296519774e-07
6.21051016375e-08
1.48170995622e-07
5.1335831952e-07
1.14043329666e-07
4.86769330956e-07
9.78614862762e-08
4.45056687273e-07
9.4805558323e-08
4.48778076108e-07
9.70333787965e-08
4.9228581729e-07
9.86185341337e-08
5.28847178795e-07
9.88615224808e-08
5.47689246264e-07
9.84472361484e-08
5.63922251821e-07
9.77176225686e-08
5.86776411361e-07
9.64944498184e-08
6.11323288542e-07
9.462737273e-08
6.31685599606e-07
9.2325499218e-08
6.51965931669e-07
8.98272616106e-08
6.79036179785e-07
8.71089423178e-08
7.11503562722e-07
8.41275454773e-08
7.46400536179e-07
8.08574513755e-08
7.82997405705e-07
7.72792923722e-08
8.21186076639e-07
7.33823288808e-08
8.61067198261e-07
6.9159288347e-08
9.02874717058e-07
9.46864184986e-07
6.46017559141e-08
1.49660610669e-07
5.27159161385e-07
1.20863689484e-07
4.98170646176e-07
1.07041480016e-07
4.52782707479e-07
1.04697735222e-07
4.50080451626e-07
1.06925916346e-07
4.90122344604e-07
1.08443361209e-07
5.2752472544e-07
1.08245893258e-07
5.4808898088e-07
1.07316956952e-07
5.65024578231e-07
1.0612472817e-07
5.88105940208e-07
1.04448018681e-07
6.13102226986e-07
1.02089719967e-07
6.34108149645e-07
9.92765257867e-08
6.548100931e-07
9.62751257696e-08
6.82054441451e-07
9.30487054725e-08
7.14744755386e-07
8.95540838852e-08
7.49909774064e-07
8.57741368114e-08
7.86791716886e-07
8.16978783701e-08
8.25275901465e-07
7.73213673939e-08
8.65455942894e-07
7.26421873642e-08
9.07564527999e-07
9.51860703787e-07
6.76546441691e-08
1.59657785155e-07
5.32697007732e-07
1.38379077738e-07
5.0224262311e-07
1.24670708584e-07
4.60042672768e-07
1.20907513858e-07
4.52570788655e-07
1.21956590193e-07
4.89050924786e-07
1.22509972973e-07
5.27102814578e-07
1.21088901383e-07
5.49655154664e-07
1.18970720479e-07
5.67270598769e-07
1.16804697647e-07
5.90374674163e-07
1.14280222016e-07
6.15704115227e-07
1.11118657496e-07
6.37319264728e-07
1.07548841641e-07
6.58404317348e-07
1.03847607775e-07
6.85768964127e-07
9.99475570665e-08
7.18656516213e-07
9.57971210861e-08
7.54071975762e-07
9.13845280973e-08
7.91216058266e-07
8.67047760025e-08
8.29966919532e-07
8.17578865529e-08
8.70413128329e-07
7.654444781e-08
9.12787016678e-07
9.57352963679e-07
7.10599097432e-08
1.82931356356e-07
5.16606216141e-07
1.68891344544e-07
4.98601393094e-07
1.55309518169e-07
4.6649712216e-07
1.48075107578e-07
4.58119118633e-07
1.4573778193e-07
4.91225080545e-07
1.43247238081e-07
5.296453617e-07
1.3897406227e-07
5.54006813278e-07
1.34444752429e-07
5.71875527471e-07
1.30378889585e-07
5.9450425217e-07
1.26292901262e-07
6.19839883699e-07
1.21787954883e-07
6.41857422718e-07
1.17058139883e-07
6.63151261314e-07
1.12346762643e-07
6.90489826456e-07
1.07531210499e-07
7.23480590263e-07
1.02538873612e-07
7.59073125329e-07
9.73535509838e-08
7.96410424148e-07
9.19670085752e-08
8.35362348123e-07
8.63754566524e-08
8.76012974031e-07
8.05751748754e-08
9.1859471805e-07
9.63377314291e-07
7.45572545042e-08
2.25541314205e-07
4.57654300687e-07
2.13704278309e-07
4.90600817846e-07
1.97498423692e-07
4.74176805233e-07
1.84988848251e-07
4.68232903805e-07
1.76645502747e-07
4.99168609588e-07
1.68628601381e-07
5.37622194555e-07
1.5996873989e-07
5.62682434499e-07
1.52041313745e-07
5.79830818925e-07
1.45292376764e-07
6.01281472322e-07
1.39022179072e-07
6.26134709029e-07
1.32755543917e-07
6.48142147724e-07
1.26604140046e-07
6.69312907971e-07
1.2070873385e-07
6.96391210052e-07
1.14868959452e-07
7.29325975501e-07
1.08975668397e-07
7.64972507305e-07
1.02994468065e-07
8.02398142845e-07
9.69031225867e-08
8.41460330277e-07
9.06851121794e-08
8.82237364932e-07
8.43258396056e-08
9.24959839088e-07
9.69901100543e-07
7.78072285883e-08
2.44826000337e-07
3.78513691618e-07
2.32763045586e-07
4.79890002154e-07
2.18264040698e-07
4.78545959539e-07
2.05843054588e-07
4.77521586907e-07
1.952106665e-07
5.09146589404e-07
1.84458265628e-07
5.48254225781e-07
1.73689827118e-07
5.73424740084e-07
1.64110093457e-07
5.89407516571e-07
1.55797691005e-07
6.09598502057e-07
1.48106045435e-07
6.3383351008e-07
1.40679529109e-07
6.55575639278e-07
1.33598182819e-07
6.76399111537e-07
1.26909908982e-07
7.03082700299e-07
1.20375641052e-07
7.35863536983e-07
1.13866179383e-07
7.71485826965e-07
1.07335152827e-07
8.08933555299e-07
1.00750775631e-07
8.48049392924e-07
9.40887892868e-08
8.8890403561e-07
8.73264917854e-08
9.31726567387e-07
9.7679184198e-07
8.04397754893e-08
2.10344360393e-07
3.3441713317e-07
2.03635931105e-07
4.66332742521e-07
1.98015228087e-07
4.75361142954e-07
1.92927782219e-07
4.79896084619e-07
1.87008077884e-07
5.14472182914e-07
1.79855081613e-07
5.55278266433e-07
1.71851716217e-07
5.81385993994e-07
1.64086048287e-07
5.97154875796e-07
1.56774164053e-07
6.16902077572e-07
1.496777081e-07
6.40926828938e-07
1.42667586545e-07
6.62585644754e-07
1.3585993067e-07
6.83207891712e-07
1.29296673997e-07
7.09647209465e-07
1.22790960473e-07
7.42370859734e-07
1.16245732829e-07
7.78033222466e-07
1.09634377245e-07
8.15547620643e-07
1.02938070678e-07
8.54748800112e-07
9.61422918307e-08
8.95703079856e-07
8.92309775459e-08
9.38641098631e-07
9.83841098873e-07
8.21847420038e-08
1.9231294102e-07
3.06469600731e-07
1.82096949786e-07
4.58483317379e-07
1.78026327701e-07
4.72081002904e-07
1.76084558552e-07
4.79714564785e-07
1.73315515542e-07
5.16783187917e-07
1.69320895411e-07
5.5915570628e-07
1.64148859751e-07
5.86507870162e-07
1.58397706536e-07
6.02878246029e-07
1.52482820986e-07
6.22800387023e-07
1.46488137634e-07
6.46911666275e-07
1.40436828567e-07
6.68632053221e-07
1.34427471322e-07
6.89215734071e-07
1.28483980204e-07
7.15590549853e-07
1.2246081554e-07
7.48394422205e-07
1.1629308316e-07
7.84201870749e-07
1.09969354295e-07
8.2187277913e-07
1.03483507182e-07
8.6123650205e-07
9.6831005011e-08
9.02357704477e-07
9.00068723473e-08
9.45467448275e-07
9.90848738482e-07
8.30014095641e-08
1.76593533073e-07
2.92039086731e-07
1.66616608211e-07
4.53805814247e-07
1.63194955216e-07
4.69412017639e-07
1.62531805974e-07
4.78664668232e-07
1.61664405574e-07
5.17285240989e-07
1.59716510542e-07
5.60993581729e-07
1.56320663418e-07
5.89847685869e-07
1.51878959691e-07
6.07285502619e-07
1.46989197688e-07
6.27667749925e-07
1.41894777638e-07
6.51991494242e-07
1.3669201225e-07
6.73826493478e-07
1.31451339894e-07
6.94452964118e-07
1.26139037418e-07
7.20901678409e-07
1.20657637621e-07
7.53875339423e-07
1.14962491361e-07
7.89897007845e-07
1.09044338053e-07
8.27791396155e-07
1.02899216652e-07
8.67382516994e-07
9.65244808024e-08
9.08733662173e-07
8.99185539631e-08
9.52074789334e-07
9.97691702285e-07
8.30770775154e-08
1.63890297482e-07
2.58249583891e-07
1.55678727328e-07
4.45751935672e-07
1.53282072971e-07
4.65596422829e-07
1.53589826208e-07
4.76702768248e-07
1.53870417631e-07
5.16657701168e-07
1.52910277603e-07
5.61841026934e-07
1.50187729787e-07
5.92509166388e-07
1.46327443104e-07
6.11106589687e-07
1.42053265077e-07
6.31915485291e-07
1.37573472139e-07
6.56453416953e-07
1.32975601052e-07
6.78413668004e-07
1.28302228616e-07
6.99121554641e-07
1.23477485857e-07
7.25724524441e-07
1.18436962908e-07
7.58914753766e-07
1.13147527159e-07
7.95185766573e-07
1.07598405418e-07
8.33340271389e-07
1.01783359178e-07
8.73197735685e-07
9.56972897043e-08
9.14820263662e-07
8.93368259396e-08
9.58436040305e-07
1.00433123432e-06
8.26982323537e-08
1.51551995266e-07
1.74595536372e-07
1.46750889675e-07
4.31540888478e-07
1.46478252402e-07
4.59350631815e-07
1.48024023012e-07
4.73462175688e-07
1.4907510399e-07
5.15241693199e-07
1.48483644896e-07
5.62310432881e-07
1.45875113609e-07
5.95051564431e-07
1.42231283701e-07
6.1470768551e-07
1.38278116636e-07
6.35839483067e-07
1.34157918142e-07
6.60553603552e-07
1.29923550709e-07
6.82635816124e-07
1.2559524134e-07
7.03444222671e-07
1.2110373657e-07
7.3021366415e-07
1.16378101481e-07
7.6363886574e-07
1.11390420769e-07
8.00172318182e-07
1.06126297639e-07
8.38603655587e-07
1.00576144712e-07
8.78747548539e-07
9.47309864044e-08
9.20665451302e-07
8.85843018079e-08
9.64583043908e-07
1.01078450741e-06
8.21315475985e-08
1.37811088586e-07
9.02159989326e-08
1.38391877765e-07
4.12343304609e-07
1.40912067646e-07
4.51351491409e-07
1.43679608049e-07
4.69362358038e-07
1.45389686353e-07
5.13228112847e-07
1.45154731022e-07
5.62426515385e-07
1.42710477124e-07
5.97427665007e-07
1.39170922296e-07
6.18202783448e-07
1.35418946408e-07
6.39561004393e-07
1.31561055296e-07
6.64390544854e-07
1.27582953489e-07
6.86601040018e-07
1.23490840339e-07
7.07530307876e-07
1.19230446545e-07
7.34471468197e-07
1.14732224224e-07
7.68135344756e-07
1.09961879062e-07
8.04941276089e-07
1.04902983009e-07
8.43661514023e-07
9.95447131713e-08
8.84105151098e-07
9.38761458035e-08
9.2633371215e-07
8.78889020502e-08
9.70570281278e-07
1.01709525277e-06
8.15783733402e-08
1.32043259452e-07
3.51193566763e-09
1.40058916831e-07
3.88220550433e-07
1.42627807992e-07
4.44669082697e-07
1.44454584924e-07
4.6671080322e-07
1.455228807e-07
5.11971949301e-07
1.44730457846e-07
5.63122986612e-07
1.4184496278e-07
6.00253431912e-07
1.37949346637e-07
6.220585128e-07
1.34078712647e-07
6.43403722092e-07
1.30222604381e-07
6.68227066342e-07
1.26273156265e-07
6.90538226277e-07
1.22239176887e-07
7.11558437529e-07
1.18075669252e-07
7.38632409758e-07
1.13699114942e-07
7.72510127333e-07
1.09051737064e-07
8.09587190693e-07
1.04110647104e-07
8.48601443984e-07
9.88625535537e-08
8.89352416038e-07
9.32953254139e-08
9.31900446491e-07
8.74006129208e-08
9.76464788987e-07
1.02332133168e-06
8.11745537156e-08
1.36907988277e-07
-7.34590370341e-08
1.41849615475e-07
3.55608410025e-07
1.42800450443e-07
4.38282839602e-07
1.4378277302e-07
4.65105956961e-07
1.44953834437e-07
5.1070936013e-07
1.44377686823e-07
5.63621207523e-07
1.41667065729e-07
6.02910140918e-07
1.37794038604e-07
6.25895299169e-07
1.33955530907e-07
6.47216802504e-07
1.30099051651e-07
6.72065624853e-07
1.26073787154e-07
6.94552190782e-07
1.21964450023e-07
7.15662339946e-07
1.17790047157e-07
7.42804415235e-07
1.13429771221e-07
7.76868737301e-07
1.08800926749e-07
8.14214636943e-07
1.0387662823e-07
8.53524604389e-07
9.86427423984e-08
8.94585451631e-07
9.30880645995e-08
9.37454570104e-07
8.72075100129e-08
9.82345050391e-07
1.02953057389e-06
8.09981822086e-08
1.37240615976e-07
-1.27496544089e-07
1.44897864049e-07
3.12878051594e-07
1.44840608956e-07
4.30633511377e-07
1.45004659598e-07
4.6401874118e-07
1.45875732389e-07
5.09763771494e-07
1.45426662319e-07
5.63998430461e-07
1.42969728694e-07
6.05314414117e-07
1.39173941601e-07
6.2965610118e-07
1.35330670437e-07
6.51036180616e-07
1.31386497774e-07
6.75993341083e-07
1.2714656118e-07
6.98781883162e-07
1.22793862638e-07
7.20010147338e-07
1.18466226542e-07
7.47129934137e-07
1.13992618747e-07
7.81340900147e-07
1.09258759814e-07
8.18947287058e-07
1.04234924729e-07
8.58547451109e-07
9.89084419421e-08
8.9991118566e-07
9.32724892039e-08
9.43090019764e-07
8.7325830889e-08
9.88291423328e-07
1.03579147095e-06
8.10648231481e-08
1.4436671443e-07
-1.70216326207e-07
1.50325330781e-07
2.65983153285e-07
1.50537750736e-07
4.21051129362e-07
1.50363779855e-07
4.62949758477e-07
1.50337809769e-07
5.09708111762e-07
1.49293526466e-07
5.64981911725e-07
1.46635642541e-07
6.0792719444e-07
1.42728095614e-07
6.33534601051e-07
1.3860189438e-07
6.55143171947e-07
1.34281681047e-07
6.80300578047e-07
1.2956624321e-07
7.03489284587e-07
1.24735368133e-07
7.24837188135e-07
1.20047619802e-07
7.5181607099e-07
1.15290822302e-07
7.860966367e-07
1.10307252837e-07
8.23929984839e-07
1.05063033607e-07
8.63790966951e-07
9.95452711419e-08
9.05428421343e-07
9.37496974898e-08
9.48885244907e-07
8.7673452259e-08
9.94367476538e-07
1.04215549559e-06
8.1309360216e-08
1.23024223954e-07
-1.77521086267e-07
1.50617269503e-07
1.86867806217e-07
1.56966777386e-07
4.0440918204e-07
1.57851490183e-07
4.60919287098e-07
1.57276508654e-07
5.10272729666e-07
1.55326009168e-07
5.66897595539e-07
1.5207532187e-07
6.11146648336e-07
1.47900699503e-07
6.37691176474e-07
1.43382127276e-07
6.59651111997e-07
1.38371065047e-07
6.85304853914e-07
1.32875866305e-07
7.0898032483e-07
1.27326609837e-07
7.30384458698e-07
1.22082757051e-07
7.57059128349e-07
1.16898554504e-07
7.91280349113e-07
1.11560701629e-07
8.29267455441e-07
1.06025015552e-07
8.69326363953e-07
1.00271688199e-07
9.11181552476e-07
9.42883439345e-08
9.548684835e-07
8.80647823879e-08
1.00059100854e-06
1.04863380316e-06
8.15865043544e-08
1.5854382602e-07
-1.99155851131e-07
2.00278745007e-07
8.36453813215e-08
1.97680984666e-07
3.93885232772e-07
1.89412001784e-07
4.68437836649e-07
1.80703470154e-07
5.1918883566e-07
1.7165579898e-07
5.75971184066e-07
1.63156794034e-07
6.19640626544e-07
1.5583112479e-07
6.45017209694e-07
1.49392860284e-07
6.66092178991e-07
1.42938673436e-07
6.91761591469e-07
1.36208035714e-07
7.15712635248e-07
1.29632183619e-07
7.36961117932e-07
1.23668056404e-07
7.63023605305e-07
1.18015755811e-07
7.96932881982e-07
1.12353586518e-07
8.34929841654e-07
1.06589939216e-07
8.75090222888e-07
1.00674785608e-07
9.17096908837e-07
9.45748428386e-08
9.60968616257e-07
8.8264633911e-08
1.00690139082e-06
1.05517765271e-06
8.17209414348e-08
4.3349087154e-07
3.02171116841e-07
2.54631540221e-07
2.26560012113e-07
2.03702591397e-07
1.83642438748e-07
1.67822185703e-07
1.56567544663e-07
1.48284629516e-07
1.41235600113e-07
1.34632899968e-07
1.28380988585e-07
1.22648062874e-07
1.17195084733e-07
1.11728251937e-07
1.06132510792e-07
1.00351219107e-07
9.43509660231e-08
8.81080962841e-08
8.16025695003e-08
5.23671314115e-08
6.96862047091e-07
4.73879423407e-08
6.63916231693e-07
4.265019972e-08
6.32338662523e-07
3.81456927899e-08
6.02146051712e-07
3.3868579382e-08
5.73488883982e-07
2.98054015362e-08
5.46413453991e-07
2.59401825846e-08
5.2069716213e-07
2.22618454791e-08
4.96199161625e-07
1.87604335047e-08
4.72859740116e-07
1.54266848086e-08
4.50623156324e-07
1.22523614614e-08
4.29416182192e-07
9.24217786645e-09
4.08650580555e-07
6.52122572299e-09
3.80674348086e-07
4.12606598011e-09
3.31833320212e-07
1.94820900593e-09
2.79169622118e-07
2.30726003991e-07
7.46771611968e-08
8.54217253859e-07
6.85321988252e-08
8.12812922568e-07
6.27240544654e-08
7.73751327723e-07
5.72268717199e-08
7.36935912668e-07
5.20160753115e-08
7.02077580426e-07
4.706617524e-08
6.68870421717e-07
4.23570974541e-08
6.37051193049e-07
3.78799228642e-08
6.06625142385e-07
3.36287507692e-08
5.77740485599e-07
2.95907444567e-08
5.50451475329e-07
2.57498222245e-08
5.24538077195e-07
2.20948496344e-08
4.99854130137e-07
1.86158763019e-08
4.76338706257e-07
1.53036419942e-08
4.5393538595e-07
1.21499599174e-08
4.3256985701e-07
9.15990040085e-09
4.11640634415e-07
6.46064762013e-09
3.8337359462e-07
4.08933223323e-09
3.34204629163e-07
1.93094600616e-09
2.8132800105e-07
2.32656949884e-07
7.39288102564e-08
8.60665961899e-07
6.7846620171e-08
8.18903837417e-07
6.20964479533e-08
7.79507437853e-07
5.66536444829e-08
7.42383811942e-07
5.14942087612e-08
7.0724174172e-07
4.65931180058e-08
6.73775800834e-07
4.19301589862e-08
6.4171763154e-07
3.74960603454e-08
6.11061208599e-07
3.32851457184e-08
5.81951861163e-07
2.92853752927e-08
5.54451265153e-07
2.54807533009e-08
5.28342695751e-07
2.18602356908e-08
5.03474645646e-07
1.84139758793e-08
4.79784962522e-07
1.51328052877e-08
4.57216554194e-07
1.20086331224e-08
4.35694025543e-07
9.04698989593e-09
4.14602275e-07
6.37791748905e-09
3.8604266382e-07
4.03807641892e-09
3.36544467097e-07
1.90750576631e-09
2.83458568356e-07
2.34564455617e-07
7.28980288838e-08
8.67004099366e-07
6.6913395828e-08
8.24897210558e-07
6.12506919966e-08
7.85176067579e-07
5.58876254613e-08
7.477519384e-07
5.08017529529e-08
7.12332307476e-07
4.59691249774e-08
6.78612696501e-07
4.1369844703e-08
6.46320400476e-07
3.69947470489e-08
6.15438315707e-07
3.28385203163e-08
5.86108577603e-07
2.88900695277e-08
5.58399739652e-07
2.51337694595e-08
5.32098994959e-07
2.15588198554e-08
5.07049594894e-07
1.81556001307e-08
4.83188181381e-07
1.49151449346e-08
4.60457008931e-07
1.18295542952e-08
4.38779615294e-07
8.90494585885e-09
4.17526882818e-07
6.27427030734e-09
3.88673338538e-07
3.97183167045e-09
3.38846904858e-07
1.87615077353e-09
2.85554248281e-07
2.36440606385e-07
7.16093395758e-08
8.73194286371e-07
6.57545299246e-08
8.30760733137e-07
6.02060484574e-08
7.90730437306e-07
5.49455305089e-08
7.53017461129e-07
4.99531879743e-08
7.17329292881e-07
4.52067555784e-08
6.83363358829e-07
4.06873030269e-08
6.50843334981e-07
3.63858898528e-08
6.19741768767e-07