/*--------------------------------*- C++ -*----------------------------------*\
| =========                 |                                                 |
| \\      /  F ield         | OpenFOAM: The Open Source CFD Toolbox           |
|  \\    /   O peration     | Version:  2312                                  |
|   \\  /    A nd           | Website:  www.openfoam.com                      |
|    \\/     M anipulation  |                                                 |
\*---------------------------------------------------------------------------*/
FoamFile
{
    version     2.0;
    format      ascii;
    arch        "LSB;label=32;scalar=64";
    class       volScalarField;
    location    "0.495/water";
    object      T.gas;
}
// * * * * * * * * * * * * * * * * * * * * * * * * * * * * * * * * * * * * * //

dimensions      [0 0 0 1 0 0 0];

internalField   nonuniform List<scalar> 
1503
(
355.9671785
324.292062105
310.576135285
304.383965801
301.852107419
300.381595488
300.015825981
300.000084978
300.000000053
300
300
300
300
300
300
300
300
300
300
300
399.38457104
335.723524029
312.364689922
304.414492903
301.593562031
300.579493955
300.186174997
300.020671387
300.000342406
300.000000361
300
300
300
300
300
300
300
300
300
300
402.880243973
335.922671811
311.634235726
303.770920752
301.225449217
300.404835574
300.13447681
300.034556461
300.002602433
300.000022807
300.000000007
300
300
300
300
300
300
300
300
300
401.707998047
337.459083899
312.531578147
304.003007294
301.246934149
300.385353617
300.11905518
300.036059367
300.006366121
300.000227004
300.000000816
300
300
300
300
300
300
300
300
300
398.304582977
337.607744621
313.277660426
304.388630178
301.38843718
300.429392126
300.130893994
300.03915738
300.011289001
300.001102996
300.000014057
300.000000004
300
300
300
300
300
300
300
300
393.659334818
336.517104235
313.389970919
304.58532474
301.488943567
300.470260868
300.146783958
300.044925325
300.013441095
300.002839538
300.000107208
300.000000638
300
300
300
300
300
300
300
300
391.705846565
335.661620425
313.196146385
304.608565433
301.522865413
300.489103633
300.156396911
300.04949447
300.015250229
300.004668551
300.000518828
300.000006254
300.000000001
300
300
300
300
300
300
300
391.003523595
334.944658671
312.85609681
304.510632484
301.508631312
300.491550953
300.160832127
300.052654925
300.016620733
300.005172811
300.001358425
300.000050814
300.000000047
300
300
300
300
300
300
300
390.824859404
334.801698867
312.832069607
304.520162085
301.526059226
300.503654377
300.168210853
300.056861201
300.018366695
300.005634577
300.00180546
300.000250462
300.000001688
300
300
300
300
300
300
300
390.827328487
334.853040663
312.888787177
304.578991147
301.567506863
300.527936839
300.180646663
300.063047644
300.020895548
300.006298141
300.001920768
300.000623566
300.00002665
300.000000026
300
300
300
300
300
300
390.967135786
334.702745742
312.818864466
304.583909392
301.595317285
300.551911863
300.194922677
300.070422637
300.024075301
300.007182515
300.002059979
300.000667667
300.000117583
300.000000971
300
300
300
300
300
300
391.067878534
334.212212074
312.495766311
304.471486461
301.577880705
300.559884688
300.205049855
300.077034943
300.027456589
300.008263346
300.002236333
300.000663096
300.000236779
300.000010986
300.000000009
300
300
300
300
300
391.182474409
333.253375962
311.837372314
304.188956372
301.48889874
300.541221121
300.205332055
300.080491429
300.030101359
300.009364188
300.002434628
300.000656199
300.000221336
300.000033919
300.000000163
300
300
300
300
300
391.075665993
332.743584135
311.421013824
303.952081259
301.388224551
300.50894565
300.198536979
300.081025462
300.031790941
300.010326937
300.002637107
300.000648982
300.000195326
300.000056273
300.000001025
300
300
300
300
300
390.924089484
332.764371075
311.308574982
303.836609021
301.320341944
300.480760138
300.190186361
300.080277739
300.032945574
300.011214195
300.002857609
300.000645013
300.00017021
300.000060988
300.000003041
300.000000002
300
300
300
300
390.049423676
332.813002986
311.319755178
303.802676685
301.281992917
300.459037589
300.182930051
300.079734414
300.034259793
300.012279887
300.003165567
300.000655962
300.000147335
300.000043933
300.000004956
300.000000014
300
300
300
300
387.805817767
332.342083354
311.200725335
303.731352421
301.235283809
300.437309116
300.177298343
300.08060484
300.036537962
300.013908648
300.003694124
300.000712335
300.000133728
300.00003091
300.000006619
300.000000085
300
300
300
300
387.649894828
332.266983036
311.076455595
303.631057769
301.185697234
300.422152376
300.177270156
300.084818295
300.040621803
300.016458776
300.004611922
300.000871402
300.000144086
300.000026887
300.000005885
300.0000003
300
300
300
300
392.14349212
334.443200363
311.926342681
303.885090365
301.255204728
300.447007518
300.191259277
300.094381399
300.04696298
300.019988752
300.005926316
300.001169306
300.000190724
300.000032317
300.000006106
300.000000846
300
300
300
300
396.862638658
336.888026871
313.202108301
304.449838833
301.458836778
300.517426418
300.21953262
300.108658906
300.055008901
300.024184759
300.007544387
300.001567961
300.000271041
300.000045322
300.000008059
300.000001235
300
300
300
300
398.094641725
337.919761972
313.931856911
304.880477606
301.661091662
300.597279182
300.251871908
300.12419561
300.06355494
300.028544917
300.009228729
300.002004571
300.000356098
300.000061046
300.000010502
300.000001572
300
300
300
300
398.576902772
338.012905152
314.098626494
305.035680702
301.764094838
300.649332344
300.276692515
300.137611978
300.071657325
300.03269839
300.010824819
300.002459664
300.000451206
300.000078395
300.000013049
300.000001861
300
300
300
300
398.619747226
337.327554548
313.711538095
304.908670935
301.748801953
300.661268045
300.289520977
300.147535756
300.078434987
300.036372674
300.012259333
300.002849956
300.000538678
300.000094436
300.0000155
300.00000211
300
300
300
300
398.653472234
336.733296144
313.299732471
304.712857938
301.683363851
300.650254367
300.294150434
300.154402165
300.083091946
300.039213048
300.013463539
300.003179022
300.000606693
300.000106762
300.000017514
300.000002336
300
300
300
300
398.490693706
336.304916569
312.944789695
304.530279306
301.611995819
300.632353179
300.294597224
300.158093391
300.08591912
300.041200018
300.014487393
300.003477082
300.00065649
300.000115901
300.000019213
300.000002594
300
300
300
300
398.427405576
336.006446803
312.695175624
304.407865465
301.565542542
300.620743546
300.294661055
300.158897545
300.087056783
300.042297721
300.015376221
300.003745224
300.000698043
300.00012453
300.000021155
300.000002911
300
300
300
300
398.210705728
335.684534444
312.468721273
304.317772037
301.540633256
300.617083426
300.295007531
300.158573752
300.086927873
300.042698075
300.015942399
300.004018582
300.000732135
300.000135607
300.000023134
300.000003127
300
300
300
300
398.00632152
334.927834037
312.005670013
304.138464824
301.491851966
300.606915387
300.291226432
300.156548285
300.085700468
300.042305808
300.016281873
300.004172551
300.000824448
300.000142115
300.000022197
300.000002823
300
300
300
300
397.690637041
334.692092302
311.8663862
304.052603047
301.455942744
300.594034945
300.284262002
300.152455119
300.083319039
300.041590514
300.016395894
300.004477232
300.000900655
300.000146614
300.000020115
300.000002258
300
300
300
300
397.506632719
334.997677482
312.048891572
304.102526789
301.455591335
300.585443857
300.277110689
300.147636367
300.081009347
300.040982167
300.016974943
300.005055131
300.000980054
300.00014747
300.000017194
300.000001135
300
300
300
300
395.583412913
334.943337933
312.183351849
304.168465729
301.459667101
300.572581873
300.267160573
300.142946671
300.079771083
300.042190444
300.018597725
300.005734871
300.001093124
300.000149442
300.000015571
300.000000182
300
300
300
300
390.98577604
333.660766329
311.894041587
304.063630581
301.381486683
300.524468259
300.245392038
300.136120073
300.079686759
300.044218749
300.020598856
300.006642012
300.001239054
300.000155993
300.000015069
300
300
300
300
300
387.132332861
332.275246287
311.32007695
303.747819452
301.19864326
300.441559881
300.219408227
300.132419635
300.082763089
300.048473624
300.023815433
300.007952804
300.001439668
300.000167561
300.000016088
300
300
300
300
300
385.909483055
332.305355859
311.396054193
303.675588813
301.101772612
300.394729458
300.211843792
300.138433148
300.091364144
300.056168492
300.028969961
300.010171519
300.001848632
300.000203264
300.000020687
300.000000468
300
300
300
300
387.183044508
333.325639165
312.061922297
303.999896579
301.249096632
300.442315526
300.233650896
300.155886155
300.106067404
300.067647113
300.036525865
300.013738081
300.002693542
300.000312598
300.000035256
300.000002726
300
300
300
300
390.377445967
334.784211101
312.77888824
304.456612301
301.537199547
300.57529498
300.284968939
300.182881817
300.125169863
300.081762533
300.046037595
300.018670764
300.004126413
300.000548409
300.000068356
300.000007343
300
300
300
300
393.691789816
336.157696098
313.475460957
304.849218306
301.766816056
300.706188501
300.345734045
300.213554861
300.145209592
300.096405047
300.056231518
300.02439712
300.006075396
300.000934299
300.000128432
300.000015518
300.000000044
300
300
300
396.500785759
337.062056685
313.840187949
305.066737136
301.896800901
300.788074398
300.392419906
300.239904309
300.162650269
300.109301435
300.065566192
300.030039052
300.00828109
300.001437884
300.000217049
300.000028194
300.00000155
300
300
300
300
300
300
300
300
300
300
300
300
300
300
300
300
300
300
300
300
300
300
300
300
300
300
300
300
300
300
300
300
300
300
300
300
300
300
300
300
300
300
300
300
300
300
300
300
300
300
300
300
300
300
300
300
300
300
300
300
300
300
300
300
300
300
300
300
300
300
300
300
300
300
300
300
300
300
300
300
300
300
300
300
300
300
300
300
300
300
300
300
300
300
300
300
300
300
300
300
300
300
300
300
300
300
300
300
300
300
300
300
300
300
300
300
300
300
300
300
300
300
300
300
300
300
300
300
300
300
300
300
300
300
300
300
300
300
300
300
300
300
300
300
300
300
300
300
300
300
300
300
300
300
300
300
300
300
300
300
300
300
300
300
300
300
300
300
300
300
300
300
300
300
300
300
300
300
300
300
300
300
300
300
300
300
300
300
300
300
300
300
300
300
300
300
300
300
300
300
300
300
300
300
300
300
300
300
300
300
300
300
300
300
300
300
300
300
300
300
300
300
300
300
300
300
300
300
300
300
300
300
300
300
300
300
300
300
300
300
300
300
300
300
300
300
300
300
300
300
300
300
300
300
300
300
300
300
300
300
300
300
300
300
300
300
300
300
300
300
300
300
300
300
300
300
300
300
300
300
300
300
300
300
300
300
300
300
300
300
300
300
300
300
300
300
300
300
300
300
300
300
300
300
300
300
300
300
300
300
300
300
300
300
300
300
300
300
300
300
300
300
300
300
300
300
300
300
300
300
300
300
300
300
300
300
300
300
300
300
300
300
300
300
300
300
300
300
300
300
300
300
300
300
300
300
300
300
300
300
300
300
300
300
300
300
300
300
300
300
300
300
300
300
300
300
300
300
300
300
300
300
300
300
300
300
300
300
300
300
300
300
300
300
300
300
300
300
300
300
300
300
300
300
300
300
300
300
300
300
300
300
300
300
300
300
300
300
300
300
300
300
300
300
300
300
300
300
300
300
300
300
300
300
300
300
300
300
300
300
300
300
300
300
300
300
300
300
300
300
300
300
300
300
300
300
300
300
300
300
300
300
300
300
300
300
300
300
300
300
300
300
300
300
300
300
300
300
300
300
300
300
300
300
300
300
300
300
300
300
300
300
300
300
300
300
300
300
300
300
300
300
300
300
300
300
300
300
300
300
300
300
300
300
300
300
300
300
300
300
300
300
300
300
300
300
300
300
300
300
300
300
300
300
300
300
300
300
300
300
300
300
300
300
300
300
300
300
300
300
300
300
300
300
300
300
300
300
300
300
300
300
300
300
300
300
300
300
300
300
300
300
300
300
300
300
300
300
300
300
300
300
300
300
300
300
300
300
300
300
300
300
300
300
300
300
300
300
300
300
300
300
300
300
300
300
300
300
300
300
300
300
300
300
300
300
300
300
300
300
300
300
300
300
300
300
300
300
300
300
300
300
300
300
300
300
300
300
300
300
300
300
300
300
300
300
300
300
300
300
300
300
300
300
300
300
300
300
300
300
300
300
300
300
300
300
300
300
300
300
300
300
300
300
300
300
300
300
300
300
300
300
300
300
300
300
300
300
300
300
300
300
300
300
300
300
300
300
300
300
300
300
300
300
300
300
300
300
300
300
300
300
300
300
300
300
300
300
300
300
300
300
300
300
300
300
300
300
300
300
300
300
300
300
300
300
300
300
300
300
300
300
300
300
300
300
)
;

boundaryField
{
    emptyPatch
    {
        type            empty;
    }
    minY
    {
        type            fixedValue;
        value           uniform 300;
    }
    maxY
    {
        type            inletOutlet;
        inletValue      nonuniform List<scalar> 0();
        value           nonuniform List<scalar> 0();
    }
    maxX
    {
        type            fixedValue;
        value           uniform 300;
    }
    water_to_heater
    {
        type            copiedFixedValue;
        sourceFieldName T.liquid;
        value           nonuniform List<scalar> 
61
(
792.256391506
792.20785466
791.956046149
791.956716908
791.850427141
791.850208446
791.807838541
791.808632013
791.808482684
791.808381788
791.81504104
791.814992657
791.81933938
791.819065966
791.820502793
791.820753342
791.81698162
791.817358508
791.808662772
791.808341525
791.797331085
791.797663106
791.786970412
791.786882726
791.77673211
791.778006972
791.768483973
791.768135246
791.760350295
791.757535114
791.753282798
791.750808184
791.749313734
791.74907278
791.747585565
791.747907596
791.74700918
791.746694373
791.747230036
791.747535542
791.748360024
791.748648675
791.748781332
791.748528949
791.7483292
791.74849829
791.749480754
791.749415573
791.751478417
791.753462572
791.753749414
791.755713382
791.755838459
791.755959861
791.758312491
791.757290357
791.761095165
791.759716215
791.77141315
791.770748144
791.792586462
)
;
    }
    procBoundary2to3
    {
        type            processor;
        value           nonuniform List<scalar> 
41
(
398.279983414
337.902283892
314.23416891
305.22543422
301.975427537
300.834374135
300.422463202
300.259062088
300.176065469
300.119299824
300.072773649
300.034732108
300.010394889
300.001987011
300.000324463
300.000044865
300.000003746
300
300
300
300
300
300
300
300
300
300
300
300
300
300
300
300
300
300
300
300
300
300
300
300
)
;
    }
}


// ************************************************************************* //
