/*--------------------------------*- C++ -*----------------------------------*\
| =========                 |                                                 |
| \\      /  F ield         | OpenFOAM: The Open Source CFD Toolbox           |
|  \\    /   O peration     | Version:  2312                                  |
|   \\  /    A nd           | Website:  www.openfoam.com                      |
|    \\/     M anipulation  |                                                 |
\*---------------------------------------------------------------------------*/
FoamFile
{
    version     2.0;
    format      ascii;
    arch        "LSB;label=32;scalar=64";
    class       volScalarField;
    location    "0.195/water";
    object      T.gas;
}
// * * * * * * * * * * * * * * * * * * * * * * * * * * * * * * * * * * * * * //

dimensions      [0 0 0 1 0 0 0];

internalField   nonuniform List<scalar> 
1497
(
300.385907065
300.271034456
300.203488133
300.154933293
300.116232743
300.08239135
300.05355269
300.030952853
300.016048706
300.00762571
300.003905958
300.002505352
300.00191284
415.589429653
353.895118914
323.177002382
308.767596426
302.983188507
301.102410035
300.545667177
300.361020753
300.273739969
300.216461352
300.173716447
300.136450663
300.101901814
300.070486616
300.044141201
300.024710942
300.01284533
300.007034718
300.00458825
300.003529236
395.377108708
343.947692156
318.752799594
307.143510117
302.512491045
300.979649334
300.523030456
300.372311381
300.295342538
300.242889447
300.201961121
300.164290479
300.127613513
300.092361293
300.061657317
300.037445899
300.021111434
300.012147103
300.007917613
300.005960088
394.940970221
349.116985175
324.616880085
310.733649354
304.054709729
301.462364919
300.636541948
300.428340952
300.342489661
300.28643369
300.241644791
300.20019118
300.159462262
300.120282105
300.084740773
300.054978335
300.033217119
300.019946909
300.013015269
300.009467585
445.102211302
379.38801111
338.851000248
317.009177446
306.641302844
302.398599979
300.942430906
300.544513212
300.419113224
300.350167479
300.29725903
300.247048521
300.199446836
300.154541391
300.113057751
300.07693603
300.049009813
300.030562231
300.020010661
300.014240461
564.925373308
407.718800174
346.671553953
319.823650792
307.951862869
303.065557093
301.27761321
300.7037826
300.51093301
300.420209855
300.358850554
300.301076587
300.244482157
300.191895378
300.144240766
300.101847257
300.067580648
300.043550489
300.028753232
300.020090933
619.188279769
422.245382532
349.466035444
320.241870267
308.196436911
303.339819924
301.498730813
300.845268567
300.601225753
300.484857986
300.410924126
300.347748195
300.286783771
300.227979734
300.17479562
300.127036089
300.087227008
300.057845537
300.038654748
300.02664636
632.483465477
427.688239866
349.942501656
319.735966177
307.971838395
303.372609633
301.606928194
300.939151392
300.668387226
300.535249939
300.451284322
300.382452403
300.319164583
300.258481464
300.201616142
300.149953139
300.105858897
300.072098064
300.048804032
300.033449999
635.752734538
430.425755719
349.937959648
319.157623837
307.671811427
303.318238691
301.649182394
300.994592744
300.713641773
300.570227361
300.479732197
300.408098885
300.342553956
300.281085388
300.222733635
300.168662162
300.121858643
300.085032523
300.058419122
300.039836916
637.104996432
432.084804905
349.705474249
318.585960984
307.357265596
303.21920883
301.646663031
301.019133765
300.739707626
300.592089915
300.497430457
300.42385142
300.357884018
300.296498382
300.237743422
300.182732267
300.134500789
300.095602795
300.06647359
300.045112038
637.495695717
431.794784223
348.512255873
317.640550711
306.878777152
303.033358224
301.592376761
301.012362281
300.746819224
300.60151816
300.5058335
300.431530989
300.36564826
300.304818209
300.246751357
300.191755063
300.14308011
300.103111768
300.072281656
300.048764135
635.384659314
428.083060107
345.951312645
316.235446912
306.218842958
302.755942719
301.483625461
300.973865697
300.735092355
300.59880363
300.505526607
300.432241554
300.366884563
300.306862294
300.250031642
300.19590986
300.147643296
300.107414194
300.075555619
300.050455363
629.517099403
420.672826797
341.476611924
314.102092742
305.315073412
302.396086204
301.343856364
300.914737151
300.706936046
300.585184114
300.498356274
300.426930932
300.362506842
300.303565022
300.248286234
300.195643268
300.148454192
300.108583803
300.076184456
300.050232762
619.286297625
408.702371381
334.834422426
311.229260887
304.183604975
301.959629835
301.169869744
300.839855484
300.669936594
300.563400268
300.485849787
300.416454326
300.353404278
300.295921904
300.242405988
300.191545595
300.145879771
300.106793447
300.074176967
300.048385385
603.270255626
392.274684651
326.64121308
308.037717183
303.015959037
301.523822842
300.996500602
300.76549147
300.630911582
300.541669802
300.468606845
300.401750429
300.340550884
300.284853495
300.233206741
300.184249601
300.140335882
300.102097223
300.070267621
300.044978137
580.915575161
374.205045932
318.701593192
305.279578427
302.129694739
301.214676527
300.870836689
300.699702086
300.594460523
300.516785682
300.447986013
300.383970449
300.324999853
300.271265329
300.221309727
300.174268623
300.132042835
300.095026701
300.064734097
300.040468369
564.732691581
362.708474174
313.899956731
304.020737949
301.692908973
301.023396991
300.772213499
300.644562216
300.560405043
300.490528504
300.42571966
300.364521858
300.307807901
300.255810781
300.207085738
300.162009539
300.121325297
300.086615178
300.057956993
300.035410861
565.14450285
360.934460774
313.104352436
303.635853818
301.490983653
300.913892155
300.709979128
300.60535835
300.530528595
300.465246468
300.403412837
300.344502134
300.289557889
300.23856603
300.191007847
300.14764517
300.109243788
300.076922288
300.050523994
300.030218286
562.414546169
359.433511995
313.810008568
304.200214409
301.637526056
300.925713588
300.689812274
300.579830631
300.505733596
300.442016516
300.38169204
300.324066495
300.269914356
300.219471663
300.173332554
300.131947257
300.096459012
300.066747044
300.043120916
300.024750632
573.01568565
365.40851976
318.285027281
306.425957201
302.351046373
301.098446498
300.716499205
300.570172173
300.487120788
300.421136736
300.360184602
300.30238802
300.248418559
300.199022156
300.154546727
300.115937155
300.083303358
300.0567472
300.035810231
300.019354913
580.02536024
375.843028878
324.552268589
309.130265956
303.401451704
301.427751534
300.800602598
300.580941677
300.475571952
300.401798732
300.337702602
300.2790848
300.225676965
300.177641134
300.135395085
300.09970213
300.070375024
300.047211253
300.028326742
300.014255107
585.065112446
383.832077855
328.918594911
311.210171848
304.412981779
301.853129242
300.944071151
300.61423635
300.470607652
300.38319982
300.314548884
300.255078006
300.202478845
300.155950534
300.116131433
300.083690662
300.057984935
300.03752463
300.021242733
300.009421173
588.482795264
385.680738551
330.935487475
312.530441371
305.221909743
302.2794597
301.098148068
300.65516447
300.468126404
300.364803431
300.290966396
300.230852143
300.179072206
300.134151976
300.097185271
300.068138624
300.045682661
300.028137628
300.013907816
300.005170022
591.740507841
386.492154279
334.176442581
314.362644788
306.172757319
302.643481785
301.212940061
300.680069919
300.459161602
300.343569716
300.266309103
300.205992111
300.155902618
300.113129959
300.079302477
300.053089976
300.033052327
300.017916225
300.007917207
300.002687293
597.845844181
399.580519328
339.963053224
316.905844118
307.169688246
302.853372306
301.262523862
300.676658164
300.43776069
300.317875899
300.23976364
300.180710169
300.132250586
300.092439207
300.061140147
300.036655961
300.020219775
300.010379548
300.004275152
300.001211588
605.949972481
411.579799662
344.022420847
318.801178928
307.32632114
302.828131582
301.216431527
300.633119709
300.402306126
300.285779993
300.211448273
300.154613945
300.108758383
300.071335804
300.040923406
300.021522955
300.011883776
300.005804589
300.002093668
300.000520511
610.615034316
411.423252776
343.414324404
317.611981964
306.39206369
302.422506027
301.036987336
300.550167559
300.351100801
300.249660556
300.181259671
300.128899015
300.085592234
300.048842884
300.024703113
300.013109887
300.006752168
300.003043839
300.00098449
300.00021552
562.66360291
391.293657803
335.602795959
312.629701113
304.526569757
301.728410434
300.786474509
300.44087099
300.295838526
300.211801124
300.15276386
300.104173728
300.062013917
300.032861566
300.016844335
300.007813745
300.003646938
300.001550116
300.000461444
300.000082702
454.422566094
364.03985689
323.248798335
308.141558726
302.891281179
301.159197051
300.563819952
300.351031413
300.246269911
300.180865865
300.127997944
300.082350509
300.048609978
300.026464994
300.01211898
300.004816706
300.001962947
300.00080195
300.000217461
300.000027816
400.717782077
343.045709226
316.12832157
305.609768096
301.982152227
300.788691279
300.428790259
300.288710975
300.215606057
300.159988219
300.112662646
300.07343329
300.043974577
300.023192708
300.010057464
300.003471518
300.00115543
300.000436951
300.000109238
300.000008332
377.486371871
333.786737984
313.082515217
304.477967661
301.464017779
300.595435697
300.354761234
300.261347782
300.201213951
300.15099412
300.106821804
300.070472943
300.04301364
300.023277956
300.010263467
300.003338665
300.000854777
300.000273364
300.000068412
300.000005053
378.974403233
336.930425082
313.975052652
303.370452893
300.927353689
300.467457152
300.330886541
300.25783256
300.202335294
300.154038972
300.110988474
300.075110976
300.046992023
300.026202194
300.012092819
300.004028981
300.000867864
300.000220618
300.000063304
300.000009562
426.42578127
363.487139094
322.181564716
305.07877546
301.395312228
300.610363512
300.395258749
300.29695695
300.228831413
300.174644502
300.12807577
300.087301604
300.055224643
300.031415707
300.015001912
300.005269175
300.001076113
300.000235537
300.000079153
300.000019201
543.679655838
393.460829957
333.607601533
309.478458697
302.710907004
301.009203902
300.542848244
300.377892809
300.285074639
300.212760647
300.15640888
300.109459048
300.068836627
300.038856095
300.018823429
300.006866152
300.001383182
300.000298283
300.000111585
300.000034023
602.504589827
413.379623665
342.541377084
314.0432835
304.428930344
301.555368935
300.73511313
300.46969137
300.348346802
300.264758093
300.192934132
300.135953874
300.088778504
300.049497296
300.023557264
300.008721084
300.001726244
300.000406081
300.000164378
300.000057998
619.219150474
423.600409802
347.914957548
317.018531819
305.761461222
302.062661759
300.915792039
300.555798555
300.402970866
300.309821502
300.233375344
300.165157983
300.109808224
300.063833521
300.02941121
300.010868716
300.00210008
300.000573379
300.000248387
300.000099342
623.569331894
427.616443536
350.311305529
318.484380555
306.532094785
302.41517224
301.060760018
300.624764347
300.448881021
300.344768295
300.265480788
300.194310139
300.130882177
300.078782599
300.036525096
300.013343784
300.002579423
300.000828925
300.000381207
300.000168927
624.545182537
428.423097126
350.849551981
318.983754584
306.930267811
302.647885334
301.172990363
300.675724506
300.482553081
300.371392647
300.289305768
300.217436222
300.151229918
300.093155761
300.044447207
300.016074137
300.003258432
300.001214698
300.000584147
300.0002735
300.00152871
300.001236087
300.001013741
300.00077183
300.000509973
300.000299483
300.000160168
300.000056748
300.000006338
300
300.000002672
300.000001483
300.000000791
300.00000109
300.00000162
300.000001957
300.000002224
300.000002421
300.000002533
300.00000248
300.002864806
300.002251508
300.001734588
300.001240945
300.000771211
300.000423233
300.000207549
300.000059459
300.000005322
300
300.000001835
300.000001498
300.000000721
300.000000674
300.00000121
300.000001647
300.000001925
300.000002131
300.000002255
300.000002229
300.004823118
300.003740573
300.002692702
300.00177782
300.001018405
300.000516011
300.000219427
300.000047083
300.000002734
300
300.000001627
300.000001097
300.000000397
300.000000432
300.000000714
300.000001297
300.000001605
300.000001827
300.000001967
300.000001963
300.00740088
300.005650828
300.003850081
300.002324473
300.001210286
300.000561991
300.000199266
300.000031839
300.000000688
300
300.000001442
300.00000062
300.000000118
300.000000192
300.000000428
300.000000922
300.000001284
300.000001502
300.000001681
300.000001701
300.010652922
300.007833426
300.005108766
300.002833352
300.001341042
300.00057246
300.000163685
300.000021428
300
300.000000459
300.000001327
300.000000264
300
300.000000033
300.000000244
300.000000594
300.000000964
300.000001176
300.000001386
300.000001455
300.014532367
300.010220411
300.006343339
300.003277714
300.001427689
300.000554397
300.000128287
300.000014007
300
300.000001367
300.000001121
300.000000045
300
300
300.000000104
300.000000352
300.000000673
300.000000869
300.000001086
300.000001231
300.01873081
300.012680954
300.007497963
300.003644039
300.001490854
300.000516536
300.000100473
300.000010282
300
300.000001411
300.000000723
300
300
300
300.000000007
300.000000193
300.00000043
300.000000597
300.000000803
300.00000103
300.022931313
300.014958201
300.008478176
300.00392938
300.001543026
300.000470565
300.000078249
300.000007767
300.000000064
300.000001314
300.000000401
300
300
300
300
300.000000079
300.000000246
300.000000389
300.000000566
300.000000854
300.026690669
300.016817208
300.009182802
300.004115254
300.001551817
300.00043038
300.000063715
300.00000584
300.000000901
300.000001267
300.000000168
300
300
300
300
300.000000003
300.00000012
300.00000024
300.000000386
300.000000704
300.029583883
300.018036756
300.009509068
300.004174432
300.001466311
300.000371574
300.000048331
300.000003862
300.000001358
300.000001033
300.000000005
300
300
300
300
300
300.000000026
300.000000117
300.000000256
300.000000578
300.031292155
300.018490106
300.009432896
300.0040387
300.001330126
300.000313218
300.000036362
300.000002579
300.000001426
300.000000711
300
300
300
300
300
300
300
300.000000029
300.000000168
300.000000474
300.031715355
300.018133575
300.008989801
300.003636269
300.001111357
300.000244979
300.000024308
300.000002204
300.000001451
300.000000398
300
300
300
300
300
300
300
300
300.000000121
300.000000386
300.030843078
300.017070435
300.008184089
300.003106654
300.000884342
300.000170274
300.000017553
300.000002419
300.000001329
300.000000091
300
300
300
300
300
300
300
300
300.00000011
300.000000315
300.02888096
300.015490153
300.007004986
300.002479876
300.000646126
300.00010188
300.000010864
300.000002171
300.000000915
300
300
300
300
300
300
300
300
300
300.000000133
300.000000256
300.026085927
300.013507731
300.005705187
300.001859457
300.000443373
300.000051823
300.000005931
300.000001893
300.00000042
300
300
300
300
300
300
300
300
300
300.000000176
300.000000205
300.022851338
300.011132771
300.00437392
300.001307118
300.000253788
300.000028396
300.000003823
300.000001547
300.000000011
300
300
300
300
300
300
300
300
300
300.000000167
300.000000163
300.019312517
300.00878025
300.003180728
300.000840126
300.000117796
300.000013177
300.000002693
300.000000877
300
300
300
300
300
300
300
300
300
300.000000106
300.000000119
300.000000136
300.015476308
300.006535751
300.002125382
300.000445239
300.000058457
300.000006229
300.000002123
300.000000233
300
300
300
300
300
300
300
300
300.00000002
300.000000076
300.000000108
300.000000128
300.011874715
300.004544342
300.00126786
300.000198882
300.000022079
300.000003462
300.000001245
300
300
300
300
300
300
300
300
300
300.000000027
300.000000073
300.000000123
300.000000146
300.008512807
300.002847713
300.000562523
300.000090638
300.000008051
300.000002396
300.000000296
300
300
300
300
300
300
300
300
300.000000014
300.000000012
300.000000092
300.000000156
300.000000185
300.005515914
300.001360456
300.000263775
300.000028582
300.000004697
300.000001271
300
300
300
300
300
300
300
300
300.000000007
300
300.000000018
300.000000119
300.0000002
300.000000236
300.002860446
300.000645234
300.000086517
300.000012478
300.000004112
300.000000278
300
300
300
300
300
300
300
300.000000002
300
300
300.000000032
300.000000152
300.000000247
300.000000289
300.001416465
300.000239919
300.000033385
300.000010301
300.00000311
300
300
300
300
300
300
300
300
300
300
300
300.000000055
300.000000191
300.000000298
300.000000344
300.000578275
300.000089343
300.000020449
300.000007942
300.000001862
300
300
300
300
300
300
300
300
300
300
300
300.000000077
300.000000227
300.000000341
300.00000039
300.000223699
300.000041459
300.000015573
300.000005289
300.000000808
300
300
300
300
300
300
300
300
300
300
300
300.000000095
300.000000255
300.000000378
300.000000435
300.000084994
300.000027201
300.000010976
300.000003019
300.000000105
300
300
300
300
300
300
300
300
300
300
300
300.000000108
300.000000273
300.000000399
300.000000458
300.000038198
300.000020785
300.000007405
300.000001417
300
300
300
300
300
300
300
300
300
300
300
300
300.000000113
300.00000028
300.000000408
300.000000467
300.000025965
300.000015293
300.000004736
300.000000406
300
300
300
300
300
300
300
300
300
300
300
300
300.000000111
300.000000278
300.000000406
300.000000465
300.000023078
300.000010586
300.000002742
300
300
300
300
300
300
300
300
300
300
300
300
300
300.000000104
300.000000267
300.000000393
300.000000452
300.000020713
300.000007646
300.000001495
300
300
300
300
300
300
300
300
300
300
300
300
300
300.000000091
300.00000025
300.000000373
300.00000043
300.00001745
300.00000566
300.000000818
300
300
300
300
300
300
300
300
300
300
300
300
300
300.000000076
300.000000227
300.000000347
300.000000403
300.000014005
300.000004306
300.000000499
300
300
300
300
300
300
300
300
300
300
300
300
300
300.00000006
300.000000201
300.000000317
300.000000371
300.000011473
300.000003435
300.000000367
300
300
300
300
300
300
300
300
300
300
300
300
300
300.000000045
300.000000174
300.000000284
300.000000336
300.000010351
300.000002912
300.000000314
300
300
300
300
300
300
300
300
300
300
300
300
300
300.000000031
300.000000147
300.000000251
300.000000301
300.000013926
300.000002905
300.000000299
300
300
300
300
300
300
300
300
300
300
300
300
300
300.000000019
300.000000121
300.000000219
300.000000265
300.000025836
300.000003714
300.000000343
300
300
300
300
300
300
300
300
300
300
300
300
300
300.00000001
300.000000097
300.000000187
300.000000231
300.000049345
300.00000757
300.000000687
300
300
300
300
300
300
300
300
300
300
300
300
300
300.000000004
300.000000074
300.000000158
300.000000198
300.000089552
300.000017697
300.00000169
300
)
;

boundaryField
{
    emptyPatch
    {
        type            empty;
    }
    minY
    {
        type            fixedValue;
        value           nonuniform List<scalar> 0();
    }
    maxY
    {
        type            inletOutlet;
        inletValue      nonuniform List<scalar> 0();
        value           nonuniform List<scalar> 0();
    }
    maxX
    {
        type            fixedValue;
        value           uniform 300;
    }
    water_to_heater
    {
        type            copiedFixedValue;
        sourceFieldName T.liquid;
        value           nonuniform List<scalar> 
60
(
796.676393211
796.744870853
796.747376717
796.821696319
796.816948243
796.898873004
796.907097159
797.156922077
797.201995829
797.228526144
797.236364132
797.254096966
797.255869162
797.265217
797.266118518
797.248544756
797.247413684
797.19411143
797.190644345
797.139765058
797.133906289
797.103067442
797.093799855
797.076407981
797.065672971
797.077738065
797.076489925
797.077441809
797.075427312
797.050221794
797.056132629
797.037395999
797.039868439
797.045909682
797.04833419
797.062190337
797.063282693
797.068494387
797.072609854
797.061847674
797.064697801
797.03256314
796.98892142
796.960728524
796.790598654
796.781356046
796.774699101
796.783581477
796.77889177
796.792846807
796.779779071
796.805963499
796.972410101
796.975559486
797.033991168
797.025026021
797.027639683
797.000685239
797.00112721
796.9646187
)
;
    }
    procBoundary1to0
    {
        type            processor;
        value           nonuniform List<scalar> 
41
(
624.52337452
427.909053951
350.465958738
319.014735108
307.132315791
302.797007183
301.255664134
300.713030098
300.504415975
300.390455548
300.306951693
300.234002719
300.168221976
300.106407237
300.052696977
300.018827514
300.004203531
300.001768568
300.000882223
300.000413909
300
300
300
300
300
300
300
300
300
300
300
300
300
300.000000054
300.00000013
300.000000166
300.0001467
300.000033782
300.000003459
300
300
)
;
    }
    procBoundary1to3
    {
        type            processor;
        value           nonuniform List<scalar> 
41
(
300.426565335
300.279697768
300.198194289
300.143450526
300.101721671
300.068182408
300.041082132
300.021647336
300.010068482
300.004388751
300.002057623
300.001265879
300.000930598
448.013117849
368.584701157
330.179379536
311.865982687
304.130840215
301.483706057
300.653700486
300.653700486
300.000734352
300.000615789
300.000528357
300.000415999
300.000283867
300.000173689
300.000095218
300.00003565
300.000004092
300
300.000001506
300.00000072
300.000000939
300.000001495
300.000001874
300.000002207
300.000002471
300.000002663
300.000002762
300.000002684
)
;
    }
}


// ************************************************************************* //
