/*--------------------------------*- C++ -*----------------------------------*\
| =========                 |                                                 |
| \\      /  F ield         | OpenFOAM: The Open Source CFD Toolbox           |
|  \\    /   O peration     | Version:  2312                                  |
|   \\  /    A nd           | Website:  www.openfoam.com                      |
|    \\/     M anipulation  |                                                 |
\*---------------------------------------------------------------------------*/
FoamFile
{
    version     2.0;
    format      ascii;
    arch        "LSB;label=32;scalar=64";
    class       volScalarField;
    location    "0.03/water";
    object      alphat.gas;
}
// * * * * * * * * * * * * * * * * * * * * * * * * * * * * * * * * * * * * * //

dimensions      [1 -1 -1 0 0 0 0];

internalField   nonuniform List<scalar> 
1504
(
1.74008788062e-06
1.65208062938e-06
1.49429895012e-06
1.10877198769e-06
7.31174220346e-07
6.43700226293e-07
6.75292295572e-07
6.262888814e-07
4.65851145457e-07
2.56935707904e-07
9.52864641725e-08
2.12534032544e-08
2.92997231762e-09
2.59037687145e-10
3.49854279053e-11
1.86533814023e-11
1.78585153904e-11
2.07583329857e-11
2.96603694614e-11
5.90446702677e-11
1.72909406506e-06
1.63204521196e-06
1.4322152186e-06
1.02176139148e-06
6.73983675538e-07
6.40421219789e-07
6.9346681616e-07
6.25670232946e-07
4.33049037498e-07
2.09865232883e-07
6.45241500094e-08
1.17994180797e-08
1.40894329515e-09
1.21417919468e-10
2.53965118223e-11
1.76717395051e-11
1.7820473273e-11
2.10296700909e-11
3.04604725269e-11
6.17307746911e-11
1.76707077245e-06
1.6884303462e-06
1.44208910208e-06
9.83485261942e-07
6.42729689245e-07
6.41149295135e-07
7.01754969028e-07
6.12602014423e-07
3.93014701921e-07
1.65804070123e-07
4.23319612023e-08
6.58039221624e-09
7.0312191956e-10
6.72122647583e-11
2.11997699706e-11
1.72270299168e-11
1.7872980029e-11
2.13398629058e-11
3.13050901264e-11
6.45774375916e-11
1.8702659198e-06
1.83234402915e-06
1.51855088248e-06
9.80639017022e-07
6.26154946513e-07
6.43516383383e-07
7.04358992941e-07
5.95341636621e-07
3.5428626908e-07
1.29897294031e-07
2.8069542415e-08
3.8474804534e-09
3.83995054947e-10
4.44255441251e-11
1.92149976287e-11
1.70240439576e-11
1.79641224426e-11
2.16626077547e-11
3.21662486105e-11
6.75202634794e-11
2.01716981631e-06
2.02242130421e-06
1.63683610223e-06
1.0082529716e-06
6.2238600929e-07
6.47532657068e-07
7.05965413332e-07
5.82277176051e-07
3.24731264095e-07
1.04735248791e-07
1.96877856717e-08
2.43842506956e-09
2.35588261899e-10
3.38468411801e-11
1.82138706739e-11
1.69480563892e-11
1.80823019813e-11
2.19927814878e-11
3.30332731004e-11
7.05345663983e-11
2.17869324118e-06
2.22411858396e-06
1.78130673469e-06
1.06896789821e-06
6.32686415092e-07
6.51258366118e-07
7.09130868594e-07
5.78450170648e-07
3.08888281846e-07
9.02683269256e-08
1.51933932182e-08
1.72012854475e-09
1.63753939816e-10
2.85205863146e-11
1.77095890964e-11
1.69615173541e-11
1.82351531363e-11
2.23378915332e-11
3.39020561979e-11
7.35909849247e-11
2.3346930785e-06
2.43111170836e-06
1.95375582995e-06
1.16394516098e-06
6.59871275299e-07
6.57104595494e-07
7.15436072214e-07
5.83464345916e-07
3.06147296978e-07
8.44719468633e-08
1.30930824017e-08
1.35796869225e-09
1.27034758248e-10
2.56395306745e-11
1.74731255829e-11
1.70433230937e-11
1.84291520229e-11
2.27096280702e-11
3.47819534263e-11
7.66851037105e-11
2.44875839881e-06
2.59032993149e-06
2.10530447807e-06
1.2679868971e-06
6.98776715442e-07
6.67303026174e-07
7.24418106228e-07
5.93994810316e-07
3.13242807694e-07
8.51627776525e-08
1.24779756665e-08
1.18314824421e-09
1.06882158874e-10
2.39392440678e-11
1.73725513764e-11
1.71681481116e-11
1.86592542304e-11
2.31148540943e-11
3.56938488871e-11
7.98577765679e-11
2.47190584237e-06
2.6385062182e-06
2.17908401478e-06
1.33880238706e-06
7.31159722737e-07
6.75386161853e-07
7.32129663928e-07
6.06964302907e-07
3.2845666953e-07
9.16544336446e-08
1.30277545333e-08
1.13594806367e-09
9.58514064655e-11
2.28850168284e-11
1.73372164339e-11
1.73120142333e-11
1.89114686671e-11
2.35502410962e-11
3.66537988058e-11
8.31664099532e-11
2.47492957212e-06
2.65950359593e-06
2.23538612789e-06
1.4089447644e-06
7.62142805474e-07
6.73915211601e-07
7.32168564906e-07
6.19872741359e-07
3.51458358161e-07
1.04469538404e-07
1.48178553691e-08
1.2279483464e-09
9.13976404286e-11
2.22866932511e-11
1.73449565967e-11
1.74643442501e-11
1.91732614987e-11
2.40036903608e-11
3.76553572343e-11
8.66255009072e-11
2.49033493703e-06
2.68330947911e-06
2.29559956021e-06
1.49193457713e-06
7.98956429455e-07
6.60431416605e-07
7.18262542419e-07
6.27838214533e-07
3.78901801083e-07
1.2310056774e-07
1.78939978498e-08
1.46537931747e-09
9.17997174851e-11
2.20304768688e-11
1.73988004276e-11
1.76308951491e-11
1.94429801619e-11
2.44638635801e-11
3.86709559602e-11
9.01737233037e-11
2.51072450273e-06
2.71837755644e-06
2.36306398538e-06
1.59043311899e-06
8.50150600678e-07
6.4017894336e-07
6.87448164673e-07
6.23611841642e-07
4.02130158952e-07
1.43359917138e-07
2.16441113806e-08
1.76511686053e-09
9.41424912535e-11
2.19614795139e-11
1.75015118779e-11
1.78239497509e-11
1.97303317499e-11
2.49317418043e-11
3.96780052919e-11
9.37141710724e-11
2.53029880305e-06
2.75253393427e-06
2.43379623319e-06
1.6991350654e-06
9.21116560028e-07
6.24552438678e-07
6.43921630454e-07
6.03121117491e-07
4.11943638914e-07
1.58171468606e-07
2.49157199116e-08
1.98230231022e-09
9.45583709154e-11
2.19084977138e-11
1.76473283835e-11
1.80527386543e-11
2.00493129499e-11
2.5420841304e-11
4.06766194819e-11
9.71732680556e-11
2.52590557825e-06
2.77724881353e-06
2.5005779359e-06
1.80436601536e-06
1.00606918943e-06
6.24760996358e-07
6.00430870694e-07
5.70810061155e-07
4.05086164172e-07
1.62186690359e-07
2.7584990242e-08
2.00463793293e-09
9.06842334666e-11
2.17898797194e-11
1.78317605128e-11
1.83190441288e-11
2.04050842499e-11
2.59371101496e-11
4.16638957038e-11
1.00469935905e-10
2.51751174284e-06
2.79410032614e-06
2.55646292093e-06
1.89114222146e-06
1.08824419902e-06
6.42525404834e-07
5.69985865353e-07
5.36929099709e-07
3.8597468624e-07
1.55977879126e-07
2.83458451371e-08
1.85236404722e-09
8.40274533802e-11
2.16824185375e-11
1.80544436268e-11
1.86083165365e-11
2.07737948857e-11
2.64435503662e-11
4.25718878382e-11
1.03387255191e-10
2.50754758699e-06
2.811082633e-06
2.5986680821e-06
1.94359130529e-06
1.14996195089e-06
6.69187288808e-07
5.55450015844e-07
5.09269853009e-07
3.63392189844e-07
1.47176964287e-07
2.72223653426e-08
1.67143437541e-09
7.88742830983e-11
2.17574275922e-11
1.83053560864e-11
1.8886468504e-11
2.11025188644e-11
2.68574778085e-11
4.32537557223e-11
1.05538776873e-10
2.51846320359e-06
2.83871419412e-06
2.61907924378e-06
1.95300403563e-06
1.1805035013e-06
6.9506151197e-07
5.54080675138e-07
4.92124564566e-07
3.45792188647e-07
1.40818689946e-07
2.61963752822e-08
1.59499538047e-09
7.88332509863e-11
2.21598562099e-11
1.8570735654e-11
1.91271638392e-11
2.13518890568e-11
2.7112858098e-11
4.35793010125e-11
1.06546414081e-10
2.54756737931e-06
2.8651122015e-06
2.59138318598e-06
1.91752145664e-06
1.18360128899e-06
7.17330947928e-07
5.62444971066e-07
4.8682041999e-07
3.38308006496e-07
1.39335530333e-07
2.6886083348e-08
1.71336020471e-09
8.69422851628e-11
2.30314535018e-11
1.88473747691e-11
1.93220409948e-11
2.15218285883e-11
2.72312851523e-11
4.36078829841e-11
1.06560935601e-10
2.56668068438e-06
2.81470642527e-06
2.48574520641e-06
1.84564407593e-06
1.17153067665e-06
7.37085369339e-07
5.77270250795e-07
4.92176489475e-07
3.42384271636e-07
1.45618992834e-07
3.05768122534e-08
2.1316559635e-09
1.07992826791e-10
2.46113679992e-11
1.91587358557e-11
1.94881480223e-11
2.16474241166e-11
2.72788708539e-11
4.34707712642e-11
1.05953606875e-10
2.43901957167e-06
2.6325904205e-06
2.32865964291e-06
1.76108058322e-06
1.15587579841e-06
7.5464371441e-07
5.95311560398e-07
5.05294721421e-07
3.56070315149e-07
1.58399403301e-07
3.77616704205e-08
2.98845671788e-09
1.50037329836e-10
2.72555132899e-11
1.95432467469e-11
1.96358551954e-11
2.17253663496e-11
2.72350537648e-11
4.31262871195e-11
1.0460768895e-10
2.33512692856e-06
2.4891225789e-06
2.20965916077e-06
1.69602809446e-06
1.14346642129e-06
7.69706162887e-07
6.13905063589e-07
5.2268262165e-07
3.75567033627e-07
1.76600144902e-07
4.77532237047e-08
4.41561888135e-09
2.24067871958e-10
3.13311867364e-11
2.00065811065e-11
1.97414957032e-11
2.17241855162e-11
2.70674771654e-11
4.25464987127e-11
1.02513543567e-10
2.28293410799e-06
2.41545608459e-06
2.14541247317e-06
1.65862789764e-06
1.13661825897e-06
7.82428603851e-07
6.31781956869e-07
5.41570430284e-07
3.97021879094e-07
1.9801203266e-07
5.85656438153e-08
6.43093390739e-09
3.39640028006e-10
3.70915444424e-11
2.05527923428e-11
1.9810543765e-11
2.16643532169e-11
2.68200526788e-11
4.18271071627e-11
1.00004950066e-10
2.2475710599e-06
2.37465596131e-06
2.11299348007e-06
1.63934803701e-06
1.1334414927e-06
7.92832137652e-07
6.48272754635e-07
5.60180797522e-07
4.17872236445e-07
2.18861617168e-07
6.81740362404e-08
8.8832390729e-09
4.98352381385e-10
4.4532743543e-11
2.11834739234e-11
1.98718836391e-11
2.15924724959e-11
2.65591818643e-11
4.10813367186e-11
9.74181606964e-11
2.22161205793e-06
2.34909693466e-06
2.09466853955e-06
1.62886693718e-06
1.13153205166e-06
8.00618247447e-07
6.6274939939e-07
5.77470443012e-07
4.36999944168e-07
2.37747480245e-07
7.6298530509e-08
1.15572740951e-08
6.93271766325e-10
5.34125847707e-11
2.18749235635e-11
1.99349310342e-11
2.15297321317e-11
2.63209514499e-11
4.03800055577e-11
9.49543880416e-11
2.20592807742e-06
2.33538788134e-06
2.08696958446e-06
1.6247451609e-06
1.12998556436e-06
8.05517798371e-07
6.74605617036e-07
5.92803439664e-07
4.54094764835e-07
2.54523190781e-07
8.39268134502e-08
1.43042953422e-08
9.16035013919e-10
6.34851934972e-11
2.26004751108e-11
1.99916327079e-11
2.14711860036e-11
2.61100868649e-11
3.97537729504e-11
9.27227291944e-11
2.22678267402e-06
2.35902360504e-06
2.10612926743e-06
1.63673631974e-06
1.13455845523e-06
8.09741238064e-07
6.83655620136e-07
6.05677976082e-07
4.6920916279e-07
2.69613830561e-07
9.16831556218e-08
1.71138384223e-08
1.16535289819e-09
7.48355329824e-11
2.33707356175e-11
2.00443742094e-11
2.14124639943e-11
2.59208001472e-11
3.92032177451e-11
9.07549448341e-11
2.25644339894e-06
2.39596016885e-06
2.14064093379e-06
1.6603477072e-06
1.14540554288e-06
8.14729887827e-07
6.9042505088e-07
6.1603023504e-07
4.8228893558e-07
2.83119457918e-07
9.93573283132e-08
1.99666924924e-08
1.43984444368e-09
8.75976706817e-11
2.42125627483e-11
2.0112017676e-11
2.13654186507e-11
2.57554289856e-11
3.87168108786e-11
8.90201906449e-11
2.28571297162e-06
2.43495624051e-06
2.17833319449e-06
1.68788224505e-06
1.1601033119e-06
8.20756718959e-07
6.95510785142e-07
6.24100327502e-07
4.93307519277e-07
2.94930957502e-07
1.06573383506e-07
2.2772489413e-08
1.73243050164e-09
1.01501530012e-10
2.51204973955e-11
2.02114771936e-11
2.1348519413e-11
2.56261296056e-11
3.82910694477e-11
8.74790840479e-11
2.30492858377e-06
2.46068166171e-06
2.20463021002e-06
1.71065934966e-06
1.17485789119e-06
8.2697374401e-07
6.99254560653e-07
6.30238227507e-07
5.02362975907e-07
3.05015643413e-07
1.13155723776e-07
2.54197815898e-08
2.03183560793e-09
1.1602531066e-10
2.60496430294e-11
2.03329362973e-11
2.13628893582e-11
2.55407195339e-11
3.79340454257e-11
8.61276199565e-11
2.31140135613e-06
2.47040173858e-06
2.21570254195e-06
1.72358716256e-06
1.18597003653e-06
8.32111672337e-07
7.02018845078e-07
6.34953608953e-07
5.09688518272e-07
3.13392871867e-07
1.18966696935e-07
2.77972811757e-08
2.31975374772e-09
1.3031940444e-10
2.69377658541e-11
2.04553297025e-11
2.13939090324e-11
2.54902543018e-11
3.76485097345e-11
8.49870545379e-11
2.33172250272e-06
2.48884556219e-06
2.22935820827e-06
1.73612553137e-06
1.19673655987e-06
8.37232691982e-07
7.04211310599e-07
6.38623272238e-07
5.15726338989e-07
3.20435648397e-07
1.24034032914e-07
2.99248343105e-08
2.58419277565e-09
1.43756651679e-10
2.77564516394e-11
2.05723660437e-11
2.14294296401e-11
2.54609804689e-11
3.74237113397e-11
8.40545119493e-11
2.35308671579e-06
2.51178295617e-06
2.24971014796e-06
1.75316341973e-06
1.21003352246e-06
8.43792021139e-07
7.06627098668e-07
6.41724039176e-07
5.20879874971e-07
3.26515394401e-07
1.28476022081e-07
3.18616240721e-08
2.82611191257e-09
1.56365488653e-10
2.8523584497e-11
2.06882716141e-11
2.14724695204e-11
2.54482765388e-11
3.7241890632e-11
8.32844972056e-11
2.37056140006e-06
2.53501644857e-06
2.27343629367e-06
1.77436116502e-06
1.22647891495e-06
8.52393491648e-07
7.09642513191e-07
6.44528042317e-07
5.25438441951e-07
3.31959861793e-07
1.32511530326e-07
3.37140811029e-08
3.05895101677e-09
1.68834825854e-10
2.9290382166e-11
2.08109879709e-11
2.152961151e-11
2.54527152919e-11
3.7093010974e-11
8.26218451286e-11
2.37669921991e-06
2.54667138235e-06
2.28936960064e-06
1.79221693811e-06
1.24271715117e-06
8.61706711857e-07
7.12797644077e-07
6.46940187794e-07
5.29531815811e-07
3.37073284284e-07
1.36423346528e-07
3.55960190778e-08
3.30111294363e-09
1.82098919199e-10
3.01101287432e-11
2.09521690357e-11
2.16006322474e-11
2.54823304756e-11
3.69755191065e-11
8.20291152194e-11
2.37357333837e-06
2.54665675675e-06
2.29296280636e-06
1.80175712121e-06
1.25600884296e-06
8.70407576311e-07
7.15675909532e-07
6.48916055703e-07
5.33168873009e-07
3.41882535956e-07
1.40261071856e-07
3.748243297e-08
3.55683734963e-09
1.96341867491e-10
3.09813311226e-11
2.11100409392e-11
2.16872328582e-11
2.55285733706e-11
3.68837944075e-11
8.14953605984e-11
2.38571727537e-06
2.55696792238e-06
2.30030198025e-06
1.81171610331e-06
1.26887060453e-06
8.78800397256e-07
7.18100510689e-07
6.50342404277e-07
5.36353108114e-07
3.46427481918e-07
1.44022783914e-07
3.93547357013e-08
3.82051274285e-09
2.11082899356e-10
3.18541627388e-11
2.126502827e-11
2.17759819932e-11
2.55801216322e-11
3.68108027969e-11
8.10219217779e-11
2.39826477354e-06
2.57147614811e-06
2.31517567361e-06
1.82669217828e-06
1.28388835282e-06
8.88095667801e-07
7.20601643847e-07
6.51377235281e-07
5.39102574927e-07
3.50615040742e-07
1.47572457865e-07
4.11702706546e-08
4.07855147224e-09
2.25443272934e-10
3.26727047793e-11
2.14047078735e-11
2.18544718291e-11
2.56304796656e-11
3.67471046837e-11
8.05987233325e-11
2.40515310815e-06
2.58343133292e-06
2.33122479124e-06
1.84519077835e-06
1.30114378618e-06
8.98777100911e-07
7.23655795832e-07
2.7679349464e-09
3.42660504019e-09
4.2816532996e-09
6.37241750914e-09
1.17623729388e-08
2.49278916968e-08
3.20116731799e-08
3.27900587008e-08
3.28423697919e-08
3.28432482263e-08
3.2841555286e-08
3.28389090869e-08
3.20449337675e-08
3.10073091284e-08
5.40600161725e-07
1.77598686917e-06
2.71750398005e-06
1.61498515619e-10
5.73166668617e-10
1.66948872129e-09
2.86083729282e-09
3.52336716365e-09
4.39159469919e-09
6.62438670494e-09
1.20390959031e-08
2.51980003835e-08
3.20447863182e-08
3.27765108765e-08
3.28251036569e-08
3.28262263458e-08
3.28249634372e-08
3.28226004e-08
3.19580124354e-08
3.22654303027e-08
5.56950344179e-07
1.79979771734e-06
2.74526325271e-06
1.71403141053e-10
6.09972968126e-10
1.74804612182e-09
2.96151313245e-09
3.62744295069e-09
4.52545542941e-09
6.97495744798e-09
1.254052577e-08
2.57015238881e-08
3.21038132056e-08
3.2762276583e-08
3.28051558377e-08
3.28063464682e-08
3.28054552147e-08
3.28033139349e-08
3.18606735647e-08
3.36420155696e-08
5.74000511918e-07
1.82420991569e-06
2.77273266435e-06
1.82124536925e-10
6.49289038137e-10
1.8297480667e-09
3.06671166282e-09
3.73760392407e-09
4.67959773971e-09
7.4007560108e-09
1.32071745018e-08
2.63359096536e-08
3.21737069113e-08
3.27473143775e-08
3.27837213457e-08
3.27848598731e-08
3.27842638232e-08
3.27822662517e-08
3.17541041815e-08
3.51288500479e-08
5.91498058538e-07
1.84837188573e-06
2.79960321346e-06
1.93359401219e-10
6.89705402893e-10
1.9127788858e-09
3.17487797252e-09
3.8532169892e-09
4.85184497395e-09
7.87565582464e-09
1.39774730137e-08
2.70134159643e-08
3.22435673082e-08
3.27316603766e-08
3.27617115443e-08
3.27627329299e-08
3.27623580406e-08
3.27604260488e-08
3.16393299831e-08
3.67169300788e-08
6.09273963947e-07
1.87221777197e-06
2.82575440371e-06
2.05034524001e-10
7.3087417303e-10
1.996521062e-09
3.28515621445e-09
3.97329632511e-09
5.03865247632e-09
8.37390788137e-09
1.48072552292e-08
2.76872631261e-08
3.23073461324e-08
3.2715463123e-08
3.2739753453e-08
3.27406339244e-08
3.27404196192e-08
3.2738486719e-08
3.15171150231e-08
3.83986392976e-08
6.27208475641e-07
1.89566386023e-06
2.85111850158e-06
2.17048180886e-10
7.72308001355e-10
2.08020671697e-09
3.39653361712e-09
4.09636346068e-09
5.23530063838e-09
8.86922712805e-09
1.56655669619e-08
2.8330372685e-08
3.23625286203e-08
3.26989299193e-08
3.27182451516e-08
3.27189889928e-08
3.27188912781e-08
3.27169039961e-08
3.13879436113e-08
4.01685098972e-08
6.45219495109e-07
1.91863888267e-06
2.8756565161e-06
2.29303340536e-10
8.13351162668e-10
2.16283465273e-09
3.507729893e-09
4.22109395914e-09
5.43947534244e-09
9.34510951492e-09
1.65362593759e-08
2.89262409281e-08
3.24084803112e-08
3.2682255255e-08
3.26974161552e-08
3.26980449931e-08
3.26980362255e-08
3.2695955638e-08
3.12521065207e-08
4.20220985553e-08
6.63243320071e-07
1.94108169527e-06
2.89934194897e-06
2.41817842773e-10
8.53641792068e-10
2.24376342563e-09
3.61763402718e-09
4.34656882978e-09
5.65266906991e-09
9.8010858062e-09
1.74134443888e-08
2.94679603172e-08
3.24451995377e-08
3.26656014731e-08
3.26773964435e-08
3.26779429798e-08
3.2678009191e-08
3.26758073522e-08
3.11097898491e-08
4.3955416703e-08
6.81229051949e-07
1.9629480285e-06
2.92216569127e-06
2.54720554659e-10
8.93257068896e-10
2.32288818373e-09
3.72546760174e-09
4.47157755646e-09
5.87668061795e-09
1.02438867872e-08
1.82897478704e-08
2.99493924185e-08
3.24730286994e-08
3.26491191749e-08
3.26582681695e-08
3.26587698068e-08
3.26589072481e-08
3.26565654328e-08
3.09611872486e-08
4.59637217237e-08
6.99127092443e-07
1.98420208825e-06
2.94413079171e-06
2.68093313794e-10
9.32259964994e-10
2.40010981749e-09
3.83048405303e-09
4.59371632349e-09
6.10907606946e-09
1.06740160097e-08
1.91503893633e-08
3.03651838126e-08
3.24927253592e-08
3.26329781507e-08
3.26401093144e-08
3.26406032765e-08
3.26408139474e-08
3.26383178755e-08
3.08065534169e-08
4.80413923245e-08
7.16889930911e-07
2.00482236189e-06
2.96526136311e-06
2.81789455648e-10
9.70126325127e-10
2.47463993995e-09
3.9313858228e-09
4.70931780318e-09
6.34403603831e-09
1.10868884723e-08
1.99796595105e-08
3.07139069595e-08
3.2505403667e-08
3.26173759338e-08
3.26230133783e-08
3.26235315579e-08
3.26238191217e-08
3.2621156331e-08
3.06462705469e-08
5.01812814789e-08
7.34466923934e-07
2.02479645546e-06
2.98559935482e-06
2.95415009568e-10
1.00560580139e-09
2.54473653962e-09
4.02612167213e-09
4.81472899053e-09
6.57814922998e-09
1.14863219875e-08
2.0766468127e-08
3.09973067891e-08
3.25123013946e-08
3.26025335345e-08
3.26071005969e-08
3.26076663211e-08
3.26080321289e-08
3.2605188062e-08
3.04808388156e-08
5.23751120422e-08
7.51808685889e-07
2.04412688194e-06
3.0052109132e-06
3.08476929285e-10
1.03720512663e-09
2.60823275091e-09
4.11243515932e-09
4.90734058776e-09
6.8117040366e-09
1.18855958721e-08
2.1493619077e-08
3.12177582524e-08
3.25145935493e-08
3.25886836131e-08
3.25925118715e-08
3.25931366413e-08
3.25935766882e-08
3.25905327264e-08
3.03108831627e-08
5.46134733288e-08
7.68866786616e-07
2.06282870877e-06
3.02418120571e-06
3.20517592345e-10
1.06375692825e-09
2.66320567858e-09
4.18846361077e-09
4.9851024603e-09
7.04190309433e-09
1.22904002796e-08
2.21241249291e-08
3.13778335801e-08
3.25133470274e-08
3.25760557546e-08
3.25793970122e-08
3.25800792276e-08
3.25805820114e-08
3.25773135887e-08
3.01370701606e-08
5.68868829342e-08
7.85601136599e-07
2.08093430666e-06
3.04261550692e-06
3.30949964666e-10
1.08426632173e-09
2.70811419872e-09
4.25294644027e-09
5.04532113556e-09
7.25439515902e-09
1.26841768983e-08
2.26075173358e-08
3.14813287947e-08
3.25095108587e-08
3.25648504642e-08
3.25678887955e-08
3.25686139606e-08
3.25691603147e-08
3.25656372396e-08
2.99600486211e-08
5.91865446681e-08
8.0198379696e-07
2.09849224464e-06
3.06063029036e-06
3.38775537694e-10
1.09753634658e-09
2.74164699386e-09
4.30499097991e-09
5.08502556509e-09
7.42055533245e-09
1.30294930301e-08
2.2902328933e-08
3.15333427535e-08
3.25038564882e-08
3.25552093696e-08
3.25580779779e-08
3.25588221428e-08
3.25593871357e-08
3.2555575235e-08
2.97803165667e-08
6.15058316633e-08
8.1800658695e-07
2.1155690732e-06
3.0783490167e-06
3.42714157362e-10
1.1026594346e-09
2.76277234637e-09
4.3439123078e-09
5.10267579323e-09
7.52616607892e-09
1.32985593535e-08
2.29955013544e-08
3.1538569272e-08
3.2496878807e-08
3.25471902277e-08
3.25499905278e-08
3.25507251253e-08
3.25512814852e-08
3.25471455774e-08
2.95981573465e-08
6.38410420626e-08
8.33683243112e-07
2.13224590892e-06
3.09589109799e-06
3.43177941474e-10
1.10039325654e-09
2.77128526157e-09
4.3699357421e-09
5.10315479135e-09
7.58777765826e-09
1.35278713381e-08
2.29065582381e-08
3.14995242538e-08
3.24887389392e-08
3.25407597282e-08
3.25435818644e-08
3.25442792894e-08
3.25448011829e-08
3.25403079239e-08
2.94135554481e-08
6.61921868603e-08
8.49050580667e-07
2.14861483091e-06
3.11336705778e-06
3.41379362938e-10
1.09092511032e-09
2.76818530961e-09
4.38482380795e-09
5.09289718299e-09
7.59713177077e-09
1.37223709591e-08
2.26594779222e-08
3.14163696547e-08
3.2479322469e-08
3.25358036195e-08
3.25387411538e-08
3.25393785264e-08
3.25398442121e-08
3.25349640679e-08
2.92262153512e-08
6.8562768343e-08
8.6416424774e-07
2.1647723803e-06
3.13087099783e-06
3.36991456512e-10
1.07605754332e-09
2.75567524523e-09
4.3913426509e-09
5.07433580876e-09
7.54210337155e-09
1.38276409456e-08
2.22670896252e-08
3.12887623257e-08
3.24683833436e-08
3.25321462205e-08
3.25353045624e-08
3.25358663894e-08
3.25362601099e-08
3.25309682675e-08
2.90355641272e-08
7.09595928851e-08
8.79094362131e-07
2.1808146694e-06
3.14848095426e-06
3.30071460709e-10
1.05692820961e-09
2.73645659249e-09
4.39254363368e-09
5.05127281492e-09
7.43218451782e-09
1.38220334514e-08
2.17664217085e-08
3.11188723157e-08
3.24557258241e-08
3.25295702517e-08
3.25330658057e-08
3.25335454716e-08
3.25338585485e-08
3.25281354081e-08
2.8840829226e-08
7.33919286948e-08
8.93919266309e-07
2.19683265725e-06
3.16625716659e-06
3.21699407135e-10
1.03491009629e-09
2.713016588e-09
4.39089026851e-09
5.02837747666e-09
7.28480719806e-09
1.370638606e-08
2.12078893194e-08
3.09129422175e-08
3.24413706064e-08
3.25278396703e-08
3.25317920708e-08
3.25321927776e-08
3.25324245423e-08
3.25262553678e-08
2.86410847912e-08
7.58708921737e-08
9.08720118013e-07
2.21290896077e-06
3.18424607329e-06
3.12913919584e-10
1.0114833071e-09
2.68714405204e-09
4.38783968286e-09
5.00842199403e-09
7.11658843857e-09
1.34873543402e-08
2.06299605389e-08
3.06811851231e-08
3.24256288473e-08
3.25267235493e-08
3.25312423711e-08
3.25315760094e-08
3.25317330704e-08
3.2525106963e-08
2.84353633105e-08
7.84082524988e-08
9.23573822531e-07
2.22911330642e-06
3.20247924026e-06
3.04305429568e-10
9.87701963939e-10
2.66023974391e-09
4.3845250167e-09
4.99243280991e-09
6.94480153953e-09
1.31848262943e-08
2.00544582642e-08
3.04356398756e-08
3.24090324223e-08
3.25260172904e-08
3.25311907209e-08
3.2531475393e-08
3.25315700286e-08
3.25244774993e-08
2.82227301041e-08
8.1015615343e-08
9.38547557289e-07
2.24549969076e-06
3.22097639757e-06
2.96247730766e-10
9.64484476149e-10
2.6338533888e-09
4.38245381274e-09
4.98583657638e-09
6.78562665392e-09
1.28297837863e-08
1.9493477764e-08
3.01868894426e-08
3.23921812276e-08
3.25255560972e-08
3.2531443374e-08
3.25316994619e-08
3.25317465273e-08
3.25241771532e-08
2.80023930018e-08
8.37033329905e-08
9.53693772524e-07
2.26210342985e-06
3.23974335739e-06
2.8898866482e-10
9.42766742041e-10
2.60951099774e-09
4.38324201942e-09
4.9850706901e-09
6.6447955109e-09
1.24488582912e-08
1.89562762394e-08
2.99426439464e-08
3.23756317969e-08
3.25252205485e-08
3.25318498448e-08
3.25320966936e-08
3.2532111154e-08
3.25240509428e-08
2.77737419808e-08
8.64802165926e-08
9.69049383172e-07
2.27894257872e-06
3.2587755709e-06
2.82580014076e-10
9.23108503639e-10
2.58813299822e-09
4.38772441327e-09
4.99036580846e-09
6.52182202107e-09
1.20577867862e-08
1.84520220948e-08
2.97095403993e-08
3.23598575507e-08
3.2524932332e-08
3.25323015938e-08
3.25325549765e-08
3.25325497081e-08
3.25239801537e-08
2.75363952938e-08
8.93531716953e-08
9.8463613478e-07
2.29601939404e-06
3.27805739013e-06
2.76924760241e-10
9.0548181149e-10
2.56968719498e-09
4.39542212193e-09
5.0004560195e-09
6.41580211418e-09
1.16710568306e-08
1.79917436559e-08
2.94938478239e-08
3.23451920115e-08
3.25246420437e-08
3.25327258861e-08
3.25329977397e-08
3.25329832197e-08
3.25238806042e-08
2.72901744991e-08
9.23276373458e-08
1.00046442949e-06
2.31332562539e-06
3.29756729278e-06
2.71941234839e-10
8.89621342607e-10
2.5535837886e-09
4.40527183815e-09
5.01409185828e-09
6.32828499314e-09
1.13075735905e-08
1.75867006887e-08
2.92988196398e-08
3.23317278118e-08
3.25243154059e-08
3.25330763765e-08
3.25333751963e-08
3.25333594087e-08
3.25236956545e-08
2.7035106726e-08
9.54075892059e-08
1.01653535844e-06
2.33084476241e-06
3.31727778312e-06
2.67652643416e-10
8.7543476672e-10
2.53957809404e-09
4.41689682649e-09
5.03102580483e-09
6.26112939017e-09
1.09825572265e-08
1.72414200582e-08
2.91225965357e-08
3.2319295314e-08
3.25239281498e-08
3.25333288286e-08
3.25336608218e-08
3.25336499372e-08
3.25233924897e-08
2.67713839703e-08
9.85960783755e-08
1.03284428855e-06
2.34855652451e-06
3.33716035499e-06
2.64098305983e-10
8.63117773366e-10
2.52802448166e-09
4.43081921008e-09
5.05151204436e-09
6.21277723904e-09
1.06977707581e-08
1.69492238215e-08
2.89599829035e-08
3.23076153245e-08
3.25234699706e-08
3.25334771947e-08
3.25338461689e-08
3.25338443211e-08
3.25229568215e-08
2.64993691554e-08
1.01895067333e-07
1.04938097129e-06
2.36643666391e-06
3.3571842034e-06
2.61200491272e-10
8.5275158261e-10
2.51926919427e-09
4.44762707556e-09
5.07537470658e-09
6.17870595241e-09
1.04444773933e-08
1.66977089975e-08
2.8806745136e-08
3.22965129251e-08
3.25229498893e-08
3.25335316204e-08
3.25339390631e-08
3.2533948497e-08
3.25223901759e-08
2.62195516474e-08
1.05306000433e-07
1.06613275868e-06
2.38446061099e-06
3.37732036765e-06
2.58770129266e-10
8.43946299491e-10
2.51302965359e-09
4.46708924113e-09
5.10172257651e-09
6.15485120079e-09
1.02141650943e-08
1.64786341469e-08
2.86625430786e-08
3.22860007318e-08
3.25223906625e-08
3.25335109779e-08
3.25339555833e-08
3.25339763621e-08
3.25217026747e-08
2.59325453236e-08
1.08829685102e-07
1.08308437951e-06
2.40260245687e-06
3.39753949139e-06
2.56621066113e-10
8.36126336522e-10
2.50836142909e-09
4.48818540751e-09
5.12972660766e-09
6.13999358521e-09
1.00064314314e-08
1.62923906247e-08
2.85292986837e-08
3.22761376851e-08
3.25218147124e-08
3.25334360662e-08
3.25339147239e-08
3.25339455343e-08
3.2520908148e-08
2.56390298809e-08
1.12467047344e-07
1.10022185496e-06
2.42083872307e-06
3.4178152022e-06
2.54655277847e-10
8.2886121625e-10
2.50440336295e-09
4.51017528728e-09
5.15940339507e-09
6.13585928194e-09
9.82712136597e-09
1.61422549327e-08
2.84071401655e-08
3.22668032786e-08
3.25212309174e-08
3.25333210089e-08
3.25338296787e-08
3.25338681837e-08
3.25200158469e-08
2.53397473218e-08
1.16219016551e-07
1.11753182797e-06
2.43914733955e-06
3.43812215831e-06
2.52869645437e-10
8.22038254277e-10
2.50112115779e-09
4.53331307285e-09
5.19141703792e-09
6.14379581278e-09
9.67785493731e-09
1.60248591326e-08
2.82927553517e-08
3.22577481183e-08
3.25206346451e-08
3.25331705795e-08
3.25337055513e-08
3.25337499086e-08
3.25190293393e-08
2.50354868655e-08
1.20086619889e-07
1.13500081679e-06
2.45750473841e-06
3.45843223978e-06
2.51286759902e-10
8.15861011394e-10
2.49907751406e-09
4.55839988581e-09
5.22629580499e-09
6.16138927121e-09
9.55229472003e-09
1.59297509436e-08
2.81821935836e-08
3.22488312374e-08
3.25200211749e-08
3.25329837214e-08
3.25335419463e-08
3.25335906102e-08
3.25179463924e-08
2.47272153125e-08
1.24066333738e-07
1.15255992609e-06
2.47563590204e-06
3.47805169438e-06
)
;

boundaryField
{
    emptyPatch
    {
        type            empty;
    }
    minY
    {
        type            zeroGradient;
    }
    maxY
    {
        type            calculated;
        value           nonuniform List<scalar> 0();
    }
    water_to_cooler
    {
        type            compressible::alphatWallBoilingWallFunction;
        phaseType       vapor;
        relax           constant 1;
        partitioningModel
        {
            type            Lavieville;
            alphaCrit       0.2;
        }
        otherPhase      liquid;
        dmdt            uniform 0;
        dDep            uniform 1e-05;
        qQuenching      uniform 0;
        alphatConv      uniform 0;
        value           uniform 3.01273722487e-05;
    }
    water_to_heater
    {
        type            compressible::alphatWallBoilingWallFunction;
        phaseType       vapor;
        relax           constant 1;
        partitioningModel
        {
            type            Lavieville;
            alphaCrit       0.2;
        }
        otherPhase      liquid;
        dmdt            uniform 0;
        dDep            uniform 1e-05;
        qQuenching      uniform 0;
        alphatConv      uniform 0;
        value           nonuniform List<scalar> 
60
(
9.01608153778e-07
9.01608153778e-07
8.05644090571e-07
6.09074782718e-07
3.6003544672e-07
3.6003544672e-07
1.68953466248e-07
1.68953466248e-07
6.00224154627e-08
6.00224154627e-08
1.82438101916e-08
7.80847332096e-09
7.2329231444e-09
7.2329231444e-09
6.98640622489e-09
6.98640622489e-09
7.2329231444e-09
7.2329231444e-09
6.66000345088e-09
7.2329231444e-09
6.57247719007e-09
6.57247719007e-09
7.2329231444e-09
7.2329231444e-09
6.72935751147e-09
6.72935751147e-09
7.2329231444e-09
6.86723354822e-09
8.21828356923e-09
8.21828356923e-09
1.93903914752e-08
1.93903914752e-08
3.72750084208e-08
3.72750084208e-08
4.51465868114e-08
4.87054385811e-08
5.61581655022e-08
5.61581655022e-08
7.0764730068e-08
7.0764730068e-08
7.08024964553e-08
7.08024964553e-08
6.93394681884e-08
6.66225397651e-08
7.03146695262e-08
7.03146695262e-08
8.23710185929e-08
8.23710185929e-08
8.24316645955e-08
8.24316645955e-08
7.793384667e-08