/*--------------------------------*- C++ -*----------------------------------*\
| =========                 |                                                 |
| \\      /  F ield         | OpenFOAM: The Open Source CFD Toolbox           |
|  \\    /   O peration     | Version:  2312                                  |
|   \\  /    A nd           | Website:  www.openfoam.com                      |
|    \\/     M anipulation  |                                                 |
\*---------------------------------------------------------------------------*/
FoamFile
{
    version     2.0;
    format      ascii;
    arch        "LSB;label=32;scalar=64";
    class       volScalarField;
    location    "0.22/heater";
    object      T;
}
// * * * * * * * * * * * * * * * * * * * * * * * * * * * * * * * * * * * * * //

dimensions      [0 0 0 1 0 0 0];

internalField   nonuniform List<scalar> 
150
(
797.626989094
797.539953892
797.372976822
797.146074102
796.899322534
797.617865478
797.528552316
797.355619469
797.116902439
796.854678673
797.614978064
797.525815703
797.351502042
797.105748046
796.826237514
797.617329868
797.53013561
797.358508225
797.112500693
796.822190261
797.616140244
797.530165029
797.360234414
797.113965083
796.816741606
797.61113681
797.52588585
797.356913188
797.109864199
796.808839496
797.601660879
797.51673028
797.348086197
797.099089536
796.793050971
797.59035917
797.505026793
797.335694146
797.083753445
796.771080331
797.580783695
797.49408852
797.322607883
797.065929958
796.742857691
797.577574555
797.488240604
797.312649293
797.049045149
796.71039953
797.586373702
797.494327866
797.314870913
797.044851395
796.683173116
797.610039476
797.516394813
797.335142492
797.062978706
796.680717024
797.645620062
797.550523581
797.36776458
797.095616392
796.696807342
797.689172081
797.591977847
797.406401355
797.134279336
796.728463794
797.73648807
797.636513901
797.446617486
797.173951976
796.775310069
797.785943589
797.684519527
797.491979172
797.219531682
796.832362253
797.834466516
797.732756745
797.538935338
797.267320922
796.89173599
797.876809644
797.775032575
797.57930203
797.30626503
796.940684539
797.911986725
797.809753601
797.610021568
797.330631801
796.974891902
797.941661336
797.838916908
797.634503168
797.344159258
796.995850662
797.969229359
797.865922349
797.656452839
797.350246893
796.994339702
797.996852099
797.893451894
797.680364846
797.35731718
796.968281958
798.023411544
797.920906621
797.707497114
797.373076285
796.936109582
798.041375693
797.940308591
797.729332807
797.394950274
796.937708343
798.041610674
797.941319325
797.732126639
797.400052873
796.941487976
798.018503861
797.918050701
797.709257751
797.378633426
796.922170025
797.967989858
797.86594024
797.655281818
797.323920673
796.868084372
797.889347042
797.782898022
797.565144593
797.226482218
796.765613075
797.793297844
797.67993266
797.450159285
797.097332969
796.623963489
797.724501655
797.606335322
797.368347883
797.005458454
796.52033953
)
;

boundaryField
{
    emptyPatch
    {
        type            empty;
    }
    minY
    {
        type            zeroGradient;
    }
    maxY
    {
        type            zeroGradient;
    }
    minX
    {
        type            zeroGradient;
    }
    heater_to_water
    {
        type            compressible::turbulentTemperatureTwoPhaseRadCoupledMixed;
        refValue        nonuniform List<scalar> 
60
(
606.026333899
608.843314466
608.843430644
607.408696758
597.243424943
575.551911901
575.551928568
546.348968792
546.348999862
530.024553448
530.024612298
529.234579085
535.727379483
539.30665959
539.306858072
542.501283179
542.50153809
545.291881874
545.292177893
548.311292063
549.574106496
540.437229853
540.437285332
505.150043196
505.149771463
438.578684136
438.577925352
368.755358415
333.752684854
320.057995423
320.057619232
312.676528881
312.676280901
308.399798495
308.399672367
306.961565559
308.306234609
319.627190011
319.627095051
378.404638518
378.404776436
473.115391036
473.115827783
499.387169443
486.608875025
433.22520407
433.22523279
404.774402357
404.774393193
401.672548808
401.673115132
406.476132513
407.084532938
407.874553369
407.877201295
408.701493463
408.705145052
408.467596319
408.470291891
406.610112297
)
;
        refGradient     uniform 0;
        valueFraction   nonuniform List<scalar> 
60
(
0.000587029463091
0.000587063471461
0.000587063250032
0.000587027906724
0.00058697900183
0.00058648144511
0.000586481409541
0.000586406536548
0.000586406462374
0.000587458102628
0.000587457951873
0.000588429094575
0.000588889006951
0.000589247148144
0.00058924665815
0.000589299789856
0.000589299168874
0.000589352439857
0.000589351726966
0.000589395420664
0.000589884738864
0.000593336469741
0.000593336332551
0.000610738982885
0.000610739793752
0.000656140631269
0.00065614423645
0.000725105057645
0.000746382884974
0.000710931420292
0.000710945080945
0.000670088981128
0.000670102612531
0.000639150942534
0.000639161154191
0.000628767347903
0.000639688813636
0.000714297264798
0.000714300851253
0.000694787584502
0.000694786348603
0.000606520803802
0.000606519264793
0.000605975790588
0.000621009135153
0.000666315608762
0.000666315463946
0.000693098244749
0.00069309830601
0.000692976342863
0.000692972441377
0.000686377856961
0.000686661195734
0.000686940349109
0.000686923317004
0.000686818194885
0.000686794893083
0.000687069400634
0.000687052156651
0.00068736748968
)
;
        source          uniform 0;
        value           nonuniform List<scalar> 
60
(
796.787022469
796.788669724
796.743876587
796.743041004
796.708653862
796.696031496
796.692242362
796.675134123
796.669954127
796.660100796
796.652261114
796.65153715
796.639322557
796.641338139
796.619262244
796.621131038
796.592771788
796.59440274
796.561752804
796.563521271
796.536688226
796.530414032
796.52807002
796.502059421
796.519005234
796.462088748
796.49537908
796.420051896
796.432729126
796.439408078
796.496305792
796.51083908
796.569960846
796.582214889
796.631063006
796.635236599
796.665227214
796.636854711
796.657934848
796.70808784
796.704695042
796.799086141
796.771634423
796.787730225
796.743043441
796.693413251
796.695890913
796.666430447
796.670603138
796.668501463
796.649146569
796.655049763
796.601289523
796.60172341
796.499259113
796.499866132
796.358142482
796.357872783
796.254190848
796.252789856
)
;
        kappaMethod     solidThermo;
        Tnbr            T.liquid;
        region          solid;
        otherPhase      gas;
    }
    procBoundary1to0
    {
        type            processor;
        value           nonuniform List<scalar> 5(797.635396119 797.55086068 797.389873679 797.173210377 796.936641223);
    }
}


// ************************************************************************* //
