/*--------------------------------*- C++ -*----------------------------------*\
| =========                 |                                                 |
| \\      /  F ield         | OpenFOAM: The Open Source CFD Toolbox           |
|  \\    /   O peration     | Version:  2312                                  |
|   \\  /    A nd           | Website:  www.openfoam.com                      |
|    \\/     M anipulation  |                                                 |
\*---------------------------------------------------------------------------*/
FoamFile
{
    version     2.0;
    format      ascii;
    arch        "LSB;label=32;scalar=64";
    class       volScalarField;
    location    "0.945/water";
    object      alpha.gas_0;
}
// * * * * * * * * * * * * * * * * * * * * * * * * * * * * * * * * * * * * * //

dimensions      [0 0 0 0 0 0 0];

internalField   nonuniform List<scalar> 
1497
(
0.697177062392
0.626158287385
0.526554350927
0.422490181377
0.328345786578
0.25556258416
0.223523033278
0.218653051453
0.219017653635
0.219893341865
0.219744971388
0.218705581576
0.218213813978
0.810333333231
0.794946900056
0.782076807595
0.781864029745
0.782920366279
0.783248052053
0.780112568339
0.76015686503
0.707186566132
0.621220132948
0.516112515633
0.40401793904
0.298914053867
0.231119615829
0.218213813978
0.218204910887
0.218292794173
0.218692812788
0.218580896917
0.218202543791
0.813886621341
0.794319265416
0.782723445126
0.783647643484
0.785850454967
0.785846768097
0.785838881878
0.769356064145
0.723355557462
0.650709735142
0.557664922029
0.450130289311
0.338037769235
0.246146936934
0.218209742297
0.218213813978
0.218162999911
0.218213813978
0.218199058211
0.218213813978
0.814128444939
0.787769396142
0.776480518198
0.778551772667
0.783977352369
0.78564801327
0.784622340852
0.767384423274
0.722591945291
0.653061674557
0.564567075733
0.460891570203
0.349186523684
0.252270413885
0.218233338416
0.218128207999
0.218213813978
0.218080506313
0.218213813978
0.218142557493
0.813886621341
0.772930034295
0.758279565761
0.760002957692
0.770314433365
0.775565472898
0.772225042206
0.753042776836
0.710609695447
0.645477663951
0.560025652982
0.457793647516
0.346239327538
0.249810980629
0.218200444805
0.218213813978
0.217973317373
0.218213813978
0.217982274379
0.218213813978
0.810359237642
0.754406763564
0.731499641951
0.728316124503
0.737253202787
0.743342541383
0.737015895245
0.715658630072
0.675630384213
0.615734945744
0.535290262887
0.435626842286
0.325551337964
0.237055401321
0.218213813978
0.217972815868
0.218213813978
0.217820169256
0.218213813978
0.217900334368
0.803956337993
0.731352879356
0.700766712777
0.688052188049
0.687969893954
0.686123684365
0.67441492606
0.650737404878
0.612371840991
0.55612759943
0.479238932691
0.382446319786
0.280213213331
0.221067802009
0.218068533736
0.218213813978
0.217753289885
0.218213813978
0.217763499262
0.221120885273
0.793576764291
0.711583845152
0.674204676135
0.645386863858
0.628333497707
0.610438394066
0.588189849977
0.558998120819
0.519443727411
0.46472464686
0.391020090658
0.302905489273
0.23148505573
0.218129194208
0.218213813978
0.217767167231
0.218213813978
0.217743734995
0.229347910789
0.236470589455
0.775471874847
0.700502505818
0.654313961952
0.604914179031
0.56390419647
0.523671495411
0.483736932286
0.442304266233
0.397451248964
0.344886089418
0.283827950911
0.231948616581
0.218160389359
0.218213813978
0.217802328527
0.218213813978
0.218720366149
0.236652050908
0.247573805913
0.242603986681
0.746550214652
0.693447728811
0.637138690932
0.567452531619
0.501083790334
0.436963692719
0.373960794871
0.314387090431
0.268909181045
0.238069887073
0.220811670198
0.218106362857
0.218213813978
0.217760637045
0.218213813978
0.219112472119
0.241185298575
0.253177737434
0.250991931488
0.243188495158
0.71322904305
0.675050697897
0.612078240972
0.526391245248
0.441389482902
0.360265252798
0.28003912058
0.227687135863
0.218276139977
0.218213813978
0.217708532903
0.218213813978
0.217408666478
0.218213813978
0.21748587193
0.24036066338
0.254923397838
0.254938101206
0.250276546156
0.244693927261
0.67844980846
0.634429301227
0.564376085516
0.472151730447
0.381248219623
0.296489245637
0.226969275546
0.217955687104
0.218213813978
0.217101524464
0.218213813978
0.21667923968
0.218213813978
0.21698045244
0.231427388485
0.256382223758
0.256208466116
0.253372893308
0.248921627748
0.249231871241
0.640417296573
0.569432148908
0.495217696963
0.409578600653
0.327648838948
0.25356647082
0.21811934844
0.218213813978
0.216817798125
0.218213813978
0.215924597393
0.218213813978
0.21619446178
0.221411002375
0.261234973017
0.259452416855
0.253301032091
0.248748557906
0.248206741253
0.254737736498
0.589552747563
0.508046989129
0.453228208643
0.384689251568
0.311276712416
0.244393164122
0.218213813978
0.216980590978
0.218213813978
0.215510045641
0.218213813978
0.215527721188
0.223243585233
0.263255457811
0.272930801634
0.256532753468
0.245784664142
0.243375810331
0.246625538022
0.256004085613
0.546983951088
0.500377785942
0.462680182722
0.400590819014
0.327732445273
0.261208810294
0.227128930891
0.220085607122
0.21902813394
0.225260717518
0.237353889097
0.259979335661
0.291640221098
0.302252899165
0.278374258418
0.254280470185
0.23914530194
0.237736564757
0.242477525728
0.254532827599
0.554659404911
0.544554727175
0.531891272838
0.491142930917
0.430087815451
0.371071546911
0.333410392319
0.324584952045
0.33638402562
0.363805078899
0.390815472474
0.405250218711
0.392895909966
0.34726689705
0.297342066865
0.260403719345
0.238286467523
0.2315290264
0.235200296219
0.248858927438
0.622690510742
0.649338292271
0.646253772778
0.634856539731
0.614618560256
0.592627058657
0.575537846219
0.574950940697
0.591149765694
0.611426773962
0.6076895215
0.572387848736
0.511199603267
0.433402571464
0.356977869669
0.288918427865
0.242057853715
0.226271196516
0.22775342497
0.238975344806
0.721536556843
0.720274666493
0.705074648086
0.711251203019
0.727598709052
0.736994352866
0.736055510973
0.736227869402
0.737493300108
0.732668875362
0.709308995182
0.663692912582
0.599442400367
0.520117026823
0.429459665128
0.334248851027
0.255063627872
0.223711024015
0.222767127727
0.229914703988
0.781013544608
0.726170595125
0.709812414905
0.726468444902
0.754246264856
0.766735768703
0.766546362748
0.762619057137
0.755930689862
0.744339491718
0.720386469671
0.679857314656
0.621325654641
0.545270853005
0.453417597077
0.352464543493
0.262470135097
0.222123641212
0.21988994084
0.225657980732
0.787891676159
0.712813044259
0.710304155249
0.731288549847
0.757701155614
0.76684669238
0.765755279664
0.758907251688
0.749333013694
0.73549460964
0.711067687513
0.671476880468
0.614008660591
0.538253704406
0.446064925961
0.344723518242
0.256000323789
0.219512316417
0.21909624034
0.225142165292
0.787996650752
0.700780433001
0.712594618284
0.733548443792
0.753830777624
0.758424765088
0.750979197313
0.734791062505
0.716374704253
0.695821610551
0.6683906923
0.628107519193
0.570018679027
0.492573896798
0.398977723239
0.30133256449
0.231391297471
0.218805647063
0.218893900279
0.228778334209
0.787891676159
0.698846513348
0.716274766633
0.731289979978
0.739386888357
0.730794994988
0.707160137315
0.675585477071
0.646178384331
0.617931052865
0.583972405611
0.537127015755
0.472820021013
0.39169474472
0.303554541546
0.235961733893
0.218754115547
0.218791379815
0.226746154307
0.233012162898
0.773906866747
0.694452363656
0.71514469759
0.72232582303
0.714950861417
0.681148813262
0.632878500599
0.587167714046
0.549357046328
0.512657110441
0.467692817887
0.409155532462
0.338723750408
0.269043009572
0.225805983065
0.21849650703
0.218639974345
0.228396965409
0.237994159233
0.233933898086
0.729250404074
0.677899036658
0.702959094006
0.70420575137
0.680684527591
0.615158799101
0.542004780237
0.484903412456
0.439409510333
0.392046537833
0.335140345425
0.275513081622
0.232780042204
0.218667219448
0.218479882084
0.218533542559
0.235196121263
0.24603790572
0.240511058508
0.223118262497
0.66810407005
0.636944865049
0.671383076032
0.673677700405
0.634691439091
0.540797942244
0.448517434394
0.381703262003
0.328108036161
0.273854054067
0.2327632737
0.218804572238
0.218488520484
0.218255477024
0.220089491683
0.2485941475
0.256682494871
0.249291179904
0.226736803807
0.216723186297
0.609916693384
0.587189251205
0.629965934857
0.634652312952
0.580646787775
0.467893617601
0.366675650537
0.295940589259
0.243364974187
0.219073725962
0.21821817157
0.218488520484
0.217972459317
0.229382802252
0.266673888467
0.268536093684
0.258978773613
0.231413264989
0.219076505672
0.219019268823
0.576213133703
0.573772947557
0.598415664797
0.604575750249
0.537704267987
0.419022634381
0.323149147724
0.261133485616
0.22357697805
0.218190094752
0.218488520484
0.224281866404
0.255669605231
0.290998509196
0.291878567791
0.269051756604
0.234814896102
0.215157213763
0.21894705653
0.28896299391
0.573772947557
0.573643374257
0.594943522619
0.599579333818
0.529278273232
0.414782528418
0.322202484843
0.264116816935
0.235002580452
0.235127921257
0.257272051689
0.302414572805
0.32780815218
0.312360510133
0.278922802107
0.235637211265
0.21232384871
0.214518420887
0.269940776721
0.372713969475
0.57439706569
0.597879628272
0.621996258311
0.615557611809
0.554052607433
0.4566727276
0.368807646294
0.315849991433
0.302096891848
0.322368396519
0.35863020335
0.371655326651
0.337723104484
0.290352969494
0.235433255978
0.212308757163
0.212285891695
0.25082633438
0.373212002405
0.374194931196
0.65073763355
0.679014539956
0.673408333129
0.662248160254
0.633342543967
0.588240152657
0.52482525942
0.466914638065
0.437661847665
0.431825868841
0.419967901972
0.373119974456
0.312542698106
0.24206953115
0.212310775399
0.212075419776
0.220241296523
0.334623150428
0.419298770763
0.360522745599
0.751895313294
0.728011452515
0.706914412667
0.708187428754
0.713535021266
0.712937917854
0.690460341655
0.641815760032
0.572720631774
0.508774476842
0.442108424141
0.360400609992
0.271954572723
0.21348312021
0.212083132034
0.212250743782
0.256208769979
0.408625102571
0.424315639409
0.33865402989
0.775615106333
0.721573103227
0.708178028158
0.720690702054
0.742944297403
0.753325578658
0.747703025686
0.720270072775
0.653037417048
0.564471328446
0.4671533918
0.360814113545
0.252498952999
0.212143341265
0.212250743782
0.21170493831
0.29846086382
0.425784718948
0.426275238265
0.339071733622
0.775059942386
0.681550656896
0.691091165357
0.717290732919
0.746252200942
0.753593649942
0.753455970931
0.733493849597
0.682762250918
0.602495390857
0.498467238346
0.374557425793
0.256623306066
0.212250743782
0.211549712968
0.212250743782
0.334219841972
0.426731624051
0.425784718948
0.353176856845
0.775675847286
0.64154167372
0.661992256545
0.699183198222
0.737988348324
0.750483773954
0.749605611895
0.731913090086
0.688517247046
0.620545371393
0.523498108131
0.396737717302
0.269526511474
0.212021093888
0.212250743782
0.212122142974
0.366434528122
0.425784718948
0.426344957052
0.373042737751
0.774397072094
0.639594331754
0.644253703409
0.662812319525
0.703374475347
0.725023751057
0.727930051927
0.717207560432
0.683245933632
0.621740924769
0.531629951528
0.409489010383
0.279731556162
0.212250743782
0.211579209893
0.224587267483
0.394236803165
0.426718389414
0.425784718948
0.376045591296
0.759122912603
0.639066845191
0.63145454624
0.615053782906
0.634892207819
0.65898891083
0.671726191085
0.67354173712
0.656408995095
0.609520947075
0.526265093528
0.406986328928
0.278032422259
0.212166787063
0.212250743782
0.256301687772
0.419395363949
0.425784718948
0.420997985916
0.361325094056
0.730569041945
0.617643631763
0.606601141431
0.561602613797
0.546149208706
0.556284327232
0.576745095021
0.594805749944
0.595621684948
0.56863606644
0.498103177701
0.384494049606
0.261623575579
0.212250743782
0.214535223911
0.321368877202
0.430266896066
0.424326830261
0.389493528815
0.317260192638
0.687690289297
0.558054436426
0.557002390462
0.506789634117
0.460157658106
0.445708153488
0.462635117554
0.491505192749
0.508147169478
0.496728274009
0.440919072108
0.338584308047
0.242963192611
0.217717839154
0.263969305473
0.397175048947
0.430458695439
0.404721177877
0.341133050957
0.259623234761
0.218118214109
0.218213813978
0.218005050807
0.218213813978
0.218036661681
0.242178074845
0.322932917317
0.403028775116
0.435723158453
0.543235285414
0.652803853338
0.657400214306
0.653045748327
0.657270086463
0.653045748327
0.653495741243
0.505060237972
0.10306969049
0.000756354647012
2.1773778015e-05
0.218213813978
0.218061863906
0.218213813978
0.217859361572
0.218213813978
0.217725313269
0.243087989147
0.32400970927
0.457534774332
0.652661110354
0.657324260812
0.652843635972
0.657270086463
0.653045748327
0.655582111296
0.652803445077
0.406193056389
0.039657053422
0.000137051369056
2.19364629904e-05
0.218161095362
0.218213813978
0.217935238522
0.218213813978
0.217555611223
0.218213813978
0.217193562307
0.275255388119
0.511642082687
0.656411819065
0.652756122003
0.657192261891
0.652843635972
0.6561082637
0.652803445077
0.65292485387
0.313519588824
0.0145136296509
3.90697517204e-05
2.20991479659e-05
0.218213813978
0.218041779093
0.218213813978
0.217713966609
0.218213813978
0.217026162821
0.218213813978
0.288547046299
0.572598719493
0.652598312732
0.655944166607
0.652756122003
0.656004439889
0.652803445077
0.65454944804
0.652661110354
0.253496515303
0.00740581670437
3.05230531222e-05
2.22628375795e-05
0.218040115517
0.218213813978
0.217849403653
0.218213813978
0.217369731782
0.218213813978
0.216884931956
0.363478311197
0.620078552384
0.654386628399
0.652598312732
0.655094230527
0.652661110354
0.65491626201
0.652661110354
0.650854643306
0.180048650649
0.00309471553912
2.83242482553e-05
2.24264064322e-05
0.218213813978
0.217891998272
0.218213813978
0.217604783022
0.218213813978
0.216884931956
0.256553718556
0.495767584513
0.626146502922
0.652389839168
0.653339676146
0.652598312732
0.654689544863
0.652661110354
0.653760134812
0.524571666544
0.0713464536968
0.000497629210997
2.90503788585e-05
2.25898175719e-05
0.220884879642
0.218213813978
0.217864783246
0.218213813978
0.217303046026
0.22417184375
0.392387577385
0.555953259038
0.604750227701
0.62474340963
0.64264681532
0.653009098859
0.652598312732
0.65438599309
0.652598312732
0.319482150771
0.0182888492118
7.58998640439e-05
3.58423930051e-05
2.27540205146e-05
0.228087747458
0.218142373442
0.218213813978
0.217753087585
0.218213813978
0.306328642957
0.46447146752
0.538420026361
0.554116057228
0.555756665519
0.574250373436
0.618372450176
0.653747859794
0.652598312732
0.630635190267
0.153935471993
0.00322768633574
5.18216867297e-05
4.64842673574e-05
2.29177957111e-05
0.230535775279
0.219604917931
0.218091324019
0.219267048586
0.25348808513
0.357594707236
0.447916025846
0.477812669542
0.473841886735
0.468320555199
0.488878900621
0.585205754788
0.652389839168
0.653257704914
0.449122841585
0.045268570649
0.000285796694198
5.54525955088e-05
5.48952665667e-05
2.30811159989e-05
0.23400299296
0.22587968099
0.224615053748
0.235224117293
0.280690893613
0.346031690215
0.388205322223
0.392094066183
0.387901221895
0.393540532356
0.45762700271
0.589126179211
0.652684212509
0.596161009483
0.170707896863
0.00519094607955
5.36183248119e-05
6.56245408305e-05
6.43657986285e-05
2.32446867305e-05
0.241569143446
0.237943269933
0.239848130223
0.254348397765
0.278709481818
0.307027314529
0.317608927008
0.321674050879
0.331264470801
0.363672094596
0.466386127087
0.585556058903
0.623601884578
0.357897191087
0.0285574348386
0.000179119271998
5.34222155335e-05
8.06996620098e-05
9.34759006829e-05
2.3407669311e-05
0.252205508878
0.251369586477
0.254757651565
0.264037224477
0.270540606755
0.273157146735
0.278187867411
0.289452025961
0.308774334736
0.359108272956
0.476034723121
0.565658186348
0.457764330804
0.0905742799492
0.00157513536633
5.34222155335e-05
5.30801563347e-05
9.53052451304e-05
0.000262692024042
2.35703025111e-05
0.260470839965
0.259578676836
0.261909722629
0.265348626399
0.266159534425
0.26404160986
0.268305033141
0.279407436807
0.298048579745
0.35051033574
0.466861616923
0.52800353428
0.223249737035
0.0100192365113
6.42864658488e-05
5.29348857373e-05
5.32356883329e-05
7.70660986159e-05
0.000977126949303
5.52778916055e-05
0.262439635733
0.262523067961
0.263761763149
0.26515103266
0.265668323167
0.263233685087
0.2655507825
0.273721455527
0.2878901061
0.334302946599
0.448885311522
0.482538362885
0.117695407175
0.00238628533282
5.27230665155e-05
5.32356883329e-05
5.28628177765e-05
5.81552703629e-05
0.00305065104824
0.0006526562823
0.262323055064
0.263485472134
0.264244776857
0.26498891715
0.265462920691
0.262415468004
0.262461476909
0.267017126895
0.276068809673
0.314678333979
0.426926520395
0.458607493226
0.109114531762
0.00220820729565
5.32344929427e-05
5.27381490448e-05
5.30571661334e-05
5.29135728622e-05
0.00772979066467
0.00554311992385
0.260452670331
0.263432813576
0.264269200837
0.264767106438
0.264420509584
0.259695523297
0.25654812998
0.257824029644
0.263484300682
0.296958314939
0.40525819124
0.449213364304
0.11470087291
0.00254865379678
5.26781616864e-05
5.30739367517e-05
5.28169292817e-05
5.31239817392e-05
0.0190022202962
0.0322987008075
0.255088529827
0.26265810821
0.26379300665
0.263498117161
0.260731391738
0.253084028455
0.246727611256
0.246517459669
0.253237139497
0.286465265955
0.385944341715
0.444656793281
0.131769663701
0.00366621587388
5.31107917801e-05
5.27407127578e-05
5.30511594786e-05
5.2922371154e-05
0.0338036619043
0.104021169341
0.247347029694
0.259866749677
0.261115856927
0.259024720296
0.252152983715
0.241517285107
0.23454740265
0.235973516451
0.24938303744
0.282975438844
0.364701354972
0.43188487632
0.159303173105
0.00632967623963
5.38985130492e-05
5.30701833324e-05
5.29257613879e-05
5.31327070362e-05
0.0754599378161
0.125715212071
0.241795612262
0.25424870907
0.254132273351
0.248659243238
0.237367107021
0.226927369586
0.224387364602
0.230761127982
0.251276857805
0.282824701804
0.336137225718
0.395431601824
0.196386016798
0.0134686379827
0.00013245555932
5.29067923652e-05
5.31369947212e-05
0.000256524664723
0.164974275425
0.14237357415
0.239523954068
0.245518154686
0.241911153943
0.231456792216
0.220328220241
0.217231491645
0.21996916282
0.232493831346
0.258699317696
0.28103307924
0.300102907525
0.331118450303
0.240106839519
0.0373990375153
0.000885635323314
0.00011444295476
0.000209643260785
0.0154772145081
0.255263530475
0.0687036020284
0.237316031107
0.234755702647
0.224590174133
0.214661278196
0.213564868422
0.214427459729
0.223647588797
0.245040911512
0.263678453635
0.267935226616
0.267654352494
0.28216376471
0.289830510584
0.126999421663
0.0154482247789
0.00428554939512
0.0259943257005
0.237189992987
0.25665184698
0.0109767344349
0.231657083753
0.220491586681
0.212377983974
0.212345492142
0.212840753771
0.225432637399
0.248862832788
0.25498798069
0.255067513831
0.257782315641
0.286145768465
0.348540184652
0.421471941811
0.39135941919
0.22196575982
0.179304495484
0.353241527059
0.50638674937
0.237777388392
0.00880126249387
0.219976516945
0.212250743782
0.212226350526
0.217352302594
0.2413975009
0.2615559612
0.255214305903
0.255067513831
0.301632910504
0.449362769275
0.587840402416
0.654972116199
0.688010673133
0.707306675713
0.644741952448
0.604218969462
0.619345727819
0.581322219395
0.297382167082
0.00882087773572
0.212636094699
0.212226350526
0.234279978053
0.269331793619
0.277966809782
0.262873973552
0.282161962054
0.459668119574
0.701601997019
0.79584974673
0.819270960564
0.824192603381
0.821932899951
0.814147364414
0.775067961006
0.716399267846
0.655217432707
0.589686966785
0.330578799396
0.00985022083222
0.216525892133
0.258427709519
0.29465751894
0.293007820124
0.278218832502
0.313046746416
0.582291276966
0.801915615862
0.829231313678
0.828009744276
0.829898995331
0.828009744276
0.828585524814
0.812960136449
0.763864957472
0.692077166198
0.628125463815
0.554224328924
0.322655646781
0.00952245379472
0.281547348826
0.313283792017
0.303693333774
0.274363307308
0.312801675295
0.613431543492
0.822335681148
0.829393773564
0.828009744276
0.829876250212
0.828009744276
0.828719445978
0.823030779974
0.78831107074
0.730006285329
0.655635652368
0.591078765248
0.509007200874
0.30047263779
0.00818914053772
0.339828694922
0.316446204291
0.248564797484
0.272548826658
0.558408192148
0.81644787449
0.828829125845
0.828009744276
0.829167918893
0.828009744276
0.828608006527
0.824833330166
0.799850957916
0.754509046902
0.692830071751
0.619292548553
0.547137093271
0.456578495458
0.267156898224
0.00644652655642
0.342781949042
0.26868605375
0.245172749201
0.374411931937
0.752896156691
0.828194353951
0.828009744276
0.828401377978
0.828009744276
0.828383863364
0.824636972675
0.8030974104
0.76807755065
0.722518020558
0.656319878185
0.577585804112
0.495955223219
0.397193035237
0.223829021741
0.00457328213472
0.298249539851
0.209136585082
0.24597034362
0.529368750289
0.760253590016
0.817810934537
0.823465517735
0.824767883163
0.825047434868
0.821984890336
0.80430917028
0.772344932642
0.737474280463
0.688046510098
0.612658457176
0.526875346373
0.436883937863
0.331213797926
0.172071392777
0.00273421604913
0.237741332905
0.182925314544
0.278275747225
0.54288684773
0.716473526326
0.770069910427
0.788407448614
0.797610829032
0.802059587699
0.798719587857
0.77639045804
0.743574851829
0.704963160069
0.645897475834
0.562700307566
0.46879609439
0.371374737353
0.262151962725
0.117514513631
0.00129421116618
0.205484280387
0.168976464577
0.271847490367
0.483133943369
0.612246559705
0.673577254579
0.710648902268
0.742085760887
0.761651137753
0.76443529531
0.74737290185
0.712010272764
0.664141201849
0.594389458551
0.505451282723
0.406723251336
0.304419464523
0.195142270713
0.0674970479578
0.000447717786647
0.196237344451
0.153743131239
0.216929324563
0.363462651248
0.474924679197
0.544613014924
0.599996933829
0.664961895666
0.711084692474
0.722422403878
0.709447886646
0.666748332938
0.607669064598
0.531267988985
0.443395612581
0.347356312257
0.244012892385
0.135297310907
0.0288859509091
0.000150462599878
0.200280713173
0.140870002352
0.150045309977
0.237692590309
0.334553870393
0.408250043813
0.482815880297
0.581646597903
0.650794883172
0.668971035112
0.653431007871
0.599833778039
0.531638295334
0.45943607427
0.388042529882
0.301845338711
0.196345166489
0.0856567558901
0.00740946029013
0.000138527969053
0.220843724885
0.138006184493
0.125267242861
0.157698281242
0.233268220122
0.306051154904
0.397067861728
0.512824270982
0.586097223416
0.604286185123
0.576319380678
0.511748746184
0.443764578425
0.394171633642
0.355830215992
0.274408034718
0.161211437438
0.0496162188128
0.00113081937797
0.000138374024089
0.240376853729
0.142998874408
0.121872422251
0.138945056559
0.207266492754
0.278437996558
0.376225693257
0.477703647818
0.527861320506
0.533615406215
0.486533725521
0.417027858089
0.366531488701
0.352414552965
0.349494971378
0.256824436613
0.13517419577
0.0315508147087
0.000881956176201
0.000138425539502
0.240133792255
0.147163686281
0.121798784406
0.142771589951
0.221588901089
0.296903225698
0.39101969445
0.472872535594
0.495962331672
0.470282277873
0.409802625273
0.345805848478
0.315833308819
0.331217307949
0.349283487499
0.247964960265
0.119562676731
0.0286730733169
0.00134802130294
0.000138270370007
0.221093387751
0.14371535239
0.122443544467
0.177951308742
0.312513049423
0.394596738986
0.450916284181
0.483899945745
0.482908680826
0.439522178242
0.380823187741
0.320524480348
0.2915798367
0.311730786517
0.349067286982
0.253914894524
0.119722937255
0.0335016214
0.00273203473661
0.000138346719722
0.179890622879
0.131556906226
0.128303776992
0.259351220645
)
;

boundaryField
{
    emptyPatch
    {
        type            empty;
    }
    minY
    {
        type            fixedValue;
        value           nonuniform List<scalar> 0();
    }
    maxY
    {
        type            inletOutlet;
        phi             phi.gas;
        inletValue      nonuniform List<scalar> 0();
        value           nonuniform List<scalar> 0();
    }
    maxX
    {
        type            zeroGradient;
    }
    water_to_heater
    {
        type            zeroGradient;
    }
    procBoundary1to0
    {
        type            processor;
        value           nonuniform List<scalar> 
41
(
0.612947446656
0.493499721887
0.503225433437
0.463196761231
0.40776860424
0.393618959836
0.394166641019
0.403920784803
0.419264395757
0.421376640213
0.383398727262
0.314679924565
0.256548938118
0.278138407117
0.376665876934
0.445553231702
0.430588994608
0.385799255439
0.313556836624
0.224270270439
0.457389207506
0.52166994573
0.525751040217
0.5075526222
0.481715636686
0.439890054249
0.386285790652
0.323145936606
0.279064777393
0.281464919315
0.345480995162
0.284893331879
0.14024683559
0.0493149975787
0.00595826259981
0.000138250788258
0.147985695507
0.11971459026
0.131971886321
0.457389207506
0.291405716906
)
;
    }
    procBoundary1to3
    {
        type            processor;
        value           nonuniform List<scalar> 
41
(
0.513469048854
0.455821844659
0.387947690242
0.324054599855
0.272151619554
0.23734355871
0.223547579901
0.221883301357
0.222306824224
0.221909198277
0.220102034735
0.218234558759
0.218138375607
0.745123607995
0.769009482213
0.759150535091
0.752975446999
0.747718139333
0.743138793213
0.730686179996
0.730686179996
0.218213813978
0.218063576196
0.218213813978
0.21828315764
0.245182564635
0.321672312343
0.409968971336
0.447861113107
0.448254172245
0.447975755321
0.559343302692
0.652817639853
0.657347173897
0.653045748327
0.656031874803
0.652803445077
0.548868296262
0.141532490149
0.00123883304448
2.16110930396e-05
)
;
    }
}


// ************************************************************************* //
