/*--------------------------------*- C++ -*----------------------------------*\
| =========                 |                                                 |
| \\      /  F ield         | OpenFOAM: The Open Source CFD Toolbox           |
|  \\    /   O peration     | Version:  2312                                  |
|   \\  /    A nd           | Website:  www.openfoam.com                      |
|    \\/     M anipulation  |                                                 |
\*---------------------------------------------------------------------------*/
FoamFile
{
    version     2.0;
    format      ascii;
    arch        "LSB;label=32;scalar=64";
    class       volVectorField;
    location    "0.94/water";
    object      U.gas;
}
// * * * * * * * * * * * * * * * * * * * * * * * * * * * * * * * * * * * * * //

dimensions      [0 1 -1 0 0 0 0];

internalField   nonuniform List<vector> 
6000
(
(0.0638888970957 0.322880793703 0)
(0.107980481413 0.204807172881 0)
(0.102126064258 0.179485543812 0)
(0.111677941637 0.161522354499 0)
(0.109554263271 0.155688300503 0)
(0.110088517248 0.151515494558 0)
(0.098776102028 0.149178081616 0)
(0.0812300533798 0.154108304346 0)
(0.0788207823254 0.240864545691 0)
(0.0780268167389 0.281345764877 0)
(0.068251044577 0.284238873064 0)
(0.0612769558753 0.285298155098 0)
(0.0543739734161 0.286409435106 0)
(0.0477611273324 0.287505407234 0)
(0.0412829046808 0.288580652837 0)
(0.0348669618051 0.289590688806 0)
(0.0285126387943 0.290471154824 0)
(0.0222945682973 0.291165526688 0)
(0.0163280562451 0.291647333242 0)
(0.0107297143266 0.291924562754 0)
(0.0254928695611 0.665188994173 0)
(0.0704146344259 0.461892103297 0)
(0.0890075886257 0.40411450684 0)
(0.0943941111315 0.369386799954 0)
(0.100760409317 0.354224153547 0)
(0.101565478433 0.345445385147 0)
(0.0996929708623 0.340820543854 0)
(0.0911204302611 0.346466533391 0)
(0.062720689085 0.46137469552 0)
(0.029984628413 0.52213151431 0)
(0.0181870477041 0.522785803841 0)
(0.0156498699155 0.522693512905 0)
(0.013545592918 0.522795673243 0)
(0.0116482678313 0.522988704679 0)
(0.00989137415496 0.523264360734 0)
(0.00824579941442 0.523589869252 0)
(0.00670227285391 0.523911698427 0)
(0.00525553134463 0.524173942759 0)
(0.00389836672107 0.524339624588 0)
(0.00262839312323 0.524401389885 0)
(0.0290080110706 0.759477921108 0)
(0.0665197587359 0.569972608312 0)
(0.0770451811661 0.491404961004 0)
(0.0821082700456 0.451478994206 0)
(0.086429998376 0.429354897654 0)
(0.0881595567992 0.416965100955 0)
(0.0880921691289 0.409969573744 0)
(0.0847447894848 0.408888309438 0)
(0.0710074570836 0.449293418282 0)
(0.036848760012 0.485784919814 0)
(0.0127511643244 0.486367808176 0)
(0.011442995415 0.484541395453 0)
(0.0104779547029 0.482953567882 0)
(0.00947218591912 0.481524233059 0)
(0.00844770700868 0.480225387754 0)
(0.00737552243619 0.479067359308 0)
(0.00624116916874 0.478069538917 0)
(0.0050494833983 0.477244316635 0)
(0.00381749055092 0.4765924586 0)
(0.00258299584068 0.476107994807 0)
(0.0404180606512 0.868470154427 0)
(0.0837820139585 0.672139407602 0)
(0.0871838667658 0.566040520748 0)
(0.0879542038178 0.51299644228 0)
(0.0874525717582 0.483413148971 0)
(0.0854421085849 0.465260121429 0)
(0.0827675085552 0.453732316007 0)
(0.0789873296184 0.447903007036 0)
(0.071763917528 0.463615112287 0)
(0.046934075721 0.487636145304 0)
(0.016872232213 0.494112535326 0)
(0.00678080480768 0.493078143198 0)
(0.00663074204814 0.49205377842 0)
(0.0061520297619 0.491120680052 0)
(0.00559308605624 0.490224278351 0)
(0.00496756930987 0.489356079613 0)
(0.0042600709117 0.488531876456 0)
(0.00346279049993 0.487776782797 0)
(0.00258377866523 0.487116790458 0)
(0.00166343010844 0.486575603997 0)
(0.0475929664023 0.919978491896 0)
(0.0979097871679 0.751432190295 0)
(0.0994971065959 0.627958799527 0)
(0.0975834027087 0.560184973036 0)
(0.0948189836197 0.522523056223 0)
(0.0902445755207 0.499084104063 0)
(0.0847127210762 0.483448431752 0)
(0.0786481019977 0.473508878565 0)
(0.0714331454066 0.475819783693 0)
(0.05770344069 0.486477491792 0)
(0.0261812874927 0.492233164799 0)
(0.00468269332692 0.492354071726 0)
(0.0049122624243 0.491594972085 0)
(0.00451480367105 0.490925320707 0)
(0.00401310308067 0.490260850137 0)
(0.00346546119585 0.489580139255 0)
(0.00287050266933 0.488893147709 0)
(0.00221749150822 0.488225497919 0)
(0.00150588454921 0.487608548768 0)
(0.00077048307248 0.487074825985 0)
(0.0524423375019 0.941448249045 0)
(0.107831966028 0.804624893951 0)
(0.108915202077 0.683595092013 0)
(0.105823606934 0.60188118934 0)
(0.102704438523 0.555402805617 0)
(0.0980100466592 0.52628786517 0)
(0.0914843397144 0.506571528729 0)
(0.0835272438678 0.492998190731 0)
(0.0747351162289 0.48777443548 0)
(0.0640340904718 0.489987973391 0)
(0.0377101200079 0.492717821734 0)
(0.0112589258437 0.493304666466 0)
(0.00476830924272 0.492829618771 0)
(0.00418308902835 0.492344406146 0)
(0.0034494191755 0.491850372042 0)
(0.00272142691436 0.491313319892 0)
(0.00200910474121 0.490734915237 0)
(0.00130225381316 0.490137411926 0)
(0.000595837455373 0.489553786854 0)
(-8.53877840513e-05 0.48902085111 0)
(0.0538306297781 0.945362652238 0)
(0.111062780458 0.836150585952 0)
(0.112971483407 0.729542363463 0)
(0.1097798903 0.642789989494 0)
(0.106574300117 0.5861678482 0)
(0.103019751637 0.550951556606 0)
(0.0976827134894 0.526926872176 0)
(0.0898841357458 0.509758735131 0)
(0.0802717754629 0.499375332071 0)
(0.0693625138597 0.495566066508 0)
(0.0520116176877 0.495138175791 0)
(0.0224425242963 0.494345515795 0)
(0.0046374282866 0.494691058023 0)
(0.00427846066843 0.494156224944 0)
(0.00316157038386 0.493616556351 0)
(0.00213628750206 0.493039786941 0)
(0.00121092689109 0.492421869944 0)
(0.000371814806406 0.491779908744 0)
(-0.000394095022452 0.491144194869 0)
(-0.00107839701577 0.490549173558 0)
(0.0525129885637 0.948076698423 0)
(0.108682084566 0.856664984763 0)
(0.111374838515 0.765378994062 0)
(0.108538969775 0.682686802767 0)
(0.105332412269 0.617467868939 0)
(0.102782054481 0.575170910651 0)
(0.0993607621927 0.546546186367 0)
(0.0933014491557 0.525621235754 0)
(0.0843100256062 0.510957817418 0)
(0.0734341101244 0.502472458537 0)
(0.060125412533 0.498619309467 0)
(0.0304140374328 0.49656095368 0)
(0.00617123556041 0.497807886863 0)
(0.00333811778451 0.496829943718 0)
(0.00195611616263 0.495973051174 0)
(0.000749036271558 0.495141267402 0)
(-0.000278347252191 0.494311297861 0)
(-0.00114899563143 0.493490967476 0)
(-0.00189003211254 0.492702496738 0)
(-0.00250634732651 0.491974371092 0)
(0.0536157917716 0.956214539968 0)
(0.110838164761 0.875457291853 0)
(0.111723757434 0.796556955092 0)
(0.106452385802 0.719928703545 0)
(0.10199329247 0.650901828267 0)
(0.0991989957859 0.599803015901 0)
(0.0970473852909 0.565985743008 0)
(0.0928411026462 0.541003429267 0)
(0.0851555255519 0.522214281945 0)
(0.0748193126976 0.509498114751 0)
(0.0627255466166 0.502214896361 0)
(0.0414912957229 0.49890546258 0)
(0.0133670489423 0.500451521869 0)
(-0.000408003549013 0.499673644585 0)
(-0.00134345554254 0.498380697467 0)
(-0.00233891786608 0.497145177944 0)
(-0.00312696474209 0.495995438372 0)
(-0.00374348225754 0.494924647377 0)
(-0.00422166146395 0.493940796946 0)
(-0.00457478994216 0.493061140706 0)
(0.054715512445 0.971203184383 0)
(0.111048743695 0.895670879758 0)
(0.108578692759 0.824923486107 0)
(0.101305302493 0.753401079058 0)
(0.0959963458197 0.683923347237 0)
(0.0930063519276 0.624853604696 0)
(0.0914269188297 0.584371531428 0)
(0.0887165651976 0.555046772015 0)
(0.0826460428812 0.53216245646 0)
(0.0731510929104 0.515362731309 0)
(0.0618420283288 0.504761450276 0)
(0.0474105889594 0.499239228192 0)
(0.0151183004776 0.499319211911 0)
(-0.00791808527733 0.501953088903 0)
(-0.00731832008611 0.49983615044 0)
(-0.00747364790732 0.498229875272 0)
(-0.0075121943823 0.496825999335 0)
(-0.00746846962547 0.495582158841 0)
(-0.00736475758918 0.494486243109 0)
(-0.00720972867667 0.493538298617 0)
(0.0537588405302 0.993465881648 0)
(0.106109773875 0.915056349064 0)
(0.100611638321 0.846855508298 0)
(0.0936400756804 0.779352987622 0)
(0.0890559074549 0.711402420633 0)
(0.0864433667456 0.648725968618 0)
(0.0850531089461 0.600477117408 0)
(0.083376821347 0.566199402838 0)
(0.0789677380559 0.539442883925 0)
(0.0706842117661 0.518954270217 0)
(0.0600561966478 0.505276899756 0)
(0.04808896689 0.497530459113 0)
(0.0250284045445 0.494999610346 0)
(-0.00392789626793 0.499454590708 0)
(-0.0153578281948 0.498842850739 0)
(-0.013858272119 0.497387563074 0)
(-0.0126833106115 0.496079044515 0)
(-0.0116475483199 0.494955281657 0)
(-0.0107305003212 0.493991180816 0)
(-0.00991056038433 0.493176616764 0)
(0.0504301478721 1.01370504848 0)
(0.0991558283738 0.928597284938 0)
(0.0947805560898 0.859557235317 0)
(0.0900999248907 0.795761270236 0)
(0.0868797738429 0.731634056963 0)
(0.0849674662464 0.669592439406 0)
(0.0837445755773 0.615802069572 0)
(0.0823594010009 0.575303199048 0)
(0.0790692853509 0.544814885234 0)
(0.071990458675 0.521035433225 0)
(0.0616006180934 0.504460987148 0)
(0.0502335702493 0.494733317847 0)
(0.0361329394634 0.490309208332 0)
(0.00184823896247 0.49128096118 0)
(-0.0221287185484 0.495533855132 0)
(-0.019044048273 0.494282633027 0)
(-0.0167463792153 0.493589426327 0)
(-0.0148169934121 0.492988072227 0)
(-0.013194594094 0.492467496286 0)
(-0.0118187347023 0.492027523731 0)
(0.0486575694081 1.02883381952 0)
(0.0969997703655 0.938212038949 0)
(0.0947803590645 0.867215101085 0)
(0.0914207552282 0.8064260236 0)
(0.0892466510348 0.747072590743 0)
(0.0883076438229 0.687969985006 0)
(0.0877196494736 0.632845597497 0)
(0.0866847867247 0.586513584456 0)
(0.084210137842 0.551811873376 0)
(0.0783078423915 0.524684623087 0)
(0.0683732686015 0.50491020109 0)
(0.0566533477407 0.492859202502 0)
(0.0445758931658 0.486802424998 0)
(0.023759471229 0.484824365709 0)
(-0.0066605563919 0.487658737636 0)
(-0.0206957934896 0.489987786084 0)
(-0.0177249537056 0.490226995172 0)
(-0.0155191830327 0.490366884275 0)
(-0.0136822783155 0.490459355865 0)
(-0.0121443340705 0.490523515305 0)
(0.0494305012826 1.03758984112 0)
(0.0996311141409 0.944486918646 0)
(0.0974513570346 0.873770403781 0)
(0.0931214868086 0.815199286155 0)
(0.0915681730029 0.759922388039 0)
(0.0919727097109 0.704453251433 0)
(0.0930258535371 0.650832844498 0)
(0.0932588376106 0.602127096841 0)
(0.0916108218407 0.563048678253 0)
(0.0867141289646 0.53241911407 0)
(0.077621655186 0.508901918574 0)
(0.0658270029347 0.493722302947 0)
(0.0543150636635 0.485727878937 0)
(0.0413598301358 0.482559028729 0)
(0.00848381233133 0.480516334489 0)
(-0.016388655067 0.486562783792 0)
(-0.015070213412 0.48733029421 0)
(-0.0133225247298 0.488126219059 0)
(-0.0118614856154 0.488768200036 0)
(-0.0106416956013 0.48928634228 0)
(0.0489513713222 1.03777199698 0)
(0.0995468965625 0.945162181876 0)
(0.0977895709943 0.878186074923 0)
(0.0932175939974 0.82229794315 0)
(0.0924556246518 0.770326915906 0)
(0.094434712489 0.718342031866 0)
(0.0974291160914 0.667512388296 0)
(0.099237766724 0.619947590119 0)
(0.0985243975641 0.578447661969 0)
(0.0942725144539 0.544532993281 0)
(0.0859177167435 0.517097645789 0)
(0.0747536736858 0.498141766491 0)
(0.0635414346623 0.487586201904 0)
(0.0528531895253 0.483024730638 0)
(0.0330851610633 0.480724873372 0)
(0.00421069745055 0.48312257622 0)
(-0.00970935422287 0.485822397721 0)
(-0.0087485949292 0.487042382061 0)
(-0.00813856876076 0.488037168947 0)
(-0.00764070887907 0.488839454273 0)
(0.0472513491605 1.03491426368 0)
(0.0968543132415 0.942568616953 0)
(0.0960006458361 0.879976723215 0)
(0.0921708635596 0.827391578735 0)
(0.0926262360693 0.7784979119 0)
(0.0961594651431 0.729957279421 0)
(0.10101765108 0.682711969105 0)
(0.104525675364 0.638140033988 0)
(0.104591864315 0.597091063183 0)
(0.100253982581 0.560649660633 0)
(0.0919961368052 0.529523263737 0)
(0.0815915423438 0.50661372523 0)
(0.0711618436805 0.492904951811 0)
(0.0619136824951 0.486560119029 0)
(0.049962069343 0.484253209971 0)
(0.01967973262 0.4789319579 0)
(-0.00263545279228 0.486203428158 0)
(-0.00269146326998 0.487576874208 0)
(-0.00331588236082 0.488665895609 0)
(-0.00384921299229 0.4895140241 0)
(0.0445098966117 1.03638436436 0)
(0.0920116675268 0.941591783407 0)
(0.0923479592225 0.88148249047 0)
(0.0900370523045 0.83182959956 0)
(0.0924478345382 0.786082573732 0)
(0.0979096661343 0.74125642032 0)
(0.104493352431 0.698251692921 0)
(0.109114371674 0.657724465817 0)
(0.109288383334 0.618798203971 0)
(0.104345608123 0.580954717044 0)
(0.0957132230717 0.546415872295 0)
(0.0857737391223 0.519633224512 0)
(0.0762477615064 0.502272479018 0)
(0.0680988740931 0.493313469304 0)
(0.0590828928888 0.489680858085 0)
(0.033510463403 0.481049864744 0)
(0.00893372710566 0.48883767439 0)
(0.00340429230718 0.490071325057 0)
(0.00135173509227 0.490881769002 0)
(-0.000345402446755 0.491453470914 0)
(0.0405124194626 1.05293989493 0)
(0.0843172856975 0.9485542751 0)
(0.0860070151192 0.886229555603 0)
(0.0861036410711 0.837828678856 0)
(0.091078090024 0.795218447239 0)
(0.0986659375564 0.754439840191 0)
(0.106597849609 0.715998913255 0)
(0.111469522186 0.679756664182 0)
(0.11106900311 0.6433401218 0)
(0.105396957195 0.605082793235 0)
(0.0963551407654 0.567385690842 0)
(0.0866208633531 0.536872544443 0)
(0.0777643198463 0.515489653846 0)
(0.070009783269 0.503067275459 0)
(0.061717709181 0.497251004112 0)
(0.0428748911458 0.490928319932 0)
(0.0187584166524 0.493716083188 0)
(0.00713477164195 0.49449512398 0)
(0.00403402645769 0.494564620999 0)
(0.00143406913193 0.494489355135 0)
(0.039770764448 1.08327553932 0)
(0.0841684080741 0.964531853745 0)
(0.0863655977364 0.89717931775 0)
(0.0856930728147 0.848023154183 0)
(0.0909531864958 0.807712982788 0)
(0.0988922058223 0.770619984364 0)
(0.106556377484 0.736313278069 0)
(0.110517280199 0.703700856569 0)
(0.109296965308 0.669516664876 0)
(0.103056104015 0.631453368758 0)
(0.0936232217491 0.591050479906 0)
(0.0838762031517 0.556681293759 0)
(0.0753281062443 0.531166931198 0)
(0.0675724047687 0.514598071185 0)
(0.0590292993573 0.50562265738 0)
(0.0446858860542 0.500477503342 0)
(0.0214748156878 0.499380150128 0)
(0.00620292199621 0.500051474302 0)
(0.00298071139752 0.49900016424 0)
(0.000171054549375 0.497996649254 0)
(0.0410526068664 1.11494903732 0)
(0.0879992938887 0.9853918567 0)
(0.0906592549462 0.914786498574 0)
(0.0882782750487 0.864435788256 0)
(0.0918715777085 0.825019350439 0)
(0.098337199116 0.79018646688 0)
(0.104634454354 0.758597323027 0)
(0.107492326866 0.728322525876 0)
(0.10544870633 0.695581085337 0)
(0.0985954480707 0.657730808723 0)
(0.0887110477458 0.615375766802 0)
(0.0785690164809 0.576628531504 0)
(0.0697171566115 0.546986708055 0)
(0.0613977366477 0.525887249454 0)
(0.052016965561 0.512745689954 0)
(0.039248966763 0.505769933996 0)
(0.0161217914532 0.501849089793 0)
(-0.000414020850883 0.505142304351 0)
(-0.00263317474395 0.502958754796 0)
(-0.00474993158366 0.500969842536 0)
(0.0435057901139 1.14060854349 0)
(0.0939124687972 1.00926045095 0)
(0.0968937963302 0.939186165184 0)
(0.0926146065428 0.889085376211 0)
(0.0938686159055 0.849296127611 0)
(0.0981743897385 0.814220704159 0)
(0.102420969667 0.782729398305 0)
(0.103274515343 0.752408067579 0)
(0.0996341353123 0.719089684646 0)
(0.0922184791098 0.680291355486 0)
(0.082549344985 0.636889789361 0)
(0.0724046267306 0.59461277328 0)
(0.0628648972993 0.560041456435 0)
(0.0531713060323 0.534229354758 0)
(0.0423131699901 0.516370295261 0)
(0.0294695808331 0.506258973346 0)
(0.00598412915459 0.501016129338 0)
(-0.0112859400951 0.508461504782 0)
(-0.0124822893423 0.505014951418 0)
(-0.013022709309 0.502266379578 0)
(0.04647319006 1.16238963513 0)
(0.0991776548055 1.03809411459 0)
(0.100821757705 0.972276306822 0)
(0.0942819957272 0.924212319209 0)
(0.0922969257279 0.881980547865 0)
(0.0932040320934 0.842621354895 0)
(0.0940625562387 0.80727440918 0)
(0.0923057402613 0.773390355939 0)
(0.0879043633406 0.736494457914 0)
(0.0820204281615 0.694829794135 0)
(0.0751201680833 0.650802573874 0)
(0.0667675212438 0.608050683863 0)
(0.0570674932818 0.569263379118 0)
(0.0460064612911 0.537303987269 0)
(0.0332849241323 0.515152009628 0)
(0.019580343557 0.50194029343 0)
(0.00213736923647 0.496660026159 0)
(-0.0172746309508 0.505063871521 0)
(-0.0251868375568 0.503775916017 0)
(-0.0233827268012 0.50094872928 0)
(0.0483061653608 1.18538097346 0)
(0.098343563818 1.07213167921 0)
(0.0938240039895 1.01165803007 0)
(0.0832511990916 0.966099098292 0)
(0.0771065821826 0.918420350442 0)
(0.0748638864212 0.870358715192 0)
(0.073765673926 0.827423195568 0)
(0.0720454163965 0.787045262042 0)
(0.0702170970941 0.744406720325 0)
(0.0686378221863 0.698933584153 0)
(0.0660093625549 0.654381807853 0)
(0.0607226864998 0.613305043696 0)
(0.0527546861776 0.574618637956 0)
(0.0425974049841 0.537098856202 0)
(0.0295272813716 0.51001521219 0)
(0.0151798911892 0.494267150997 0)
(0.00107682212145 0.487920566446 0)
(-0.0238825043489 0.49195505856 0)
(-0.0386374252209 0.499398613386 0)
(-0.0337864664451 0.496749579561 0)
(0.0509103566346 1.20485675159 0)
(0.096572340119 1.10563314245 0)
(0.0816016575697 1.05095417469 0)
(0.0653129236752 1.00686478491 0)
(0.0557080872087 0.951392057767 0)
(0.0520585939394 0.891859584583 0)
(0.0516630376693 0.839101202882 0)
(0.0526471937327 0.790943968241 0)
(0.0546541582239 0.74230275335 0)
(0.0569359895277 0.693652519342 0)
(0.0579863256387 0.649421482825 0)
(0.0562412156514 0.610621702947 0)
(0.0512456282232 0.575008536903 0)
(0.0431850355776 0.537091803467 0)
(0.0316817364761 0.503832765544 0)
(0.0177217531498 0.485680126408 0)
(0.00433185112239 0.478321739871 0)
(-0.0137404798301 0.478123593208 0)
(-0.0354475722949 0.490648792248 0)
(-0.0423561161684 0.490153147053 0)
(0.0487052917181 1.22005504952 0)
(0.0875335092459 1.13318802648 0)
(0.0687572199197 1.08382286904 0)
(0.0537118720528 1.04073460521 0)
(0.0443088111177 0.978348700949 0)
(0.0405841878688 0.907393400972 0)
(0.0412187389011 0.844138898991 0)
(0.0442778119723 0.78816238258 0)
(0.0486419309107 0.734596421041 0)
(0.0534008848168 0.684184993535 0)
(0.0569059114966 0.64139234188 0)
(0.0572266950063 0.604733561562 0)
(0.0535078182102 0.572168286128 0)
(0.0466028421523 0.537435881428 0)
(0.0375293640692 0.500044721406 0)
(0.025750697453 0.479046224786 0)
(0.0137263250271 0.470439530398 0)
(0.00214227068951 0.469118923274 0)
(-0.0279797627025 0.474241134819 0)
(-0.0477691016074 0.482596673919 0)
(0.0446874575569 1.2376908262 0)
(0.0810951521291 1.15442507975 0)
(0.0669621544531 1.10673099571 0)
(0.0564899741356 1.06678343127 0)
(0.0486808990551 1.00222618251 0)
(0.0448389382259 0.922115419786 0)
(0.0454089877423 0.848902943227 0)
(0.0488789209939 0.785624111633 0)
(0.0540118643374 0.728298490355 0)
(0.0597523967732 0.677657158549 0)
(0.0637257476436 0.636689491847 0)
(0.06385247355 0.600848026817 0)
(0.0599923510452 0.570048507624 0)
(0.0533701767034 0.538486514532 0)
(0.0455394226468 0.500819979888 0)
(0.0359694626636 0.47665821404 0)
(0.0253808703546 0.465886089547 0)
(0.0156567111607 0.463497878383 0)
(-0.0100880249667 0.462733843905 0)
(-0.0375768848297 0.475779717032 0)
(0.0445042344414 1.25522848154 0)
(0.0835467968902 1.17048682034 0)
(0.0735518922163 1.12223702077 0)
(0.0652768309872 1.08742400563 0)
(0.0588816274077 1.02524261973 0)
(0.0557887116723 0.938990750608 0)
(0.0567159653439 0.857386340198 0)
(0.0604593889637 0.787732028367 0)
(0.0658916636888 0.727499314886 0)
(0.0713906938894 0.677917761929 0)
(0.0745552412198 0.638548821797 0)
(0.0739474709107 0.602542269411 0)
(0.06962752309 0.571384676659 0)
(0.0627865028519 0.541916610817 0)
(0.0550128231894 0.506334949684 0)
(0.0464191231775 0.479349101547 0)
(0.0367748478674 0.465363609501 0)
(0.0276683491709 0.461316107182 0)
(0.013352475382 0.46118475467 0)
(-0.0187386377098 0.468741426305 0)
(0.0443676356833 1.27181666976 0)
(0.0839948299161 1.18313155628 0)
(0.0753277848638 1.13272973862 0)
(0.0686841397419 1.1016254673 0)
(0.0646365073014 1.04314591015 0)
(0.0639310563883 0.95424580828 0)
(0.0666053676857 0.867308079837 0)
(0.071609843353 0.793245783265 0)
(0.077792074533 0.731621445233 0)
(0.0830555917103 0.684272300434 0)
(0.0857250285237 0.646289147481 0)
(0.0852138683044 0.610381699028 0)
(0.0810767260696 0.577849607462 0)
(0.0740996286658 0.54886686121 0)
(0.0656285753335 0.516175994046 0)
(0.0564472320009 0.486732902823 0)
(0.0468867655802 0.468638461944 0)
(0.0381835524825 0.461928860675 0)
(0.0282682449429 0.46095393523 0)
(-0.00575993455985 0.457973472967 0)
(0.0446758810562 1.28240810098 0)
(0.0857715476443 1.18960535393 0)
(0.0779840135232 1.13801185017 0)
(0.0713428162909 1.10824600664 0)
(0.0684389838685 1.05208364108 0)
(0.069588985343 0.963380629593 0)
(0.0741669133797 0.874847355006 0)
(0.0810281357091 0.799308870601 0)
(0.0883290571376 0.738750104746 0)
(0.0935801694344 0.694482116222 0)
(0.0963518774731 0.657897030876 0)
(0.0965055332034 0.62278719381 0)
(0.0931471176006 0.589335416938 0)
(0.0864709479462 0.559916310962 0)
(0.0768276062269 0.530207218772 0)
(0.0658370625879 0.497893261399 0)
(0.0554761436941 0.474946865011 0)
(0.0468460971747 0.464632606154 0)
(0.0384395444481 0.462015149035 0)
(0.00684987655211 0.449147194093 0)
(0.0447028979121 1.28551060051 0)
(0.0867877032243 1.18917439154 0)
(0.0795845078769 1.13946481967 0)
(0.0728052091464 1.10898656858 0)
(0.0710422556692 1.0525809365 0)
(0.0741663610879 0.965813623168 0)
(0.0810062971148 0.878924374115 0)
(0.0899773978391 0.805002891711 0)
(0.0981154634683 0.747980939719 0)
(0.10317278883 0.706880195341 0)
(0.106111914307 0.671695779543 0)
(0.107048887738 0.637668198715 0)
(0.104776284456 0.604189947492 0)
(0.0988378526311 0.574788899744 0)
(0.0879701997596 0.548115986224 0)
(0.0742920633621 0.512457640002 0)
(0.0624859231691 0.483450357433 0)
(0.053418843139 0.468759548751 0)
(0.0450960715045 0.464131355953 0)
(0.02116082077 0.451554140592 0)
(0.0437539108625 1.28832157509 0)
(0.0852763346673 1.18641779738 0)
(0.0786353447081 1.13820121765 0)
(0.0729635085751 1.10471721263 0)
(0.0733430129244 1.04659867689 0)
(0.0789186913561 0.963228771153 0)
(0.0881445789517 0.880498820057 0)
(0.0986689357966 0.810758351706 0)
(0.106879955087 0.758939406956 0)
(0.111534090448 0.720638728868 0)
(0.114637349509 0.68682298287 0)
(0.11622945115 0.653735783208 0)
(0.115096871817 0.620882338067 0)
(0.109926799915 0.592331628072 0)
(0.0975270481366 0.568393605036 0)
(0.0811883135744 0.530496606522 0)
(0.0682255024547 0.493832091071 0)
(0.0588594797228 0.474091298992 0)
(0.0503214276108 0.467126219014 0)
(0.0346048824087 0.460209068806 0)
(0.0422509448713 1.29552470896 0)
(0.0827239121369 1.18516660734 0)
(0.0773027985478 1.13517582372 0)
(0.0736425827295 1.09694021983 0)
(0.0763761634695 1.03722895861 0)
(0.0841042477959 0.958227611865 0)
(0.095158333531 0.881259631861 0)
(0.106258327276 0.817459737635 0)
(0.113828751551 0.771368869288 0)
(0.118224456346 0.735541656781 0)
(0.121558381108 0.702968357243 0)
(0.123508682644 0.670628831566 0)
(0.12318447911 0.638678808567 0)
(0.117881985447 0.611578557037 0)
(0.103615906987 0.589375565458 0)
(0.0855807494421 0.550914361681 0)
(0.0723407812943 0.506172533396 0)
(0.0632269435204 0.480942892793 0)
(0.054896286928 0.471175507247 0)
(0.0437564492045 0.467216733128 0)
(0.0391591168374 1.3150380831 0)
(0.0770141305155 1.18831840543 0)
(0.0733744900865 1.13023846852 0)
(0.0725048961163 1.08577609492 0)
(0.078008546667 1.02559328242 0)
(0.0880853123395 0.952117951233 0)
(0.100742941281 0.882189738667 0)
(0.111856279171 0.825712519995 0)
(0.118658810219 0.784905877043 0)
(0.122912630127 0.751345042338 0)
(0.126403093903 0.719864644585 0)
(0.128475072282 0.688200503411 0)
(0.128406579856 0.65737953213 0)
(0.121954241223 0.632233583589 0)
(0.105510670788 0.610170986407 0)
(0.0871276518955 0.572234380636 0)
(0.0746496685827 0.520883787165 0)
(0.0662190914115 0.489911908602 0)
(0.0587158667891 0.476778399515 0)
(0.0492400463962 0.472837182429 0)
(0.0391163355835 1.34246680459 0)
(0.0782452851305 1.1947415661 0)
(0.0753572381047 1.12494765915 0)
(0.0742923060244 1.07284610832 0)
(0.0808613013515 1.01308324641 0)
(0.0923888178911 0.946224736205 0)
(0.105759210223 0.884301687668 0)
(0.116169313437 0.835917503863 0)
(0.122195105568 0.799417369121 0)
(0.126399450462 0.767828094057 0)
(0.129776906136 0.73725774912 0)
(0.131612321612 0.706112369101 0)
(0.130916235444 0.676761352291 0)
(0.121784781165 0.653785296584 0)
(0.104052379334 0.63049939162 0)
(0.0872109046437 0.59364083639 0)
(0.0755548748011 0.538148801273 0)
(0.0677545800337 0.501416902198 0)
(0.0609765918157 0.48423063277 0)
(0.0519198344489 0.478805057882 0)
(0.0392099688396 1.36746010559 0)
(0.0796900721976 1.20147196138 0)
(0.0779287147334 1.12091010165 0)
(0.0770853696058 1.06139122293 0)
(0.0845363149096 1.0027209947 0)
(0.0970844240632 0.942923205021 0)
(0.110249210507 0.8893691261 0)
(0.119363452453 0.848445768925 0)
(0.124964634394 0.815273215736 0)
(0.129100266562 0.785108266206 0)
(0.13194362957 0.754910855025 0)
(0.133167046294 0.723947518044 0)
(0.130260821879 0.696218789195 0)
(0.11807894319 0.675068779664 0)
(0.100874635657 0.650209601484 0)
(0.0862050606011 0.61453134778 0)
(0.0753913388256 0.557684579657 0)
(0.0682649404375 0.515486629642 0)
(0.0616955807289 0.493337509616 0)
(0.0522958163228 0.485262082489 0)
(0.0391410417588 1.3897272313 0)
(0.0811970411086 1.20752621248 0)
(0.081533388995 1.11780242108 0)
(0.0816363291295 1.05338159393 0)
(0.0898914511058 0.997232450569 0)
(0.102588875374 0.944532444821 0)
(0.11449416903 0.899072202691 0)
(0.122163483789 0.863713552798 0)
(0.127247427224 0.832903925264 0)
(0.130805621486 0.80326021405 0)
(0.132586089249 0.772544809411 0)
(0.132595342809 0.741381101382 0)
(0.126579711804 0.714895798476 0)
(0.111890954225 0.694062345153 0)
(0.0965724370403 0.6684679909 0)
(0.0847609234329 0.634548390753 0)
(0.0752110014227 0.579575495549 0)
(0.0680466633913 0.531677370813 0)
(0.0608168678519 0.503469927434 0)
(0.0505659963659 0.491710444462 0)
(0.0379831014501 1.41222973175 0)
(0.0808525510097 1.21293982269 0)
(0.0843700152475 1.11660671741 0)
(0.0864575263284 1.05119152274 0)
(0.0957062013224 0.999358124731 0)
(0.107698082637 0.953319794697 0)
(0.117826031333 0.914667128927 0)
(0.124439934652 0.88268127174 0)
(0.128889525929 0.852807231256 0)
(0.131152154683 0.822205262583 0)
(0.131189801753 0.789714198183 0)
(0.128538219717 0.75749778387 0)
(0.11859832724 0.730992384679 0)
(0.103949375756 0.708872597251 0)
(0.0925841793507 0.684074381908 0)
(0.0839887466383 0.653465547634 0)
(0.0754153442731 0.603830196391 0)
(0.0667915699404 0.548986487403 0)
(0.0580904621894 0.513889227421 0)
(0.0469678590358 0.49756600309 0)
(0.0353964496115 1.44217706303 0)
(0.0778302784947 1.21999241875 0)
(0.0847183140812 1.11961165123 0)
(0.0887639848699 1.05684381701 0)
(0.0988497245733 1.01097282231 0)
(0.110106472284 0.970977555514 0)
(0.118921821806 0.93698275505 0)
(0.124687563963 0.90636099971 0)
(0.127732850651 0.875491633344 0)
(0.127559942635 0.841781878348 0)
(0.12476787902 0.805632757279 0)
(0.117966376501 0.770740143599 0)
(0.106205755938 0.742512944404 0)
(0.0955714559575 0.719009944586 0)
(0.0893960879474 0.696326995722 0)
(0.0838181536397 0.67115389714 0)
(0.0748021903319 0.629213955729 0)
(0.0636849588718 0.567623306117 0)
(0.0535421089306 0.524215428348 0)
(0.0419821714526 0.502562649654 0)
(0.036928234148 1.47080531294 0)
(0.0837987435699 1.23216343923 0)
(0.0917843799059 1.13255635076 0)
(0.0930963520659 1.0745198789 0)
(0.101391016305 1.03483834566 0)
(0.111014079365 0.999410603697 0)
(0.118517478307 0.967047004716 0)
(0.122265240559 0.934870517204 0)
(0.12125559928 0.899637408682 0)
(0.116024905552 0.859496868812 0)
(0.108969531785 0.81822545493 0)
(0.100820467167 0.780750770779 0)
(0.092933414344 0.750248158821 0)
(0.0881256691479 0.7253719332 0)
(0.0857192436518 0.705172370526 0)
(0.0812880039407 0.686836910392 0)
(0.0714282419172 0.652826282708 0)
(0.0591730358092 0.588654652799 0)
(0.0480971083572 0.534093908183 0)
(0.0361255397062 0.506557528335 0)
(0.0406839791496 1.48639247841 0)
(0.0933243258355 1.25329055732 0)
(0.101020763194 1.16107613631 0)
(0.0982596785435 1.1101512287 0)
(0.10337413649 1.07560078862 0)
(0.110084788945 1.0409426616 0)
(0.113333092156 1.00466989155 0)
(0.110007726429 0.965584397934 0)
(0.101760589416 0.921615103255 0)
(0.0937455377306 0.872803488012 0)
(0.0885156377072 0.827669635661 0)
(0.0847960122924 0.789466633969 0)
(0.0818352179467 0.756809629717 0)
(0.0799154023578 0.729382170009 0)
(0.0782462400123 0.710205671081 0)
(0.0736004248532 0.698696226621 0)
(0.0647500927023 0.671304351382 0)
(0.0536264956297 0.610354040983 0)
(0.0421711254304 0.542432356882 0)
(0.029740131463 0.509140292812 0)
(0.0449731030124 1.50006286054 0)
(0.101374813582 1.28601361065 0)
(0.106817817747 1.20652149347 0)
(0.0996566843132 1.16737444482 0)
(0.0984226003621 1.13704654734 0)
(0.0968545794644 1.09670787737 0)
(0.0910740062427 1.04815855133 0)
(0.0817537707327 0.995667499774 0)
(0.0736380773606 0.939339720753 0)
(0.0698864829127 0.881440994521 0)
(0.0694459454421 0.835136149985 0)
(0.0697835125922 0.796880282458 0)
(0.0692134895059 0.761733945191 0)
(0.0676956212308 0.73088603665 0)
(0.0657716193093 0.710470328284 0)
(0.0621430378685 0.704822690509 0)
(0.0560838822524 0.682490531727 0)
(0.0472288828608 0.62840105459 0)
(0.0366852091466 0.549624451118 0)
(0.024394464947 0.510183801434 0)
(0.0479958798492 1.51013944605 0)
(0.10342408662 1.32052465765 0)
(0.103438535844 1.2591664043 0)
(0.0905053444597 1.23968495557 0)
(0.0793462009507 1.21611540361 0)
(0.0678626298174 1.16443839508 0)
(0.0568826277006 1.09402657496 0)
(0.0488148480748 1.02110358613 0)
(0.045409378674 0.949559666166 0)
(0.0461236990614 0.882601625411 0)
(0.0489614261457 0.836815580189 0)
(0.0516116020684 0.79856194704 0)
(0.0527085154317 0.761547161398 0)
(0.0523920253286 0.728321129125 0)
(0.0516427808229 0.705575443194 0)
(0.0505139844862 0.703882398162 0)
(0.0475419207705 0.686386433351 0)
(0.0418071950523 0.639624597136 0)