/*--------------------------------*- C++ -*----------------------------------*\
| =========                 |                                                 |
| \\      /  F ield         | OpenFOAM: The Open Source CFD Toolbox           |
|  \\    /   O peration     | Version:  2312                                  |
|   \\  /    A nd           | Website:  www.openfoam.com                      |
|    \\/     M anipulation  |                                                 |
\*---------------------------------------------------------------------------*/
FoamFile
{
    version     2.0;
    format      ascii;
    arch        "LSB;label=32;scalar=64";
    class       volScalarField;
    location    "0.705/water";
    object      km;
}
// * * * * * * * * * * * * * * * * * * * * * * * * * * * * * * * * * * * * * //

dimensions      [0 2 -2 0 0 0 0];

internalField   nonuniform List<scalar> 
1496
(
2.7970867321
1.2363144481
0.643477891735
0.35641185054
0.217156196537
0.142567662736
0.0960450175205
0.064879011266
0.0442416988904
0.0314553090188
0.0242994534688
0.0205341139121
0.0181597635031
0.0160885776226
0.0140255812777
0.0120105450579
0.0101276692574
0.00829537041042
0.00672952679032
0.00559078533669
3.00235004774
1.27539168294
0.630889540522
0.331452662904
0.195020085041
0.126683806118
0.0859655370942
0.0592900872432
0.0419109161154
0.0313816880434
0.025562186586
0.0222137875187
0.0196752593847
0.0173233570392
0.0149890883421
0.0127645482885
0.0106023519147
0.00858171911748
0.0071055346186
0.00601877628387
3.03616850862
1.30171053142
0.630426672165
0.320689311931
0.181214866464
0.11480958845
0.0779420125749
0.054962839843
0.0405431154289
0.0321052054469
0.0273128954021
0.0240588812835
0.021276635012
0.0185769791486
0.0158984578689
0.013297434651
0.0107144441982
0.00870437168784
0.00733800401046
0.00631506793418
2.84506146256
1.27992291074
0.625733097575
0.318703981999
0.176098030197
0.108886727165
0.0736728551103
0.0531162325271
0.040907134684
0.0339141783741
0.0295378399352
0.0261102605495
0.022964975131
0.01979748201
0.0165740385145
0.0133282336532
0.0105018327194
0.00867165562201
0.0073941404125
0.00643954959667
2.60735471206
1.24129098739
0.624145274733
0.323981211478
0.178467113394
0.109119387222
0.0738421365214
0.0543194795447
0.0432057441916
0.0367500446876
0.0322140556794
0.0283777004238
0.02462761251
0.0206834415793
0.0165345162117
0.0127699834691
0.0101298247677
0.00846404672184
0.00726326304214
0.00637070964345
2.55336995411
1.27687501129
0.657386478043
0.343336789666
0.190402481733
0.116324481845
0.0788807185153
0.0588256305805
0.0475789988628
0.0406372681631
0.0353587388591
0.0305115635717
0.025544339226
0.0203506331932
0.0155793208062
0.0119901215932
0.00963415817914
0.00810303077234
0.0069885274594
0.00624959381301
2.84882252053
1.45413047311
0.746964791572
0.386834104582
0.212110316062
0.128378213475
0.087165959089
0.0657428585332
0.0534839072133
0.0450235852474
0.0378168556871
0.0309159036367
0.0244736105184
0.0188265122345
0.0143561873648
0.0112127351228
0.00913644495599
0.00774953524123
0.00672570377227
0.00616294917424
3.50706477236
1.75685454708
0.859124029702
0.427915470413
0.227743407641
0.136418226494
0.0937177994592
0.0717694164609
0.0584255225927
0.047923569926
0.0381333166917
0.0294793264838
0.0225409226097
0.0171898514342
0.0132677088677
0.0105960818507
0.00881376810526
0.00757340227953
0.00660557605383
0.00607573133787
4.25500013386
1.84017023347
0.84995838463
0.418867544759
0.223284781868
0.135496634801
0.0961422549555
0.0755674085392
0.0619383566714
0.0498051745617
0.037640318514
0.0278665678208
0.0208399217326
0.0159035554572
0.0125265201081
0.0102964878968
0.00878350703675
0.00764474409671
0.00665627085283
0.00598936584069
4.44959230656
1.83835645812
0.814169501182
0.39028609141
0.209524456441
0.132831528808
0.0986176994025
0.0800999857219
0.0665347326043
0.0527876856744
0.0374022992149
0.0266742642003
0.0197197741596
0.0152042412868
0.0122888485135
0.010395652698
0.00906820441135
0.00796135718972
0.00687369609989
0.00595171309458
4.43899388268
1.84094271284
0.795339133807
0.37388096817
0.203023287718
0.133097657349
0.102454560304
0.0853855118705
0.071734543789
0.0566097448821
0.0377187647643
0.0262587104801
0.0194407347078
0.0152398568893
0.0126067651496
0.0108918230273
0.00963069500374
0.00847737928278
0.00723153966006
0.00601390883112
4.47266393255
1.85997660059
0.794957735932
0.369992858867
0.201609813348
0.134387550647
0.105273254715
0.0884597672994
0.0741091090547
0.0576556731063
0.0381066978163
0.0266831075159
0.0199946450832
0.015928551755
0.013389539422
0.0117114611727
0.0104112172065
0.00912748896155
0.00768004163365
0.00618058329214
4.56477612525
1.8968984131
0.805975345388
0.373875532186
0.203803316553
0.136196531092
0.10645670212
0.08838092927
0.0722276899997
0.0544550718074
0.0376929262142
0.0272585282357
0.020879189063
0.0169295275369
0.0144312322218
0.0127309399161
0.0113281960469
0.00984342230278
0.00815433518721
0.00640076156057
4.71901294761
1.95671279126
0.835290968794
0.391615178311
0.214797223685
0.142280811239
0.108875920727
0.0873029322556
0.0680594321617
0.0508056445478
0.0370988794521
0.0278782971043
0.021913519025
0.0181050018608
0.0156367730296
0.0138731275669
0.0122946300963
0.0105430052057
0.00857956185302
0.00662138517263
4.88171750275
2.03367961896
0.885167678401
0.43135270703
0.242326184151
0.158478339458
0.116379747377
0.0884763512469
0.0667338498433
0.0501315363664
0.0377348284417
0.0290702734243
0.0232797798846
0.0195025189307
0.016983418484
0.0150636400651
0.0132020206725
0.0111159145859
0.00888302897214
0.00681447018161
5.00735441692
2.08746367662
0.943017061986
0.483083414751
0.279655509887
0.181624313946
0.128568161072
0.0942767102543
0.070206207051
0.052662133828
0.0399338124449
0.0310341166507
0.0250616338659
0.0211258827835
0.0183965329523
0.016158192571
0.0138814889532
0.0114430854824
0.00906327964944
0.00712143822249
5.09020747535
2.09186906157
0.968618210754
0.515232505664
0.307284075356
0.201209413202
0.140948390294
0.102095745299
0.0751165207377
0.0559809248707
0.0424450460972
0.0331234889805
0.0268957630839
0.0227037028991
0.0196065836445
0.0168624182261
0.0141330795031
0.0115137305952
0.00934611205553
0.007981504158
5.19850016965
2.04012306719
0.958999991345
0.522288022745
0.320738482331
0.211696780903
0.146418012661
0.104498890317
0.0763331830927
0.0568860273218
0.0434264050099
0.034276968914
0.0280981553835
0.0236937144794
0.0201094815899
0.0168732587433
0.0139644772987
0.0116094638047
0.010102924779
0.00941271370003
5.32684779113
2.00025494654
0.943878847463
0.517439824884
0.310160014172
0.199917945119
0.136554541856
0.0973876569906
0.0716715721358
0.0541641784625
0.0421672692058
0.0339683673879
0.0281433134162
0.0235487383604
0.0196328901951
0.0162623522156
0.0135151398059
0.0113679083264
0.0099073218469
0.00931059214099
5.24894689048
1.87945280117
0.8729388136
0.454254706332
0.262933202251
0.168006085648
0.115984403292
0.0844041189545
0.0636018283158
0.0493426437125
0.0394600773503
0.0324016739137
0.0268700337554
0.0221318514903
0.0179235229595
0.0141628382385
0.011365606202
0.0098669838942
0.00926600976334
0.00931083880762
4.81313365371
1.69598234679
0.734358398834
0.362625159136
0.207189962413
0.135227500751
0.0965110163938
0.0723637848653
0.0559049620232
0.0444264408782
0.03618896061
0.0295153682068
0.0233297514554
0.0176692474348
0.0135213941881
0.0111314765375
0.0101829511406
0.0100928126811
0.00977517716742
0.00940677729572
3.78947203597
1.31827991064
0.556238859481
0.27750054053
0.166618068904
0.114664471488
0.0844056078573
0.0639622832036
0.0497242591545
0.0396271932016
0.0306901097494
0.0222027185316
0.0161490153749
0.0127578019447
0.0114459307105
0.0110392864258
0.0106732028056
0.0103982123324
0.00988700036782
0.00918412547807
2.44273070054
0.885023811915
0.399186506894
0.223885311622
0.148521571687
0.106550820055
0.0778294747239
0.0576775556254
0.0437925769249
0.0308036364694
0.0203938345336
0.0148741662115
0.0127533796547
0.0118116125735
0.0113856893908
0.011161983393
0.0109027183272
0.0104798272479
0.00981462887823
0.00883475896235
1.45927860341
0.60597697304
0.322563940355
0.209555998849
0.148125470892
0.105213872524
0.0731619240466
0.0518038185764
0.0324325760982
0.0196454738456
0.014705906325
0.0127037886367
0.0118134574561
0.0114054519538
0.0112056458333
0.0110438230631
0.010793720811
0.0103874710294
0.00967831966871
0.00853982799463
1.01365244357
0.507559893282
0.320038384603
0.224692320004
0.158178788751
0.105187594857
0.0675665468798
0.0399494187007
0.0213187731868
0.0150477458771
0.0128135086876
0.0117095825852
0.0111538311646
0.0108454550311
0.0106840108095
0.0105578148707
0.0104039579131
0.0101109293015
0.00949390749568
0.00816926377586
0.854828841948
0.527149221751
0.366813618401
0.258297476055
0.170092923044
0.100908459145
0.0568503384011
0.0287297737358
0.0168295148002
0.013376030373
0.0118983758165
0.0110116456268
0.0104759265814
0.0101573937523
0.00997995490057
0.00989352493824
0.00985003227268
0.00975536781241
0.00928491275017
0.00836544922107
0.909263731922
0.642335494542
0.453729868142
0.299644035219
0.177234690553
0.0938870534647
0.0465452337563
0.0243858886609
0.016623412544
0.0135128252824
0.0118246603892
0.0108011377108
0.0101764390888
0.00979752929371
0.00959743244973
0.00954925200426
0.00964876628651
0.00983660393121
0.00991218678708
0.0104305410925
1.22157610798
0.873529848516
0.580554189283
0.345502772198
0.182416732559
0.0893193947464
0.0461562251307
0.0286568153887
0.0209464559436
0.0165171676511
0.0137633743544
0.012074344766
0.0110674467536
0.0104856374204
0.010197152558
0.0101547987661
0.0103828705444
0.0109728835925
0.0121855810814
0.0145370603926
1.92490821561
1.24715110982
0.726325266937
0.392744665188
0.203819904102
0.109024542192
0.0656748381294
0.0450044464643
0.0329680175878
0.0248067589461
0.0192521824411
0.0156881069069
0.0135489417456
0.0123454262759
0.0117438900247
0.011587658667
0.0119005713995
0.0130358863737
0.015682820024
0.0197041871927
3.08965728212
1.64644355658
0.859875285632
0.468337455798
0.266505991221
0.16282077923
0.108673074242
0.0774541026688
0.0566846181633
0.0413741781452
0.0300020844931
0.0221161383471
0.0172107275407
0.0144726967651
0.0131190720719
0.0126924770819
0.0131552112227
0.0151214330426
0.0192514585355
0.0244292560774
3.82841391966
1.84588835093
0.98870593061
0.576833319677
0.359184752884
0.23737736912
0.166673146706
0.121995111109
0.0908915116693
0.0668874281272
0.0476242313032
0.0327415588762
0.0226727496042
0.0168784919274
0.0140483217654
0.0131376836138
0.0138915917623
0.0168560297346
0.022221909334
0.0275446135842
3.80068084882
1.82699592224
1.00197187282
0.612463472125
0.406349064132
0.287349399337
0.213641535087
0.164493140352
0.128519497224
0.0980856637868
0.0712704109163
0.0483107479379
0.0312518075039
0.020774583515
0.0154960204641
0.0137042759474
0.0146571152741
0.0184282517474
0.0242901225222
0.0287021941632
3.47402711632
1.67035465141
0.917380872044
0.571817803993
0.395104623996
0.295092783899
0.232753215265
0.189840487932
0.157262832844
0.129211711356
0.101143314174
0.0702939868207
0.0441375316091
0.0273288680308
0.0183068782423
0.0149281915307
0.0157644398443
0.0199100806431
0.0253455991303
0.0276329580368
3.23414186211
1.47327888297
0.784022637329
0.490260696426
0.349882770354
0.278276812432
0.234321001927
0.204166170413
0.179879870965
0.15711753605
0.132966335129
0.102778356923
0.0639588738649
0.0384238750208
0.0234113544789
0.017106535342
0.0174091083441
0.0212823979137
0.0247592262192
0.0240347861727
3.07332950455
1.36393961254
0.714362310111
0.42383536751
0.290786013701
0.23806593169
0.219149262077
0.207699898705
0.197228972077
0.183525846529
0.165259219726
0.13968373659
0.0949867230445
0.0581043294763
0.0334947446843
0.0214851320512
0.0206450243886
0.0221305052589
0.0221602857896
0.0189069960685
2.84351496131
1.30172385436
0.656827860623
0.364337050529
0.234162747099
0.188493175525
0.188785067097
0.202144734902
0.208622080757
0.205439722271
0.193228125125
0.171848497404
0.131365353861
0.0891056311547
0.0543401862368
0.0313733035208
0.0268934079615
0.0215713185155
0.0183390739077
0.0139985139609
2.58842249649
1.23978481992
0.617164365018
0.322769533403
0.193348284899
0.152299856644
0.15835500224
0.191819187905
0.211870545872
0.216648941152
0.208307409695
0.188311689796
0.151516490498
0.109926712104
0.072250807581
0.0445933569399
0.0350576119348
0.0204613045994
0.0151441089557
0.0107348561318
0.00355129563708
0.00388995160996
0.00426534009551
0.00316333707874
0.00206087386271
0.00131385401853
0.000682093443267
0.000853267135279
0.00159943016008
0.00223716435743
0.00318523978265
0.00614045302367
0.00968126454157
0.00695453542479
0.00653221143676
0.0072892527849
0.00479204518011
0.00434539880034
0.00410346896005
0.00398854553958
0.00400941026764
0.00442702717195
0.00440169402331
0.00285524865173
0.00182016939261
0.00104960838916
0.00050921449244
0.000805524685616
0.00163255620091
0.00228932359445
0.00325002356599
0.00650396285034
0.01001355285
0.00699546200342
0.00673944281435
0.00753410082968
0.00522208797874
0.00475865818769
0.00459967402046
0.00462571793899
0.00468835753518
0.00502402316507
0.00431522860518
0.00244064970822
0.00147954150311
0.000763124063041
0.00035816364635
0.000751579768266
0.00159859119675
0.00228670127241
0.00321665270709
0.00648814113257
0.00991318673383
0.00715573890578
0.0070703987226
0.00789118725876
0.00555916072576
0.00524236253652
0.00540412910171
0.00563488390008
0.00557122078807
0.00543278388729
0.00402914819446
0.00198871312209
0.00108162826954
0.000497591932371
0.000253672035322
0.000688309235362
0.00151576268773
0.00224921508412
0.00311097410179
0.00609679521615
0.00949292123017
0.00740368509838
0.00747172911267
0.00829899332614
0.0058164683407
0.00594412857907
0.00655975336604
0.00683360644213
0.00633044712664
0.00536246764131
0.00352756265317
0.00147852618482
0.000734136226653
0.000303764074299
0.000207775367763
0.000642265318342
0.00145793581807
0.00225077531424
0.00310056203737
0.00566888235291
0.00907595869477
0.00772730092333
0.00789580932855
0.00869988617471
0.00611108287155
0.00680951843798
0.00753366887395
0.00751349248722
0.00646891813587
0.00491155032373
0.0028780990256
0.00103148438025
0.000483924103709
0.000199169714365
0.000202715971889
0.000653931314018
0.00150611596909
0.00238056954581
0.00335141900115
0.00550690542143
0.00887417821338
0.00807763622569
0.00828891505889
0.00905114428306
0.00643093436441
0.00746633508239
0.00798096294528
0.0075919162631
0.00608458951074
0.0041419492966
0.00216725553097
0.000717649559303
0.000321127768956
0.000158161870496
0.000230210810123
0.000757304714352
0.00168436201336
0.00264030747112
0.00379507126466
0.00556664199803
0.00891939615574
0.00842979836847
0.00860604354659
0.00931256466587
0.00670907811658
0.00786011003508
0.00808619725548
0.00721600134973
0.00530707997818
0.00326033707188
0.00144076074569
0.000501718659265
0.00022460527428
0.000162005810727
0.000307367338444
0.000966504891593
0.00195248156867
0.00295814968066
0.00427687195545
0.00566550979379
0.00910752773608
0.00876679338881
0.00879730203928
0.00943568209466
0.00682151585963
0.00803061899857
0.00782824091656
0.00648076642891
0.00434430864719
0.00244124944531
0.000925871691603
0.000353010734164
0.000188061733736
0.000219078445271
0.000457302572976
0.00126482327591
0.00222305870076
0.0031892061747
0.00433345418747
0.00568644108564
0.00923472333239
0.00897096123349
0.00881796563644
0.00939128169119
0.00668821942463
0.00783974666836
0.00728448193411
0.00556568631994
0.0034543310719
0.00170898854718
0.000628842941937
0.000267663868444
0.000213984950826
0.000345606503166
0.000698072521898
0.00159274639969
0.00238549235614
0.00310768366419
0.00382227276955
0.00549994352292
0.00897982492122
0.00889131016798
0.0086408634665
0.0091783942048
0.00633894162629
0.00731078841621
0.00660423151184
0.00470540417538
0.00275801305763
0.00122577544606
0.000476848593924
0.000241506859799
0.000296164278762
0.000548026788196
0.00102597949101
0.00182457304199
0.00226376031187
0.00259722579167
0.00333342327574
0.00510216367563
0.0081708117014
0.00846737263149
0.0082613732703
0.00881661280135
0.00591009658021
0.0065545802988
0.00587900855165
0.00404737663948
0.00223828537606
0.000981259947997
0.000421920464207
0.000259528787869
0.000407314229569
0.000794313775381
0.00139071090213
0.00191877056816
0.00180106056904
0.00197482613118
0.00291825661589
0.00466992496759
0.007004830431
0.00773076828454
0.00768929065656
0.00835144642308
0.00555133189169
0.00578579648697
0.00521759453343
0.00359287724363
0.00192699405269
0.000881893189249
0.000428567855699
0.000310375885827
0.000512371357987
0.0010792875398
0.00181387509516
0.00171823524604
0.00128216906285
0.00147785064357
0.0024854728736
0.00412813067574
0.00585617476226
0.00677918928066
0.00696302198317
0.00783213521124
0.00534858293837
0.00521037582662
0.00471565317139
0.00331439959871
0.0018070537713
0.000884477555648
0.000486448500717
0.000400532628742
0.000614343650847
0.00149105080739
0.00221547510973
0.00130572942229
0.000862972440304
0.00113025955144
0.0020297849444
0.00346379401442
0.00487718531046
0.00579075711229
0.00622628704821
0.00732446833102
0.00532274379996
0.00495720407121
0.00448805781939
0.00324386875516
0.00186136596173
0.000982783493536
0.000607382675534
0.000556493374799
0.000809651304864
0.0022143212867
0.00216759640893
0.000898570353819
0.000610404196433
0.000880899297803
0.0015913967196
0.00282362919418
0.00414835498511
0.00503814848029
0.00561457150881
0.0068857231617
0.00549336622378
0.00512025389158
0.00468692289965
0.00349720525209
0.00214327169333
0.00121887213467
0.000837837066299
0.000869453474798
0.00134330881131
0.0028926510294
0.00165686466986
0.000673927544388
0.000514732002406
0.000706423083545
0.00126233526244
0.00243220560139
0.00373117234624
0.00455698122584
0.00514805057323
0.00655087035703
0.00606169208665
0.00593840221023
0.0055796137726
0.00433475790118
0.00282731706103
0.00174083765266
0.0013704818448
0.00175639001138
0.00244160698561
0.00218177075519
0.00124211277107
0.00065072249828
0.000486958774476
0.000581107913557
0.00103466629235
0.00217467191505
0.00351488939536
0.0041204161314
0.00475780500532
0.00632767779118
0.00757017266566
0.00772753776497
0.00736982723984
0.00601427462712
0.00426265250127
0.00304565164832
0.00294124766867
0.0038619053873
0.00207929259079
0.00155426513205
0.000910216044531
0.000591292312004
0.000458082744507
0.000473782159773
0.000811154581281
0.0018791941881
0.0031163010043
0.00366408313564
0.00442191689423
0.00614311519494
0.00923104217795
0.00932424407132
0.00886912092223
0.00748494260481
0.00599442951572
0.00495352136141
0.00439647824736
0.00380032444227
0.00142558731866
0.000956373293595
0.000627370830296
0.000486183182395
0.000411592521587
0.000389705906123
0.000597912579759
0.00161539127828
0.00267347037004
0.00328297467485
0.00413032959693
0.00587446692233
0.00916792242211
0.00900433762215
0.00837247696446
0.00705697698035
0.00570765360228
0.00469928120714
0.00399067958615
0.00232107095142
0.000827113835752
0.000602906725231
0.000514989327958
0.000442672890766
0.0003884712659
0.0003566046403
0.000523594474865
0.00148384127076
0.00224833656016
0.00298785099196
0.00386783780324
0.00554442886316
0.00909580214054
0.00848863615393
0.00756454245911
0.00634739312072
0.00516184496992
0.00410017255524
0.00265196645091
0.000952941736594
0.000639197525956
0.000570742642758
0.00051000481345
0.000441817584169
0.000383609033412
0.000352719854845
0.000569653751508
0.00169255130045
0.00206437416878
0.00284776615941
0.00375776677068
0.00527842224929
0.00879312816338
0.00787943307425
0.00676639118534
0.00548615257332
0.00414358337391
0.00262792285299
0.00128804390286
0.000830046780117
0.000720336435614
0.000628319818052
0.000520691379596
0.000440101905519
0.000376422998415
0.000371933100764
0.000738480500578
0.00242694279522
0.00220085820997
0.00297541376376
0.00389959914244
0.00519437732434
0.00818447946823
0.00701001875744
0.00560526648179
0.00392371169809
0.00265967694008
0.00150663541328
0.00110944971435
0.000966943015757
0.000807001482209
0.000625511066267
0.000494688026492
0.000412934843178
0.000360199729477
0.000436860004668
0.00129947550082
0.00427957177996
0.00242583244218
0.00325746234568
0.00415237913626
0.00524372777652
0.00753007010308
0.00573252825882
0.00411663633061
0.00278856083124
0.00198413081597
0.00149094562361
0.00125086547391
0.00100473108761
0.000721643235416
0.000522307371325
0.000411494973853
0.000351799649362
0.000361728728019
0.000826309648887
0.00409136347837
0.00589143414947
0.00243327159443
0.00348430192874
0.0043464563388
0.00529653642078
0.00665409472974
0.00470443325355
0.00370165465681
0.00304676059216
0.00223573732551
0.00168853936517
0.00120095228558
0.000787014927077
0.00051487480347
0.000369648108727
0.000313793344619
0.000302330606133
0.000500785499416
0.00226174690107
0.00699815118038
0.00349793884121
0.00204029349525
0.00350314545644
0.00441803339546
0.0052080469597
0.00633539298675
0.00536595861157
0.00480221511102
0.00391931329876
0.00265004397233
0.00168440117795
0.000943882383921
0.000543615894019
0.000347487146622
0.000271849496228
0.000260866291156
0.000361925504372
0.00100707756476
0.00351110012116
0.0056278382347
0.00139729892308
0.00181474239582
0.00356255721734
0.00455049104097
0.00509188330706
0.0079087695819
0.00759737195549
0.00658496995936
0.00495294358432
0.00293873740975
0.00154120773391
0.000750462638863
0.000413012364814
0.00027116009414
0.000231217641895
0.000294794088949
0.000674276544646
0.00116578572996
0.00288848245995
0.0020924142326
0.000797648262284
0.00164191944386
0.00366429347828
0.00510415497857
0.00566496953521
0.0113599463662
0.0107159622089
0.00863223653095
0.00585079492692
0.00307480516674
0.0014448243458
0.000671547415975
0.0003642677462
0.00024800314279
0.000262391539243
0.000486277992826
0.000776228540198
0.00112695005796
0.00169834736179
0.00109583825045
0.000614735731864
0.00182783416751
0.00428881084228
0.00645157937673
0.00794523241852
0.0160850838036
0.0141672058879
0.0104092666719
0.00637640795381
0.00311714418528
0.00143956756153
0.00066647411129
0.00036661247013
0.000281997105679
0.000397752079837
0.000653167268615
0.000882132776094
0.00116260555575
0.00110223375013
0.000502636196738
0.000609201887553
0.00228556876601
0.00522460704493
0.00813013143649
0.0114139803811
0.0211392979384
0.0169906199053
0.0114087255913
0.00642790113782
0.00303900780201
0.00146698377068
0.000700699286252
0.000407276084089
0.000381555118443
0.000534100711743
0.000712198993875
0.000812251177902
0.000690280648417
0.000455180255606
0.000367494974822
0.000681029954381
0.00276440641048
0.00618172538159
0.00959547103979
0.0150848175379
0.0248915392785
0.018471922792
0.0112929885888
0.00586240848763
0.00279616917944
0.00145474457423
0.000739189809818
0.000463027956679
0.000459881454285
0.000560748102011
0.000639119969649
0.000526557786422
0.000395739452733
0.000340502274063
0.000373445119987
0.000786038327402
0.00301100716618
0.00633406285231
0.00944726435433
0.0148670069754
0.0264922436116
0.0181031860996
0.00994572262318
0.00481710666278
0.00242006033581
0.00134643779057
0.000727153452637
0.000467575579483
0.000446645771056
0.000517623017273
0.000518777024695
0.000404488712304
0.00034843116328
0.000365089439715
0.000507911832199
0.00109763447605
0.00294685427769
0.00550491420235
0.00763338608873
0.0119091328074
0.0256590242108
0.0157612640589
0.00777048656309
0.00368143495706
0.0020224702735
0.00117904428969
0.000666544823795
0.00042836954198
0.000384008192996
0.000429867514565
0.000456722505698
0.000396646200104
0.000398696717741
0.000486916668799
0.000745218912709
0.00142053297259
0.00315047190183
0.00548473172684
0.00748360580294
0.0110067431612
0.0222157955866
0.0121489074091
0.00562503283557
0.00278922404702
0.00166750856614
0.00103027312903
0.000605059089346
0.000385595759357
0.000310680237243
0.000319923573872
0.00036665231216
0.000413379560682
0.000445557822235
0.000552016268164
0.000852263999455
0.00167083055067
0.00433327652485
0.00826567791251
0.0110506613856
0.014465525337
0.0171727489046
0.00865865621561
0.00407759111324
0.00225096097741
0.00145603238763
0.000949669229641
0.000576262800644
0.000365422233271
0.000264669210695
0.000240112833846
0.000264147307375
0.000324455832309
0.000422012293132
0.000507145057992
0.000724060351874
0.00146751459693
0.00524276419235
0.0113048827743
0.0147532015279
0.0172530348573
0.0122625170351
0.00612440081905
0.00323992028656
0.00204079956714
0.00139924691306
0.000966068143438
0.000611264130081
0.000385122817762
0.000265829704739
0.000210810937728
0.000202748207704
0.000232380219296
0.000296309395613
0.000411516975811
0.000567154288443
0.00095472089733
0.00313833348255
0.00981694137785
0.01618157709
0.019869420842
0.00861574149342
0.00478805662106
0.00298190359635
0.00202382305714
0.00144393471924
0.0010471853245
0.000701407415318
0.000444629859401
0.000301313792486
0.000223956592672
0.000187115691939
0.000185152657641
0.000215021722983
0.000286265608093
0.000435635909906
0.000740689054558
0.00166859086944
0.0069531946925
0.0189002438958
0.0275104966517
0.00685334256408
0.00433709584495
0.00291613415736
0.00202533552984
0.00143703168499
0.00104510666748
0.000745880262206
0.000488965241395
0.000321277225451
0.000235174539512
0.000190320410663
0.000171560864183
0.000176069823075
0.000212323008145
0.000317042408216
0.000611952454099
0.00177134650161
0.0120765542511
0.0364654878292
0.0525419494707
)
;

boundaryField
{
    emptyPatch
    {
        type            empty;
    }
    minY
    {
        type            fixedValue;
        value           nonuniform List<scalar> 0();
    }
    maxY
    {
        type            inletOutlet;
        inletValue      uniform 1e-05;
        value           nonuniform List<scalar> 
40
(
2.58842249649
1.23978481992
0.617164365018
0.322769533403
0.193348284899
0.152299856644
0.15835500224
0.191819187905
0.211870545872
0.216648941152
0.208307409695
0.188311689796
0.151516490498
0.109926712104
0.072250807581
0.0445933569399
0.0350576119348
0.0204613045994
0.0151441089557
0.0107348561318
0.00685334256408
0.00433709584495
0.00291613415736
0.00202533552984
0.00143703168499
0.00104510666748
0.000745880262206
0.000488965241395
0.000321277225451
0.000235174539512
0.000190320410663
0.000171560864183
0.000176069823075
0.000212323008145
0.000317042408216
0.000611952454099
0.00177134650161
0.0120765542511
0.0364654878292
0.0525419494707
)
;
    }
    water_to_cooler
    {
        type            kqRWallFunction;
        value           nonuniform List<scalar> 
38
(
0.0072892527849
0.00753410082968
0.00789118725876
0.00829899332614
0.00869988617471
0.00905114428306
0.00931256466587
0.00943568209466
0.00939128169119
0.0091783942048
0.00881661280135
0.00835144642308
0.00783213521124
0.00732446833102
0.0068857231617
0.00655087035703
0.00632767779118
0.00614311519494
0.00587446692233
0.00554442886316
0.00527842224929
0.00519437732434
0.00524372777652
0.00529653642078
0.0052080469597
0.00509188330706
0.00566496953521
0.00794523241852
0.0114139803811
0.0150848175379
0.0148670069754
0.0119091328074
0.0110067431612
0.014465525337
0.0172530348573
0.019869420842
0.0275104966517
0.0525419494707
)
;
    }
    water_to_heater
    {
        type            kqRWallFunction;
        value           nonuniform List<scalar> 
59
(
2.7970867321
2.7970867321
3.00235004774
3.03616850862
2.84506146256
2.84506146256
2.60735471206
2.60735471206
2.55336995411
2.55336995411
2.84882252053
3.50706477236
4.25500013386
4.25500013386
4.44959230656
4.44959230656
4.43899388268
4.43899388268
4.47266393255
4.56477612525
4.71901294761
4.71901294761
4.88171750275
4.88171750275
5.00735441692
5.00735441692
5.09020747535
5.19850016965
5.32684779113
5.32684779113
5.24894689048
5.24894689048
4.81313365371
4.81313365371
3.78947203597
2.44273070054
1.45927860341
1.45927860341
1.01365244357
1.01365244357
0.854828841948
0.854828841948
0.909263731922
1.22157610798
1.92490821561
1.92490821561
3.08965728212
3.08965728212
3.82841391966
3.82841391966
3.80068084882
3.47402711632
3.23414186211
3.23414186211
3.07332950455
3.07332950455
2.84351496131
2.84351496131
2.58842249649
)
;
    }
    procBoundary0to1
    {
        type            processor;
        value           nonuniform List<scalar> 
41
(
2.74039239712
1.28570069328
0.694055516116
0.39673349643
0.242979754349
0.158251646394
0.105633772586
0.0702144310954
0.0465661936783
0.031777145027
0.0233485200462
0.0190194874103
0.0166972129707
0.0148847929542
0.0130511973547
0.0111831876302
0.00943494505292
0.00780676614401
0.00625350361253
0.0050632900217
0.00331553903186
0.0034750019075
0.00397699811182
0.0033141114445
0.0022317394939
0.00152291851854
0.000858965946078
0.000917942019218
0.00154094668959
0.00214898623024
0.00307022296842
0.0056973606224
0.00909733010352
0.00692673560232
0.006434219651
0.00716179914551
0.00431348854457
0.00397901421028
0.00380943823595
0.00364490871734
0.00364490871734
)
;
    }
}


// ************************************************************************* //
