/*--------------------------------*- C++ -*----------------------------------*\
| =========                 |                                                 |
| \\      /  F ield         | OpenFOAM: The Open Source CFD Toolbox           |
|  \\    /   O peration     | Version:  2312                                  |
|   \\  /    A nd           | Website:  www.openfoam.com                      |
|    \\/     M anipulation  |                                                 |
\*---------------------------------------------------------------------------*/
FoamFile
{
    version     2.0;
    format      ascii;
    arch        "LSB;label=32;scalar=64";
    class       volScalarField;
    location    "0.36/water";
    object      nut.gas;
}
// * * * * * * * * * * * * * * * * * * * * * * * * * * * * * * * * * * * * * //

dimensions      [0 2 -1 0 0 0 0];

internalField   nonuniform List<scalar> 
1503
(
3.18082422093e-07
1.20618159559e-07
4.99427092029e-08
3.32920817393e-08
1.25651024871e-07
9.24294969984e-07
3.96327800556e-06
9.0291425411e-06
1.37074799042e-05
1.66879739245e-05
1.82501781839e-05
1.8976791216e-05
1.92804176403e-05
1.93891196675e-05
1.94156111487e-05
1.94114982835e-05
1.93987257305e-05
1.93857503957e-05
1.93752982351e-05
1.9367882948e-05
1.63291899897e-06
9.80671804458e-07
4.6890477312e-07
2.42556906516e-07
9.99864773904e-08
7.64221150543e-08
1.62424724273e-07
9.4607811934e-07
4.12536457909e-06
9.47485718835e-06
1.4129782744e-05
1.69716759546e-05
1.8417920954e-05
1.90693723725e-05
1.93272922343e-05
1.94084767067e-05
1.9418263264e-05
1.9403997879e-05
1.93853084051e-05
1.93694550028e-05
2.2664172895e-06
1.63851614156e-06
1.01061979922e-06
5.41924452664e-07
2.98954281159e-07
1.41181795252e-07
1.02450271251e-07
2.42545832815e-07
1.30305039645e-06
4.67654626426e-06
9.66181909788e-06
1.400603433e-05
1.68143047095e-05
1.83380481561e-05
1.90642403835e-05
1.93659894421e-05
1.94657565594e-05
1.94799386095e-05
1.94640293252e-05
1.94422866544e-05
2.67995038177e-06
2.04064131866e-06
1.39101488432e-06
8.52870960546e-07
5.47874932536e-07
2.60108662834e-07
1.38031659296e-07
1.33348995458e-07
5.00536183984e-07
2.31873620596e-06
6.30977465408e-06
1.10102953169e-05
1.47816742082e-05
1.71962620679e-05
1.85260036661e-05
1.91708704897e-05
1.94408613568e-05
1.95279092939e-05
1.95363684266e-05
1.95177062172e-05
2.96369605209e-06
2.33352338775e-06
1.66980909536e-06
1.11246617377e-06
6.68392970781e-07
4.42733028374e-07
1.89903689636e-07
1.22841986443e-07
2.40588394489e-07
1.18491088828e-06
4.07913286827e-06
8.46769350476e-06
1.27001784895e-05
1.58215802473e-05
1.77610310481e-05
1.88179947623e-05
1.93256807026e-05
1.95325170266e-05
1.95926161159e-05
1.95907357123e-05
3.12462229287e-06
2.53466034914e-06
1.878226682e-06
1.31363249481e-06
8.5759900014e-07
4.90858845526e-07
2.99897205096e-07
1.27294462674e-07
1.44177905106e-07
6.08500952867e-07
2.59835037349e-06
6.42435356635e-06
1.07611570259e-05
1.43661215816e-05
1.68424488649e-05
1.83252773832e-05
1.91125586651e-05
1.94785539174e-05
1.96176080854e-05
1.96482346585e-05
3.21500363555e-06
2.63996752346e-06
1.99839107662e-06
1.44691178467e-06
9.98802133903e-07
6.30556218216e-07
3.32686606289e-07
1.75136387652e-07
9.78952299605e-08
3.00549047925e-07
1.58359206099e-06
4.78132391089e-06
9.01640172391e-06
1.29242109026e-05
1.58413026148e-05
1.77277031817e-05
1.88114512548e-05
1.9364093668e-05
1.96056789567e-05
1.96842816355e-05
3.23619563802e-06
2.67748382831e-06
2.06161976866e-06
1.53155857747e-06
1.10016517801e-06
7.41985599871e-07
4.37822048447e-07
2.18224913027e-07
9.63931912317e-08
1.3443959681e-07
8.62362304213e-07
3.4204730905e-06
7.4455818818e-06
1.15372594981e-05
1.48094134017e-05
1.70611649121e-05
1.84395403137e-05
1.91940389557e-05
1.95559510676e-05
1.96960704211e-05
3.26112818621e-06
2.7049940064e-06
2.10072889709e-06
1.58685043811e-06
1.1723765046e-06
8.28858809098e-07
5.31876839247e-07
2.79033368447e-07
1.36239556138e-07
7.06193423067e-08
3.59989279655e-07
2.2173548235e-06
5.97548660189e-06
1.02002375437e-05
1.37746268761e-05
1.63549606773e-05
1.80157317769e-05
1.8977087032e-05
1.94707865822e-05
1.96827453214e-05
3.27906644411e-06
2.72826485909e-06
2.13086889981e-06
1.62604726617e-06
1.22426235104e-06
8.95809697361e-07
6.11625430888e-07
3.58682096236e-07
1.54667454265e-07
7.18619339393e-08
1.13107422933e-07
1.12937657717e-06
4.50469092097e-06
8.86904433807e-06
1.27389268372e-05
1.56262622131e-05
1.75555437616e-05
1.87223419243e-05
1.93535633843e-05
1.96438848419e-05
3.28472312984e-06
2.74161974025e-06
2.15162180995e-06
1.65274291605e-06
1.26095117244e-06
9.47198618439e-07
6.78511450563e-07
4.32501031211e-07
2.11912913051e-07
7.25094208535e-08
5.43216018032e-08
3.62610895681e-07
2.94858626336e-06
7.46090144723e-06
1.16685506828e-05
1.48701146099e-05
1.70635092704e-05
1.84344280635e-05
1.92051404633e-05
1.95789909562e-05
3.26634476198e-06
2.74193114078e-06
2.15963133744e-06
1.66719721118e-06
1.28569453197e-06
9.86593368214e-07
7.33689975878e-07
4.97422839498e-07
2.68260417512e-07
9.31522178768e-08
4.58111987428e-08
9.9495535822e-08
1.43723003949e-06
5.89077440943e-06
1.04889054262e-05
1.4045998615e-05
1.65243858007e-05
1.81075281028e-05
1.90240371309e-05
1.94871252438e-05
3.24379802983e-06
2.73213992269e-06
2.15654230556e-06
1.67058345612e-06
1.3003343786e-06
1.0167855415e-06
7.78872556231e-07
5.51574935839e-07
3.17331561801e-07
1.1570701008e-07
3.75918094503e-08
5.2965237297e-08
4.58148191011e-07
4.14064329209e-06
9.1014010065e-06
1.30804137889e-05
1.5899514104e-05
1.77263840308e-05
1.88060971129e-05
1.93669863335e-05
3.22580707406e-06
2.72044178551e-06
2.14612500638e-06
1.66727984596e-06
1.31040384536e-06
1.04224667002e-06
8.16560264282e-07
5.95422991016e-07
3.56712254956e-07
1.35648439518e-07
4.02208466005e-08
3.54865697206e-08
1.47324200941e-07
2.42073108204e-06
7.43892377709e-06
1.18673324667e-05
1.51300333104e-05
1.72691555272e-05
1.85439997144e-05
1.92167012925e-05
3.23173264852e-06
2.71853694405e-06
2.14214041204e-06
1.66923358312e-06
1.32487404793e-06
1.06885472961e-06
8.50615205931e-07
6.31611462714e-07
3.88023934704e-07
1.54559220787e-07
4.43520693805e-08
2.59300426023e-08
6.6222678728e-08
1.06850094294e-06
5.46536627291e-06
1.03205026073e-05
1.41574715984e-05
1.67059797939e-05
1.82261349887e-05
1.90332541199e-05
3.24832304484e-06
2.72685725621e-06
2.15293188619e-06
1.68930303669e-06
1.35412614481e-06
1.10206704533e-06
8.84183825939e-07
6.63605577182e-07
4.16231520635e-07
1.76367579842e-07
5.19737869283e-08
2.50222647809e-08
4.04488122335e-08
3.696042296e-07
3.45088782783e-06
8.4342013228e-06
1.29259719733e-05
1.60011094119e-05
1.78366509586e-05
1.88118339456e-05
3.27746986316e-06
2.75124744232e-06
2.19531477615e-06
1.74495080125e-06
1.4066199435e-06
1.14352538913e-06
9.17696810307e-07
6.93647538667e-07
4.46501830977e-07
2.07569153351e-07
6.49104617504e-08
2.63296234756e-08
2.910024843e-08
1.16896096e-07
1.77918525437e-06
6.30700904803e-06
1.14001099698e-05
1.51186373554e-05
1.73565071932e-05
1.85452556028e-05
3.34938730953e-06
2.84939730473e-06
2.31041678049e-06
1.8446975659e-06
1.47466717585e-06
1.18563476141e-06
9.47133431156e-07
7.21188002945e-07
4.85315913707e-07
2.50922360186e-07
8.40500179958e-08
2.93647755565e-08
2.26968309409e-08
4.98556324287e-08
7.23995767939e-07
4.1975580928e-06
9.59616695173e-06
1.40327128582e-05
1.67664308754e-05
1.82240936465e-05
3.5786770637e-06
3.08430655325e-06
2.49265060689e-06
1.95556869869e-06
1.53330596356e-06
1.21724080674e-06
9.67895707282e-07
7.48745659662e-07
5.31804022634e-07
3.04884775352e-07
1.10819443168e-07
3.39361800848e-08
2.29928597207e-08
3.62009289659e-08
1.97199322156e-07
2.37594464441e-06
7.60817537559e-06
1.27399256835e-05
1.60508678868e-05
1.78375091304e-05
3.90675611859e-06
3.34629935495e-06
2.63833904871e-06
2.02227526498e-06
1.56586106652e-06
1.23463272271e-06
9.82787235792e-07
7.75553026966e-07
5.79774233822e-07
3.64307672858e-07
1.45216329638e-07
3.99428898156e-08
2.34106694078e-08
2.64083910664e-08
6.90597730144e-08
9.96217427238e-07
5.60093472617e-06
1.12625603275e-05
1.51994668211e-05
1.73742203396e-05
4.05411730229e-06
3.41562206855e-06
2.68054933926e-06
2.05051459801e-06
1.58224404626e-06
1.24304770197e-06
9.92687101293e-07
7.98946006199e-07
6.23907760078e-07
4.21567366661e-07
1.83381039887e-07
4.71399410227e-08
2.36512750175e-08
2.55645970263e-08
4.18809426189e-08
2.63296151917e-07
3.69369617578e-06
9.67216810006e-06
1.42159034615e-05
1.68252334149e-05
4.09367894472e-06
3.45014609719e-06
2.71326835099e-06
2.07813961419e-06
1.59802611489e-06
1.24953316194e-06
9.99039905075e-07
8.16494560347e-07
6.59840927252e-07
4.70464642019e-07
2.19115825733e-07
5.4858904842e-08
2.37737152119e-08
2.43558433388e-08
3.50913004268e-08
1.14254688491e-07
1.85986170767e-06
7.99374911666e-06
1.30977464658e-05
1.6180375569e-05
4.11601347687e-06
3.47193170575e-06
2.73622528514e-06
2.10022938675e-06
1.61309669919e-06
1.25716843049e-06
1.00494342807e-06
8.30385558849e-07
6.89592735525e-07
5.10342825031e-07
2.47931381897e-07
6.12402337374e-08
2.39086101977e-08
2.3200825257e-08
3.09492324479e-08
7.41266061597e-08
6.6701731022e-07
6.20592368275e-06
1.18371016831e-05
1.54270768433e-05
4.12048507595e-06
3.48111266522e-06
2.74603094657e-06
2.11047377334e-06
1.62117151576e-06
1.26273058267e-06
1.01097513071e-06
8.44741091516e-07
7.17592955766e-07
5.4265565294e-07
2.70202637064e-07
6.68228636828e-08
2.41837253235e-08
2.24971450022e-08
2.7781074459e-08
4.54612391308e-08
2.64595844516e-07
4.38501475711e-06
1.04340387389e-05
1.45517499585e-05
4.1367906271e-06
3.49326454678e-06
2.75426473525e-06
2.11329372146e-06
1.6227372633e-06
1.26592235038e-06
1.01898442473e-06
8.63130465827e-07
7.44728987199e-07
5.67900033643e-07
2.87979304817e-07
7.2750867112e-08
2.48162139405e-08
2.23512195069e-08
2.59356942914e-08
3.57675620075e-08
1.42343676331e-07
2.75993579911e-06
8.88110413898e-06
1.35353060998e-05
4.14307422063e-06
3.50856588074e-06
2.76457914548e-06
2.11398658608e-06
1.62213400116e-06
1.26956067347e-06
1.03108067709e-06
8.85557329239e-07
7.69556073918e-07
5.87040651234e-07
3.02120490003e-07
7.91775445787e-08
2.59066500845e-08
2.26778196372e-08
2.52593032484e-08
3.06315958488e-08
8.81671082051e-08
1.51629511449e-06
7.19661501715e-06
1.23611476738e-05
4.16132050638e-06
3.52473264475e-06
2.77501721753e-06
2.11646745394e-06
1.62307657591e-06
1.27564575666e-06
1.04715630758e-06
9.09119583751e-07
7.9042911e-07
6.00211384915e-07
3.11858667474e-07
8.51164975713e-08
2.71953717263e-08
2.3214415579e-08
2.5336775909e-08
2.84866034625e-08
6.09278993668e-08
7.19603912165e-07
5.48842665195e-06
1.10358834649e-05
4.16511080623e-06
3.5333336073e-06
2.78076242069e-06
2.11837042219e-06
1.6251483886e-06
1.28369795524e-06
1.06500765083e-06
9.30805298544e-07
8.06292857923e-07
6.05925328572e-07
3.15139756107e-07
8.88594514464e-08
2.80951528525e-08
2.36462560454e-08
2.58686800666e-08
2.80258351158e-08
4.16814213356e-08
2.96368694205e-07
3.86689233092e-06
9.5776462918e-06
4.18927440402e-06
3.54035350857e-06
2.77853970196e-06
2.11395208777e-06
1.62460616114e-06
1.29167090228e-06
1.08227834227e-06
9.49133345377e-07
8.1607895986e-07
6.0245398357e-07
3.1096055034e-07
8.97117590885e-08
2.82978332674e-08
2.39384829355e-08
2.63793115993e-08
2.81606624304e-08
3.21966177738e-08
1.26024540712e-07
2.42684878707e-06
8.01366428038e-06
4.20705874297e-06
3.54457550966e-06
2.77068787862e-06
2.10374268798e-06
1.62131777361e-06
1.29969636456e-06
1.09856086748e-06
9.6381141854e-07
8.18260084386e-07
5.89433616176e-07
3.00934244169e-07
8.85531219637e-08
2.82138572957e-08
2.41753430908e-08
2.65956480698e-08
2.83035655513e-08
3.05738904707e-08
7.28053537338e-08
1.31823944738e-06
6.42263231141e-06
4.22150644915e-06
3.5339169917e-06
2.74980585022e-06
2.08717227253e-06
1.61801866005e-06
1.3102681762e-06
1.11497210093e-06
9.74761975552e-07
8.11631289676e-07
5.69071181047e-07
2.88792968532e-07
8.75236930424e-08
2.86797161657e-08
2.43909912442e-08
2.65879446467e-08
2.82149453124e-08
2.96196806221e-08
5.43803726014e-08
6.20085921895e-07
4.89502852891e-06
4.19517686835e-06
3.49068098329e-06
2.70895125418e-06
2.06737815495e-06
1.62175634989e-06
1.3277849601e-06
1.13312488191e-06
9.80844287424e-07
7.96010101965e-07
5.45575142316e-07
2.77952606129e-07
8.93912235698e-08
3.02825383406e-08
2.46431260122e-08
2.65080007667e-08
2.79605916905e-08
2.88598972793e-08
3.65974311343e-08
2.63842064827e-07
3.47031545023e-06
4.14060524953e-06
3.41815237036e-06
2.65935516905e-06
2.05850190437e-06
1.64196107888e-06
1.3555247416e-06
1.15214748146e-06
9.78619853737e-07
7.72352172096e-07
5.23360114536e-07
2.74647740237e-07
9.67411830956e-08
3.29295042979e-08
2.5012032966e-08
2.64695352313e-08
2.7740657735e-08
2.82540270677e-08
3.09553104701e-08
1.19610806322e-07
2.23764902957e-06
4.03715248577e-06
3.32158580076e-06
2.62768430165e-06
2.08219184985e-06
1.68613311514e-06
1.39155801266e-06
1.1647771666e-06
9.6229583057e-07
7.46600164234e-07
5.14469354882e-07
2.84943837745e-07
1.08925942747e-07
3.67110663679e-08
2.55878837901e-08
2.65732913438e-08
2.76743961537e-08
2.78712955691e-08
2.93158343743e-08
7.04646842088e-08
1.32442365194e-06
3.93746588949e-06
3.29811537244e-06
2.68054210344e-06
2.16722006842e-06
1.75473200298e-06
1.42311502063e-06
1.16012138072e-06
9.40059467515e-07
7.34216350906e-07
5.23964925401e-07
3.07041160792e-07
1.25592229333e-07
4.17754360683e-08
2.64495667661e-08
2.68485348828e-08
2.76949868852e-08
2.76521554458e-08
2.84922520346e-08
5.39808533705e-08
7.19967251942e-07
3.94359988111e-06
3.41061792355e-06
2.83909380154e-06
2.30322402638e-06
1.82377271513e-06
1.4375686763e-06
1.14726625717e-06
9.2659441408e-07
7.38038337136e-07
5.47097928279e-07
3.37142919092e-07
1.45984156015e-07
4.8036378258e-08
2.75939077934e-08
2.71504954761e-08
2.7604457369e-08
2.73323252087e-08
2.79993629028e-08
3.74991246887e-08
3.32165193921e-07
4.07911154625e-06
3.63530783541e-06
3.06466702665e-06
2.44080341008e-06
1.87570431614e-06
1.44049682952e-06
1.13736393841e-06
9.24351400485e-07
7.52494921886e-07
5.76498191914e-07
3.70626966537e-07
1.68870179366e-07
5.51998863299e-08
2.89059635574e-08
2.7323688377e-08
2.73533593404e-08
2.6876905997e-08
2.75357329804e-08
3.20765886458e-08
1.36990172515e-07
4.37188131307e-06
3.97325326419e-06
3.3087364437e-06
2.55562174581e-06
1.9021865378e-06
1.43470561092e-06
1.13150399427e-06
9.29667667989e-07
7.71444267604e-07
6.06320332063e-07
4.04188541119e-07
1.93219335282e-07
6.33118707369e-08
3.0337157977e-08
2.73869740961e-08
2.70662381007e-08
2.64017902307e-08
2.6862301423e-08
3.03631112585e-08
7.76736414056e-08
1.93634005672e-05
1.93614030636e-05
1.93612955571e-05
1.93626469755e-05
1.93650654539e-05
1.93678403604e-05
1.93692127478e-05
1.93647549203e-05
1.93437572774e-05
1.92813643514e-05
1.91221002483e-05
1.87473492957e-05
1.79180125981e-05
1.61996462096e-05
1.29743261118e-05
7.97396777827e-06
2.85748337357e-06
4.74361311951e-07
1.48398323159e-07
6.74913274625e-07
1.93588302415e-05
1.93534824846e-05
1.9352232882e-05
1.93536716678e-05
1.93558072396e-05
1.93546718647e-05
1.93414354922e-05
1.92966385891e-05
1.91792258031e-05
1.89072949107e-05
1.83285701192e-05
1.7186878118e-05
1.51192168132e-05
1.17863806846e-05
7.32522844396e-06
3.0393112993e-06
7.27528376135e-07
1.90888917643e-07
3.48706101901e-07
1.34098874011e-06
1.94246532505e-05
1.94139756484e-05
1.94090130449e-05
1.94066781645e-05
1.94014583219e-05
1.93823506219e-05
1.93268648263e-05
1.91906100645e-05
1.88911853402e-05
1.82876844679e-05
1.71652082576e-05
1.52516159601e-05
1.2321368679e-05
8.45411307431e-06
4.40159052873e-06
1.5084538969e-06
3.74061589733e-07
2.35451494667e-07
7.02181387949e-07
1.95863181892e-06
1.94955454518e-05
1.94788091111e-05
1.94672821454e-05
1.94555416721e-05
1.94323716174e-05
1.93759311711e-05
1.92450564033e-05
1.89665929328e-05
1.8420861014e-05
1.74330546244e-05
1.57883958871e-05
1.33004593871e-05
9.96280189136e-06
6.17054495274e-06
2.83275552268e-06
8.87965930491e-07
2.877939743e-07
3.87304801807e-07
1.16093076787e-06
2.46344247784e-06
1.95694264413e-05
1.95471405877e-05
1.95261129309e-05
1.94980731559e-05
1.94441787018e-05
1.93290820946e-05
1.90912641166e-05
1.86319957629e-05
1.78087889609e-05
1.6445003743e-05
1.43729787941e-05
1.15273295923e-05
8.08644375534e-06
4.6027012895e-06
1.92392462312e-06
5.99541166646e-07
3.04149275452e-07
6.39795784709e-07
1.62659098752e-06
2.82928361516e-06
1.96348792983e-05
1.96083807996e-05
1.95748515144e-05
1.95229068944e-05
1.94248397056e-05
1.92309063619e-05
1.88610328563e-05
1.8198899789e-05
1.70965377673e-05
1.54007830464e-05
1.3012483573e-05
9.9802552583e-06
6.60708691152e-06
3.49721171166e-06
1.36590020201e-06
4.65451167431e-07
3.94242313487e-07
9.65031918495e-07
2.02329030331e-06
3.0772142395e-06
1.96865416247e-05
1.96574091873e-05
1.96081722895e-05
1.9524350001e-05
1.9369059951e-05
1.90790902168e-05
1.85601355938e-05
1.76880079501e-05
1.63241465406e-05
1.43535430653e-05
1.17483036255e-05
8.64845921916e-06
5.43101523861e-06
2.695793711e-06
1.01282766694e-06
4.20822540205e-07
5.52900328324e-07
1.31259293367e-06
2.32821491754e-06
3.24024293827e-06
1.97210963569e-05
1.96907483361e-05
1.96223716572e-05
1.94987376824e-05
1.9274422359e-05
1.88751162248e-05
1.81978575808e-05
1.71197460779e-05
1.55220491943e-05
1.33336515967e-05
1.05911086174e-05
7.50214567379e-06
4.48325616257e-06
2.10288354649e-06
7.90838581169e-07
4.40652669905e-07
7.69712617554e-07
1.63685693724e-06
2.55215175922e-06
3.34442134254e-06
1.97364583096e-05
1.97059010657e-05
1.96148205107e-05
1.94438858244e-05
1.91405536197e-05
1.86226825688e-05
1.77843936967e-05
1.65114735177e-05
1.47110566104e-05
1.23558653483e-05
9.53680208768e-06
6.50979979108e-06
3.70954218315e-06
1.66037028836e-06
6.59820052766e-07
5.15404704928e-07
1.02314872883e-06
1.91390269608e-06
2.71399998063e-06
3.40785067809e-06
1.97309699631e-05
1.97007335899e-05
1.95834136207e-05
1.93584710652e-05
1.89682170907e-05
1.83263116446e-05
1.73291570507e-05
1.587655345e-05
1.39041440949e-05
1.14253723007e-05
8.5754382126e-06
5.64425345782e-06
3.07224822802e-06
1.33197270679e-06
5.96955851505e-07
6.39519346124e-07
1.28699299125e-06
2.13975746036e-06
2.83005032808e-06
3.44291910225e-06
1.9703118983e-05
1.96733767467e-05
1.95265008619e-05
1.92418560946e-05
1.87588975745e-05
1.79906842701e-05
1.68402166864e-05
1.52247474534e-05
1.31087936495e-05
1.05422008767e-05
7.6959261861e-06
4.88425981028e-06
2.54590522842e-06
1.09395154279e-06
5.89073179065e-07
8.05084050283e-07
1.53939974248e-06
2.32065045932e-06
2.91251729534e-06
3.4581839822e-06
1.96516271727e-05
1.96224351489e-05
1.94430790482e-05
1.90941608576e-05
1.85146962548e-05
1.76204512463e-05
1.63243781384e-05
1.45631177022e-05
1.23290874702e-05
9.70412037059e-06
6.88834315389e-06
4.2143383131e-06
2.11343676072e-06
9.29798447882e-07
6.28417567386e-07
1.00004272321e-06
1.76767767015e-06
2.4652444742e-06
2.97039511531e-06
3.45963722452e-06
1.95757212366e-05
1.95473393076e-05
1.93331021743e-05
1.89164557633e-05
1.82384035521e-05
1.72203116627e-05
1.57875428308e-05
1.38969703184e-05
1.15672861748e-05
8.90839459183e-06
6.14492434257e-06
3.62396300652e-06
1.7631522589e-06
8.27398801798e-07
7.09547021891e-07
1.21006974356e-06
1.96774008785e-06
2.58126123967e-06
3.01029050576e-06
3.45154511667e-06
1.94752687274e-05
1.94485827059e-05
1.91976825179e-05
1.87108682751e-05
1.79335298951e-05
1.67950839604e-05
1.52350081177e-05
1.32305279909e-05
1.08248024118e-05
8.15267690176e-06
5.46027369361e-06
3.10643874195e-06
1.48636868328e-06
7.77596257728e-07
8.26892316097e-07
1.42186201371e-06
2.14085849734e-06
2.67483192223e-06
3.03701252857e-06
3.43697668721e-06
1.93505253805e-05
1.93275895519e-05
1.90389575622e-05
1.84803955141e-05
1.76040824665e-05
1.63495381055e-05
1.46714782175e-05
1.25671824778e-05
1.01026007952e-05
7.43527909755e-06
4.83108368369e-06
2.65759812097e-06
1.2757072459e-06
7.73395013279e-07
9.734270045e-07
1.62565292921e-06
2.29049602503e-06
2.75073458916e-06
3.05401598051e-06
3.41811904018e-06
1.92014604948e-05
1.91861281409e-05
1.88595361898e-05
1.82283407595e-05
1.72540079682e-05
1.58879161569e-05
1.41007470236e-05
1.19093674062e-05
9.40117542678e-06
6.75504444864e-06
4.25556920505e-06
2.27447976685e-06
1.12419171235e-06
8.09286322992e-07
1.14072154707e-06
1.81597882017e-06
2.42042491344e-06
2.8127010815e-06
3.06373797253e-06
3.39645608442e-06
1.90268400128e-05
1.90254157682e-05
1.86616525041e-05
1.79575024333e-05
1.68864381965e-05
1.54132920344e-05
1.35252287318e-05
1.12582645133e-05
8.72035144242e-06
6.1110693405e-06
3.73281333767e-06
1.95422902128e-06
1.02510870093e-06
8.80500102313e-07
1.32001449766e-06
1.99098053415e-06
2.53400979856e-06
2.8636437549e-06
3.06785520045e-06
3.37287359654e-06
1.88235144419e-05
1.88452612046e-05
1.84463417907e-05
1.76694243139e-05
1.65030432449e-05
1.49270668764e-05
1.29456218176e-05
1.06136179377e-05
8.05917035429e-06
5.50250453221e-06
3.26222710816e-06
1.69346742302e-06
9.7232986901e-07
9.82297421229e-07
1.50354308524e-06
2.15107892305e-06
2.63409291247e-06
2.90583512961e-06
3.06749618716e-06
3.34774647697e-06
1.85862169487e-05
1.8643607347e-05
1.82129918512e-05
1.7364031153e-05
1.61037798236e-05
1.44288503376e-05
1.23609265849e-05
9.9738591918e-06
7.41605415568e-06
4.92861702767e-06
2.84328862711e-06
1.48823592122e-06
9.60667464803e-07
1.10953588841e-06
1.68547004537e-06
2.29774430736e-06
2.72304870227e-06
2.9410609715e-06
3.06343210649e-06
3.32105248291e-06
1.83079814683e-05
1.8416673407e-05
1.79594279857e-05
1.70397524921e-05
1.56870977102e-05
1.39167730733e-05
1.17688665662e-05
9.33661607223e-06
6.7893434483e-06
4.38919219116e-06
2.47559469037e-06
1.33436563978e-06
9.85930630189e-07
1.25663099099e-06
1.86212738983e-06
2.43268575233e-06
2.80283427372e-06
2.97074291779e-06
3.05624785957e-06
3.29253213452e-06
1.79812641588e-05
1.81595524921e-05
1.76823395468e-05
1.66939438701e-05
1.5250443525e-05
1.33881151603e-05
1.11666490557e-05
8.69958108766e-06
6.1781857901e-06
3.88517876072e-06
2.15905158547e-06
1.22793656054e-06
1.04459165176e-06
1.41785716309e-06
2.03168002413e-06
2.55745888547e-06
2.87502168979e-06
2.99602712834e-06
3.04647820552e-06
3.26188071257e-06
1.75977998598e-05
1.78665075e-05
1.7377637164e-05
1.63233532507e-05
1.47909001181e-05
1.28401369547e-05
1.05519653572e-05
8.06161657841e-06
5.58357256897e-06
3.41925176514e-06
1.89389646067e-06
1.16550735849e-06
1.13321547699e-06
1.58781464224e-06
2.19351565726e-06
2.673350566e-06
2.9408402446e-06
3.01784402584e-06
3.03469056677e-06
3.22892926589e-06
1.71481251447e-05
1.75309807801e-05
1.7040729287e-05
1.59246304097e-05
1.43059176e-05
1.22709932799e-05
9.92402272332e-06
7.42379055733e-06
5.00910586512e-06
2.99583320225e-06
1.68033674273e-06
1.1440157065e-06
1.24794248506e-06
1.76186694902e-06
2.34766517358e-06
2.78139987327e-06
3.00124091936e-06
3.03694806308e-06
3.02150711019e-06
3.19376437747e-06
1.66215203243e-05
1.71458223756e-05
1.66670043822e-05
1.54949543051e-05
1.37940161156e-05
1.1680457612e-05
9.28423156828e-06
6.78990300219e-06
4.46102939392e-06
2.62028486923e-06
1.51791839393e-06
1.16047200696e-06
1.38428693308e-06
1.93641032032e-06
2.49442283469e-06
2.88246581964e-06
3.05697174063e-06
3.05394475178e-06
3.00757683019e-06
3.15675756134e-06
1.60056489704e-05
1.67039452365e-05
1.62525908607e-05
1.50326351173e-05
1.32551772685e-05
1.10701216889e-05
8.63622710728e-06
6.16622795636e-06
3.94735334015e-06
2.29747916098e-06
1.40501894954e-06
1.21164717185e-06
1.53733700293e-06
2.10893027959e-06
2.6341785302e-06
2.97729533059e-06
3.10864389167e-06
3.06930968817e-06
2.99352351368e-06
3.11851332227e-06
1.52892219279e-05
1.61998556736e-05
1.57952566118e-05
1.45374551903e-05
1.2690742081e-05
1.04429968362e-05
7.98526395976e-06
5.56060391856e-06
3.47637196803e-06
2.03040428728e-06
1.33880292316e-06
1.29389793575e-06
1.70222690988e-06
2.27788265466e-06
2.76737901453e-06
3.06656906634e-06
3.15677467238e-06
3.08340323581e-06
2.97989911093e-06
3.07977763275e-06
1.44671792496e-05
1.56315069307e-05
1.52950921239e-05
1.4010647052e-05
1.21029466228e-05
9.80281833297e-06
7.33738074542e-06
4.98131956783e-06
3.05517018123e-06
1.81947399517e-06
1.31561983635e-06
1.40317413763e-06
1.87463490535e-06
2.44247412934e-06
2.89452353337e-06
3.15091780542e-06
3.20180635619e-06
3.09648414337e-06
2.96716249819e-06
3.0413588886e-06
1.35386859851e-05
1.50000368169e-05
1.4754317151e-05
1.345451107e-05
1.14944149667e-05
9.15350988386e-06
6.69881772923e-06
4.43626741829e-06
2.68866684546e-06
1.6627660166e-06
1.33153002003e-06
1.53516724564e-06
2.05109629898e-06
2.60241326988e-06
3.01614055309e-06
3.230915657e-06
3.24411105468e-06
3.10872428562e-06
2.95568557488e-06
3.00409748977e-06
1.25040131893e-05
1.43080192291e-05
1.41763897211e-05
1.2871960807e-05
1.08679717398e-05
8.49916861684e-06
6.07598604157e-06
3.93259825697e-06
2.37939404114e-06
1.55686729154e-06
1.38264167087e-06
1.68551600674e-06
2.22905513116e-06
2.75768429349e-06
3.13274329995e-06
3.30706745034e-06
3.28399627803e-06
3.12022489152e-06
2.94577106696e-06
2.96888698819e-06
1.13706281132e-05
1.3558594441e-05
1.35650953589e-05
1.22662425363e-05
1.02268598799e-05
7.84455362248e-06
5.47586212522e-06
3.47669280494e-06
2.12778089851e-06
1.49776337881e-06
1.46515070148e-06
1.85000123478e-06
2.40671617131e-06
2.90838003235e-06
3.24479100187e-06
3.37980895645e-06
3.32172161662e-06
3.13103229235e-06
2.93765824267e-06
2.9367171927e-06
1.01462766963e-05
1.27527257101e-05
1.29234310013e-05
1.16407522545e-05
9.57515372852e-06
7.19572875407e-06
4.90633757831e-06
3.07403076186e-06
1.93256369906e-06
1.48138593934e-06
1.57519257754e-06
2.02470988756e-06
2.58282638868e-06
3.05461269799e-06
3.35267991265e-06
3.44952745322e-06
3.35752672944e-06
3.14115025516e-06
2.93149836737e-06
2.90869537693e-06
8.82462505642e-06
1.18854222228e-05
1.22526293354e-05
1.09989689575e-05
8.91811414939e-06
6.56040664213e-06
4.37601807693e-06
2.72869879018e-06
1.79112908515e-06
1.50376909945e-06
1.70870800701e-06
2.20617651847e-06
2.75649661604e-06
3.19649640929e-06
3.45676553925e-06
3.51659434049e-06
3.39166189286e-06
3.15054822841e-06
2.92729783503e-06
2.88601059061e-06
7.41899260558e-06
1.09502063163e-05
1.15525988616e-05
1.03444936031e-05
8.26219588783e-06
5.94762893771e-06
3.89327711377e-06
2.44270513754e-06
1.69983362635e-06
1.56098616909e-06
1.8614724947e-06
2.39150161425e-06
2.92710701044e-06
3.33417274084e-06
3.55739673084e-06
3.58139242518e-06
3.42441007586e-06
3.15916927996e-06
2.92484530231e-06
2.8698282125e-06
5.99406026949e-06
9.94643068236e-06
1.08230731508e-05
9.68098945676e-06
7.61462151796e-06
5.36681332282e-06
3.46491289767e-06
2.21557633967e-06
1.65439362222e-06
1.64906896991e-06
2.02930901122e-06
2.57842703648e-06
3.09427688314e-06
3.46784243633e-06
3.65493779669e-06
3.64432347125e-06
3.45609398651e-06
3.16694480143e-06
2.92365224334e-06
2.86112422355e-06
4.61526476202e-06
8.87588852809e-06
1.00646283362e-05
9.01262173897e-06
6.98299425929e-06
4.82659971608e-06
3.09504184645e-06
2.04456852808e-06
1.65032755071e-06
1.76402529745e-06
2.20838965592e-06
2.7653453058e-06
3.25785138802e-06
3.59777426817e-06
3.74976421786e-06
3.70579166872e-06
3.48706750143e-06
3.17382080424e-06
2.92293804203e-06
2.86048518091e-06
3.34294825375e-06
7.74754836598e-06
9.28197306237e-06
8.34557312203e-06
6.37509967281e-06
4.3337846839e-06
2.78466110194e-06
1.92542334071e-06
1.68334248172e-06
1.90195049902e-06
2.39548183486e-06
2.95122250008e-06
3.4178578163e-06
3.72427523668e-06
3.84223058024e-06
3.76616933758e-06
3.51769607552e-06
3.17979251165e-06
2.92167469539e-06
2.86790534687e-06
2.25758417782e-06
6.59111738981e-06
8.48501379747e-06
7.68791329324e-06
5.79817663171e-06
3.89269168954e-06
2.53212122717e-06
1.85335995403e-06
1.74954355229e-06
2.05912877394e-06
2.58801427026e-06
3.13542984479e-06
3.57441290763e-06
3.84762931481e-06
3.93262549151e-06
3.82575887689e-06
3.54832663251e-06
3.18490967779e-06
2.9185981503e-06
2.88243756481e-06
1.36871460572e-06
5.44592095934e-06
7.68426009166e-06
)
;

boundaryField
{
    emptyPatch
    {
        type            empty;
    }
    minY
    {
        type            calculated;
        value           nonuniform List<scalar> 
40
(
1.93604750092e-05
1.93598414518e-05
1.93597499845e-05
1.93596366124e-05
1.93595256488e-05
1.93594223769e-05
1.93593273305e-05
1.93592414573e-05
1.93591657814e-05
1.93591000789e-05
1.93590440454e-05
1.9358997109e-05
1.9358958386e-05
1.93589270189e-05
1.93589022842e-05
1.9358883575e-05
1.93588703822e-05
1.93588622888e-05
1.93588589649e-05
1.93588601428e-05
1.93588654557e-05
1.93588741924e-05
1.93588856436e-05
1.93588993927e-05
1.93589151656e-05
1.93589328058e-05
1.9358952251e-05
1.9358973515e-05
1.93589966715e-05
1.93590218446e-05
1.93590492064e-05
1.93590789932e-05
1.93591115477e-05
1.9359147388e-05
1.93591872063e-05
1.93592314084e-05
1.93592794283e-05
1.93593323348e-05
1.93594035051e-05
1.93601168714e-05
)
;
    }
    maxY
    {
        type            calculated;
        value           nonuniform List<scalar> 0();
    }
    maxX
    {
        type            nutkWallFunction;
        blending        stepwise;
        value           uniform 0;
    }
    water_to_heater
    {
        type            nutkWallFunction;
        blending        stepwise;
        value           uniform 0;
    }
    procBoundary2to3
    {
        type            processor;
        value           nonuniform List<scalar> 
41
(
5.03967198827e-06
4.54751964193e-06
3.57056868882e-06
2.60672340817e-06
1.88919329313e-06
1.42060248256e-06
1.13054346757e-06
9.40423350331e-07
7.91585457677e-07
6.34860096728e-07
4.37535931985e-07
2.1955490092e-07
7.30472462865e-08
3.20906280735e-08
2.74544652461e-08
2.68397285904e-08
2.59853171623e-08
2.607020072e-08
2.87680058741e-08
5.74783987481e-08
7.04746340294e-06
5.25823145056e-06
3.50545556827e-06
2.33425775732e-06
1.82387011997e-06
1.84539951994e-06
2.23206116764e-06
2.78397945422e-06
3.31755710653e-06
3.72763595014e-06
3.9680616389e-06
4.02117561898e-06
3.88484627261e-06
3.5794535864e-06
3.18976780449e-06
2.91339363792e-06
2.90403350514e-06
6.5622893305e-07
4.33472809435e-06
7.04746340294e-06
6.88835886285e-06
)
;
    }
}

