/*--------------------------------*- C++ -*----------------------------------*\
| =========                 |                                                 |
| \\      /  F ield         | OpenFOAM: The Open Source CFD Toolbox           |
|  \\    /   O peration     | Version:  2312                                  |
|   \\  /    A nd           | Website:  www.openfoam.com                      |
|    \\/     M anipulation  |                                                 |
\*---------------------------------------------------------------------------*/
FoamFile
{
    version     2.0;
    format      ascii;
    arch        "LSB;label=32;scalar=64";
    class       volScalarField;
    location    "0.48/water";
    object      Tf.gasAndLiquid;
}
// * * * * * * * * * * * * * * * * * * * * * * * * * * * * * * * * * * * * * //

dimensions      [0 0 0 1 0 0 0];

internalField   nonuniform List<scalar> 
1503
(
314.382453819
306.168159157
302.664037746
301.082142196
300.454513376
300.088416019
300.003634196
300.000021171
300.000000017
300
300
300
300
300
300
300
300
300
300
300
320.241706225
308.331683657
303.031183046
301.110244287
300.400528666
300.14437463
300.045922237
300.005176853
300.000076655
300.00000008
300
300
300
300
300
300
300
300
300
300
320.369599486
307.916984837
302.725712424
300.916490861
300.302628515
300.09912942
300.032129225
300.008084417
300.000574401
300.000006004
300.000000002
300
300
300
300
300
300
300
300
300
319.528288728
307.910905044
302.841301447
300.957384525
300.311640602
300.098206241
300.02964892
300.008627913
300.001424786
300.000053206
300.000000432
300
300
300
300
300
300
300
300
300
318.742669882
307.77513765
302.960517154
301.046145552
300.354296569
300.116492372
300.035940114
300.010204751
300.002768603
300.000250804
300.000005703
300.000000001
300
300
300
300
300
300
300
300
317.834859023
307.482624917
302.966686194
301.103237575
300.392178993
300.136800959
300.045507963
300.013440041
300.003626306
300.000691168
300.000030899
300.00000043
300
300
300
300
300
300
300
300
317.033332409
307.079654168
302.848244859
301.098811355
300.407865505
300.149792608
300.053691023
300.017067828
300.004603914
300.001217929
300.000124039
300.000003019
300
300
300
300
300
300
300
300
316.530426671
306.713519056
302.677815733
301.0467479
300.40251624
300.155105019
300.059367841
300.020480338
300.005651982
300.001406603
300.000299293
300.000012419
300.000000006
300
300
300
300
300
300
300
316.180187937
306.509422928
302.584554796
301.014364842
300.398557765
300.159910196
300.065186162
300.024412042
300.007060486
300.001637255
300.000419296
300.000042156
300.000000155
300
300
300
300
300
300
300
316.068622973
306.459932525
302.558839593
301.008353316
300.4025625
300.167318563
300.07201509
300.029214162
300.00922691
300.002080538
300.000461859
300.000102217
300.0000021
300.000000001
300
300
300
300
300
300
316.665942289
306.75369409
302.663008547
301.049844956
300.424786332
300.181539916
300.081391017
300.035133195
300.012153342
300.002821312
300.000550757
300.000135602
300.000012111
300.000000052
300
300
300
300
300
300
317.445854736
307.116040417
302.811712316
301.117203567
300.460106441
300.201609352
300.09326449
300.042124212
300.015744198
300.003879948
300.000696503
300.000147224
300.000037498
300.000001095
300.000000001
300
300
300
300
300
317.646532504
307.191635651
302.845982638
301.140682875
300.480262864
300.217449585
300.104254652
300.049032667
300.019520049
300.005183714
300.000886659
300.000165273
300.00004177
300.000005929
300.000000037
300
300
300
300
300
317.745723958
307.203687897
302.852526422
301.145341985
300.488909536
300.227901479
300.112969862
300.054891133
300.022927483
300.006552406
300.001123672
300.000185793
300.000042538
300.000015032
300.000000571
300
300
300
300
300
317.820045475
307.193957803
302.836659434
301.139248821
300.490961338
300.234181653
300.119405379
300.059350568
300.02561782
300.007799848
300.001389936
300.000211437
300.000043856
300.000013957
300.000002027
300.00000001
300
300
300
300
317.901937324
307.145380463
302.786415531
301.117524025
300.486069856
300.236424058
300.123136545
300.062221423
300.027524141
300.00884175
300.001665393
300.00024092
300.000045046
300.000012845
300.000003849
300.00000008
300
300
300
300
317.913343118
307.035412556
302.690210108
301.074140042
300.472844865
300.23469275
300.124333426
300.063704913
300.028881836
300.009740139
300.001951353
300.000272476
300.000045672
300.000011722
300.000004209
300.000000224
300
300
300
300
317.834986122
306.848003467
302.554454921
301.011726903
300.451665321
300.229220663
300.123387548
300.064591942
300.030107461
300.010664736
300.002282548
300.000308786
300.000045676
300.000010535
300.000003394
300.000000325
300.000000001
300
300
300
317.684571123
306.805053905
302.521402901
300.986477185
300.439579155
300.225050644
300.123055526
300.066074315
300.031775853
300.011876617
300.002736048
300.000360469
300.000045616
300.000009331
300.000002565
300.000000361
300.000000001
300
300
300
317.518847944
306.870322265
302.573015856
301.004936472
300.443136613
300.226042971
300.125229179
300.068850654
300.034308397
300.013617922
300.003407965
300.000444388
300.000046761
300.00000824
300.000001806
300.000000334
300.000000002
300
300
300
316.977861411
306.799030903
302.609270447
301.030874076
300.452064518
300.229952548
300.129107475
300.072955516
300.037872307
300.016040504
300.004371241
300.000576409
300.000052092
300.000007732
300.00000129
300.000000166
300
300
300
300
316.280775664
306.5976423
302.581624015
301.030833324
300.453212761
300.233103031
300.13450343
300.078792945
300.042726436
300.019204001
300.005648052
300.000769518
300.000062922
300.000008323
300.000001137
300.000000046
300
300
300
300
316.070269778
306.455172257
302.515594943
301.009543829
300.451397565
300.239566803
300.143681083
300.087363432
300.04925433
300.023204726
300.007261589
300.001034397
300.000080196
300.000010031
300.00000129
300.000000041
300
300
300
300
316.400828885
306.606302393
302.589031244
301.043560431
300.473532592
300.257418251
300.15852491
300.099030743
300.057532099
300.028146106
300.009241136
300.001387807
300.000110138
300.000013671
300.000001812
300.000000103
300
300
300
300
317.169934788
306.979015446
302.769749499
301.134316904
300.522116111
300.285917759
300.177589347
300.112783106
300.067164535
300.033944132
300.011591112
300.001836627
300.000156524
300.000020113
300.000002739
300.000000204
300
300
300
300
318.086424017
307.436876444
302.988637915
301.244422131
300.579880701
300.31775585
300.197619667
300.126991422
300.07746261
300.040440696
300.014362388
300.002414951
300.000218387
300.000029209
300.000004184
300.000000373
300
300
300
300
318.793094999
307.807515752
303.167144598
301.332779266
300.627016682
300.344902908
300.215409394
300.140168493
300.087577358
300.047408274
300.017654491
300.003141108
300.000301911
300.000040838
300.000006111
300.000000638
300
300
300
300
318.974045674
307.899778931
303.21231612
301.362103665
300.64963418
300.362530005
300.229150501
300.151309113
300.096485019
300.0537226
300.021309933
300.004068875
300.000402786
300.000054928
300.000008438
300.000001012
300
300
300
300
319.030024867
307.916227612
303.217000869
301.36593038
300.657799762
300.372850727
300.239103697
300.160079421
300.103444227
300.058414953
300.024392959
300.005201219
300.000528574
300.000069192
300.000010672
300.000001386
300.000000026
300
300
300
319.029530481
307.90139378
303.198295712
301.357229597
300.657779083
300.377898982
300.24557896
300.166059393
300.107756291
300.061154589
300.026280958
300.006145798
300.000670532
300.000081429
300.000012116
300.000001683
300.000000099
300
300
300
319.038824761
307.869843952
303.166401102
301.343807118
300.654704503
300.379805774
300.249016252
300.169011084
300.109116848
300.061749927
300.026823064
300.006601112
300.000774693
300.000087685
300.000012958
300.000001836
300.000000134
300
300
300
319.00586914
307.815784538
303.118286364
301.323587861
300.649160451
300.379571417
300.249881284
300.16901768
300.107849945
300.060497328
300.026260461
300.006610537
300.000811955
300.000088561
300.000013896
300.000001853
300.000000127
300
300
300
318.94910567
307.670170833
303.015238447
301.279292192
300.635087642
300.375734685
300.247978773
300.166163904
300.104557387
300.058012198
300.025056224
300.006404883
300.000811162
300.000083974
300.00001408
300.000001803
300.000000091
300
300
300
318.8348638
307.604146669
302.958016647
301.245147144
300.621040673
300.370228387
300.243902881
300.161178069
300.100021957
300.054989037
300.023760223
300.006220923
300.000819193
300.000083982
300.000014723
300.000001823
300.000000038
300
300
300
318.776140555
307.590477108
302.94355675
301.231718311
300.612701704
300.364923672
300.238185093
300.155086682
300.095188089
300.052185313
300.022837768
300.006277028
300.000874601
300.000097938
300.000016474
300.000001952
300
300
300
300
318.705979818
307.597322829
302.949635577
301.234535333
300.611497681
300.360969516
300.231911067
300.148992723
300.090956712
300.050204528
300.022653823
300.006679094
300.001021162
300.000118566
300.000018865
300.000002173
300
300
300
300
318.695402894
307.579794582
302.945919573
301.239784327
300.613853136
300.358141757
300.226307648
300.143863892
300.087988258
300.049530884
300.023413687
300.007558094
300.001295978
300.0001444
300.000021172
300.000002331
300
300
300
300
318.655288442
307.508097275
302.907790399
301.231211158
300.612012491
300.354247088
300.221116785
300.140253155
300.087271336
300.050920597
300.025421096
300.008826055
300.001581614
300.000167681
300.000022391
300.000002264
300
300
300
300
300
300
300
300
300
300
300
300
300
300
300
300
300
300
300
300
300
300
300
300
300
300
300
300
300
300
300
300
300
300
300
300
300
300
300
300
300
300
300
300
300
300
300
300
300
300
300
300
300
300
300
300
300
300
300
300
300
300
300
300
300
300
300
300
300
300
300
300
300
300
300
300
300
300
300
300
300
300
300
300
300
300
300
300
300
300
300
300
300
300
300
300
300
300
300
300
300
300
300
300
300
300
300
300
300
300
300
300
300
300
300
300
300
300
300
300
300
300
300
300
300
300
300
300
300
300
300
300
300
300
300
300
300
300
300
300
300
300
300
300
300
300
300
300
300
300
300
300
300
300
300
300
300
300
300
300
300
300
300
300
300
300
300
300
300
300
300
300
300
300
300
300
300
300
300
300
300
300
300
300
300
300
300
300
300
300
300
300
300
300
300
300
300
300
300
300
300
300
300
300
300
300
300
300
300
300
300
300
300
300
300
300
300
300
300
300
300
300
300
300
300
300
300
300
300
300
300
300
300
300
300
300
300
300
300
300
300
300
300
300
300
300
300
300
300
300
300
300
300
300
300
300
300
300
300
300
300
300
300
300
300
300
300
300
300
300
300
300
300
300
300
300
300
300
300
300
300
300
300
300
300
300
300
300
300
300
300
300
300
300
300
300
300
300
300
300
300
300
300
300
300
300
300
300
300
300
300
300
300
300
300
300
300
300
300
300
300
300
300
300
300
300
300
300
300
300
300
300
300
300
300
300
300
300
300
300
300
300
300
300
300
300
300
300
300
300
300
300
300
300
300
300
300
300
300
300
300
300
300
300
300
300
300
300
300
300
300
300
300
300
300
300
300
300
300
300
300
300
300
300
300
300
300
300
300
300
300
300
300
300
300
300
300
300
300
300
300
300
300
300
300
300
300
300
300
300
300
300
300
300
300
300
300
300
300
300
300
300
300
300
300
300
300
300
300
300
300
300
300
300
300
300
300
300
300
300
300
300
300
300
300
300
300
300
300
300
300
300
300
300
300
300
300
300
300
300
300
300
300
300
300
300
300
300
300
300
300
300
300
300
300
300
300
300
300
300
300
300
300
300
300
300
300
300
300
300
300
300
300
300
300
300
300
300
300
300
300
300
300
300
300
300
300
300
300
300
300
300
300
300
300
300
300
300
300
300
300
300
300
300
300
300
300
300
300
300
300
300
300
300
300
300
300
300
300
300
300
300
300
300
300
300
300
300
300
300
300
300
300
300
300
300
300
300
300
300
300
300
300
300
300
300
300
300
300
300
300
300
300
300
300
300
300
300
300
300
300
300
300
300
300
300
300
300
300
300
300
300
300
300
300
300
300
300
300
300
300
300
300
300
300
300
300
300
300
300
300
300
300
300
300
300
300
300
300
300
300
300
300
300
300
300
300
300
300
300
300
300
300
300
300
300
300
300
300
300
300
300
300
300
300
300
300
300
300
300
300
300
300
300
300
300
300
300
300
300
300
300
300
300
300
300
300
300
300
300
300
300
300
300
300
300
300
300
300
300
300
300
300
300
300
300
300
300
300
300
300
300
300
300
300
300
300
300
300
300
300
300
300
300
300
300
300
300
300
300
300
300
300
300
300
300
300
300
300
300
300
300
300
300
300
300
300
300
300
300
300
300
300
300
300
300
300
300
300
300
300
300
300
300
300
300
300
)
;

boundaryField
{
    emptyPatch
    {
        type            empty;
    }
    minY
    {
        type            calculated;
        value           nonuniform List<scalar> 
40
(
300
300
300
300
300
300
300
300
300
300
300
300
300
300
300
300
300
300
300
300
300
300
300
300
300
300
300
300
300
300
300
300
300
300
300
300
300
300
300
300
)
;
    }
    maxY
    {
        type            calculated;
        value           nonuniform List<scalar> 0();
    }
    maxX
    {
        type            calculated;
        value           nonuniform List<scalar> 
37
(
300
300
300
300
300
300
300
300
300
300
300
300
300
300
300
300
300
300
300
300
300
300
300
300
300
300
300
300
300
300
300
300
300
300
300
300
300
)
;
    }
    water_to_heater
    {
        type            calculated;
        value           nonuniform List<scalar> 
61
(
792.462523683
792.413856746
792.163126558
792.163573268
792.058974151
792.058773953
792.017904029
792.018498811
792.019507965
792.021532675
792.029090472
792.030222297
792.034527208
792.035473747
792.035871262
792.03581033
792.027889917
792.024444335
792.016156665
792.016543182
792.006517971
792.006181316
791.996393459
791.996805998
791.987196973
791.987584026
791.979411418
791.979128148
791.972642272
791.972863149
791.969128734
791.969011251
791.968411897
791.970737955
791.968120205
791.967960623
791.965549042
791.963872864
791.963455739
791.96087942
791.960079888
791.959793053
791.960095984
791.960357617
791.960325655
791.960364334
791.961242601
791.961327569
791.962817876
791.962877625
791.963955583
791.963882117
791.965549688
791.965569174
791.969384081
791.969303101
791.976307949
791.976251625
791.989270923
791.989324101
792.015061368
)
;
    }
    procBoundary2to3
    {
        type            processor;
        value           nonuniform List<scalar> 
41
(
318.710465634
307.585175926
302.950998891
301.244725711
300.612773084
300.349331254
300.216511593
300.138953994
300.088890402
300.053888843
300.027960093
300.010113376
300.001868927
300.000189938
300.000022455
300.000001978
300
300
300
300
300
300
300
300
300
300
300
300
300
300
300
300
300
300
300
300
300
300
300
300
300
)
;
    }
}


// ************************************************************************* //
