/*--------------------------------*- C++ -*----------------------------------*\
| =========                 |                                                 |
| \\      /  F ield         | OpenFOAM: The Open Source CFD Toolbox           |
|  \\    /   O peration     | Version:  2312                                  |
|   \\  /    A nd           | Website:  www.openfoam.com                      |
|    \\/     M anipulation  |                                                 |
\*---------------------------------------------------------------------------*/
FoamFile
{
    version     2.0;
    format      ascii;
    arch        "LSB;label=32;scalar=64";
    class       volScalarField;
    location    "0.7/water";
    object      d.gas;
}
// * * * * * * * * * * * * * * * * * * * * * * * * * * * * * * * * * * * * * //

dimensions      [0 1 0 0 0 0 0];

internalField   nonuniform List<scalar> 
1504
(
0.0049807508166
0.00498074012673
0.00498071939584
0.0049807123588
0.00498071072065
0.0049807110203
0.00498070996774
0.00498070650977
0.00498070173626
0.00498069812949
0.00498069825902
0.00498069740004
0.00498069370474
0.00498068995312
0.00498068902483
0.00498068991174
0.00498068555052
0.00498067336307
0.0049806612445
0.00498065181118
0.00498083859474
0.00498083279854
0.00498081268136
0.00498080658084
0.00498080649157
0.00498080627699
0.00498080512668
0.00498080221183
0.00498079904348
0.00498079972913
0.00498080566494
0.00498080871957
0.00498080774493
0.00498080770431
0.00498081126409
0.00498081750913
0.00498081613847
0.00498080559219
0.00498079533975
0.00498078857911
0.00498093234831
0.00498093067604
0.00498090977812
0.00498090358467
0.00498090206462
0.00498090099521
0.00498089889946
0.00498089642161
0.00498089603664
0.00498090348745
0.00498091470618
0.00498091868079
0.00498092114889
0.00498092478291
0.00498093224062
0.00498094368007
0.00498094542108
0.00498093770465
0.00498093017945
0.00498092567857
0.00498100947048
0.00498101455802
0.00498099866863
0.00498099363657
0.00498099288932
0.00498099178007
0.00498099075148
0.00498099107183
0.00498099658567
0.00498101254435
0.00498102457406
0.00498103136527
0.00498103687265
0.00498104436862
0.00498105680191
0.0049810727411
0.0049810782439
0.00498107419322
0.00498106963606
0.00498106642528
0.00498109258342
0.00498110459484
0.00498109102429
0.00498108688991
0.00498108555772
0.00498108539067
0.00498108692798
0.00498109167751
0.00498110685799
0.00498112742314
0.00498114067919
0.00498114938414
0.00498116004207
0.00498117164083
0.00498118721963
0.00498120934915
0.0049812179181
0.00498121823338
0.00498121530029
0.00498121172554
0.00498119505623
0.00498120671623
0.00498118586382
0.0049811812728
0.00498118200109
0.0049811856793
0.00498119199778
0.00498120514244
0.00498123127756
0.00498125362121
0.00498126511221
0.00498127912769
0.00498129283366
0.00498130707819
0.00498133036183
0.00498135353227
0.00498136429447
0.00498136653296
0.0049813638622
0.00498136046323
0.00498132207369
0.00498133525804
0.00498130445149
0.004981298819
0.00498130221831
0.00498130948622
0.00498132106753
0.00498134589336
0.00498137495905
0.00498138951918
0.00498140622855
0.00498142157862
0.00498143826034
0.00498145759714
0.00498148035511
0.00498150503155
0.00498151656479
0.00498152106169
0.0049815205434
0.00498151771643
0.00498145627786
0.00498147424027
0.00498143958948
0.00498143521364
0.00498144258259
0.00498145439664
0.00498147458329
0.00498150631592
0.00498152605512
0.00498154493631
0.00498156102591
0.0049815795656
0.004981599383
0.00498161794217
0.00498164702101
0.00498166923927
0.00498168252453
0.00498169002665
0.00498169105986
0.00498168884328
0.00498159473678
0.00498162401253
0.0049815900965
0.00498158750934
0.00498159889329
0.00498161661135
0.00498164652126
0.00498167443295
0.00498169656683
0.00498171275075
0.00498173319397
0.00498175406072
0.0049817734924
0.00498180066175
0.00498182681553
0.00498184902666
0.00498186518536
0.00498187607378
0.00498187968978
0.00498187838827
0.00498173690064
0.00498178189571
0.00498175846545
0.0049817592874
0.00498177423174
0.00498179774758
0.00498183052171
0.00498185929661
0.004981876735
0.0049818990961
0.00498192109211
0.00498194348495
0.00498197042932
0.00498199518755
0.00498202551051
0.00498204824495
0.00498206875021
0.00498208371864
0.0049820908147
0.00498209033052
0.00498190031481
0.00498196056849
0.00498193967566
0.0049819468241
0.00498196675487
0.00498199602086
0.00498203374001
0.00498205562036
0.00498208068879
0.0049821033523
0.00498212661222
0.00498216012582
0.00498218441475
0.00498221858896
0.00498224476738
0.0049822704601
0.00498229512008
0.00498231376338
0.00498232286283
0.00498232470452
0.00498211339611
0.00498219819218
0.00498218124368
0.00498218541991
0.00498220308468
0.0049822325467
0.00498226519418
0.00498229461613
0.00498232425727
0.00498235115074
0.00498239531629
0.0049824218458
0.00498244801241
0.00498247046124
0.0049824932397
0.00498251852514
0.00498254224318
0.00498255996444
0.00498256888154
0.00498256684933
0.00498248852512
0.00498259602851
0.00498256863763
0.00498256442025
0.00498257485686
0.00498259574431
0.00498262699609
0.00498266467101
0.00498270134555
0.00498273438031
0.00498274244134
0.00498274479935
0.00498275246464
0.0049827641281
0.00498277778154
0.00498279341048
0.00498280808519
0.00498281950556
0.00498282322085
0.00498281948495
0.00498310175981
0.00498320505826
0.00498317115842
0.00498316226143
0.00498316532426
0.00498317202667
0.00498318518849
0.00498319990238
0.00498319719364
0.00498317002857
0.0049831368431
0.00498311502067
0.00498310428025
0.00498309704255
0.00498309185467
0.00498308903847
0.00498308816815
0.00498308815336
0.00498308782211
0.00498308058635
0.00498365164642
0.00498371966137
0.00498368874925
0.00498368191087
0.00498368567347
0.00498368618572
0.00498367767698
0.00498365442441
0.00498361383252
0.00498356466636
0.00498351892144
0.00498348269334
0.00498345321263
0.00498342663351
0.00498340260477
0.00498338193862
0.00498336466914
0.00498335121217
0.00498334262913
0.00498333321832
0.00498395674906
0.00498396993357
0.00498393445356
0.00498392973795
0.00498393478244
0.00498393805506
0.00498393155181
0.00498391179681
0.00498388179021
0.00498384699166
0.00498381128646
0.00498377546862
0.00498373991867
0.00498370557693
0.00498367319499
0.0049836434989
0.0049836166314
0.00498359402296
0.00498357869017
0.00498356807012
0.00498410617471
0.00498409878312
0.00498406376957
0.00498405932905
0.00498406468137
0.00498407081306
0.00498407177348
0.00498406469429
0.00498405039959
0.00498403108641
0.004984008255
0.00498398203656
0.00498395253848
0.00498392187203
0.00498389131947
0.00498386205351
0.00498383453371
0.00498381053592
0.00498379161733
0.00498378230709
0.00498418879073
0.00498418773895
0.00498416338409
0.00498416429779
0.00498417337692
0.0049841826412
0.00498418778036
0.00498418638094
0.00498417848589
0.00498416552372
0.00498414950345
0.00498413164886
0.00498411178855
0.00498409008282
0.00498406705021
0.00498404382613
0.00498402100479
0.00498400081978
0.00498398600494
0.00498397732233
0.00498429752453
0.00498430503742
0.00498428312166
0.00498428304912
0.00498429037119
0.00498429819127
0.00498430215959
0.00498430032235
0.00498429298909
0.00498428130067
0.00498426778098
0.00498425457051
0.00498424213787
0.00498422942259
0.0049842149672
0.00498419926812
0.00498418244432
0.00498416745469
0.00498415969245
0.00498415521976
0.0049843701095
0.00498439106908
0.0049843825012
0.0049843867238
0.00498439579603
0.00498440364706
0.00498440667764
0.00498440428527
0.00498439708451
0.00498438611194
0.00498437419399
0.0049843642588
0.00498435782795
0.00498435280825
0.00498434616716
0.00498433717789
0.00498432548788
0.00498431555555
0.00498431492493
0.0049843122532
0.00498447212938
0.0049845023915
0.00498448604879
0.00498448884333
0.00498449747623
0.00498450415333
0.00498450582688
0.00498450246664
0.00498449488553
0.00498448445898
0.00498447407577
0.00498446687462
0.0049844654436
0.00498446773984
0.0049844681498
0.00498446389662
0.00498445572318
0.00498445059104
0.00498445710711
0.00498446375155
0.004984545783
0.00498458673787
0.00498457291809
0.00498457868304
0.00498458962491
0.00498459684722
0.00498459794158
0.00498459361885
0.0049845855944
0.00498457525656
0.00498456556187
0.00498456109721
0.00498456653718
0.00498457766541
0.00498458418706
0.00498458341861
0.00498457928238
0.00498458048281
0.00498459559688
0.0049846076468
0.00498463621822
0.00498468975312
0.00498467089436
0.00498467326353
0.00498468247283
0.00498468766939
0.00498468634803
0.00498467997304
0.00498467048409
0.00498465957889
0.00498465149514
0.00498465297844
0.0049846691727
0.00498468856918
0.00498469918242
0.00498470218879
0.0049847037009
0.00498471266625
0.0049847361744
0.004984760015
0.00498471129854
0.00498477611348
0.00498476325152
0.00498476688039
0.00498477701106
0.00498478168808
0.0049847787877
0.00498477081454
0.00498476045364
0.0049847507392
0.00498474727504
0.00498475846195
0.00498478541376
0.00498480977767
0.00498482316137
0.00498483059737
0.0049848388961
0.00498485663128
0.00498488678539
0.00498491787829
0.00498481438192
0.00498489436521
0.00498488617219
0.00498488846453
0.00498489699062
0.00498489948555
0.0049848943145
0.00498488474486
0.00498487451045
0.00498486794548
0.0049848714855
0.0049848938858
0.0049849267988
0.00498495150536
0.00498496771538
0.00498497974699
0.00498499413655
0.00498501752907
0.0049850535811
0.00498509433416
0.00498496693159
0.00498505074668
0.00498503306884
0.00498503488213
0.00498504351682
0.00498504472935
0.00498503815945
0.0049850285229
0.00498502080791
0.0049850198977
0.00498503269873
0.00498506396845
0.0049850975041
0.00498512223821
0.00498514005026
0.00498515435689
0.00498517452153
0.00498520521141
0.00498524525593
0.00498528877395
0.00498513269781
0.00498522623042
0.00498520262028
0.00498520582084
0.0049852156098
0.00498521549034
0.00498520871762
0.00498520181266
0.00498519974271
0.00498520755809
0.00498523104713
0.00498526645909
0.00498529833412
0.00498532269004
0.00498534089834
0.00498535924237
0.00498538594973
0.004985417404
0.00498545759353
0.00498550334169
0.0049853283184
0.00498544200843
0.00498541382273
0.00498541650346
0.00498542449846
0.00498542179375
0.00498541631644
0.00498541469789
0.00498542059752
0.00498543903276
0.00498547019036
0.00498550486769
0.00498553371753
0.00498555630864
0.00498557541651
0.00498559771047
0.00498562641041
0.00498565757781
0.00498569612072
0.0049857364928
0.00498564074783
0.00498577406248
0.00498574285054
0.00498574239512
0.00498573896459
0.00498572982518
0.00498572209388
0.00498572060437
0.00498572867887
0.00498574891265
0.00498577599579
0.00498580132941
0.00498582155521
0.00498583834372
0.00498585593294
0.00498587695461
0.0049859005679
0.00498592276118
0.00498595254717
0.00498598681634
0.00498621719301
0.00498633197428
0.00498630418775
0.00498628417631
0.00498625273448
0.00498622033756
0.00498619191358
0.0049861711293
0.00498616050678
0.00498616033977
0.0049861650456
0.00498616821696
0.0049861699775
0.00498617244254
0.00498617759123
0.00498618499011
0.00498619395515
0.004986205075
0.00498622406343
0.00498624649065
0.00498687200434
0.00498690989014
0.00498685807534
0.00498683029376
0.00498680087058
0.00498676163609
0.0049867125812
0.00498666437127
0.00498662335571
0.00498659121862
0.00498656609921
0.00498654410889
0.00498652472291
0.00498650869072
0.00498649647988
0.00498648790009
0.00498648343263
0.00498648226932
0.00498648893585
0.00498650335599
0.00498708674437
0.00498708870902
0.00498707928833
0.00498707557134
0.00498707098981
0.00498706433982
0.00498704176453
0.00498700249416
0.00498695712037
0.00498691360242
0.00498687513611
0.00498684114401
0.00498681083395
0.00498678544571
0.00498676423442
0.00498674748008
0.00498673548793
0.0049867291965
0.00498673084291
0.0049867402823
0.00498712109004
0.00498712188776
0.00498712242505
0.00498712303342
0.00498712387178
0.00498712752673
0.00498713218423
0.004987125937
0.00498710656827
0.00498708026048
0.00498705307692
0.0049870266402
0.00498700219891
0.00498698030659
0.00498696205725
0.00498694741574
0.00498693716949
0.00498693171833
0.0049869329717
0.00498694427129
0.00498714444661
0.00498714494565
0.00498714526787
0.00498714556899
0.00498714597436
0.00498714731657
0.00498715186343
0.00498715430108
0.00498715003068
0.00498714166645
0.00498713403978
0.00498712613437
0.00498711454019
0.00498710442416
0.00498709600913
0.00498708973804
0.0049870864627
0.00498708712908
0.00498709306841
0.00498710773185
0.00498716504509
0.00498716527559
0.00498716546396
0.00498716573043
0.00498716607763
0.00498716639718
0.00498716880717
0.00498717138194
0.0049871714084
0.0049871721643
0.00498717911809
0.00498718520019
0.00498718693907
0.00498718688835
0.00498718837581
0.00498719183942
0.00498719627944
0.00498720377581
0.00498721495939
0.0049872333345
0.00498719160991
0.00498719360785
0.00498718334184
0.00498718311777
0.00498718326241
0.00498718352954
0.00498718591394
0.00498718896318
0.00498719151266
0.00498719820261
0.00498721526757
0.00498723344805
0.00498724139305
0.00498725006768
0.00498725945747
0.00498726928705
0.00498728128411
0.0049872935695
0.00498730821335
0.0049873267395
0.0049872320912
0.00498723507343
0.00498721367524
0.00498721210447
0.00498721242003
0.00498721261166
0.00498721342146
0.00498721437593
0.00498721591048
0.00498722673089
0.00498725447359
0.00498727865743
0.00498729511857
0.00498730887008
0.00498732413912
0.00498734063725
0.00498735567776
0.00498737214617
0.00498738780673
0.00498740557762
0.00498728092197
0.00498727290655
0.00498723755043
0.00498723512996
0.00498723802721
0.00498724095287
0.00498724242126
0.00498046009262
0.00498045158566
0.00498044447037
0.00498043851982
0.00498043353244
0.0049804293529
0.00498042587571
0.00498042301624
0.00498042068935
0.00498041881933
0.00498041734383
0.00498041620967
0.00498041536903
0.00498041477552
0.00498041437813
0.00498041412137
0.00498041400412
0.00498064229647
0.0049806333873
0.00498062566026
0.00498061888489
0.00498061306084
0.00498060814523
0.00498060401779
0.00498060055076
0.00498059764715
0.00498059524314
0.00498059327933
0.00498059169217
0.00498059042672
0.00498058943821
0.00498058868804
0.00498058814081
0.0049805877613
0.00498058751001
0.00498058734241
0.0049805872451
0.00498078375319
0.00498077969615
0.00498077627629
0.004980773033
0.00498077010067
0.00498076758319
0.00498076545801
0.00498076367026
0.00498076218266
0.00498076097283
0.00498076000853
0.00498075925086
0.00498075866712
0.00498075823096
0.00498075791924
0.00498075770967
0.00498075757885
0.00498075749924
0.00498075743822
0.00498075737631
0.00498092442759
0.00498092455519
0.00498092516375
0.00498092533791
0.00498092526211
0.00498092514492
0.00498092504276
0.00498092496554
0.00498092492984
0.00498092494946
0.0049809250183
0.00498092512211
0.00498092524972
0.00498092539267
0.00498092554303
0.00498092569151
0.00498092582632
0.00498092593161
0.00498092598658
0.00498092597051
0.00498106723424
0.00498107063688
0.00498107483874
0.00498107818096
0.00498108080753
0.00498108299055
0.00498108484521
0.00498108643574
0.0049810878237
0.0049810890528
0.00498109014138
0.00498109109862
0.00498109193345
0.00498109265433
0.00498109326778
0.00498109377703
0.00498109418124
0.00498109447545
0.00498109465014
0.00498109468784
0.00498121339909
0.00498121954974
0.00498122709429
0.00498123344981
0.0049812386582
0.00498124304224
0.00498124677111
0.00498124996082
0.00498125271369
0.00498125510131
0.00498125716684
0.0049812589425
0.00498126045653
0.00498126173364
0.00498126279426
0.00498126365351
0.00498126432079
0.00498126480089
0.00498126509463
0.00498126519182
0.00498136348421
0.00498137260286
0.0049813835823
0.00498139297675
0.00498140071726
0.00498140721607
0.0049814127197
0.00498141740828
0.00498142142941
0.00498142488637
0.00498142784998
0.00498143037621
0.00498143251254
0.00498143429951
0.00498143577098
0.0049814369533
0.0049814378651
0.00498143851947
0.00498143892615
0.00498143908575
0.0049815215089
0.00498153308438
0.00498154716594
0.00498155935898
0.00498156937849
0.00498157774165
0.00498158478273
0.00498159075223
0.00498159584478
0.0049816001972
0.0049816039085
0.00498160705728
0.00498160970882
0.00498161191808
0.00498161373083
0.00498161518321
0.00498161630139
0.0049816171045
0.0049816176091
0.0049816178293
0.00498169239178
0.0049817051696
0.00498172139407
0.0049817356555
0.00498174731664
0.00498175699417
0.00498176509618
0.00498177193471
0.0049817777438
0.00498178268864
0.00498178689111
0.00498179044727
0.0049817934357
0.00498179592193
0.00498179796032
0.0049817995938
0.00498180085313
0.00498180176015
0.00498180233511
0.00498180260695
0.00498188063525
0.00498189275142
0.00498190955187
0.00498192463502
0.00498193688384
0.0049819469956
0.00498195541887
0.00498196250252
0.0049819685019
0.00498197359691
0.00498197792049
0.00498198157629
0.00498198464816
0.00498198720552
0.00498198930572
0.00498199099377
0.00498199230065
0.00498199324635
0.00498199385057
0.0049819941566
0.00498209026178
0.00498209914456
0.00498211406879
0.00498212813137
0.00498213950254
0.00498214886795
0.00498215664923
0.00498216318288
0.00498216871299
0.0049821734105
0.00498217740092
0.00498218078108
0.00498218362875
0.00498218600803
0.00498218797183
0.00498218956091
0.00498219080108
0.00498219170524
0.00498219228743
0.0049821926025
0.00498232123963
0.0049823246945
0.00498233493916
0.00498234591324
0.00498235482929
0.00498236219458
0.00498236832412
0.00498237348071
0.00498237785924
0.00498238159482
0.00498238478526
0.00498238750507
0.0049823898137
0.00498239176014
0.00498239338469
0.00498239471733
0.00498239577311
0.00498239655248
0.00498239705874
0.00498239735341
0.00498256241559
0.00498256292884
0.00498256802435
0.0049825748394
0.00498258030214
0.00498258476143
0.00498258845956
0.00498259157514
0.0049825942418
0.00498259654566
0.00498259854444
0.00498260027953
0.00498260178276
0.0049826030801
0.00498260419264
0.00498260513396
0.00498260590374
0.00498260648601
0.00498260686888
0.00498260711433
0.00498281617146
0.00498281228469
0.00498281103367
0.00498281207082
0.00498281294527
0.00498281364269
0.00498281425125
0.00498281480468
0.00498281534006
0.00498281587146
0.00498281640047
0.00498281692371
0.00498281743668
0.00498281793553
0.0049828184167
0.00498281887309
0.00498281928575
0.00498281961963
0.00498281984477
0.00498282001715
0.00498307343925
0.00498306496359
0.00498305818142
0.00498305274607
0.00498304838072
0.00498304483966
0.00498304201971
0.00498303976276
0.0049830379798
0.00498303659472
0.00498303554117
0.00498303476303
0.00498303421402
0.00498303385654
0.00498303365956
0.00498303359315
0.00498303361849
0.00498303368107
0.00498303373211
0.00498303381572
0.00498332308948
0.00498331059494
0.00498330037587
0.00498328986149
0.00498328079488
0.00498327335193
0.00498326736187
0.00498326250318
0.00498325857067
0.0049832554063
0.00498325288158
0.00498325089196
0.00498324935254
0.00498324819457
0.00498324736145
0.00498324680215
0.00498324645961
0.00498324626212
0.00498324614414
0.00498324613384
0.00498355489295
0.00498354195335
0.00498352997815
0.00498351694875
0.00498350474952
0.00498349447161
0.00498348611892
0.00498347929674
0.00498347372313
0.00498346918726
0.00498346551945
0.00498346258191
0.00498346026257
0.00498345847012
0.00498345712914
0.00498345617269
0.00498345553005
0.00498345511711
0.00498345485638
0.00498345475809
0.00498376689674
0.00498375461524
0.00498374315776
0.00498373017286
0.00498371674505
0.0049837050114
0.00498369534974
0.00498368741531
0.00498368089456
0.00498367555504
0.00498367120861
0.00498366770168
0.00498366490854
0.00498366272613
0.00498366106873
0.00498365986039
0.00498365902251
0.0049836584646
0.00498365810402
0.00498365793355
0.00498396425306
0.00498395458648
0.00498394171387
0.00498392907825
0.00498391565022
0.00498390357917
0.00498389356705
0.00498388536037
0.00498387862004
0.0049838730975
0.00498386859524
0.00498386495424
0.00498386204525
0.00498385976264
0.00498385801848
0.00498385673453
0.00498385583041
0.00498385521548
0.00498385480964
0.00498385459104
0.00498414310447
0.00498413347287
0.00498412197208
0.00498411110312
0.0049840996166
0.00498408886259
0.00498407981976
0.00498407238995
0.00498406628927
0.00498406129616
0.00498405722896
0.0049840539416
0.00498405131603
0.00498404925601
0.00498404768116
0.00498404651917
0.00498404569447
0.00498404512387
0.00498404473772
0.00498404450299
0.00498430583923
0.0049842962742
0.0049842855383
0.00498427704187
0.00498426901372
0.00498426128975
0.00498425466661
0.00498424913941
0.00498424457117
0.00498424083541
0.00498423780141
0.00498423535827
0.00498423341604
0.00498423190123
0.00498423075185
0.00498422991042
0.00498422931467
0.00498422889462
0.00498422859464
0.0049842283789
0.00498445749176
0.00498444903848
0.00498444210862
0.00498443388429
0.00498442854196
0.00498442433882
0.0049844209965
0.00498441818651
0.00498441581744
0.00498441389175
0.00498441235319
0.00498441113844
0.00498441019584
0.00498440948372
0.00498440896674
0.00498440860916
0.00498440836781
0.00498440818876
0.00498440803328
0.00498440787081
0.00498460938041
0.00498460344569
0.00498459378513
0.00498458672769
0.00498458374593
0.00498458298631
0.00498458315943
0.00498458347882
0.00498458366433
0.00498458382874
0.00498458401942
0.00498458422992
0.00498458445101
0.00498458467678
0.00498458490303
0.00498458512118
0.00498458530889
0.00498458543089
0.00498458546485
0.00498458538627
0.00498476344022
0.00498475743109
0.00498475159524
0.00498474411891
0.00498474215864
0.00498474371739
0.00498474676476
0.00498474992142
0.00498475253043
0.00498475469026
0.0049847565429
0.00498475813314
0.00498475948637
0.00498476062766
0.00498476158248
0.00498476237232
0.00498476300124
0.00498476344997
0.00498476369897
0.00498476372545
0.00498492762163
0.00498492355783
0.00498491601325
0.00498490999418
0.00498490885601
0.00498491181953
0.00498491680488
0.0049849220659
0.00498492661057
0.00498493037859
0.00498493357259
0.00498493628325
0.00498493856029
0.00498494045064
0.00498494200425
0.00498494327215
0.00498494429084
0.00498494505655
0.00498494553573
0.00498494569314
0.00498510555977
0.00498510265446
0.00498509863929
0.00498509148479
0.00498508934048
0.00498509218856
0.00498509772239
0.00498510392344
0.00498510955422
0.00498511427646
0.00498511826581
0.00498512164854
0.00498512448671
0.00498512683697
0.00498512876348
0.00498513034048
0.00498513163695
0.00498513267152
0.0049851333882
0.00498513372974
0.00498530349129
0.00498530069423
0.00498529536337
0.00498528836435
0.00498528512984
0.00498528711101
0.00498529214001
0.0049852982397
0.00498530401509
0.00498530890536
0.00498531300984
0.00498531648271
0.00498531939699
0.00498532181312
0.00498532379996
0.00498532544075
0.00498532682881
0.00498532801943
0.00498532895388
0.00498532958097
0.00498551637908
0.00498551613262
0.00498551123519
0.00498550326125
0.00498549856989
0.00498549884599
0.0049855023368
0.00498550722094
0.00498551206627
0.00498551619796
0.00498551961345
0.00498552247898
0.00498552488265
0.00498552688532
0.00498552854484
0.00498552992196
0.00498553109882
0.00498553218533
0.00498553321683
0.0049855342991
0.00498575112904
0.00498575007605
0.00498574601522
0.00498573972972
0.0049857320363
0.00498572928199
0.00498573006133
0.00498573256126
0.00498573533664
0.00498573770135
0.00498573958775
0.00498574115216
0.00498574249383
0.00498574365491
0.00498574464572
0.00498574545125
0.00498574607121
0.00498574662647
0.00498574739345
0.00498574914653
0.00498599886229
0.00498600231884
0.0049859998583
0.00498599144287
0.00498598298727
0.00498597760315
0.00498597534218
0.00498597474307
0.00498597461437
0.00498597441445
0.00498597411864
0.00498597389042
0.00498597381308
0.00498597388233
0.00498597402635
0.00498597410372
0.00498597399829
0.00498597366463
0.00498597340326
0.00498597540205
0.00498625852252
0.00498626390799
0.00498626215339
0.00498625777308
0.00498624893876
0.00498624136211
0.00498623625099
0.00498623243675
0.00498622899651
0.00498622563876
0.00498622251802
0.00498621982434
0.00498621759349
0.00498621576401
0.00498621432434
0.00498621335844
0.00498621280681
0.00498621234492
0.00498621108095
0.00498621349264
0.0049865153517
0.00498652427878
0.00498652515235
0.00498652246526
0.00498651741026
0.00498651123207
0.00498650605725
0.00498650127994
0.00498649617379
0.00498649061826
0.00498648508955
0.00498647999476
0.00498647537909
0.00498647124527
0.00498646782937
0.0049864651198
0.00498646295409
0.00498646117221
0.00498645950028
0.00498646205676
0.00498675567197
0.00498676586453
0.00498677246458
0.00498677553484
0.00498677605594
0.0049867755961
0.00498677460691
0.00498677328851
0.00498677062842
0.00498676601045
0.00498676002156
0.00498675379539
0.00498674783483
0.00498674207689
0.00498673678574
0.00498673229873
0.00498672864199
0.00498672577569
0.00498672367893
0.00498672654971
0.00498696434564
0.00498698100656
0.00498699360219
0.00498700314251
0.00498701247931
0.00498701911162
0.00498702664488
0.00498703462836
0.00498704046297
0.00498704220288
0.00498704013044
0.00498703722462
0.00498703473891
0.00498702977613
0.00498702081681
0.00498701228261
0.00498700575723
0.00498700067472
0.00498699707895
0.00498699960687
0.00498713308741
0.00498715673472
0.00498717404268
0.00498718828013
0.00498720102257
0.00498721540306
0.00498723356072
0.00498725456059
0.00498727545945
0.00498729336104
0.00498730708032
0.00498731899405
0.00498731941371
0.00498731493259
0.00498730382565
0.00498728371566
0.00498726550586
0.00498725297619
0.00498724481342
0.00498724460327
0.00498726059577
0.00498728945258
0.00498730867835
0.00498732141829
0.00498733546235
0.00498735609046
0.00498738288792
0.0049874133375
0.00498744086929
0.00498745160956
0.00498745675986
0.0049874427422
0.00498743247211
0.00498742394661
0.00498741975157
0.00498741261035
0.00498740130444
0.00498738894408
0.00498738094296
0.00498737871674
0.0049873521023
0.00498737927911
0.00498739635527
0.00498740520605
0.00498741652501
0.00498743673007
0.00498746602806
0.00498749209709
0.00498748732122
0.00498747867481
0.00498746398977
0.00498745596406
0.00498744969005
0.00498744666795
0.00498744409951
0.00498744056217
0.00498743418323
0.00498743070584
0.00498742785355
0.00498742552763
0.0049874262999
0.00498744718019
0.00498745941167
0.00498746587268
0.00498747627106
0.00498749576742
0.00498752166388
0.00498752816306
0.00498751911295
0.00498750605812
0.00498749892725
0.00498749292399
0.00498748732364
0.00498748305953
0.00498747803856
0.00498747431976
0.00498747080946
0.00498746990923
0.00498746866976
0.0049874660714
)
;

boundaryField
{
    emptyPatch
    {
        type            empty;
    }
    minY
    {
        type            calculated;
        value           nonuniform List<scalar> 0();
    }
    maxY
    {
        type            calculated;
        value           nonuniform List<scalar> 0();
    }
    water_to_cooler
    {
        type            calculated;
        value           nonuniform List<scalar> 
38
(
0.00498041400412
0.0049805872451
0.00498075737631
0.00498092597051
0.00498109468784
0.00498126519182
0.00498143908575
0.0049816178293
0.00498180260695
0.0049819941566
0.0049821926025
0.00498239735341
0.00498260711433
0.00498282001715
0.00498303381572
0.00498324613384
0.00498345475809
0.00498365793355
0.00498385459104
0.00498404450299
0.0049842283789
0.00498440787081
0.00498458538627
0.00498476372545
0.00498494569314
0.00498513372974
0.00498532958097
0.0049855342991
0.00498574914653
0.00498597540205
0.00498621349264
0.00498646205676
0.00498672654971
0.00498699960687
0.00498724460327
0.00498737871674
0.00498742552763
0.0049874660714
)
;
    }
    water_to_heater
    {
        type            calculated;
        value           nonuniform List<scalar> 
60
(
0.00498074023518
0.00498077677857
0.00498083710109
0.00498093082828
0.00498098080595
0.00498101693557
0.00498107270777
0.00498110926075
0.00498118433298
0.00498122064104
0.00498132039156
0.00498145455173
0.00498156555104
0.00498160211834
0.00498171684642
0.00498175335461
0.00498188910708
0.00498192660676
0.00498211158847
0.00498248677619
0.0049830631955
0.0049831122483
0.00498362655836
0.00498367299831
0.00498394464837
0.00498398499892
0.00498410406992
0.00498418665976
0.00498426837636
0.00498430438685
0.00498435022287
0.00498438562293
0.00498446093245
0.00498449690858
0.00498454352905
0.00498463394307
0.00498468226431
0.0049847178705
0.00498479400233
0.00498483003833
0.00498495552705
0.00498499150914
0.00498513024231
0.00498532586911
0.00498560459842
0.00498564961578
0.00498619179855
0.00498623774906
0.00498685918038
0.0049869002387
0.00498708402876
0.00498711841376
0.00498711835478
0.00498714959274
0.00498714680171
0.00498717786614
0.00498718103426
0.0049872122735
0.00498722926594
0.00498727805463
)
;
    }
    procBoundary3to1
    {
        type            processor;
        value           nonuniform List<scalar> 
41
(
0.00498724271506
0.00498724679914
0.00498727260139
0.0049873127573
0.00498734250222
0.00498736163698
0.00498738235623
0.00498740320637
0.00498742240713
0.00498744241944
0.00498745952338
0.00498747773199
0.00498749363926
0.00498733325017
0.00498731799582
0.00498727513738
0.00498727575799
0.00498728467005
0.00498729191056
0.00498724271506
0.0049872963168
0.00498750964389
0.00498752312185
0.00498753148515
0.00498753868869
0.004987550811
0.00498757020003
0.0049875895386
0.004987591158
0.0049875788332
0.00498756894654
0.00498756048082
0.00498755260958
0.00498754574102
0.00498753840732
0.00498753234643
0.00498752894914
0.00498753088527
0.00498753080967
0.00498752760366
0.00498752456797
)
;
    }
    procBoundary3to2
    {
        type            processor;
        value           nonuniform List<scalar> 
41
(
0.00498063657715
0.00498062719133
0.0049806119243
0.00498060621234
0.00498060596002
0.00498060639254
0.00498060557335
0.00498060145021
0.00498059546322
0.00498058973018
0.00498058564483
0.00498058100666
0.00498057407985
0.00498056677735
0.00498056190703
0.00498055761691
0.00498054988832
0.004980536921
0.00498052371149
0.0049805110134
0.00498029373786
0.00498028307681
0.00498027421453
0.0049802668239
0.00498026063837
0.00498025545415
0.00498025113097
0.00498024756534
0.00498024465776
0.00498024231634
0.0049802404642
0.00498023903591