/*--------------------------------*- C++ -*----------------------------------*\
| =========                 |                                                 |
| \\      /  F ield         | OpenFOAM: The Open Source CFD Toolbox           |
|  \\    /   O peration     | Version:  2312                                  |
|   \\  /    A nd           | Website:  www.openfoam.com                      |
|    \\/     M anipulation  |                                                 |
\*---------------------------------------------------------------------------*/
FoamFile
{
    version     2.0;
    format      ascii;
    arch        "LSB;label=32;scalar=64";
    class       volScalarField;
    location    "0.56/water";
    object      epsilon.gas;
}
// * * * * * * * * * * * * * * * * * * * * * * * * * * * * * * * * * * * * * //

dimensions      [0 2 -3 0 0 0 0];

internalField   nonuniform List<scalar> 
6000
(
16.7661010083
2.64320949324
0.495285157663
0.114787419733
0.0377745274793
0.00753818667629
0.00199153300868
0.000907735790615
0.000606551824324
0.000499390073043
0.000454649821251
0.000433883600435
0.000423394282907
0.000417635081611
0.000414208209575
0.000412031870736
0.00041059179758
0.000409623565601
0.000408978295427
0.000408566408767
548.283171045
104.549404031
17.6470086652
3.69612471587
0.689365318937
0.195518589914
0.0437571028054
0.00794889232814
0.00198185063981
0.00088597541803
0.000596829059722
0.000494734433245
0.000452012566989
0.000432170448704
0.000422105470965
0.000416508331787
0.000413110297965
0.00041091177196
0.000409451967059
0.000408502035086
767.23553805
179.396108268
40.239235648
8.72397183158
2.06456505345
0.470364334912
0.130668824187
0.0290654199533
0.00598781221624
0.0017877927874
0.000881102891762
0.000609179465872
0.000504976799127
0.000459053785872
0.00043700807484
0.000425597818221
0.00041916902983
0.000415223392766
0.000412651023285
0.000410951588731
981.971287129
244.055112575
60.9493558094
14.9418410074
4.17200518059
0.902408568318
0.238644166349
0.0664185769549
0.0146686543588
0.00354570999033
0.00135118485475
0.000781120047884
0.000581615262916
0.000497230214107
0.000457606240914
0.000437692596878
0.000426988117177
0.000420754759895
0.000416832216794
0.000414251987279
1065.99291242
281.295626472
75.5288509042
20.4839685975
5.29520008064
1.61057616477
0.343900830782
0.105297222561
0.0296574032444
0.00674318194893
0.00208676420671
0.00101925938296
0.000681969443594
0.000546301828347
0.000483778177447
0.000452698239878
0.000436348596589
0.000427172829095
0.000421616399775
0.000418033487447
1041.68303011
292.160660517
84.0875971921
24.6640238645
7.09525847182
1.87170587666
0.566907061559
0.130553288858
0.0476335159041
0.0125108803124
0.00327351087694
0.00134676769231
0.000808329693914
0.000606023992687
0.000515258412024
0.00047048328213
0.000447096963181
0.000434218378913
0.000426646948467
0.000421887046471
1016.42170875
291.751795727
87.6811535803
27.2580511208
8.48075753719
2.52215039163
0.669438681602
0.195660079531
0.0558176418427
0.0212581555869
0.00530555168117
0.00181334608892
0.000966615979195
0.000676776714842
0.000551855740491
0.000490953418215
0.000459209962203
0.000441843107006
0.000431810569036
0.000425646294545
1022.57535941
293.826444798
89.84350218
28.8758269425
9.48865385397
3.08079054799
0.935635607266
0.26773981129
0.0733640973633
0.0272458844054
0.00872619374883
0.00251850191014
0.00116758239806
0.000759372334543
0.00059327203829
0.000513841043798
0.000472548965574
0.0004499693898
0.000437031516524
0.000429220301188
1028.37375449
296.186352958
91.1922870483
29.9372906522
10.2465765526
3.56702961046
1.20706093599
0.37081512302
0.124577391621
0.0326233986409
0.0128339065125
0.00367154808112
0.00143506100193
0.000856104558986
0.000639371933948
0.000538794325661
0.000486857869751
0.000458442028796
0.00044221660638
0.000432565176405
1029.30186821
296.582088644
91.5399809337
30.4987644638
10.7944639267
3.96297932009
1.45175236939
0.505858479409
0.161724641733
0.0604968725598
0.0151252913758
0.00542845233796
0.0018204797874
0.000973816939464
0.000691186973565
0.000565798911532
0.000501970157973
0.00046714542516
0.000447339629624
0.000435684954337
1025.6219483
295.198144019
91.1529909073
30.7274977579
11.1822849117
4.26662174344
1.64846282706
0.625111398428
0.235405987792
0.0880164730042
0.0247686227086
0.00713973389387
0.00244440568321
0.0011375449305
0.000754635240873
0.000596398299501
0.000518320298651
0.000476258410725
0.000452477540158
0.000438642568831
1027.02375347
293.702981505
90.6655625595
30.888019793
11.464747326
4.47212136588
1.77212671827
0.715551852388
0.306089469965
0.139568367476
0.0569309951976
0.00920299168757
0.00358148044767
0.00142223392129
0.000846008116043
0.000634959961932
0.000537202810742
0.00048618300546
0.000457841039539
0.000441621281143
1040.66966525
295.946949587
91.58520778
31.3942803988
11.7103825174
4.57722939467
1.83341069806
0.78188918088
0.371336976694
0.199752093228
0.0878573266675
0.019866302992
0.00591411000725
0.00202790745685
0.000998271141336
0.000688742605115
0.0005607299766
0.00049777401094
0.000463907726108
0.00044495676517
1067.36432375
304.016990372
94.697082977
32.4463505034
11.954554427
4.60718936604
1.8647761297
0.838743460434
0.435652849521
0.262677584775
0.142622655465
0.0519361375629
0.0110771046437
0.00348517168124
0.00128337870973
0.000771298087248
0.000592709718566
0.00051251967823
0.000471437641214
0.000449115077056
1081.13530743
319.328291225
100.822003025
33.9616463338
12.1007873709
4.58690761041
1.90402414229
0.902290452138
0.506578234487
0.326760315332
0.209858480226
0.0951869186413
0.0231848024609
0.00696314337387
0.00188134148124
0.000908707853307
0.000639165171281
0.000532508129233
0.000481389878111
0.00045461534463
1199.05526805
357.965570906
110.619891456
35.6496307399
12.2898269619
4.66968114475
2.00528561491
0.990725400996
0.575659339778
0.388285556631
0.278706668644
0.154148668265
0.0568315673055
0.0124347215137
0.00323728526762
0.00115160988848
0.00070873031047
0.000560240354497
0.000494783660646
0.000461943038427
1489.07981145
416.639104674
122.405021909
38.3797245104
13.1500563218
5.04605172819
2.20293827412
1.10538489275
0.645309201495
0.441262473235
0.340013183395
0.235610827611
0.098922185035
0.0204029900586
0.00566262520199
0.00159997611048
0.000814098123443
0.000598604517511
0.000512628332585
0.000471517582368
1631.69031328
451.820783958
133.033980924
41.9531112247
14.4797958962
5.58903964334
2.4451040696
1.22580809791
0.713817516186
0.487471443318
0.387920169762
0.308800221841
0.177676731398
0.0525594468203
0.00680386178608
0.00238151748543
0.000973249902831
0.000650900839178
0.000535948771347
0.000483730482553
1673.34958686
468.637196957
139.422121818
44.5217922237
15.5627178146
6.05795712489
2.65375192655
1.32657018717
0.772905130855
0.531090252744
0.423440983494
0.362740741881
0.254028378982
0.0917844424812
0.0100250527223
0.00320316756466
0.00121047672394
0.000721659549471
0.000566007999919
0.000499035586093
1697.58713869
476.325142926
142.463720055
45.8956320582
16.1924045982
6.3447484821
2.78454694433
1.39514290381
0.823350024762
0.574033250515
0.457763445291
0.396859155944
0.313802822613
0.152250272977
0.0243171394825
0.00342627417304
0.00156075062405
0.000819210343124
0.000604714273991
0.000518030598331
1706.37708839
481.160815247
144.379917318
46.6439263773
16.5143504594
6.49266351385
2.86139635281
1.45207595114
0.875517729481
0.61712302726
0.494670366568
0.43243212429
0.361710825533
0.207495514462
0.0404968414363
0.0038589970149
0.00202472299657
0.000956816317719
0.00065485488274
0.000541466360195
1731.80884997
487.687799029
146.449911125
47.3057985558
16.7702774453
6.61566208356
2.93962052101
1.52210699122
0.929816307005
0.66006509831
0.538798973384
0.477823225853
0.409459020598
0.258726331599
0.0722661532348
0.00632138777419
0.00273683031239
0.00116342428956
0.000721089675815
0.000570315117852
1775.85394783
498.752425698
149.376305744
48.1991855114
17.1193437983
6.78270800203
3.04873866141
1.60020565299
0.978868252116
0.706079366325
0.594336683756
0.541458888869
0.469708735304
0.315116016504
0.114038102769
0.0141299316874
0.0040829945479
0.001497869522
0.000811193550434
0.000605877960958
1851.16917811
515.974816239
153.610489304
49.5253968155
17.6345992761
7.01878162058
3.18165978811
1.66950112186
1.0237956367
0.757785379001
0.663701564963
0.627227116232
0.548008834398
0.386213874285
0.168935299134
0.0341956210208
0.00659217184596
0.00207907661698
0.000938598318545
0.000650086381908
1920.33154337
533.887666016
158.264366225
51.0234792175
18.2137351876
7.27541046628
3.29884951142
1.71987443439
1.06528810246
0.8124778277
0.738545722484
0.712640243456
0.628406756974
0.489022756498
0.247349667416
0.0737071006279
0.0108385488119
0.00318545137481
0.00112998706804
0.000706332686332
1982.08552302
547.894654983
162.000831289
52.3113127711
18.7340107898
7.48970946924
3.37285316406
1.74925461692
1.09792737893
0.860001082702
0.790914114585
0.759255332645
0.692081804855
0.572866236115
0.35662288721
0.114008355305
0.0181869334605
0.00532804930143
0.00143511328366
0.000780340950171
2018.95065795
554.148760057
163.659644843
53.1400942308
19.1360948923
7.63295219423
3.39420267428
1.7490374467
1.11054841786
0.877153623447
0.790357686864
0.765238654002
0.726772069956
0.629898311359
0.463727197654
0.197069231152
0.0376168728504
0.0086373564463
0.00194319793892
0.000881340465841
2039.93228698
554.052724849
164.498737925
53.9367462859
19.4836890122
7.67296661277
3.33304324076
1.70080836715
1.08272794997
0.838235748229
0.742927618303
0.73453639613
0.723617220702
0.654684935193
0.510735864425
0.283280353557
0.0749969563074
0.0115688909348
0.00283296011503
0.00102556809991
1970.32369448
544.588453446
165.15948961
54.9555743112
19.7017545376
7.49350923634
3.15474578843
1.60439112836
1.01348608609
0.765758910918
0.671125780904
0.668223068791
0.683966652013
0.644551377962
0.527177355924
0.346778732717
0.113962614295
0.0150983152667
0.00437165976651
0.00124292101065
1827.9211294
531.89587194
167.010026906
56.0464258657
19.3031098777
7.09705495581
2.99544377334
1.51849743592
0.938826184925
0.689471675257
0.592443264986
0.584378585383
0.61377335907
0.601818887822
0.519467596963
0.378750111495
0.173028182869
0.0291220921115
0.0064425079781
0.00158685403435
1785.17206856
538.240414496
172.324608405
56.8681472156
19.0593355155
7.07224185982
2.97700338521
1.48242098364
0.886635981439
0.628714043043
0.525942298749
0.503173144419
0.528490051772
0.536423576747
0.492896229234
0.391741351804
0.229485416783
0.058752122572
0.007956875042
0.00215614166521
1847.49089749
562.647025419
179.414041138
58.6644181673
20.0700158689
7.58267967002
3.16077103041
1.52291373359
0.871759509057
0.595513200706
0.482288184904
0.441215282064
0.450165109174
0.466660486684
0.457779510469
0.402986411789
0.282141755212
0.088876080043
0.00957709368836
0.00310461056887
2017.3588951
600.754159171
186.470115023
62.5517527024
22.7680443031
8.70323972694
3.54941933292
1.64134393084
0.8982971725
0.592542571447
0.463291912902
0.405024487029
0.395518942627
0.410774183135
0.426360095631
0.416015511472
0.329157514091
0.141778349054
0.0172222044978
0.00439562457425
2212.0685768
643.065978921
197.003181289
68.6501813642
26.8669160009
10.4032890451
4.10261898865
1.82382505851
0.961735848974
0.616240234363
0.466640544944
0.392646459702
0.366693351868
0.376847254817
0.40578686943
0.428081577995
0.35942850965
0.197984484888
0.0371325521069
0.0051867619179
2320.48120714
677.088596228
209.956502919
74.9195164076
30.345053448
12.0162841159
4.73137094243
2.0531897008
1.05464810895
0.660187581762
0.486250900317
0.397593586257
0.35787610851
0.362591436517
0.396894301265
0.438619235896
0.386158179742
0.251090507829
0.0589937629608
0.0053921970049
2379.32574997
702.533261073
221.405849578
80.0345001916
32.8956998622
13.1313235096
5.19377377447
2.24977640586
1.14769163999
0.71028594092
0.513217836754
0.412019318303
0.362930504043
0.36147298147
0.397906437244
0.449522762185
0.411850669205
0.29178000849
0.0987335498716
0.00783309588993
2442.17123487
726.319116605
231.590266508
84.169031127
34.4999402796
13.6489501931
5.41919500694
2.37006475235
1.22065347479
0.756078357616
0.541209582001
0.430136872308
0.37554069722
0.369417650119
0.40605373123
0.46293760343
0.437803063593
0.321984440763
0.14198886192
0.0158046174157
2538.68414299
752.882668932
240.511377515
87.1019734996
34.9676411271
13.599109232
5.44031712924
2.42370963695
1.27298096449
0.793997769213
0.566717409107
0.44905860006
0.391497132293
0.382290673732
0.418412922768
0.477821244229
0.464161192838
0.353489213772
0.186020388055
0.0286070657241
2665.07985325
788.123079242
251.321368856
89.9680517899
34.727819205
13.2880307822
5.37651705203
2.44480332634
1.31057031034
0.823289044041
0.587763800753
0.46697266423
0.408128711292
0.3964509269
0.431109935126
0.49141810409
0.49141912013
0.390700737466
0.232439147453
0.0463118560634
2826.39332852
832.371434196
264.317326556
92.8029240708
34.1740091451
12.9536713714
5.30136146936
2.4539258689
1.33649453542
0.843520359078
0.603503817966
0.482659740081
0.423368977899
0.408463521589
0.43902431465
0.500491555769
0.519524232461
0.43553705293
0.283997005029
0.0785293786132
3028.39224378
890.625504209
279.838775521
95.0093910547
33.532439918
12.68144215
5.24458885474
2.46450775318
1.35408629612
0.855502950871
0.614189373418
0.495136931567
0.434973783274
0.414166132476
0.438108477846
0.502766320649
0.547498994649
0.486587466493
0.341376172094
0.119208155133
3309.78814988
974.724475364
295.040268809
95.4973559828
32.8371462206
12.5000716666
5.23596236254
2.4928726747
1.37150492489
0.863116712414
0.621695574253
0.504425868551
0.441363322358
0.411600036051
0.4282037704
0.498868349995
0.574093134944
0.540537812048
0.391900233815
0.164853495857
3925.43941111
1113.36791638
316.878488991
98.9966731239
33.1818056783
12.7052731312
5.39825928322
2.58402787374
1.40843932034
0.877143715257
0.631270494625
0.512543565731
0.442686103264
0.403898144667
0.415102640922
0.494612379233
0.600558328075
0.594745435623
0.438969857362
0.213287868357
5875.65338302
1429.31673977
374.592785485
110.120546765
36.9370124315
14.2637842061
6.05745900203
2.85395567172
1.51045097163
0.917490939327
0.651371234792
0.522459799184
0.44433036463
0.39927762141
0.409639201969
0.499913222712
0.631230958847
0.650386053952
0.492059540236
0.265019282445
7544.32540098
1784.72864886
471.47723523
137.549609003
45.9000942133
17.3286327422
7.23732665572
3.32566397259
1.69369221584
0.991169075801
0.682582692061
0.53583371264
0.453728234623
0.406442552455
0.417489478347
0.524296795198
0.672582964332
0.715149735929
0.559276438899
0.323473395232
7742.66319856
1950.80444914
538.546660961
161.423305334
53.9560998965
20.2533938103
8.44934799951
3.84331548934
1.90402459817
1.07309605289
0.712571310696
0.555105580538
0.476020462113
0.429285288525
0.447845365036
0.572858933013
0.732389983953
0.798063584788
0.652295284752
0.3951289156
8074.95841654
1947.9391849
553.054868877
170.286839771
57.7705805654
21.9565897779
9.2821969796
4.22647482102
2.0576019979
1.12346235545
0.734719566964
0.581636939032
0.511722622015
0.473646761474
0.506107015728
0.646266484625
0.814281178637
0.903482431504
0.781309183366
0.492457677144
8596.67892704
1999.69677036
554.284254208
169.896256645
58.1304227108
22.4545198154
9.61204036044
4.3638938827
2.08867787016
1.12362917813
0.748301842796
0.614029697124
0.560082494036
0.542077526152
0.590267335973
0.738948723005
0.914757297461
1.02969841345
0.93948714335
0.619520561505
8411.80905286
1976.64389989
539.37464638
165.535733796
57.2150617794
22.3307656783
9.51755143851
4.24190531278
1.99372217845
1.08361179279
0.756986134543
0.652093686183
0.624757915365
0.628147172628
0.691899438129
0.836174807396
1.025239773
1.16806179726
1.11677036923
0.783538219574
7737.0175236
1826.13297355
507.235742058
158.384686507
55.5149487484
21.6056643461
8.99517808079
3.89709525931
1.8135956099
1.02759349494
0.767283724469
0.697755996033
0.698764445772
0.718154952776
0.788683542517
0.921449689354
1.13592514472
1.31263053632
1.30230736737
0.98218179814
6744.40572734
1626.07499559
460.846578972
147.026877336
52.1064329323
20.0810449261
8.13829389923
3.42402135222
1.61183882441
0.978370971698
0.782382344398
0.743120927203
0.75831345259
0.789423951106
0.852332995168
0.981462475572
1.22365832305
1.44627602658
1.46780040792
1.17327732239
5628.17854027
1365.5787496
396.568102756
130.819855312
47.2664686211
18.2189938846
7.19293860329
2.9608872531
1.44975197736
0.949509538056
0.793332219115
0.762591917082
0.778868636018
0.813215369493
0.877737483689
0.999836310538
1.25330809161
1.537088088
1.59890107275
1.34960905569
4346.01027604
1099.08938538
340.443116796
117.768209502
43.6271889936
16.6377988577
6.40778568478
2.66609779478
1.37327498638
0.933235085278
0.779522119574
0.736555591544
0.743749815131
0.773669252113
0.834924444133
0.964815502243
1.19960564473
1.53737588347
1.68402693047
1.47893343755
3162.7689829
933.278532775
318.884510116
115.291650646
43.2461875051
16.2263198449
6.16503343328
2.60006760523
1.35990604468
0.906228218586
0.728053161292
0.663104366156
0.654178707674
0.673022455494
0.717635874897
0.834757755882
1.05646136224
1.39794041887
1.67657339397
1.51628490827
2787.70219466
987.591183263
361.951209276
133.160114775
47.8596686351
17.0703446845
6.38608536496
2.71469870475
1.39391683767
0.874287942377
0.653576930717
0.560425788265
0.53201132802
0.540152873041
0.568564632674
0.634199440721
0.822003319728
1.12794524552
1.51857407993
1.4283639924
3713.69728333
1350.2501059
468.165999097
158.74744794
54.1009364479
19.277032347
7.41621306062
3.17038565066
1.55000014829
0.884051939335
0.593075156909
0.462335247088
0.408678447562
0.400075311634
0.417495638186
0.450998366999
0.548578916099
0.812876849717
1.21544667762
1.24289720718
5830.99167012
1880.82794434
545.294798782
170.909315875
59.2024110056
22.7161417745
9.37398749
4.06229928325
1.89899467078
0.982407136267
0.582854130127
0.402204467067
0.318254948248
0.285768240686
0.286822820985
0.305657113255
0.354959599398
0.524891313483
0.875402189755
1.0289177868
7498.51429758
1978.76309558
561.045512816
176.863559401
65.1462488852
27.1244096154
11.8238941188
5.07902197475
2.33586965848
1.15987319307
0.633394377997
0.393882250619
0.278404145204
0.221604626599
0.203792257608
0.210800126281
0.240762555906
0.335759934401
0.612263625561
0.840167036304
7712.89903796
1934.59897816
545.108450535
178.174619215
69.4479688034
31.3201654867
14.4192934469
5.97009235719
2.71151362195
1.34585858915
0.722442982791
0.427623116988
0.281635633876
0.203148483608
0.16874695606
0.165087435516
0.185007506978
0.25025008567
0.453392096766
0.704902284093
7759.50096819
1901.10000661
519.386675902
170.537283324
69.1224967805
32.8798389761
15.5684735934
6.54256798342
3.01993636108
1.51804956359
0.821855494485
0.484149813171
0.310411217965
0.213278659545
0.166199947736
0.154036840751
0.167232468126
0.218183103881
0.366081901409
0.627205105078
8288.56055745
1926.41539928
508.715866418
164.862451167
67.6169830444
32.1914639825
14.7496992317
6.76796426345
3.27550015873
1.68414910788
0.92577267166
0.550739164279
0.351167493344
0.238616248223
0.182698974779
0.164536379248
0.172712788596
0.215096800631
0.337406154345
0.592429867829
9414.54050797
2076.26050204
533.859489337
170.070370779
68.1156678074
30.2392272712
14.2369524744
6.90035077579
3.47185929219
1.82582100632
1.02157213708
0.614579663827
0.393050158222
0.270484209936
0.21026002198
0.18869697992
0.193257902388
0.229201664197
0.33893316296
0.582344192266
10879.0983611
2372.64243812
622.089543398
196.988912781
74.0491555687
32.3601316179
15.2163629235
7.46693118293
3.78178542998
1.99544775491
1.12050192005
0.673380437954
0.431403672074
0.304506491443
0.244238510492
0.221625972353
0.223617752437
0.254602016979
0.354894557485
0.580256906183
11242.0514037
2717.60785633
778.09128506
255.054852753
96.2979728652
40.3544416067
18.3638103097
8.79499787988
4.35730148495
2.25564823432
1.24096097434
0.728866594218
0.467265764133
0.34102795386
0.283588193942
0.261003559283
0.260598392843
0.286119285992
0.379026135122
0.577752927003
9845.03663944
2802.26242952
916.156757085
329.156697212
125.840155226
51.8306319836
22.9924913586
10.7463185714
5.19749918824
2.61251662995
1.37860621649
0.780866138683
0.503843797578
0.38189749221
0.3284548502
0.305817051854
0.302245923086
0.321296792718
0.404436054514
0.573347286704
7626.05524566
2593.75958891
943.299608099
360.149316024
143.023567046
60.1517561219
26.9548644369
12.6338563773
6.08003431523
2.97975370626
1.5005126447
0.826858240592
0.54291972971
0.428071035548
0.378697347923
0.355123334843
0.347379190669
0.358874905152
0.427748652823
0.567752428406
5957.46481705
2148.02152205
831.341712042
336.204909019
141.027737783
62.1557492167
28.8560854182
13.862461797
6.73387491973
3.23861797082
1.57732647319
0.863813127017
0.584752452152
0.479189093784
0.433334725099
0.407965737882
0.394993505129
0.398461010064
0.448013369763
0.565910984706
5308.98875663
1828.29282252
707.926675457
294.788256917
129.423830159
59.7808614842
28.8521431517
14.267901778
7.00566481864
3.32354996643
1.59938717637
0.89142082432
0.628849332434
0.533741793723
0.491012002328
0.463348853527
0.44496251838
0.440515420391
0.466137946742
0.55607607152
4902.67029709
1618.68054614
611.762772861
256.504198013
115.744770514
55.3013949729
27.5120718323
13.9147005871
6.86867470277
3.23382329908
1.5720651672
0.911025456345
0.673248045376
0.588823748449
0.549319393999
0.520323104519
0.497219539718
0.484080255053
0.483525831768
0.539256067684
4541.82619701
1457.61302966
538.08025004
223.994070411
102.102674179
49.7098170424
25.2295368444
12.9264150329
6.363305394
2.99883826064
1.50553519657
0.921990682948
0.712960227081
0.638366203158
0.603461828783
0.57553227989
0.550973086926
0.522135779111
0.504947807229
0.532010379614
4221.67291362
1325.35963969
478.11381627
195.872902395
89.0045834991
43.6314349674
22.3623376653
11.4502857889
5.57745804986
2.66886132484
1.41290944564
0.921102653897
0.739024459914
0.672225194665
0.643567468407
0.621254886716
0.59028565347
0.546545751234
0.521089129119
0.53111879103
4043.77687617
1223.48778264
429.293339514
171.928814914
77.2426095814
37.7340169439
19.2244369901
9.65513424106
4.6659691425
2.31608197487
1.31198270334
0.904048882863
0.740574440603
0.677143246681
0.655161108357
0.63321014904
0.5926241598
0.545863165054
0.514975809398
0.51026386786
3971.93171178
1160.54244462
395.97487585
154.875079453
68.1756149748
32.5422780527
16.1056941484
7.88385321779
3.86753750159
2.03247206097
1.22566937521
0.869999009521
0.71039429976
0.642847800166
0.61387747901
0.58745252968
0.553712432547
0.509876262692
0.476749448285
0.460828175053
3892.7592914
1123.66926964
381.216540795
147.440666945
63.0192467853
28.9147342225
13.8387717046
6.76920100163
3.45387133659
1.9123783528
1.18418078259
0.829923053312
0.653358651113
0.565336226673
0.520048637072
0.494528004097
0.470263169023
0.436935313709
0.407715903911
0.388041418508
3607.03536693
1135.46345457
401.81501617
154.731462859
64.4995846469
28.8567786498
13.6679274892
6.80429005353
3.57031028036
2.00148497349
1.21453673076
0.807366973549
0.592104100135
0.476526964528
0.412845232341
0.379846550298
0.360820006104
0.341225364356
0.321579115602
0.306451149906
3778.08039161
1271.83970095
461.398842131
176.197683824
71.6589348924
31.3932189333
14.9025217871
7.593138165
4.06058001495
2.2800146774
1.34722737336
0.84174387503
0.566770668616
0.41711880639
0.332270982678
0.285337609533
0.262622784455
0.250406764764
0.240783456097
0.23426460111
4302.34500516
1447.853113
516.611250126
193.783975839
77.62701383
33.6929545348
16.1669174141
8.6011104009
4.77739969671
2.72271152062
1.58899728145
0.953906217916
0.599121304201
0.406508632204
0.298734519232
0.235627433783
0.202534907779
0.18875549485
0.184074999412
0.184511960506
4267.97075425
1326.30918293
447.91322205
168.663619222
70.5985589695
32.8083884316
16.9740605214
9.60842389227
5.57353354332
3.2102898895
1.8687987393
1.10249768575
0.671107953353
0.434391333425
0.303925237256
0.225593014666
0.180975528141
0.160993028464
0.156042730975
0.159581247456
3564.07975369
1032.51495155
347.365662736
134.345461203
59.2965581772
29.6885688784
16.6247073348
10.0436043902
6.13464768274
3.58044320636
2.09051894645
1.2298398218
0.74306004642
0.476598583183
0.328643199827
0.238069868747
0.183715684713
0.157733354666
0.150602772903
0.154592922825
3144.38645943
880.370775298
285.302690153
108.655010442
48.9737635361
25.8084647602
15.338828657
9.71850695169
6.13074198189
3.64451262621
2.154393245
1.27917438431
0.78070107275
0.507970714965
0.354458897604
0.258079413594
0.19856865888
0.169270945183
0.160384911098
0.163590905419
3109.0596109
822.396317856
247.046575446
88.5748491708
39.4665856587
21.441314863
13.2944972589
8.69169713255
5.54964718472
3.39546155004
2.05340282089
1.24427261827
0.778923424844
0.522960062397
0.375744116109
0.280099721285
0.220485157496
0.190957893594
0.181100101847
0.182461892131
3632.74647602
852.145377567
232.028400681
76.3593505829
31.8857048176
17.2691541969
10.9376653625
7.25383396773
4.70361245924
2.97070310503
1.85043355582
1.15816170196
0.755934494486
0.530840004762
0.396040454101
0.305237520861
0.249605670051
0.222014981866
0.211126869194
0.208830802982
4858.39291236
1038.27289128
268.919938378
82.6744898593
31.0124090873
15.0386299037
9.1266380708
5.95424705079
3.89674694105
2.52569620966
1.62786677897
1.0663219953
0.73640525016
0.543516680837
0.420343267087
0.33643736308
0.287542002702
0.262802948177
0.249624184468
0.240879334982
5823.50916042
1320.260033
367.869567713
115.570365992
40.871062999
17.0939711639
8.78869950375
5.22774013046
3.33094767279
2.18305003284
1.45842822837
1.00946733349
0.737889879544
0.566991983856
0.450262428021
0.375182069144
0.334333075466
0.312187650978
0.294793704302
0.27637161448
5354.22185034
1444.19669923
444.13643267
150.269013788
55.2082750633
22.1601544517
10.021436443
5.23586366145
3.1054836214
2.00974862371
1.38288764343
1.00378789341
0.761922230203
0.596123711698
0.484181238052
0.4191249666
0.385579166165
0.365576509987
0.342612438835
0.313821147837
4336.978105
1289.77743165
433.435257295
160.401539261
63.82725835
26.7415791537
11.802688812
5.71305033909
3.16133568078
1.99477706816
1.39062955093
1.03364101734
0.791896811888
0.622834373665
0.517544861265
0.460367284715
0.430384553029
0.406350982396
0.37721904332
0.34369375851
3667.7275804
1094.98206714
385.008471838
152.627770075
65.147136892
28.7865191991
13.0122906892
6.21408106299
3.32600456386
2.05913807291
1.43831220517
1.07076160569
0.816397722885
0.644053260697
0.542353984302
0.485419344668
0.447723456587
0.420937297725
0.393390208421
0.361381737008
3404.17947011
975.201596626
342.545423991
139.846575085
62.1216818867
28.3984477388
13.2013292765
6.40966444286
3.4341793176
2.13263755248
1.50110749044
1.11418173449
0.838154086226
0.655515528791
0.548190587442
0.478804060171
0.437801605245
0.413115807494
0.390807332434
0.364351055934
3269.3158514
914.655998921
314.135120208
128.855128525
58.0639897773
26.8442847381
12.6859662943
6.32002990329
3.49659555158
2.25132681884
1.61039433527
1.17586038206
0.857413417175
0.652023850318
0.525621766282
0.449598786435
0.408016142459
0.384768088465
0.368018122908
0.348870944194
3062.20944731
867.359321391
298.324505865
123.838429839
55.8286317718
25.6282390389
12.2197452382
6.33088224492
3.73151819978
2.53244737253
1.81594084857
1.26833504587
0.871282968341
0.624577319907
0.482864573332
0.406899187893
0.365588830648
0.343087662731
0.329264893564
0.316362502002
2723.02801105
828.64161979
301.341290912
128.371550224
57.28542441
26.0084273033
12.7333544751
7.03670268607
4.48179094241
3.14720435781
2.16742543831
1.38358735886
0.863509451866
0.574582935653
0.432808099203
0.360282943445
0.321197163776
0.298165361734
0.284231241615
0.275070956241
2494.76637673
844.40286167
328.514746898
140.512371287
62.0904050709
29.0778047879
15.0695089371
8.86866225111
5.9884863262
4.22264930412
2.66800355288
1.4795585405
0.830065262321
0.525334215534
0.386970744905
0.32010560886
0.283833300792
0.26020935391
0.244851230069
0.237372438934
2634.96902899
917.611025721
347.908125685
145.407207572
67.3308249763
33.6525851403
18.3083595091
11.2304915194
7.84176704178
5.48077640721
3.19053116764
1.5523293036
0.80836910261
0.492856627114
0.356126641246
0.293914898226
0.260663688879
0.23721560242
0.220371954322
0.213463171441
3062.61161649
961.542936451
338.98257159
142.561775203
70.4021393164
37.8931311039
21.5940690074
13.4165453145
9.53765145626
6.73842181407
3.79005765493
1.6265604186
0.806136054343
0.483012955004
0.346068117265
0.287284755928
0.256613800614
0.233178384065
0.214548258655
0.207654100942
3093.34485127
902.798299205
312.713793877
133.72917716
67.8542072599
38.5338420833
23.6562673252
15.79901371
11.4966857606
8.27220030131
4.54447185033
1.69155063568
0.813307655631
0.490482398692
0.357205792304
0.301790318928
0.272686021742
0.247912808275
0.22645998625
0.219613449242
2799.59975617
787.401593083
256.133415148
107.866621592
57.7210551235
36.3668710824
24.8265387497
17.8544269104
13.4262548995
9.50347649111
4.72460313151
1.69045516345
0.823773237563
0.510520100631
0.385368676597
0.334935897284
0.306382475351
0.278450624574
0.252930351911
0.246715623439
2905.22019023
788.719846316
234.516719208
91.3135125367
52.7257130252
36.8105192009
26.8933439248
19.7455844793
14.273798935
9.09982635064
3.9340454765
1.60242323334
0.834281775486
0.54309787594
0.429779346795
0.384787398369
0.355253915843
0.321786653466
0.290623140783
0.284880585245
3269.34602535
858.874035599
239.72876318
86.6324617726
61.7131910077
46.3164730781
32.0751091552
20.1145542371
12.4818198841
6.82864259244
3.05107332031
1.45712830664
0.838629363198
0.590288986804
0.493721650443
0.452631119559
0.419357847187
0.376120144867
0.33596548358
0.326791972898
3321.41499701
922.190494988
264.283353735
97.6120577302
101.423803162
76.4461290761
38.3404317359
17.924139169
9.21467873384
4.76872751912
2.42908912098
1.34223400227
0.867727087934
0.666655733296
0.585253103855
0.543712939954
0.501551142824