/*--------------------------------*- C++ -*----------------------------------*\
| =========                 |                                                 |
| \\      /  F ield         | OpenFOAM: The Open Source CFD Toolbox           |
|  \\    /   O peration     | Version:  2312                                  |
|   \\  /    A nd           | Website:  www.openfoam.com                      |
|    \\/     M anipulation  |                                                 |
\*---------------------------------------------------------------------------*/
FoamFile
{
    version     2.0;
    format      ascii;
    arch        "LSB;label=32;scalar=64";
    class       volScalarField;
    location    "2.5/water";
    object      alphat.gas;
}
// * * * * * * * * * * * * * * * * * * * * * * * * * * * * * * * * * * * * * //

dimensions      [1 -1 -1 0 0 0 0];

internalField   nonuniform List<scalar> 
23300
(
2.75570411598e-05
2.67898517436e-05
2.558922978e-05
2.4255023007e-05
2.29865743813e-05
2.18870861408e-05
2.09878784803e-05
2.02761844176e-05
1.97182999764e-05
1.92754179741e-05
1.89121512738e-05
1.86001366999e-05
1.83184604775e-05
1.80528499419e-05
1.77942473547e-05
1.75375504057e-05
1.72804313277e-05
1.70225286114e-05
1.67647541408e-05
1.65088845001e-05
1.6257187174e-05
1.60122355137e-05
1.57766968169e-05
1.55532548148e-05
1.53444750148e-05
1.5152781968e-05
1.49803672421e-05
1.48292041852e-05
1.47009879967e-05
1.45971810638e-05
1.45189803066e-05
1.44673858309e-05
1.44431877685e-05
1.44470482551e-05
1.44794977306e-05
1.45410200301e-05
1.46320495321e-05
1.4753052415e-05
1.49045203564e-05
1.50870462737e-05
1.53013160984e-05
1.55481844835e-05
1.58286760835e-05
1.61440841297e-05
1.64960286073e-05
1.68856184743e-05
1.73141204084e-05
1.77832594615e-05
1.82950801057e-05
1.88519568896e-05
1.94565582568e-05
2.01118977437e-05
2.08213170134e-05
2.15885457405e-05
2.24176920018e-05
2.33133053547e-05
2.42803706894e-05
2.53243708745e-05
2.64512783647e-05
2.76676102434e-05
2.89804063735e-05
3.03972620007e-05
3.19262704895e-05
3.35760047865e-05
3.53553843602e-05
3.72735521305e-05
3.93395942544e-05
4.15622198466e-05
4.39492140413e-05
4.65067690757e-05
4.92384768227e-05
5.21440612289e-05
5.52175714329e-05
5.84450315157e-05
6.18010964422e-05
6.52444400267e-05
6.8710921011e-05
7.21034298415e-05
7.52761176961e-05
7.80102396186e-05
7.99801521317e-05
8.07349301469e-05
7.99384654181e-05
7.78808088336e-05
7.49770719625e-05
7.15424500556e-05
6.78012791043e-05
6.39135708176e-05
5.99945271472e-05
5.61273387494e-05
5.23714690236e-05
4.87683679735e-05
4.53455332805e-05
4.21196681174e-05
3.9099111521e-05
3.62858657482e-05
3.36771773884e-05
3.12668840871e-05
2.90464317347e-05
2.70057455254e-05
2.51338473152e-05
2.34193899415e-05
2.18509968498e-05
2.04175656262e-05
1.91084244768e-05
1.7913486118e-05
1.68232920969e-05
1.58290765394e-05
1.49227487498e-05
1.40969090738e-05
1.33448082214e-05
1.26603590421e-05
1.20381473256e-05
1.14736231018e-05
1.09622751581e-05
1.04997346642e-05
1.00822460254e-05
9.70655485366e-06
9.3698063735e-06
9.06948993132e-06
8.80336523222e-06
8.56941256996e-06
8.36575591417e-06
8.19059946746e-06
8.04213691349e-06
7.91847468807e-06
7.81754327603e-06
7.73704932683e-06
7.67447262939e-06
7.62719865773e-06
7.59286988037e-06
7.57017132125e-06
7.56035459275e-06
7.57000514174e-06
7.61546802224e-06
7.72810643535e-06
7.95437535758e-06
8.33335178542e-06
8.83231145922e-06
9.2796058956e-06
2.20711042429e-05
2.17256224726e-05
2.11392148006e-05
2.04486789447e-05
1.97710393956e-05
1.91809580509e-05
1.87103208414e-05
1.83593384756e-05
1.81101674365e-05
1.7938065676e-05
1.78184443725e-05
1.77304166567e-05
1.76579309942e-05
1.7589654508e-05
1.75182583389e-05
1.74395990531e-05
1.73519217377e-05
1.72552251928e-05
1.71507344068e-05
1.70405235093e-05
1.69272062877e-05
1.68137260386e-05
1.67031718419e-05
1.65986593775e-05
1.65032161795e-05
1.64197151397e-05
1.63508043686e-05
1.62988790951e-05
1.62660474764e-05
1.62541348353e-05
1.62646795022e-05
1.62989623538e-05
1.63580240399e-05
1.64427098873e-05
1.6553697945e-05
1.66915490148e-05
1.68567364062e-05
1.70496938283e-05
1.72708417585e-05
1.75206303843e-05
1.77995617968e-05
1.81082287584e-05
1.84473341458e-05
1.88177260275e-05
1.92204098356e-05
1.9655952271e-05
2.01250987979e-05
2.06288655245e-05
2.11685018415e-05
2.17454802584e-05
2.23614819892e-05
2.30184050736e-05
2.37183616385e-05
2.44636920004e-05
2.52569648835e-05
2.61009913572e-05
2.69988227557e-05
2.79537591247e-05
2.89693383778e-05
3.00493312165e-05
3.1197710888e-05
3.24186208363e-05
3.37163068385e-05
3.50950338637e-05
3.65589497989e-05
3.81119121014e-05
3.97572328458e-05
4.14973525126e-05
4.33333893259e-05
4.52645673109e-05
4.72874580189e-05
4.93950265424e-05
5.15753928554e-05
5.38102668865e-05
5.60729160667e-05
5.83255664531e-05
6.0516057855e-05
6.25737581318e-05
6.44051014577e-05
6.5890511398e-05
6.68877132666e-05
6.72536246244e-05
6.69045589945e-05
6.58829204105e-05
6.43039339287e-05
6.22978011431e-05
5.99844335135e-05
5.74656487217e-05
5.48245738102e-05
5.21275426393e-05
4.94265382843e-05
4.67615635694e-05
4.41627107873e-05
4.16519553433e-05
3.92446594502e-05
3.69508621939e-05
3.477634986e-05
3.27235722142e-05
3.07923933699e-05
2.89807316788e-05
2.72850738829e-05
2.57009085965e-05
2.42230634072e-05
2.28459838875e-05
2.15639400425e-05
2.03711932386e-05
1.92621108965e-05
1.82312570959e-05
1.72734479601e-05
1.6383795764e-05
1.55577329454e-05
1.47910376837e-05
1.40798542565e-05
1.34207147785e-05
1.28107637713e-05
1.2246750362e-05
1.17257596131e-05
1.12451747337e-05
1.0802625878e-05
1.03959374574e-05
1.00230670125e-05
9.68203899239e-06
9.37086498862e-06
9.08745313101e-06
8.82950153898e-06
8.59438249803e-06
8.37902091534e-06
8.17978535623e-06
7.99241403307e-06
7.81201980793e-06
7.6332348856e-06
7.4505893787e-06
7.25923963285e-06
7.05614638939e-06
6.84159892551e-06
6.62029245045e-06
6.39973180322e-06
6.18362693322e-06
5.97034410505e-06
5.80401373905e-06
1.90180511525e-05
1.88520755214e-05
1.85660648213e-05
1.82284404881e-05
1.79043819473e-05
1.76393468977e-05
1.74545668144e-05
1.73511208455e-05
1.73174184791e-05
1.73362727124e-05
1.73898725884e-05
1.74625560584e-05
1.75419355674e-05
1.7619044155e-05
1.76879869658e-05
1.77454203437e-05
1.77900095422e-05
1.78219492272e-05
1.78425570811e-05
1.78539498197e-05
1.78587793801e-05
1.78600271159e-05
1.78608341232e-05
1.78643694965e-05
1.787372041e-05
1.789181038e-05
1.79213335058e-05
1.79647129802e-05
1.80240728659e-05
1.81012311283e-05
1.81977025518e-05
1.83147184094e-05
1.84532510298e-05
1.86140494298e-05
1.87976744251e-05
1.90045395297e-05
1.92349470851e-05
1.94891265726e-05
1.97672657816e-05
2.00695422716e-05
2.03961465619e-05
2.07473041889e-05
2.11232878139e-05
2.15244249896e-05
2.19510920477e-05
2.240371431e-05
2.28826897566e-05
2.33885562949e-05
2.39219933982e-05
2.44838201507e-05
2.50749894582e-05
2.56965862518e-05
2.63498234615e-05
2.7036040935e-05
2.77567006173e-05
2.85133825952e-05
2.93077753557e-05
3.0141664243e-05
3.10169111862e-05
3.19354287549e-05
3.28991408986e-05
3.39099320935e-05
3.49695759531e-05
3.60796431345e-05
3.72413775468e-05
3.84555381924e-05
3.97221930404e-05
4.10404597561e-05
4.24081776848e-05
4.38215050312e-05
4.52744259688e-05
4.67581636803e-05
4.82604873471e-05
4.97649151844e-05
5.1249813691e-05
5.26874258707e-05
5.40429027479e-05
5.52735405943e-05
5.6328646074e-05
5.71508642857e-05
5.76803632697e-05
5.78639488622e-05
5.76698092963e-05
5.7100903693e-05
5.61898191438e-05
5.49853545599e-05
5.3542101943e-05
5.19138413708e-05
5.01500050149e-05
4.82941227925e-05
4.63834050003e-05
4.4448935556e-05
4.25161579281e-05
4.0605485656e-05
3.87329375487e-05
3.69107545429e-05
3.51479699028e-05
3.34509289286e-05
3.18237515578e-05
3.02687438356e-05
2.87867563997e-05
2.73774968556e-05
2.60397952073e-05
2.47718292266e-05
2.35713101042e-05
2.24356354953e-05
2.13620112871e-05
2.03475489249e-05
1.93893398569e-05
1.84845128913e-05
1.76302751597e-05
1.68239394138e-05
1.60629324466e-05
1.53447727751e-05
1.46676208861e-05
1.40294974747e-05
1.34285525942e-05
1.28630708667e-05
1.23314557909e-05
1.18321986884e-05
1.13638332533e-05
1.09248760178e-05
1.05137511397e-05
1.01286991743e-05
9.76766992927e-06
9.42820278001e-06
9.10730102133e-06
8.8013125325e-06
8.50583421037e-06
8.21566247982e-06
7.92481032361e-06
7.62659312553e-06
7.31372428599e-06
6.97820467238e-06
6.61045219461e-06
6.19659649429e-06
5.71291971929e-06
5.12113727634e-06
4.38914678933e-06
3.59461531245e-06
1.74292633971e-05
1.73544530802e-05
1.72292815674e-05
1.70912074228e-05
1.69770828897e-05
1.69130856766e-05
1.69110372544e-05
1.69700914212e-05
1.70810155297e-05
1.72306396628e-05
1.74052133049e-05
1.75924218309e-05
1.77823128671e-05
1.79675185778e-05
1.81430895046e-05
1.83061612808e-05
1.84555728613e-05
1.85915037483e-05
1.87151497923e-05
1.88284488148e-05
1.89338477445e-05
1.90341109067e-05
1.91321583693e-05
1.92309350615e-05
1.93333021291e-05
1.94419536369e-05
1.95593519193e-05
1.96876855102e-05
1.98288430821e-05
1.99844067113e-05
2.01556571231e-05
2.03435932747e-05
2.05489583671e-05
2.07722742616e-05
2.10138766358e-05
2.12739532601e-05
2.15525786475e-05
2.18497482465e-05
2.21654064927e-05
2.24994725205e-05
2.28518586079e-05
2.32224853558e-05
2.3611289033e-05
2.40182249068e-05
2.44432620102e-05
2.48868435567e-05
2.53491700475e-05
2.58305049011e-05
2.63311849551e-05
2.68516245656e-05
2.73923137606e-05
2.79538159223e-05
2.85367626338e-05
2.91418488067e-05
2.97698247455e-05
3.04214874054e-05
3.10976672993e-05
3.17992127634e-05
3.25269678613e-05
3.32817450219e-05
3.40642883475e-05
3.48752278963e-05
3.57150202931e-05
3.65838749373e-05
3.74816602935e-05
3.84077883147e-05
3.93610705676e-05
4.03395432727e-05
4.13402549042e-05
4.23590146533e-05
4.33900984758e-05
4.44259163516e-05
4.54566461117e-05
4.6469850432e-05
4.74501026435e-05
4.83786708417e-05
4.9233340778e-05
4.99885158539e-05
5.06158063256e-05
5.10854067234e-05
5.13685852453e-05
5.14414374233e-05
5.12893286445e-05
5.09103192774e-05
5.03155769686e-05
4.9525326738e-05
4.85651168615e-05
4.74626797692e-05
4.62456615399e-05
4.49401759954e-05
4.35699966868e-05
4.21561921219e-05
4.07170425974e-05
3.92681254541e-05
3.78224911109e-05
3.63908844006e-05
3.49819821574e-05
3.36026333363e-05
3.22580917872e-05
3.09522383184e-05
2.96877874868e-05
2.84664782737e-05
2.72892458114e-05
2.61563746291e-05
2.50676321104e-05
2.40223838572e-05
2.30196908775e-05
2.20583909092e-05
2.11371642013e-05
2.02545856452e-05
1.94091626314e-05
1.85993581003e-05
1.78235940593e-05
1.70802281446e-05
1.63680230298e-05
1.56859997365e-05
1.50332184627e-05
1.44087905746e-05
1.38118761866e-05
1.32416674043e-05
1.26973562774e-05
1.21780866623e-05
1.16828887623e-05
1.12105959498e-05
1.07597443805e-05
1.03284581472e-05
9.9143252604e-06
9.51427251579e-06
9.12444790221e-06
8.74011377979e-06
8.35553380671e-06
7.96378454597e-06
7.55630712355e-06
7.12178680419e-06
6.64358343265e-06
6.09467517979e-06
5.43045722515e-06
4.58886125596e-06
3.53971210853e-06
2.46545096158e-06
1.67879507457e-05
1.67627343462e-05
1.67267396969e-05
1.67020272669e-05
1.67102418991e-05
1.67663830073e-05
1.68762825213e-05
1.70374516852e-05
1.72417241595e-05
1.74781792808e-05
1.77354686908e-05
1.80033027661e-05
1.82731990218e-05
1.85387201596e-05
1.8795405611e-05
1.90405527313e-05
1.92729370022e-05
1.94925280114e-05
1.97002214094e-05
1.98976014671e-05
2.008673154e-05
2.02699761054e-05
2.04498475225e-05
2.06288803543e-05
2.08095269648e-05
2.09940779624e-05
2.11846016578e-05
2.13829059778e-05
2.1590516479e-05
2.18086729908e-05
2.20383376527e-05
2.22802160308e-05
2.25347836864e-05
2.28023197382e-05
2.30829402238e-05
2.33766333758e-05
2.36832906258e-05
2.4002736315e-05
2.43347510303e-05
2.46790922872e-05
2.50355084077e-05
2.54037498183e-05
2.5783574312e-05
2.61747505775e-05
2.6577056424e-05
2.69909640016e-05
2.74166104781e-05
2.78541427207e-05
2.83037297665e-05
2.87655701651e-05
2.92398929221e-05
2.97269567603e-05
3.02270458143e-05
3.07404649148e-05
3.12675317545e-05
3.18085682408e-05
3.23638881114e-05
3.29337826341e-05
3.35185013939e-05
3.41182295649e-05
3.47330585695e-05
3.53629510671e-05
3.60076970038e-05
3.66668611629e-05
3.73397187118e-05
3.80251787159e-05
3.87216920191e-05
3.94271434388e-05
4.01387254528e-05
4.08527948549e-05
4.15647126933e-05
4.22686738271e-05
4.29575338459e-05
4.36226499339e-05
4.42537575222e-05
4.48389180383e-05
4.53645841889e-05
4.58158479373e-05
4.61769475235e-05
4.64321119487e-05
4.65667798121e-05
4.65691200303e-05
4.64315691849e-05
4.61518801221e-05
4.57337529777e-05
4.51859622347e-05
4.45204662217e-05
4.37512185254e-05
4.28930436066e-05
4.19607787418e-05
4.09686774874e-05
3.99300321235e-05
3.88569596645e-05
3.7760303926e-05
3.66496141165e-05
3.5533174137e-05
3.44180631592e-05
3.33102369599e-05
3.22146208966e-05
3.11352101751e-05
3.00751719056e-05
2.90369466686e-05
2.80223456818e-05
2.70326425629e-05
2.60686571386e-05
2.5130831386e-05
2.42192960187e-05
2.33339283949e-05
2.24744006766e-05
2.16402186978e-05
2.08307498984e-05
2.00452392714e-05
1.9282809416e-05
1.85424401995e-05
1.78232941348e-05
1.71250563971e-05
1.64474250501e-05
1.57901214083e-05
1.51528919196e-05
1.45354995621e-05
1.39377021242e-05
1.33592154446e-05
1.27996595721e-05
1.22584867605e-05
1.17348908289e-05
1.1227698989e-05
1.07352483279e-05
1.02552492661e-05
9.78463401833e-06
9.31937405771e-06
8.85421566464e-06
8.38220767974e-06
7.89375057921e-06
7.37465269097e-06
6.80239520163e-06
6.13998726917e-06
5.32967287824e-06
4.30199577011e-06
3.05635227198e-06
1.89369795879e-06
1.67614403359e-05
1.6763377014e-05
1.67765385634e-05
1.68149964729e-05
1.68923519517e-05
1.70175923604e-05
1.71933136457e-05
1.74161974705e-05
1.76787804372e-05
1.79715158072e-05
1.82844951874e-05
1.86086125375e-05
1.89361990699e-05
1.92612680191e-05
1.95795062571e-05
1.98881286075e-05
2.01856646541e-05
2.04717276407e-05
2.07467852631e-05
2.10119492385e-05
2.12687841931e-05
2.15191424177e-05
2.17650200669e-05
2.20084392207e-05
2.22513505578e-05
2.2495560583e-05
2.2742677646e-05
2.29940799076e-05
2.325089859e-05
2.35140186401e-05
2.37840893422e-05
2.40615463766e-05
2.43466377353e-05
2.46394551172e-05
2.49399638737e-05
2.52480338585e-05
2.55634653539e-05
2.58860133289e-05
2.62154053183e-05
2.6551356919e-05
2.68935811292e-05
2.72417960107e-05
2.75957275216e-05
2.79551118807e-05
2.83196939489e-05
2.86899285545e-05
2.90660004954e-05
2.94480595888e-05
2.98362354826e-05
3.0230648595e-05
3.06314143439e-05
3.10386450824e-05
3.14524480727e-05
3.18729228322e-05
3.23001554494e-05
3.2734212347e-05
3.31751308766e-05
3.36229087867e-05
3.40774899507e-05
3.45387480872e-05
3.50064658946e-05
3.54803110599e-05
3.59598066001e-05
3.64442967635e-05
3.693290601e-05
3.74244921701e-05
3.79175915267e-05
3.84103571531e-05
3.89004890717e-05
3.93851587949e-05
3.98609290653e-05
4.03236745537e-05
4.07685089706e-05
4.11897302458e-05
4.15807965432e-05
4.19343529184e-05
4.22423297119e-05
4.24961389265e-05
4.26869904876e-05
4.28063427623e-05
4.28464745667e-05
4.28011257387e-05
4.26660958761e-05
4.24396556798e-05
4.21226615574e-05
4.17189468365e-05
4.12342397241e-05
4.06755093276e-05
4.0050547307e-05
3.93675317232e-05
3.86346802529e-05
3.78599924233e-05
3.70510675884e-05
3.62149850108e-05
3.5358230524e-05
3.44866592214e-05
3.36054839015e-05
3.27192838653e-05
3.18320277578e-05
3.09471076598e-05
3.00673798882e-05
2.91952108321e-05
2.83325242974e-05
2.7480849487e-05
2.6641366984e-05
2.58149525303e-05
2.50022166597e-05
2.42035403123e-05
2.34191047703e-05
2.26489158642e-05
2.18928204571e-05
2.1150514182e-05
2.04215370426e-05
1.97052535599e-05
1.90010862696e-05
1.83090861028e-05
1.76293169125e-05
1.69618655273e-05
1.6306846686e-05
1.56644006311e-05
1.50346801511e-05
1.44178245072e-05
1.38139173667e-05
1.32229266331e-05
1.26446240584e-05
1.20784831534e-05
1.15235532043e-05
1.09783044848e-05
1.04404306711e-05
9.90657294997e-06
9.37188419441e-06
8.82926269988e-06
8.26793144353e-06
7.67082468792e-06
7.01012552669e-06
6.24104036128e-06
5.2983138703e-06
4.11669377917e-06
2.74089674997e-06
1.57790519577e-06
1.71228648621e-05
1.71394824481e-05
1.71792562818e-05
1.72520560531e-05
1.73672989441e-05
1.75309227068e-05
1.77440067075e-05
1.80030342155e-05
1.83011609298e-05
1.86297794101e-05
1.89798900451e-05
1.93430797065e-05
1.97120956764e-05
2.00811021197e-05
2.04457157341e-05
2.08029116654e-05
2.11508573035e-05
2.1488719134e-05
2.18164623134e-05
2.21346614727e-05
2.24443254506e-05
2.27467444354e-05
2.30433565822e-05
2.33356394503e-05
2.3625021464e-05
2.39128173819e-05
2.42001818096e-05
2.44880835608e-05
2.47772938527e-05
2.50683901696e-05
2.53617681887e-05
2.56576632504e-05
2.59561739458e-05
2.62572896888e-05
2.65609157066e-05
2.68668981562e-05
2.71750439478e-05
2.74851388522e-05
2.77969595315e-05
2.81102837009e-05
2.84248948699e-05
2.87405861471e-05
2.90571598503e-05
2.9374426629e-05
2.96921990361e-05
3.00108438137e-05
3.03306857149e-05
3.06519611236e-05
3.09748471738e-05
3.12994793978e-05
3.16259602569e-05
3.19543643735e-05
3.22847394623e-05
3.26171065369e-05
3.29514572287e-05
3.32877507932e-05
3.36259083912e-05
3.39658068144e-05
3.43072692915e-05
3.46500553056e-05
3.49938471593e-05
3.53382350367e-05
3.56826984181e-05
3.6026585476e-05
3.63690884696e-05
3.67092167515e-05
3.70457656943e-05
3.7377283378e-05
3.77020339823e-05
3.80179605077e-05
3.83226471384e-05
3.86132856293e-05
3.88866484792e-05
3.91390761173e-05
3.93664840919e-05
3.95644004686e-05
3.97280415772e-05
3.98524363444e-05
3.99326036669e-05
3.9963783399e-05
3.9941707681e-05
3.98628871069e-05
3.97248687188e-05
3.95264203302e-05
3.92676042253e-05
3.89497433669e-05
3.85757592384e-05
3.81492336569e-05
3.7674259804e-05
3.71552989464e-05
3.65969980855e-05
3.6004040503e-05
3.53810245596e-05
3.47323724117e-05
3.40622629156e-05
3.33745858215e-05
3.26729121565e-05
3.19604789272e-05
3.12401842274e-05
3.05145916865e-05
2.97859410142e-05
2.90561639985e-05
2.83269032303e-05
2.75995332819e-05
2.68751821034e-05
2.61547526561e-05
2.54389429116e-05
2.47282643272e-05
2.40230570548e-05
2.33235017921e-05
2.26296262951e-05
2.19413057284e-05
2.12582538371e-05
2.05800022428e-05
1.99060976629e-05
1.92367136602e-05
1.85720455696e-05
1.79123222899e-05
1.72578149804e-05
1.66088406748e-05
1.59657574995e-05
1.5328948612e-05
1.4698791275e-05
1.40756078269e-05
1.34595944857e-05
1.28507233556e-05
1.22486102943e-05
1.16523356061e-05
1.10601909417e-05
1.04692980734e-05
9.87499162937e-06
9.26976409185e-06
8.64142902455e-06
7.97001178578e-06
7.22298478373e-06
6.34981705203e-06
5.28262510229e-06
3.96893144864e-06
2.50617171722e-06
1.3849832989e-06
1.77206278774e-05
1.77450916203e-05
1.77990547609e-05
1.78901465441e-05
1.80256233036e-05
1.82099527889e-05
1.84436349436e-05
1.87233126215e-05
1.90427270416e-05
1.9393977642e-05
1.97686815825e-05
2.01588449745e-05
2.05574078803e-05
2.09585174172e-05
2.13575998694e-05
2.17513069773e-05
2.2137386231e-05
2.25145176801e-05
2.28821370582e-05
2.32402649859e-05
2.35893464845e-05
2.39301105764e-05
2.42634479511e-05
2.4590312518e-05
2.49116421654e-05
2.52283025589e-05
2.55410477177e-05
2.58504998404e-05
2.61571410906e-05
2.64613190209e-05
2.67632580266e-05
2.70630784517e-05
2.7360816202e-05
2.76564450776e-05
2.79498956822e-05
2.82410739992e-05
2.85298746213e-05
2.88161925066e-05
2.90999291935e-05
2.93809978459e-05
2.96593237615e-05
2.99348449392e-05
3.02075097912e-05
3.04772764272e-05
3.07441104903e-05
3.10081090919e-05
3.12699102149e-05
3.15298630447e-05
3.1788239456e-05
3.2045247243e-05
3.23010395935e-05
3.25557227569e-05
3.28093598542e-05
3.30619740708e-05
3.33135490809e-05
3.35640292858e-05
3.38133175735e-05
3.40612728305e-05
3.4307704999e-05
3.45523697127e-05
3.47949604367e-05
3.50351e-05
3.52723295896e-05
3.55060970059e-05
3.5735742421e-05
3.59604834373e-05
3.61793979432e-05
3.6391406711e-05
3.65952546702e-05
3.67894932416e-05
3.69724634377e-05
3.7142282988e-05
3.72968383926e-05
3.74337864017e-05
3.75505671249e-05
3.76444342046e-05
3.7712504551e-05
3.77518320839e-05
3.77595051358e-05
3.7732766589e-05
3.7669148244e-05
3.75666082625e-05
3.74236533811e-05
3.72394298098e-05
3.70137696849e-05
3.67471909506e-05
3.6440863589e-05
3.60968168197e-05
3.57173510739e-05
3.53049308891e-05
3.48621931324e-05
3.43918664657e-05
3.38966969944e-05
3.33793880663e-05
3.28425529204e-05
3.22886786967e-05
3.17200993142e-05
3.11389771605e-05
3.05472910631e-05
2.99468306299e-05
2.93391946268e-05
2.87257935206e-05
2.81078540925e-05
2.74864263904e-05
2.68623912053e-05
2.62364684226e-05
2.56092246145e-05
2.4981080171e-05
2.43523143687e-05
2.37230684495e-05
2.3093344917e-05
2.24630025107e-05
2.18317442088e-05
2.11990960822e-05
2.05645943696e-05
1.99283489031e-05
1.92905004754e-05
1.8651235538e-05
1.80107993507e-05
1.73695057856e-05
1.6727740448e-05
1.60859539821e-05
1.54446413024e-05
1.48043023225e-05
1.41653780057e-05
1.35281536983e-05
1.28926169367e-05
1.22582483952e-05
1.1623707161e-05
1.09863393699e-05
1.03413824053e-05
9.68064731973e-06
8.99034866489e-06
8.24770030926e-06
7.41625944038e-06
6.44193941142e-06
5.25856926337e-06
3.83258793179e-06
2.31570562607e-06
1.25792681323e-06
1.84562652987e-05
1.84849160189e-05
1.85464052402e-05
1.86471333962e-05
1.87932278388e-05
1.89884789843e-05
1.9233259893e-05
1.95245218924e-05
1.98565388904e-05
2.0221966293e-05
2.06128638079e-05
2.10215006911e-05
2.14408879473e-05
2.18650696136e-05
2.22892262769e-05
2.2709654976e-05
2.31236699692e-05
2.35294650902e-05
2.39259576796e-05
2.4312634799e-05
2.46894070366e-05
2.50564805409e-05
2.54142457904e-05
2.57631891266e-05
2.61038223091e-05
2.64366337132e-05
2.67620546298e-05
2.70804429003e-05
2.73920764543e-05
2.76971584188e-05
2.79958263334e-05
2.82881673454e-05
2.85742326054e-05
2.8854053462e-05
2.91276537388e-05
2.93950615458e-05
2.96563159603e-05
2.99114726786e-05
3.01606047746e-05
3.04038029834e-05
3.06411721763e-05
3.08728284973e-05
3.10988941316e-05
3.13194938851e-05
3.15347502656e-05
3.17447799682e-05
3.19502022238e-05
3.21515501103e-05
3.23492383783e-05
3.25435881769e-05
3.27348432591e-05
3.29231824996e-05
3.31087275986e-05
3.3291549587e-05
3.34716722979e-05
3.36490755112e-05
3.38236956338e-05
3.39954261925e-05
3.41641160522e-05
3.43295674473e-05
3.44915318713e-05
3.4649705783e-05
3.48037243154e-05
3.49531548544e-05
3.50974888324e-05
3.52361335783e-05
3.53684027696e-05
3.54935074025e-05
3.56105461146e-05
3.57184970026e-05
3.58162102063e-05
3.59024038158e-05
3.5975662955e-05
3.60344451111e-05
3.60770920712e-05
3.61018517601e-05
3.61069101904e-05
3.60904359805e-05
3.60506359248e-05
3.5985821251e-05
3.58944791924e-05
3.57753451314e-05
3.56274661872e-05
3.5450250191e-05
3.524349343e-05
3.50073881484e-05
3.47425105378e-05
3.4449802394e-05
3.41306309869e-05
3.37865817426e-05
3.34191931635e-05
3.30301017934e-05
3.2620977299e-05
3.2193487366e-05
3.17492681292e-05
3.12898984213e-05
3.08168794551e-05
3.03316196088e-05
2.98354226781e-05
2.93294802714e-05
2.88148664989e-05
2.82925354929e-05
2.77633199971e-05
2.72279316126e-05
2.6686961163e-05
2.61408797971e-05
2.55900394192e-05
2.50346729649e-05
2.44748931264e-05
2.39106898297e-05
2.33419249281e-05
2.27683238989e-05
2.21894622781e-05
2.16047451618e-05
2.10135805805e-05
2.04158850089e-05
1.98116098459e-05
1.92007596234e-05
1.85834100455e-05
1.79597241407e-05
1.73299631054e-05
1.66944884042e-05
1.60537501387e-05
1.54082559762e-05
1.47585122595e-05
1.41049257694e-05
1.34476479381e-05
1.27863323348e-05
1.21197558476e-05
1.14452195333e-05
1.07575894505e-05
1.00477608421e-05
9.3002580901e-06
8.48974463782e-06
7.57683706965e-06
6.50606638598e-06
5.21662415762e-06
3.69782031658e-06
2.15334311433e-06
1.1701568386e-06
1.9266636396e-05
1.92975702637e-05
1.93631244834e-05
1.94689913849e-05
1.96206830981e-05
1.98216835609e-05
2.00724197529e-05
2.03701697308e-05
2.07096573239e-05
2.10839706527e-05
2.14854901349e-05
2.19066493451e-05
2.23404614078e-05
2.27808270894e-05
2.3222665005e-05
2.36619199869e-05
2.40954900491e-05
2.4521111293e-05
2.49372207864e-05
2.53428187616e-05
2.57373361354e-05
2.61205185318e-05
2.64923255804e-05
2.68528515787e-05
2.72022626451e-05
2.75407537983e-05
2.78685192251e-05
2.81857378611e-05
2.84925668434e-05
2.87891446348e-05
2.90755965953e-05
2.93520452035e-05
2.96186185397e-05
2.98754600139e-05
3.01227340103e-05
3.03606312071e-05
3.05893691894e-05
3.08091926132e-05
3.10203691903e-05
3.1223185907e-05
3.1417942126e-05
3.16049438992e-05
3.1784496363e-05
3.19568982194e-05
3.21224348357e-05
3.22813720726e-05
3.24341649308e-05
3.25815293715e-05
3.27240396349e-05
3.28621494575e-05
3.29962122755e-05
3.31264987808e-05
3.32532088797e-05
3.33764815921e-05
3.34964013825e-05
3.36130038114e-05
3.37262785493e-05
3.3836172087e-05
3.39425881609e-05
3.40453880156e-05
3.41443886468e-05
3.42393610171e-05
3.43300265156e-05
3.44160535581e-05
3.44970527297e-05
3.45725723202e-05
3.46420928039e-05
3.47050221377e-05
3.47606906229e-05
3.48083473093e-05
3.48471569461e-05
3.48761996473e-05
3.48944725728e-05
3.49008959942e-05
3.48943232368e-05
3.487355686e-05
3.48373703441e-05
3.47845370377e-05
3.47138645826e-05
3.46242350028e-05
3.45146466809e-05
3.43842562998e-05
3.42324153119e-05
3.40586985797e-05
3.38629211687e-05
3.36451441585e-05
3.34056700746e-05
3.31450319614e-05
3.28639810826e-05
3.25634600447e-05
3.224463334e-05
3.1908545733e-05
3.15562720325e-05
3.11888899348e-05
3.08074680604e-05
3.04130435459e-05
3.00066078712e-05
2.95890949451e-05
2.91613710321e-05
2.87242273456e-05
2.82783739136e-05
2.78244353778e-05
2.73629470773e-05
2.68943521311e-05
2.64189981123e-05
2.5937134091e-05
2.54489067969e-05
2.49543566104e-05
2.44534121793e-05
2.39458842116e-05
2.34314571829e-05
2.29096791114e-05
2.23799475401e-05
2.18414905024e-05
2.1293502834e-05
2.07356329677e-05
2.01675586583e-05
1.95890091582e-05
1.89997883778e-05
1.83997974223e-05
1.77890529852e-05
1.71676977785e-05
1.65359971837e-05
1.58943150276e-05
1.52430578458e-05
1.45825726753e-05
1.39129751311e-05
1.323387168e-05
1.25439179302e-05
1.18401202891e-05
1.11167380195e-05
1.03635850384e-05
9.563510978e-06
8.68901953774e-06
7.69883770071e-06
6.53811041348e-06
5.15424278575e-06
3.56155333759e-06
2.01116440631e-06
1.10787376608e-06
2.01109674671e-05
2.01432490194e-05
2.02111820915e-05
2.03200185844e-05
2.0474902618e-05
2.06791643449e-05
2.09333217678e-05
2.12349244865e-05
2.15790410919e-05
2.19590763094e-05
2.23676302702e-05
2.2797227355e-05
2.32408390775e-05
2.36922060705e-05
2.41459901617e-05
2.45978064493e-05
2.5044172628e-05
2.54824136771e-05
2.59105418217e-05
2.63271334376e-05
2.67312092927e-05
2.71221295925e-05
2.7499502703e-05
2.78631136154e-05
2.82128671463e-05
2.85487491901e-05
2.88707991887e-05
2.91790959586e-05
2.94737495441e-05
2.97549011192e-05
3.00227240193e-05
3.02774284583e-05
3.05192639249e-05
3.07485225846e-05
3.09655386964e-05
3.11706880364e-05
3.13643831651e-05
3.15470688894e-05
3.17192142785e-05
3.18813056059e-05
3.2033836849e-05
3.21773019493e-05
3.23121856833e-05
3.24389571825e-05
3.255806326e-05
3.26699258979e-05
3.27749419954e-05
3.28738321197e-05
3.29673516239e-05
3.30560971181e-05
3.31405377072e-05
3.32210402032e-05
3.3297886149e-05
3.33712852911e-05
3.34413846586e-05
3.35082764333e-05
3.35720028729e-05
3.36325606998e-05
3.36899030797e-05
3.37439413523e-05
3.37945447407e-05
3.38415400655e-05
3.38847098027e-05
3.39237904071e-05
3.3958469344e-05
3.39883826848e-05
3.40131118224e-05
3.40321811451e-05
3.40450553607e-05
3.40511383444e-05
3.40497723605e-05
3.40402396109e-05
3.40217651138e-05
3.39935229292e-05
3.39546447919e-05
3.39042330779e-05
3.38413769474e-05
3.37651731396e-05
3.36747495691e-05
3.35692922476e-05
3.34480725463e-05
3.33104742045e-05
3.31560162848e-05
3.29843713637e-05
3.279537597e-05
3.25890343517e-05
3.23655148676e-05
3.21251424139e-05
3.18683874003e-05
3.1595854191e-05
3.13082722203e-05
3.10064916893e-05
3.06913261502e-05
3.03635142089e-05
3.00238211356e-05
2.96729798784e-05
2.9311694526e-05
2.89406288891e-05
2.85603977424e-05
2.81715592942e-05
2.77746086924e-05
2.73699728425e-05
2.69580050241e-05
2.65389799995e-05
2.61130882425e-05
2.56804301388e-05
2.52410089923e-05
2.4794723688e-05
2.43413599715e-05
2.38805811264e-05
2.34119170827e-05
2.29347525455e-05
2.24483128524e-05
2.19516469318e-05
2.14436947908e-05
2.09238113429e-05
2.03913632156e-05
1.98457552527e-05
1.9286458423e-05
1.8713038317e-05
1.81251807145e-05
1.75227099131e-05
1.69055930312e-05
1.62739216922e-05
1.56278581708e-05
1.49675277693e-05
1.42928296629e-05
1.36031244597e-05
1.28967342062e-05
1.21701582948e-05
1.14168671948e-05
1.06255021174e-05
9.77734370725e-06
8.84320339915e-06
7.78094980782e-06
6.53805610295e-06
5.07221560903e-06
3.42351795788e-06
1.88486137587e-06
1.06321450766e-06
2.09621302966e-05
2.09953761225e-05
2.10650193613e-05
2.11760066275e-05
2.13332232414e-05
2.15398855796e-05
2.17965656459e-05
2.21009906646e-05
2.24484546432e-05
2.28325629312e-05
2.3246041268e-05
2.36814405971e-05
2.41316571311e-05
2.45902647652e-05
2.50516841269e-05
2.55112335983e-05
2.59650970204e-05
2.64102451135e-05
2.68443302245e-05
2.72655761665e-05
2.76726696706e-05
2.80646650267e-05
2.84409007561e-05
2.88009343259e-05
2.91444897808e-05
2.94714215607e-05
2.97816876599e-05
3.00753343796e-05
3.03524855255e-05
3.06133383515e-05
3.08581596522e-05
3.10872849042e-05
3.13011147923e-05
3.15001127427e-05
3.16847987357e-05
3.18557435706e-05
3.20135595702e-05
3.21588921263e-05
3.22924084931e-05
3.24147881474e-05
3.25267113157e-05
3.26288497566e-05
3.27218566056e-05
3.28063592357e-05
3.2882952261e-05
3.29521943202e-05
3.30146047469e-05
3.30706868563e-05
3.31213840313e-05
3.31674345692e-05
3.32094202619e-05
3.32477992416e-05
3.32829281927e-05
3.33150796672e-05
3.33444540415e-05
3.3371189569e-05
3.3395369043e-05
3.34170256026e-05
3.34361459333e-05
3.34526730738e-05
3.3466507139e-05
3.34775060233e-05
3.34854844849e-05
3.34902135593e-05
3.34914187806e-05
3.34887790743e-05
3.34819248814e-05
3.34704373322e-05
3.34538471221e-05
3.34316349011e-05
3.34032319263e-05
3.33680228054e-05
3.33253491584e-05
3.3274516019e-05
3.32147997957e-05
3.31454594952e-05
3.30657498259e-05
3.29749375345e-05
3.28723191058e-05
3.27572405553e-05
3.26291167575e-05
3.24874504071e-05
3.2331847652e-05
3.21620305154e-05
3.19778436915e-05