/*--------------------------------*- C++ -*----------------------------------*\
| =========                 |                                                 |
| \\      /  F ield         | OpenFOAM: The Open Source CFD Toolbox           |
|  \\    /   O peration     | Version:  2312                                  |
|   \\  /    A nd           | Website:  www.openfoam.com                      |
|    \\/     M anipulation  |                                                 |
\*---------------------------------------------------------------------------*/
FoamFile
{
    version     2.0;
    format      ascii;
    arch        "LSB;label=32;scalar=64";
    class       volScalarField;
    location    "0.52/water";
    object      epsilon.gas;
}
// * * * * * * * * * * * * * * * * * * * * * * * * * * * * * * * * * * * * * //

dimensions      [0 2 -3 0 0 0 0];

internalField   nonuniform List<scalar> 
6000
(
17.7512524053
2.74380859127
0.495448688856
0.112712063677
0.0365716336071
0.00739350464983
0.00198653000343
0.000910007749456
0.000607642644711
0.0004997763037
0.000454794405733
0.000433971103103
0.000423482333926
0.000417732797828
0.000414310336947
0.00041213113871
0.000410682208334
0.000409700821471
0.000409039719851
0.000408610822553
561.383724475
107.121247248
17.9891265514
3.70626975705
0.671507510732
0.188038624266
0.0434310600556
0.00808275801713
0.00201333879573
0.000893225187278
0.000598964456722
0.000495570662626
0.000452462816824
0.000432482388098
0.000422350079056
0.000416707965085
0.000413273972798
0.00041104471347
0.000409558280984
0.000408585549608
780.944275592
182.538117924
40.8304928435
8.71923478384
2.0711328524
0.463198119919
0.131438839958
0.0301866451202
0.0061995697631
0.00182003831041
0.000887728290875
0.0006111819061
0.000505839900559
0.000459540300803
0.00043733040758
0.000425831994358
0.000419349908782
0.000415370055674
0.000412775297832
0.000411061742327
993.600215703
246.582433621
61.3961096507
15.0100050255
4.13960704192
0.909510094202
0.239930001596
0.0688175081479
0.0152508231747
0.00362265326255
0.00136379934201
0.000784465785495
0.00058296021344
0.000497925406198
0.000458014469542
0.000437952742734
0.000427168864861
0.000420894513745
0.000416953776671
0.000414369607753
1075.91629535
283.091074629
75.646323064
20.4328821502
5.29161975718
1.62064500608
0.348940640579
0.107141136178
0.0304221941454
0.0068391722304
0.00209947746448
0.00102258140554
0.000683322452404
0.000546929349284
0.000484061103919
0.000452811766612
0.00043638846116
0.000427193206959
0.000421647714813
0.000418092483874
1061.35377028
294.98990745
83.728636885
24.2693958789
6.96435007712
1.85201227689
0.566195420576
0.129445297109
0.0470833159519
0.0123775102498
0.00325556676097
0.00134578476998
0.000808646171565
0.000606057532627
0.00051504327062
0.000470167741319
0.000446783987128
0.000433965873658
0.000426483027345
0.000421821708571
1073.93881027
302.487231297
88.1280024163
26.6554873766
8.19501938544
2.44357718343
0.652630706584
0.189224218202
0.0536119219785
0.020491755007
0.00519171812154
0.00180303431194
0.000965490909231
0.000675979717137
0.000550913402866
0.000490030847241
0.000458427222137
0.000441254657738
0.000431430809488
0.000425466142041
1110.21953735
310.895021601
91.7262912836
28.4987414072
9.17869252856
2.96037521406
0.896622952693
0.258362479951
0.0698579521194
0.0267944034928
0.00857389691376
0.002511817617
0.00116941805459
0.000758957673774
0.000591969536137
0.000512484111261
0.000471435043733
0.000449182375516
0.000436572661876
0.000429052427593
1133.95060971
318.274437317
94.6734276784
29.997083702
9.99020850058
3.41987155759
1.14960413108
0.35463946105
0.122441706967
0.0329492790797
0.0135921051523
0.00379052124165
0.001461067569
0.00086077179536
0.00063915529883
0.000537709694427
0.000485901735277
0.000457844630619
0.000441987795019
0.000432633513643
1146.96822043
323.200778949
96.9605855535
31.2043399856
10.675910451
3.82569703611
1.39761069044
0.497732317291
0.163078537887
0.0623390346459
0.0178664082414
0.00625542960416
0.00194778419547
0.000995210772641
0.000694788503343
0.000566180699417
0.000501945486995
0.00046729579546
0.000447715935296
0.000436254932585
1143.68310888
325.104604557
98.4675056251
32.1326812373
11.2628036352
4.19973124802
1.64181434001
0.649949738865
0.253182823018
0.0959117661972
0.03064890281
0.00949525508814
0.00288947744943
0.00119549599779
0.000764442328109
0.000599204113219
0.000519905610995
0.000477610217621
0.000453797385623
0.00043993853092
1135.06064674
324.706563298
99.2415435565
32.8020154275
11.7461863274
4.53302008051
1.86081795842
0.796121732858
0.349373757876
0.160133331995
0.0694325147633
0.0127233548202
0.00452714183334
0.00153390029973
0.000860325764365
0.000639795914146
0.000540584562391
0.000489013962332
0.00046029748299
0.000443703749887
1128.84335021
324.483647385
99.8114727121
33.2658950636
12.087983463
4.78879052048
2.03796470794
0.917621938889
0.436610314052
0.232506904127
0.108903127047
0.0272557530115
0.00607750329993
0.00212560295904
0.00100480316121
0.000693376648572
0.000565636177599
0.000502049268607
0.00046735549448
0.000447615477978
1142.59177707
327.156085083
100.37605369
33.546404202
12.3094624346
4.96245247568
2.15926130354
1.00065936389
0.507111515813
0.299287141542
0.173614196764
0.06018306737
0.00753313492811
0.00304117189665
0.0012427090831
0.000771290315777
0.000598228772112
0.000517595579919
0.000475294651333
0.000451856543984
1168.39449763
333.410309552
101.705650944
33.9011955577
12.4653909088
5.05535815183
2.22227540365
1.05158615034
0.563691766535
0.359023661253
0.237516240428
0.0943956275029
0.015717829208
0.00462042470277
0.00170099818059
0.000894464482931
0.000643058278409
0.000537136231543
0.000484740738046
0.000456778502707
1210.74369772
343.524641269
104.327771708
34.6473364875
12.6804425312
5.11336288912
2.24849336334
1.08603525962
0.612428882524
0.415458620402
0.299094429323
0.151790743381
0.0416503939775
0.00798891090184
0.00268008396246
0.0011037475807
0.000708162990105
0.0005630370001
0.000496671781784
0.000462901042405
1258.95133438
356.292148802
108.552680602
36.0931994893
13.0801755874
5.17553087263
2.25741935224
1.1167820649
0.660193741083
0.473279042241
0.360484058185
0.219359873075
0.0857022961131
0.016443725358
0.00500918632122
0.00149499048376
0.00080808022236
0.000598886599648
0.000512425092885
0.000470875249416
1304.25597683
375.193477541
116.124596122
38.4255078361
13.531573609
5.18170828722
2.24675266642
1.14667068901
0.705831860598
0.516520044596
0.41709926285
0.294193114279
0.130425780635
0.0362095637328
0.00986905278692
0.00229731372269
0.000969510755905
0.000649905355367
0.00053367929367
0.000481438488063
1386.01573134
409.735814063
126.850336872
40.7844064107
13.8120931375
5.17565537733
2.26611251178
1.18914745789
0.738702336202
0.537101566155
0.447026872766
0.366886408571
0.216530894959
0.0854488841034
0.0151773466568
0.00401833658799
0.00124409904871
0.000723569605052
0.00056243807818
0.000495385107458
1587.09904277
462.816996925
138.453871723
43.0264005889
14.375083206
5.41522746949
2.38862282678
1.24839434626
0.765086602831
0.547815670911
0.453778872959
0.401962699797
0.304254795368
0.138509884991
0.0271981764005
0.00641321921663
0.00172655955431
0.000830816093945
0.000601090422966
0.000513568062959
1845.40376009
509.635491303
149.26457042
46.4112321131
15.7144528213
5.98095471856
2.62356425037
1.34028858943
0.800198677262
0.562512600822
0.458597661258
0.408870931047
0.349801210515
0.219689980646
0.0556871559069
0.00667161524164
0.00250128027765
0.000987983440264
0.000652593873205
0.000536925510065
1889.21953774
529.837990919
157.235532849
49.8962166873
17.2211077085
6.61868201637
2.88417776721
1.44197040398
0.841649757263
0.585913004623
0.471308633049
0.417178818472
0.368407025545
0.281457511705
0.106947920728
0.0108423727251
0.0031798138072
0.00121929043256
0.000721232676257
0.000566558890232
1914.03259477
538.171526421
161.503085051
52.0507590619
18.2597970129
7.0944007004
3.0873486096
1.52620926743
0.886476595175
0.617743586186
0.49200384806
0.431479108762
0.387665872998
0.321897487719
0.162822879912
0.023817736887
0.00320060870876
0.00154822999721
0.000813489465689
0.000603815112793
1928.73133704
544.514601225
164.23216702
53.366748374
18.9001268548
7.40320340527
3.22902523645
1.5999119739
0.94035306298
0.656011915369
0.519145476158
0.453993489328
0.415063239645
0.357799876631
0.213725303006
0.041189667515
0.00371037595435
0.00199377421656
0.000939682219961
0.000650453745795
1952.06974272
550.804450081
166.432870499
54.1258154361
19.25649441
7.59630248977
3.33973122375
1.68038587466
1.00148652667
0.696243702458
0.554203890724
0.489821850351
0.457055864765
0.40527082546
0.266272368237
0.0738010489754
0.00606503379147
0.00265328655893
0.00112005831764
0.000709313952471
1975.13078965
559.5826188
169.17482744
54.9725531742
19.6038028423
7.77794085025
3.45757486293
1.77282091389
1.0619695374
0.737908563104
0.59837071893
0.542243511277
0.521231083694
0.473408748543
0.32976709534
0.117927797496
0.0128958771766
0.00378417828065
0.00139491340201
0.000785298213499
2017.45401637
571.23261455
173.073240884
56.3258050661
20.117267074
8.01059912258
3.59631923645
1.86512788902
1.11409519985
0.781213912601
0.651831211354
0.611967459056
0.607943825392
0.559409772981
0.414241349201
0.178006879338
0.0307898641004
0.00560947198956
0.0018363804359
0.000886750799439
2066.53686117
585.057277724
177.574827831
57.886480651
20.6866939216
8.24163375541
3.71702034292
1.92844990147
1.15063984895
0.823624308066
0.712423160973
0.69476170923
0.698300181388
0.639824457746
0.504657593963
0.259658306302
0.0647152815049
0.00808927682675
0.00258998964484
0.00102927535593
2136.37252274
601.412346058
182.122220324
59.3680313067
21.1673565926
8.38591948421
3.7622729841
1.93718258775
1.16530636288
0.861068451471
0.774770737483
0.777142701886
0.767819069664
0.710479472872
0.588854444369
0.358880651751
0.100033513813
0.0123394833212
0.00394914023197
0.00124233137769
2187.56472758
613.400202701
185.463306214
60.3867816339
21.3343596616
8.30918960047
3.66455176096
1.87519105626
1.15469647485
0.888216553119
0.827607404126
0.835024946989
0.814483651937
0.766500053051
0.658335306975
0.453503806387
0.165754946328
0.0235093522633
0.0062779542409
0.00157702525525
2182.40127233
611.087262082
186.283647355
60.6195911022
20.9301158683
7.87264592476
3.39183225535
1.75194622944
1.12215206447
0.895615981722
0.843808671542
0.844496426729
0.83558816885
0.797176044643
0.705219444805
0.507016201784
0.237789774613
0.0509958012132
0.00967096254834
0.00213561778117
2025.66265619
591.80027396
185.483099769
59.8896136772
19.7247359318
7.07861792289
3.02448372802
1.61281341629
1.07439222651
0.864319760312
0.796929827202
0.798112908706
0.814835496107
0.79129177592
0.718718772253
0.539722180989
0.305368800744
0.0884390285809
0.0140177751473
0.00316372390901
1911.90768257
599.037633553
191.697191061
58.9895412305
18.4707634806
6.50720317569
2.80292137982
1.51898108447
1.0069942526
0.782037747735
0.69935577566
0.701849671945
0.734990791261
0.734228778206
0.688333487049
0.553803044149
0.366484404646
0.1279046473
0.0205492825333
0.00512252532523
2072.84059623
673.82654499
208.18901002
61.7358285194
19.0205989625
6.63860719979
2.81592118019
1.47983221869
0.935535107222
0.687806851376
0.590558777383
0.580298133449
0.612272226472
0.630293441654
0.616438949641
0.547423245047
0.420710019734
0.19432046792
0.0381335808935
0.00825937028845
2488.29193275
788.625477299
233.032911633
68.0998375755
21.6176366635
7.72407767489
3.19945348939
1.57572185956
0.919797586144
0.626896647862
0.505509063848
0.472260699258
0.486791419472
0.510916597379
0.523451821844
0.52044624073
0.444012127014
0.264523768904
0.0715984991828
0.0108883789613
3026.6276713
886.29755776
261.834707464
81.4142314953
27.3487311439
10.1210756906
4.11832171348
1.88082891061
0.996254741495
0.620437016071
0.462912023581
0.40268681095
0.391769897122
0.410116724062
0.436126259635
0.477824047766
0.444551716628
0.315868247693
0.109103254703
0.0124122844854
3360.84279125
945.325501178
285.854506206
94.8148960526
35.1635863778
14.0001823388
5.61310084219
2.40344754673
1.1664182302
0.667754344388
0.463325584186
0.376595397098
0.339754792036
0.342152323941
0.372420908176
0.434243083429
0.434257681687
0.336241222557
0.163907063392
0.0238286244278
3392.35609979
960.049124804
295.87784458
102.10301926
40.4236163056
17.4608165575
7.38463804954
3.1017564838
1.41569761601
0.758881024147
0.496258326024
0.381909713049
0.323724229843
0.309120290151
0.33479560234
0.401192398738
0.424738248194
0.351587172448
0.211912246324
0.0398651596521
3336.89132386
950.868511427
296.429629831
104.628196551
43.113100431
19.6939130978
8.74994772046
3.75202436523
1.69286133755
0.877404609247
0.55060722587
0.406575464
0.330203689961
0.300831607403
0.315009899595
0.382653180375
0.422258564119
0.368547967145
0.252297183675
0.0701079963895
3260.95974992
931.02328999
291.909610862
104.27225767
43.9403762046
20.8367953651
9.55712261757
4.19654742465
1.91529468867
0.988507740178
0.610084244143
0.43990647073
0.348756891242
0.308132456424
0.313056395084
0.376722932043
0.428525614004
0.390715784565
0.285173611022
0.108997313591
3152.59749222
907.558200567
285.935014638
102.639422526
43.6017121665
21.0103423244
9.79041134136
4.39375181517
2.05192149417
1.07589427154
0.666394980009
0.476334322721
0.373718080228
0.325171614196
0.323209487793
0.381758510869
0.442892074168
0.420492077239
0.321595806771
0.153419316373
3070.3659336
886.438508299
280.076270922
100.488896079
42.5197093062
20.3636114289
9.50325313812
4.36316946743
2.10549323155
1.13895941313
0.717527353272
0.513105589847
0.40246619929
0.349098121533
0.341788220295
0.395938798798
0.465020412245
0.459944224002
0.367888417843
0.204877168895
3002.25078258
869.616263345
273.993508563
97.7534748259
40.8395279206
19.0786482651
8.88161516548
4.19448610653
2.10746679619
1.1861529654
0.763182760251
0.548305490399
0.43364038864
0.378357452887
0.367340760099
0.417666008747
0.494883219109
0.51026901424
0.428014790981
0.265959272855
3002.74171592
867.20032212
271.990989388
96.0496701113
39.1978469287
17.6430679004
8.22298843001
4.00371737285
2.09546031287
1.22508740066
0.801822796338
0.580858615757
0.466641881163
0.411860522522
0.398520746304
0.446749997831
0.531586015128
0.569578037452
0.499310383734
0.336171985024
3012.5337529
872.906267969
273.08164079
95.2972657648
37.6900114972
16.426940381
7.70227600525
3.85213982482
2.08996953707
1.25617254222
0.831173961197
0.610673333818
0.50127802638
0.448736020968
0.433676799416
0.481084318696
0.571466660146
0.629330254964
0.574996279496
0.408836595199
3073.22094482
887.684106378
277.506640966
95.3735232198
36.5073836221
15.6363168041
7.3746180842
3.75845657401
2.09394193334
1.27589808379
0.851056064928
0.638629915897
0.537661536278
0.488041442467
0.471119433218
0.517747786673
0.609255559767
0.685930537992
0.654446710506
0.47524863639
3149.13495712
910.183147459
283.585629311
95.908106657
36.0362544687
15.3244588982
7.22062224053
3.71686778683
2.09472669794
1.27920087659
0.864490819591
0.666526235403
0.575849189622
0.52893524224
0.509216597534
0.553258886089
0.643934572393
0.740523335251
0.741762565174
0.553411655951
3296.44732702
938.478097026
289.838890556
97.1083083076
36.3055373223
15.3128053394
7.15366278075
3.68965756734
2.07439595853
1.26800009769
0.875921589331
0.695738166114
0.615007150744
0.569980693985
0.546625861795
0.584591681792
0.675137055867
0.795842005818
0.84266061144
0.657049426368
3454.6050664
973.076003674
298.271307315
99.5438703268
37.0053587602
15.3765963858
7.09542183219
3.63337885871
2.02522801214
1.25229070595
0.890398879404
0.725947974289
0.652227166208
0.608440221796
0.581021765053
0.609806909051
0.701047334396
0.851608620701
0.955663581589
0.792050794975
3591.67835563
998.242872512
304.680759612
101.502062706
37.4248517776
15.2914125328
6.96913318857
3.52520915089
1.9630087088
1.24550112104
0.911198377032
0.753400308644
0.681685259903
0.639106212108
0.608309391372
0.626974244354
0.716188506645
0.899578583944
1.06386962567
0.936951727864
3643.1611326
1000.64147205
304.591103421
101.495988237
37.1521940451
14.9639197939
6.73611457796
3.38230760283
1.92047414885
1.26275697231
0.938189663945
0.770878886629
0.694773683914
0.654324396029
0.62219249432
0.631862751026
0.713008843716
0.925136418503
1.14711771695
1.0653061359
3600.75654773
973.736605892
296.873780844
99.4748156483
36.2724948965
14.4349217314
6.44444279049
3.27694130933
1.94131860369
1.31794713486
0.967535910562
0.769392056415
0.682628174708
0.644237651778
0.614613909447
0.612850645192
0.687989089205
0.911737478449
1.19373646985
1.16279937943
3379.91950934
923.44860465
286.357839459
97.2866236812
35.3732912894
13.9070696703
6.24054027594
3.31461411882
2.07270977311
1.42028436703
0.992673087411
0.742099193557
0.640269132958
0.602173025592
0.577213747303
0.565820226834
0.635936186142
0.847478507404
1.18346203391
1.20774169234
2978.94956961
867.392550445
280.462674319
97.4705350141
35.2118615336
13.7564940089
6.39542474775
3.63622670979
2.36275154415
1.56416607714
0.996246715224
0.682131428514
0.568247440325
0.530901082377
0.511985129462
0.500226158705
0.549353614628
0.736589057784
1.09324918533
1.18579893837
2686.18622338
852.101099816
287.852230404
100.425005865
35.7450063519
14.476866177
7.16093625715
4.26667842778
2.75972724841
1.70597772714
0.987396643065
0.620967048644
0.48924454092
0.447112869823
0.434356087284
0.426854399393
0.4537722265
0.604749730812
0.929230321646
1.10498049843
2764.64783255
900.278947368
300.033035726
102.525946636
37.1566788023
15.8578507381
8.27526965858
5.05279877672
3.22036345063
1.90315015519
1.03065954928
0.594118065278
0.429909919491
0.374412928034
0.361137099332
0.357576537814
0.370428748672
0.473653670468
0.737048300211
0.986528924754
3196.44221059
983.168863791
308.866192567
104.255684078
39.783348209
17.8400368785
9.65091000285
6.0134600585
3.8428995995
2.23471162396
1.15906736174
0.617663833607
0.406087878524
0.329263745217
0.307517328624
0.303911969196
0.309507406162
0.366388389398
0.570727537348
0.852485207451
3825.27660316
1058.76983496
319.782651567
108.482522047
42.9948081565
20.301526353
11.3882543609
7.22802659566
4.66259312526
2.70292880695
1.37042419567
0.691780027769
0.418431033129
0.314990705625
0.280544049472
0.27223515147
0.271102995643
0.297684006306
0.448790318568
0.728102714389
3936.55164436
1092.47877164
331.294549501
113.490764689
45.9330599083
22.426967023
13.0206399106
8.47850518715
5.55752485244
3.25512980716
1.65064651351
0.810662670255
0.461581449211
0.326885918554
0.278109733397
0.262298556989
0.253611077596
0.260154002457
0.365064711557
0.631913152965
3882.93832056
1084.7738269
332.463856493
115.084798962
47.2185740826
23.6190826672
14.1262369491
9.42815749811
6.28617842753
3.74287927426
1.93423479815
0.953002513999
0.526038435344
0.357739570082
0.294466263524
0.270019259102
0.252968626278
0.245418595651
0.320750926981
0.568598692205
3739.34503643
1054.40548588
325.863675627
113.343826053
46.7254226853
23.7119703572
14.5109367129
9.90077966488
6.71342850312
4.06251837173
2.14514111993
1.07490022619
0.591824191296
0.397408842108
0.322624328363
0.290107236118
0.264068438986
0.245540297207
0.302506460928
0.53410632501
3614.53909945
1019.75000673
316.547189899
109.865803907
45.0273079929
22.8774301664
14.1849148499
9.852762289
6.77190395058
4.1504095848
2.23647172663
1.14887330434
0.645154065554
0.438658634143
0.356993587607
0.317592767351
0.282620393646
0.255691192646
0.301798178402
0.517999941939
3533.64075192
994.403494461
307.850593458
105.751974726
42.5834385463
21.353691518
13.2619753446
9.30198464908
6.43866039796
3.98082736604
2.18834809082
1.16201418759
0.67829608127
0.476436967112
0.392932294549
0.347842989801
0.305398716581
0.272597052739
0.312377576111
0.51538283289
3571.14459705
995.966974498
305.928356721
103.090239885
40.2366694806
19.5844729409
11.9890860967
8.37535524892
5.78474044059
3.59580284723
2.02273087082
1.12145124315
0.690796171949
0.507353954411
0.426420099613
0.378245544794
0.330789607817
0.294209370109
0.331553412074
0.524152001632
3653.15129394
1016.92926042
309.664299236
102.070093863
38.4224698719
17.9540274556
10.651503721
7.28860470235
4.97118859664
3.10096031317
1.79412557838
1.04796727799
0.686865895716
0.529125413077
0.455679852917
0.409116119558
0.356777177373
0.318463236636
0.355400979807
0.536878945067
3810.3942848
1051.5792857
317.665891491
102.771691413
37.4806283618
16.7549899227
9.48605532422
6.2475953005
4.16336798332
2.60267329469
1.55536852657
0.96215452507
0.671434898081
0.542197425414
0.481549368086
0.438320998988
0.381318293543
0.343662968263
0.379390788932
0.545919393
3971.08645931
1089.36964392
326.831448616
104.653943478
37.4524697588
16.0950173488
8.61378979861
5.37791674791
3.46790137462
2.16846690716
1.34055754883
0.87722516439
0.646902927821
0.546403007838
0.50201366273
0.461785978172
0.404254024442
0.368651931013
0.399024643393
0.544232898231
4144.92263513
1120.36265682
333.899112155
106.911702309
38.115159742
15.8937243928
8.04065337391
4.7274350549
2.93300944262
1.82956905728
1.16592215428
0.797676957057
0.613608145147
0.539176796354
0.510927248932
0.476183479676
0.425324049176
0.390500989187
0.410451012133
0.527082747548
4217.89344102
1133.77759582
337.683172273
109.940978297
39.4918420583
16.0889409045
7.76504575692
4.3196889592
2.57653716276
1.59635229585
1.03490337375
0.725065340242
0.573195853143
0.516966000461
0.500999926133
0.477973143744
0.43984945657
0.405009801528
0.410750456081
0.493033845093
3921.68803031
1095.29236751
337.156433672
113.944236199
41.1906559791
16.5909013637
7.83456891825
4.1859269162
2.40697521416
1.46808192006
0.94890828727
0.669655823598
0.530773101722
0.479836383355
0.470428523463
0.462315084606
0.438405735999
0.406559382288
0.39830631318
0.453610388779
3484.05945387
1056.25755297
346.310803487
119.854898805
43.5630338297
17.8963815112
8.4007066062
4.37615030348
2.44953459996
1.45773968237
0.927481656971
0.643475324531
0.497243129501
0.437811483166
0.425497421377
0.426034879576
0.414667753282
0.388878202293
0.374106546731
0.41041712059
3579.08460358
1119.59164448
373.809803127
128.208366111
48.4399155932
20.5879619173
9.7369080189
4.9976238706
2.73842197772
1.5943056701
0.989998006736
0.662334756673
0.486676621565
0.40618369692
0.379727582656
0.376470376409
0.372619125249
0.35524606028
0.342431306971
0.366567959204
4255.27413318
1264.93795748
405.788733069
143.578477413
57.2604311292
25.5443708973
12.3024293399
6.26892288511
3.37250710767
1.9184697226
1.15654639893
0.742697525206
0.515271743724
0.399435573508
0.349615366635
0.333167647259
0.327904279243
0.317864103499
0.310868462835
0.327559586285
4538.93658401
1330.87600048
435.481586374
164.00983154
70.8984467945
33.1719505091
16.2586335377
8.26939107241
4.4002493927
2.46544167153
1.4533485085
0.903712571177
0.594494482687
0.428335751091
0.348124603819
0.313497978416
0.299514926876
0.29104861825
0.287748310387
0.298876079532
4040.08070909
1250.81968187
433.23259815
172.762213227
79.0570648455
38.935301486
19.6823920191
10.2508218817
5.5331471089
3.11172851079
1.82643305913
1.11957513496
0.715263298159
0.490504378557
0.376281721116
0.321912771316
0.296136188455
0.283423453677
0.278529515348
0.283622083713
3603.99173699
1145.73725842
405.355443322
165.265357095
77.6799240929
39.7221384728
20.8927820068
11.2779359117
6.26871345029
3.59942060114
2.14683483416
1.32796369014
0.846265890956
0.569546138086
0.424287802426
0.352104137348
0.314800614512
0.294641114835
0.284392110366
0.281982571553
3447.12270205
1078.428104
375.665188986
149.383224481
69.8363892765
36.4637735813
19.8983692791
11.1631795665
6.41930379555
3.79590627274
2.32792393565
1.47524422865
0.954479925261
0.645584915095
0.479111472615
0.394006345816
0.347833243202
0.32013008124
0.303263848886
0.292252302259
3704.34349691
1095.47653968
362.312640907
134.135436592
59.5885696811
31.0126507783
17.4467281571
10.1698834734
6.06413250046
3.71693455634
2.3641186042
1.54669898624
1.0244096748
0.706167063063
0.530562032851
0.438418667387
0.386905804246
0.354149240987
0.331700907276
0.312447700356
4254.31489505
1202.05879214
375.919845507
127.441364259
51.8564804612
26.007234651
14.777787917
8.86213458622
5.47179001516
3.49373119746
2.31440646344
1.56167424831
1.05994042177
0.74896645617
0.572729546609
0.477470666412
0.423550241048
0.389458865275
0.363573010967
0.337935922524
4534.83209579
1290.29257006
397.121471648
128.661822404
48.4037918798
22.8465219553
12.7656791152
7.74998948395
4.92818128308
3.27191972979
2.24448441095
1.54853384348
1.07684564608
0.778227343859
0.601929673766
0.503430242478
0.447962458841
0.413709583609
0.385555369449
0.358743168335
4245.37312762
1284.9801906
406.491248405
132.344653919
48.0197011792
21.4888675092
11.6553169837
7.07366105007
4.58577756039
3.13385690968
2.19534212601
1.54412523193
1.09681223347
0.800077905111
0.614712129211
0.507821857439
0.446962421901
0.409320150302
0.38358358827
0.363498011624
3796.61370274
1229.15634716
404.106561441
134.693558517
48.9706900791
21.4889965223
11.432104682
6.89739036488
4.51524192749
3.13120916809
2.22395826121
1.58893438457
1.13374570159
0.814796075943
0.60570416292
0.482050216712
0.41173942569
0.372301243498
0.352086212033
0.343530187677
3762.0814153
1242.13533287
416.632103065
142.52816926
53.0255148619
23.3197176102
12.2546527389
7.32453363501
4.78810110885
3.32159186307
2.35055595189
1.66209859187
1.15789993041
0.80334873807
0.573121602441
0.434230453564
0.356664529892
0.315666866627
0.299234765387
0.301094614919
4115.9831241
1355.42922712
463.867153979
165.085609817
63.1168956969
27.5554330439
14.0879862095
8.18403897999
5.22419132144
3.53964685725
2.41463297049
1.64507011344
1.11097528809
0.751983391314
0.523200091132
0.387422019195
0.306451248686
0.263402028708
0.248526019136
0.256297259104
4467.41759022
1489.7550798
516.285278198
185.036250001
70.6344683567
30.3275454402
15.1248441257
8.60524827702
5.38833736543
3.55863481243
2.32863935014
1.54135069558
1.02709578052
0.692068766248
0.4817812319
0.354871640678
0.275767109066
0.232691725051
0.218761135087
0.229136517314
4250.70438271
1296.10988758
426.057822261
151.323134496
58.6865809167
26.0602291314
13.5630312439
8.03980897166
5.17542648585
3.41771076473
2.17050331821
1.4199332589
0.948954750848
0.646380882054
0.454698326576
0.33735470893
0.263780343274
0.223989512072
0.21232790348
0.224943393103
4178.20235542
1102.84553708
326.008949927
106.629473342
40.4729727951
19.070512201
10.8951512631
6.97502346176
4.67836146368
3.06174774369
1.95874144736
1.28878839322
0.869729791021
0.601540632402
0.432151064881
0.328635382754
0.264260336051
0.231097332293
0.224047465774
0.239779839825
4758.91710742
1095.66594417
280.915042936
80.4607175946
28.6082134392
13.9030638037
8.51130157345
5.67767764299
3.87711384583
2.55891899006
1.6799797735
1.12781499312
0.777229551701
0.552930966336
0.41247024394
0.326342112692
0.273940044007
0.248694842405
0.247571066034
0.26616762108
6264.67607564
1335.59537541
324.192192662
87.029173148
27.4065703014
11.9069890812
6.91135690217
4.52277430219
3.07825605267
2.06937962767
1.39847518772
0.966901483639
0.689652349803
0.512673123108
0.402094921246
0.332401821732
0.290775652325
0.272389941474
0.276826345822
0.296477968577
6990.68712924
1679.3716085
456.896691599
128.852412733
39.1222940067
14.3451298142
6.93222812184
4.08877322683
2.63206858491
1.74928120084
1.19692557218
0.850139924182
0.631227514659
0.492841322446
0.403868177769
0.346114626149
0.310487581575
0.29884317018
0.306766765628
0.325533961187
5996.40679592
1770.71330573
571.629062868
189.207935639
61.4676748104
21.6027494679
9.04502213207
4.55739967217
2.62333787573
1.64485114692
1.10546266524
0.794618027321
0.60879707431
0.492483562746
0.415023460489
0.361118955741
0.33148076286
0.325704931574
0.334339484017
0.349110495496
5077.05748436
1650.18150213
587.260340738
218.134916052
78.7038186584
29.2529096306
11.9776675058
5.56806788095
2.92450251885
1.71014451751
1.10640812041
0.789746894992
0.613354119681
0.503572066466
0.427165619613
0.377058794678
0.354240465427
0.351674236468
0.357487173477
0.35247274224
4886.96819354
1519.80999749
540.421617849
211.01164385
83.4507867135
33.4224013665
14.1799060595
6.53586893444
3.3101148232
1.85540707755
1.16014533071
0.814205134865
0.63030447862
0.518038196313
0.442544944558
0.397144450988
0.378902429242
0.375650846853
0.364411033326
0.307250570862
4743.64285435
1411.44707867
490.427900794
192.581153035
79.7503089064
33.8587455592
14.9839955084
7.04133250043
3.57252647933
1.98261947759
1.21751384294
0.846277301695
0.655534293838
0.540830268579
0.46545109469
0.422227865324
0.403844368563
0.390486790681
0.343449020543
0.285931436758
4492.3860884
1293.32161756
437.218295199
169.594908488
71.5886975332
31.5729305464
14.4575171189
6.96684405301
3.6036566292
2.02660124909
1.25718602417
0.885616132808
0.693306929163
0.574358634861
0.495732279865
0.450341394965
0.425930558765
0.38643609117
0.34179466724
0.305123052563
4353.10193126
1195.58716839
390.105398863
147.137360601
61.964290881
27.8398586224
13.0548292405
6.44971138726
3.43613639451
1.99874929498
1.28629120817
0.935903076052
0.744023066594
0.616640588295
0.530210138226
0.477557306046
0.436875104965
0.387765276446
0.366645761051
0.350771241766
4488.68699476
1167.2066905
363.099804473
130.193766415
53.2889501949
23.8667169841
11.3351978956
5.74706514818
3.18814004246
1.94988348695
1.32577456891
1.00401102318
0.807266249985
0.664586532841
0.565092853519
0.497175449476
0.435334705387
0.40097602861
0.402436842844
0.405926711768
4830.25640299
1213.72160364
360.072983052
121.570148768
47.4399292223
20.7407405671
9.86692587644
5.14392057563
3.00320838972
1.95081402319
1.40932115826
1.10191353325
0.886223422576
0.716947443455
0.591389184637
0.496904829074
0.43343570708
0.414547440038
0.431419679999
0.452879440848
4896.63929935
1249.05193704
365.563636214
120.439324438
45.3190119837
19.2251645357
9.11985052454
4.90881038474
3.0268798835
2.09073350068
1.58421077644
1.251955094
0.985946645262
0.765340865382
0.596315581371
0.483467035894