/*--------------------------------*- C++ -*----------------------------------*\
| =========                 |                                                 |
| \\      /  F ield         | OpenFOAM: The Open Source CFD Toolbox           |
|  \\    /   O peration     | Version:  2312                                  |
|   \\  /    A nd           | Website:  www.openfoam.com                      |
|    \\/     M anipulation  |                                                 |
\*---------------------------------------------------------------------------*/
FoamFile
{
    version     2.0;
    format      ascii;
    arch        "LSB;label=32;scalar=64";
    class       volScalarField;
    location    "0.555/water";
    object      p_rgh;
}
// * * * * * * * * * * * * * * * * * * * * * * * * * * * * * * * * * * * * * //

dimensions      [1 -1 -2 0 0 0 0];

internalField   nonuniform List<scalar> 
1504
(
101316.64303
101309.474166
101320.7573
101347.586793
101390.161455
101439.630279
101485.004783
101499.143903
101498.649035
101498.126525
101497.732168
101497.472592
101497.284854
101495.194532
101469.926122
101459.437914
101461.379381
101485.96596
101545.52464
101611.799938
101298.587018
101297.000315
101319.855197
101356.081358
101405.087851
101456.516592
101494.690868
101497.880762
101497.45599
101497.074062
101496.851464
101496.707634
101496.432227
101491.262022
101470.882587
101460.216083
101456.817833
101473.728658
101530.432907
101604.378699
101259.561243
101288.457291
101321.191353
101365.265149
101420.505327
101473.364761
101497.260556
101497.838471
101497.444179
101497.1111
101496.896351
101496.714267
101496.696784
101491.360351
101477.97911
101464.240988
101450.312852
101461.869489
101516.170652
101595.947039
101250.568855
101292.446963
101333.110056
101384.012417
101442.051272
101490.752731
101501.340839
101500.747363
101499.888413
101498.848664
101497.095186
101496.098431
101497.763469
101494.960261
101489.231293
101468.052488
101444.018975
101452.527651
101503.574329
101586.793053
101253.617723
101303.374213
101354.175076
101411.68215
101467.638997
101503.261082
101505.892128
101504.412531
101499.643221
101490.224774
101488.436506
101495.671455
101503.261134
101505.254977
101497.331071
101467.021925
101440.18029
101445.608187
101492.039719
101576.973284
101251.434645
101324.920279
101386.42838
101448.954456
101495.121967
101512.033276
101509.901233
101500.94428
101484.073635
101483.002442
101488.73474
101505.106563
101516.453848
101515.299391
101497.563013
101461.855354
101437.706362
101439.96195
101481.034496
101565.754828
101254.798907
101360.787507
101430.494331
101490.20936
101516.028828
101516.085069
101507.862477
101486.784101
101485.264747
101485.03487
101501.349339
101523.699664
101527.502771
101517.118026
101490.951785
101454.367412
101434.868463
101434.023253
101469.315747
101550.828217
101253.80868
101415.375025
101483.028961
101523.15888
101525.05608
101518.698572
101501.314166
101487.71733
101486.964006
101499.948211
101525.800308
101536.926044
101529.971613
101511.430233
101479.424903
101447.920155
101430.117738
101422.272532
101450.525502
101527.392518
101258.475364
101481.278576
101525.414706
101532.721433
101529.068803
101520.252291
101502.735755
101495.31436
101503.89697
101526.729503
101542.519705
101538.832693
101526.059352
101501.600991
101469.853389
101441.487095
101421.308148
101414.151848
101419.31069
101492.913766
101291.106264
101535.04101
101537.688637
101536.030585
101533.244636
101525.975753
101514.730356
101517.724142
101531.731134
101543.414923
101543.052428
101535.288667
101519.660482
101494.381828
101463.100724
101434.614097
101411.551684
101404.964139
101403.84203
101453.499693
101396.130643
101546.828328
101542.696922
101540.288115
101536.228065
101531.467204
101532.400106
101538.74797
101542.613763
101540.910058
101536.014166
101527.858665
101512.761872
101489.637134
101460.609177
101431.531931
101403.432003
101392.639453
101392.110155
101403.28616
101427.552811
101482.974113
101483.482781
101492.325781
101500.349535
101507.645953
101518.973315
101525.156504
101525.606272
101522.853294
101519.228479
101514.612795
101505.787206
101490.145538
101466.239649
101436.711499
101401.560194
101378.626943
101377.650374
101377.973877
101253.439272
101220.016032
101260.126505
101304.359129
101359.180726
101410.823358
101449.228503
101470.480765
101480.350769
101484.947753
101486.950208
101488.344613
101488.766352
101486.034758
101473.570367
101447.942333
101409.921543
101368.005046
101362.74016
101362.919967
101055.890192
101017.715951
101052.337558
101086.732513
101140.442486
101214.643116
101306.789087
101383.90027
101424.728448
101442.302826
101450.620393
101456.495974
101461.743784
101466.555114
101469.962679
101461.317821
101428.231663
101371.680847
101347.043925
101348.670068
100962.306633
100967.151594
100985.079124
101000.061575
101020.268135
101056.294201
101131.248557
101247.49485
101352.586044
101408.833119
101429.809289
101436.836715
101443.387701
101449.31357
101454.924147
101460.136276
101451.484209
101387.923715
101334.117544
101335.316056
100952.426975
100960.971558
100972.092996
100982.943706
100993.871895
101013.142146
101054.71318
101136.817984
101255.550596
101359.222222
101416.606335
101429.913635
101435.632083
101441.31488
101446.48976
101451.483057
101456.041754
101411.350228
101326.581786
101325.964383
100952.51726
100959.673494
100970.860363
100982.624159
100993.261416
101011.24663
101046.460198
101108.322014
101202.471466
101307.885379
101396.100203
101430.388703
101435.231122
101439.603787
101444.179883
101448.175624
101452.30414
101436.115582
101331.719902
101318.563266
100954.265702
100959.795002
100972.793419
100986.341945
100997.852153
101016.322513
101051.008811
101110.361447
101195.313395
101291.536972
101382.732204
101435.548249
101438.647594
101442.352718
101445.328267
101449.034545
101451.680004
101454.622586
101345.129471
101314.323717
100954.506031
100961.791777
100979.524316
100997.630941
101011.767199
101031.936359
101066.630164
101123.263514
101203.907449
101297.584703
101387.770444
101442.276978
101444.728848
101446.698622
101449.626218
101451.340925
101454.410938
101455.220583
101361.548416
101310.826792
100956.022178
100968.844372
100995.128152
101018.932405
101036.691121
101060.232299
101098.039681
101155.05214
101230.760088
101319.331141
101405.100257
101449.897041
101451.105673
101453.011255
101453.957434
101456.213415
101456.821492
101458.898474
101370.684084
101309.362967
100956.455842
100985.270755
101020.577028
101048.642966
101069.536542
101098.074101
101142.029608
101203.253824
101279.136658
101364.133177
101437.998992
101457.556082
101458.202808
101458.606802
101459.94383
101459.934174
101461.629955
101460.442897
101371.152957
101308.066928
100960.521214
101012.708068
101052.499472
101082.502862
101107.476712
101143.540053
101195.83562
101263.245153
101341.809512
101421.127305
101463.606374
101464.355333
101464.265244
101464.83052
101464.334227
101465.215058
101464.424632
101460.810198
101363.609595
101307.403568
100974.483817
101048.639278
101084.330975
101116.924075
101150.563832
101198.04627
101260.612698
101334.584592
101412.196144
101466.081654
101471.122113
101470.429076
101470.393028
101469.414092
101469.570169
101468.254645
101468.609017
101443.082919
101361.097553
101310.372157
101003.78352
101078.44379
101115.638121
101154.976973
101202.004021
101263.741725
101337.434449
101414.235416
101470.23689
101478.536059
101477.168038
101476.603282
101475.132756
101474.755434
101472.811301
101472.434327
101470.070811
101426.566944
101364.376905
101318.887132
101040.632778
101094.185762
101145.266921
101198.341006
101262.093911
101338.502635
101418.835339
101476.962949
101486.084982
101484.182837
101483.190226
101481.260262
101480.504808
101478.023291
101477.214585
101474.575861
101462.918818
101419.813239
101375.423501
101329.901669
101068.919642
101109.221367
101175.921085
101248.716144
101329.936364
101415.561865
101481.416366
101494.087678
101491.580856
101490.127955
101487.679184
101486.523353
101483.435613
101482.197478
101478.89772
101477.498745
101450.264811
101425.410268
101392.281505
101342.004854
101083.943272
101129.950989
101213.329169
101305.723052
101399.774712
101477.776602
101502.392957
101499.253846
101497.236895
101494.335488
101492.748908
101489.068939
101487.48926
101483.613097
101481.857035
101470.703062
101449.915277
101440.325011
101413.430303
101357.156123
101089.46862
101163.089616
101265.829554
101372.44226
101464.461909
101507.763224
101506.597394
101503.925342
101500.63813
101498.6436
101494.344873
101492.415103
101487.834725
101485.669985
101480.975235
101462.578514
101455.423317
101455.469571
101434.965702
101380.038604
101091.176673
101215.718382
101338.06645
101447.391535
101507.851131
101512.808521
101509.185035
101505.638432
101503.375748
101498.544524
101496.433988
101491.188744
101488.822577
101483.688627
101475.984357
101457.314564
101458.277033
101461.084112
101451.592097
101412.453001
101095.868702
101286.541655
101420.836916
101506.169758
101516.4236
101511.753467
101508.134314
101505.787212
101500.61808
101498.515754
101492.557225
101490.062413
101484.27299
101481.149702
101459.813147
101453.203905
101455.736763
101457.722273
101453.870799
101441.619034
101132.026358
101356.473578
101471.342034
101517.52412
101512.325846
101508.094504
101505.444222
101499.835924
101497.707782
101491.022936
101488.521065
101481.980123
101478.671446
101463.584127
101450.68013
101446.801079
101449.405459
101450.466184
101446.685437
101442.768363
101192.374801
101364.742379
101453.251809
101496.103073
101500.218938
101496.922611
101491.372375
101489.220883
101482.302088
101479.828251
101473.023737
101466.910048
101455.756586
101442.626435
101439.105544
101437.737286
101439.466183
101440.577677
101437.435574
101434.173365
101153.980335
101250.264367
101317.723597
101363.522504
101391.833129
101405.589772
101413.490718
101417.673493
101423.319528
101426.800435
101430.162322
101430.25658
101429.915377
101427.916517
101426.506752
101425.817454
101427.002374
101428.974358
101427.348011
101424.82065
101024.422441
101014.143033
101043.23979
101086.148355
101128.296737
101158.364576
101190.572614
101238.519454
101294.495684
101342.705786
101377.87611
101400.427769
101411.038726
101414.624735
101414.870223
101414.324615
101415.129472
101417.692913
101417.870927
101416.829918
100893.121875
100857.259476
100870.852677
100891.293912
100912.014629
100931.542124
100965.090654
101032.021972
101133.903387
101239.070599
101322.161058
101376.616643
101399.632613
101404.899769
101406.912217
101407.546409
101407.896578
101409.995394
101411.405325
101410.895597
100805.553208
100807.104799
100822.221118
100828.956921
100833.986326
100842.485742
100863.960844
100912.792806
101002.206757
101122.924393
101242.870404
101339.721849
101392.80669
101401.663377
101403.852365
101405.699789
101406.523922
101407.269024
101408.665773
101408.839916
100792.266292
100803.669815
100816.174257
100819.506942
100820.701694
100825.456783
100841.393939
100878.917524
100947.153413
101047.79886
101167.560405
101286.092313
101377.590019
101404.718395
101406.268448
101407.502326
101408.647612
101409.395335
101409.883565
101409.938321
100794.179326
100805.378251
100817.693525
100820.09186
100820.253955
100824.159288
100839.206449
101638.305512
101638.228362
101638.15986
101638.099045
101638.04543
101637.997957
101637.954234
101637.912864
101637.873778
101637.837553
101637.804442
101637.774781
101637.748735
101637.726634
101637.708944
101637.697355
101637.69314
101639.338227
101641.780064
101641.595036
101641.411765
101641.247515
101641.099504
101640.967222
101640.850209
101640.746445
101640.65325
101640.568974
101640.493398
101640.426415
101640.367904
101640.317594
101640.27533
101640.24091
101640.214481
101640.197144
101640.190269
101640.954754
101645.071495
101644.787414
101644.48152
101644.206632
101643.959932
101643.740585
101643.547143
101643.376346
101643.224786
101643.0904
101642.972291
101642.869641
101642.781628
101642.707419
101642.646285
101642.597623
101642.56093
101642.536817
101642.526401
101641.895111
101648.364419
101647.953157
101647.475975
101647.053276
101646.679143
101646.350211
101646.062419
101645.810249
101645.588891
101645.395189
101645.227098
101645.082728
101644.960363
101644.858354
101644.77531
101644.70997
101644.661342
101644.62929
101644.61441
101641.953575
101651.526874
101650.983917
101650.286214
101649.678048
101649.147809
101648.687294
101648.288045
101647.941156
101647.639568
101647.378297
101647.153624
101646.962259
101646.8013
101646.668121
101646.560474
101646.476462
101646.414332
101646.373276
101646.353014
101640.924495
101654.322804
101653.686552
101652.731546
101651.911008
101651.205506
101650.599764
101650.07924
101649.63061
101649.243777
101648.911271
101648.627311
101648.386916
101648.185834
101648.020276
101647.887077
101647.783525
101647.707296
101647.656738
101647.63037
101638.167587
101656.375972
101655.782399
101654.562463
101653.526551
101652.646684
101651.898934
101651.26154
101650.716141
101650.249088
101649.850103
101649.51115
101649.225492
101648.987442
101648.792072
101648.635256
101648.513625
101648.424178
101648.364603
101648.331904
101632.155191
101657.137005
101656.92273
101655.478954
101654.262586
101653.239853
101652.378297
101651.649025
101651.028846
101650.500706
101650.051672
101649.671692
101649.352454
101649.087064
101648.869591
101648.695159
101648.559791
101648.460224
101648.393518
101648.354957
101620.153414
101655.847224
101656.74499
101655.182109
101653.865514
101652.767237
101651.848888
101651.076214
101650.4225
101649.868216
101649.398593
101649.002217
101648.669795
101648.393674
101648.167384
101647.985612
101647.844225
101647.739861
101647.669413
101647.626348
101598.19143
101651.276438
101654.963595
101653.454366
101652.153266
101651.076728
101650.183538
101649.436638
101648.807725
101648.276347
101647.827172
101647.448526
101647.131006
101646.867002
101646.650107
101646.475161
101646.338223
101646.236513
101646.167095
101646.121707
101561.882242
101640.916381
101651.292786
101650.174332
101649.041778
101648.11194
101647.347167
101646.711859
101646.179186
101645.730122
101645.350674
101645.030399
101644.761051
101644.536047
101644.34994
101644.198384
101644.078327
101643.987935
101643.925201
101643.880372
101512.520567
101620.975852
101645.321236
101645.375691
101644.593348
101643.95085
101643.428662
101642.998329
101642.638514
101642.334708
101642.076635
101641.856983
101641.670132
101641.511774
101641.378365
101641.267206
101641.176638
101641.106517
101641.056321
101641.015258
101465.146237
101588.454689
101635.944727
101639.278194
101639.063818
101638.841442
101638.667479
101638.527155
101638.408997
101638.306257
101638.214874
101638.132564
101638.057851
101637.989849
101637.927898
101637.871653
101637.821512
101637.779281
101637.7467
101637.712527
101425.794368
101546.73861
101620.911777
101632.159265
101632.894131
101633.197059
101633.449253
101633.658929
101633.829256
101633.964501
101634.069098
101634.147468
101634.203485
101634.24064
101634.26182
101634.269602
101634.266697
101634.257249
101634.245584
101634.220778
101392.181458
101502.637638
101598.384604
101624.107289
101626.732616
101627.603914
101628.298859
101628.868464
101629.333326
101629.710248
101630.013096
101630.253558
101630.44125
101630.584247
101630.689177
101630.761591
101630.806615
101630.830441
101630.840185
101630.826058
101363.036585
101460.134667
101568.967467
101614.624922
101621.314834
101622.748878
101623.810706
101624.679521
101625.390178
101625.969495
101626.43888
101626.815907
101627.114854
101627.347589
101627.523799
101627.651517
101627.737719
101627.790287
101627.818605
101627.814832
101334.146922
101420.932593
101535.459245
101602.566477
101617.009907
101619.198854
101620.481461
101621.532335
101622.395551
101623.102606
101623.678585
101624.144065
101624.515847
101624.807912
101625.031747
101625.196812
101625.31118
101625.383467
101625.424584
101625.429193
101320.596198
101388.589461
101501.931822
101587.221923
101613.476726
101617.223494
101618.57978
101619.676197
101620.581789
101621.327346
101621.937594
101622.433055
101622.830657
101623.144661
101623.386848
101623.566955
101623.693095
101623.773854
101623.820483
101623.830275
101315.391709
101366.331078
101472.73757
101569.602485
101609.824805
101616.733815
101618.121116
101619.142455
101619.990947
101620.692872
101621.269757
101621.739775
101622.118141
101622.417872
101622.649861
101622.823117
101622.94504
101623.023249
101623.06832
101623.079692
101312.638105
101351.126975
101448.842499
101551.460925
101605.241935
101617.312894
101618.925069
101619.788787
101620.507844
101621.104516
101621.595999
101621.997073
101622.320252
101622.576457
101622.774914
101622.923296
101623.027669
101623.094188
101623.131833
101623.141309
101310.181811
101339.839457
101428.296843
101533.202228
101599.156181
101618.31096
101620.706208
101621.3768
101621.921247
101622.372885
101622.744366
101623.046854
101623.289856
101623.481842
101623.630103
101623.740698
101623.818104
101623.86641
101623.892434
101623.896938
101309.181837
101330.405243
101409.05422
101513.854385
101590.620462
101618.831361
101623.096277
101623.620531
101623.969037
101624.255012
101624.48728
101624.673916
101624.821653
101624.936658
101625.024389
101625.089487
101625.134834
101625.16203
101625.174753
101625.172059
101307.848012
101322.654082
101391.0364
101492.946208
101578.59196
101617.725323
101625.631465
101626.231166
101626.377671
101626.489575
101626.574112
101626.636635
101626.681313
101626.712049
101626.732525
101626.746181
101626.755059
101626.759095
101626.758759
101626.747991
101307.062395
101316.277446
101373.935893
101469.922176
101562.07077
101613.612614
101627.560721
101628.89416
101628.8641
101628.802747
101628.73915
101628.676168
101628.615544
101628.558796
101628.507496
101628.463589
101628.428777
101628.404352
101628.392107
101628.373836
101305.673875
101310.465176
101356.480436
101444.142331
101540.186164
101604.670572
101627.71759
101631.200442
101631.138339
101630.912473
101630.707554
101630.525164
101630.364732
101630.225288
101630.105785
101630.006114
101629.927226
101629.870783
101629.840442
101629.810701
101305.721798
101306.699595
101340.081004
101417.04815
101512.369497
101588.276568
101624.053656
101632.36119
101632.863422
101632.514517
101632.183874
101631.897125
101631.651179
101631.442472
101631.267781
101631.123606
101631.006558
101630.917883
101630.861851
101630.820224
101308.44537
101305.437311
101327.930655
101390.532334
101476.592241
101560.080484
101612.684235
101630.772092
101633.515541
101633.270763
101632.853067
101632.49282
101632.188654
101631.935138
101631.722833
101631.543378
101631.395313
101631.281902
101631.207549
101631.160935
101314.815435
101306.873897
101320.006829
101360.389552
101427.284258
101512.585553
101586.848444
101623.1793
101632.038799
101632.810504
101632.447496
101632.072631
101631.75796
101631.488584
101631.254547
101631.056493
101630.895937
101630.774205
101630.695528
101630.649147
101329.627787
101312.255809
101309.422107
101318.342559
101358.930712
101441.798198
101539.172441
101603.348388
101626.084971
101630.477875
101630.767062
101630.481288
101630.187455
101629.919627
101629.684632
101629.489121
101629.334778
101629.22152
101629.151039
101629.103889
101359.57772
101323.086702
101288.454135
101262.104635
101284.700973
101363.320213
101471.905228
101564.400268
101610.725722
101624.635535
101627.423316
101627.638422
101627.413579
101627.169545
101626.950562
101626.772941
101626.642431
101626.553955
101626.503284
101626.452244
101400.73935
101339.123734
101265.431199
101221.16837
101226.236293
101294.754373
101403.32604
101511.544421
101582.003624
101612.134855
101621.259832
101623.333061
101623.496479
101623.324644
101623.150248
101623.01379
101622.928406
101622.883894
101622.868162
101622.820705
101432.2467
101360.327644
101256.125486
101206.438643
101205.839736
101249.922511
101347.480313
101457.415859
101542.601138
101590.20368
101610.050312
101616.684706
101618.333074
101618.555323
101618.570944
101618.556904
101618.564515
101618.602051
101618.649634
101618.635163
101430.357451
101383.878597
101261.060855
101195.485255
101194.265846
101216.735966
101295.753076
101399.146582
101491.840529
101554.670292
101589.013772
101604.751208
101610.566219
101613.030421
101613.905339
101614.22016
101614.371157
101614.529788
101614.698635
101614.754727
101422.399941
101411.032989
101294.494832
101194.493391
101182.897133
101185.60314
101237.475244
101327.149267
101420.593559
101494.396795
101544.402104
101572.533029
101586.644692
101599.138678
101606.74576
101609.665688
101609.785853
101609.294272
101610.658765
101611.363584
101414.79861
101412.81572
101348.711833
101227.487615
101173.340371
101165.305594
101183.876501
101242.802337
101320.815851
101395.295627
101452.770933
101489.684123
101525.14613
101526.346011
101538.643686
101577.862119
101588.27146
101578.109034
101590.776187
101602.866323
101410.328152
101408.426537
101399.168695
101304.640308
101197.474623
101158.02589
101156.202469
101174.643349
101219.593467
101274.38194
101322.950174
101376.185242
101443.841775
101450.892145
101377.628316
101182.927288
101142.425034
101281.930905
101487.432464
101575.542885
101408.127662
101407.5866
101405.792042
101380.210221
101280.191947
101182.284681
101151.70956
101149.793419
101159.220774
101184.087306
101231.484278
101304.903041
101350.425522
101243.473698
100969.114034
100872.196055
100874.379706
100872.03892
101206.485705
101552.795819
101409.862629
101408.875915
101408.412723
101406.42824
101374.722625
101264.583847
101168.176898
101147.708652
101146.143727
101162.434311
101220.697357
101252.872139
101103.546632
100884.317754
100874.394356
100876.966405
100873.169653
100876.569188
101103.677205
101555.776201
)
;

boundaryField
{
    emptyPatch
    {
        type            empty;
    }
    minY
    {
        type            zeroGradient;
    }
    maxY
    {
        type            prghTotalPressure;
        U               U.gas;
        p0              nonuniform List<scalar> 0();
        value           nonuniform List<scalar> 0();
    }
    water_to_cooler
    {
        type            fixedFluxPressure;
        gradient        uniform 0;
        value           nonuniform List<scalar> 
38
(
101637.69314
101640.190269
101642.526401
101644.61441
101646.353014
101647.63037
101648.331904
101648.354957
101647.626348
101646.121707
101643.880372
101641.015258
101637.712527
101634.220778
101630.826058
101627.814832
101625.429193
101623.830275
101623.079692
101623.141309
101623.896938
101625.172059
101626.747991
101628.373836
101629.810701
101630.820224
101631.160935
101630.649147
101629.103889
101626.452244
101622.820705
101618.635163
101614.754727
101611.363584
101602.866323
101575.542885
101552.795819
101555.776201
)
;
    }
    water_to_heater
    {
        type            fixedFluxPressure;
        gradient        uniform 0;
        value           nonuniform List<scalar> 
60
(
101316.64303
101316.64303
101298.587018
101259.561243
101250.568855
101250.568855
101253.617723
101253.617723
101251.434645
101251.434645
101254.798907
101253.80868
101258.475364
101258.475364
101291.106264
101291.106264
101396.130643
101396.130643
101427.552811
101253.439272
101055.890192
101055.890192
100962.306633
100962.306633
100952.426975
100952.426975
100952.51726
100954.265702
100954.506031
100954.506031
100956.022178
100956.022178
100956.455842
100956.455842
100960.521214
100974.483817
101003.78352
101003.78352
101040.632778
101040.632778
101068.919642
101068.919642
101083.943272
101089.46862
101091.176673
101091.176673
101095.868702
101095.868702
101132.026358
101132.026358
101192.374801
101153.980335
101024.422441
101024.422441
100893.121875
100893.121875
100805.553208
100805.553208
100792.266292
100794.179326
)
;
    }
    procBoundary3to1
    {
        type            processor;
        value           nonuniform List<scalar> 
41
(
100875.029987
100937.56118
101025.323265
101132.631984
101249.456585
101357.544739
101410.577051
101412.412344
101413.231518
101413.58121
101414.098146
101414.133863
101414.189833
100795.286464
100812.187805
100825.224196
100825.590031
100824.383121
100827.797665
100875.029987
100842.70688
101413.700989
101413.431987
101412.197223
101411.844145
101409.442225
101360.281333
101220.683912
101148.871796
101151.452857
101186.937556
101194.268595
101032.70552
100880.376912
100877.36995
100879.677429
100875.748466
100879.319853
100875.710161
101090.235448
101564.315608
)
;
    }
    procBoundary3to2
    {
        type            processor;
        value           nonuniform List<scalar> 
41
(
101324.198458
101318.136683
101320.807578
101338.074747
101374.986561
101422.139382
101469.20619
101498.653511
101499.464388
101498.816435
101498.411701
101498.157759
101497.701811
101497.600307
101473.759049
101460.575918
101463.992954
101495.697559
101558.838748
101617.524052
101635.165192
101635.170546
101635.176336
101635.18129
101635.185682
101635.189174
101635.190351
101635.187776
101635.181752
101635.173192
101635.162973
101635.151749
101635.140187
101635.128917
101635.118959
101635.112428
101635.110311
101637.178471
101638.500359
101638.39589
101638.39589
)
;
    }
}


// ************************************************************************* //
