/*--------------------------------*- C++ -*----------------------------------*\
| =========                 |                                                 |
| \\      /  F ield         | OpenFOAM: The Open Source CFD Toolbox           |
|  \\    /   O peration     | Version:  2312                                  |
|   \\  /    A nd           | Website:  www.openfoam.com                      |
|    \\/     M anipulation  |                                                 |
\*---------------------------------------------------------------------------*/
FoamFile
{
    version     2.0;
    format      ascii;
    arch        "LSB;label=32;scalar=64";
    class       volScalarField;
    location    "0.46/water";
    object      alpha.gas_0;
}
// * * * * * * * * * * * * * * * * * * * * * * * * * * * * * * * * * * * * * //

dimensions      [0 0 0 0 0 0 0];

internalField   nonuniform List<scalar> 
1496
(
0.609664137071
0.614754209706
0.610141030361
0.6201433071
0.691464866998
0.73546478737
0.728255758189
0.690773370497
0.617341192951
0.526660456479
0.460789599843
0.441061228829
0.443872021439
0.449316290061
0.434672672677
0.385949111182
0.311650143039
0.245137040763
0.246764491222
0.334377053759
0.614754209706
0.609327190374
0.614754209706
0.628111154621
0.714090763975
0.743316514135
0.741737781972
0.742201378546
0.725639124428
0.690002662416
0.647121731698
0.610147898555
0.579090386665
0.542062886565
0.488766672181
0.415988644377
0.327852488534
0.247378952846
0.239873894543
0.311210925929
0.612544690421
0.614676078629
0.610319390843
0.653970132328
0.736115566452
0.741737781972
0.743196364138
0.741737781972
0.742487944058
0.741450714275
0.720258869526
0.678054885918
0.626756630796
0.568919473639
0.501906698503
0.422492175431
0.330434459668
0.246164187331
0.234403807094
0.300221827536
0.619127540211
0.611495530465
0.614676078629
0.675971901736
0.738627603059
0.742300378572
0.741737781972
0.742499211193
0.741737781972
0.741959831289
0.723664725729
0.682299839186
0.629254806132
0.569168789059
0.500125926629
0.417967903846
0.322555662157
0.237487077535
0.231379908074
0.299688306586
0.618423024442
0.614676078629
0.612672310225
0.681322505147
0.724805554857
0.729608184941
0.734749646088
0.738009349774
0.738924681043
0.734962747269
0.712999005025
0.671877351177
0.618319155589
0.554955390106
0.47970897732
0.389164800702
0.28935522811
0.227995426834
0.229915481035
0.315593679993
0.617392710639
0.612110778096
0.614648381626
0.671865836008
0.680800017859
0.678260512689
0.689391781094
0.699583185135
0.702304012455
0.693601731247
0.667919242468
0.626244923362
0.570357492769
0.500760616507
0.416494947747
0.320476200354
0.24442809348
0.22779879403
0.246962852513
0.380051303072
0.613875560331
0.614648381626
0.61357368963
0.643230505092
0.621723849929
0.590764638492
0.589879304496
0.59987254254
0.604215829157
0.594995995387
0.568345511203
0.525198124879
0.466619535907
0.394365785561
0.316015019036
0.258703311099
0.243599715155
0.243824748568
0.348880494188
0.494760020883
0.614648381626
0.610027808883
0.614648381626
0.614290497998
0.595404434661
0.528884397709
0.484045566841
0.471016241397
0.466022344772
0.453982310073
0.427739732277
0.387914952688
0.340807585399
0.299559479978
0.275457418456
0.261635729746
0.275245620445
0.371300181778
0.526239496854
0.570960040523
0.610010689026
0.614648381626
0.610521228314
0.617116391686
0.605893880001
0.536258397381
0.471549311031
0.428163247692
0.39800681409
0.373137456381
0.348230594232
0.323966791368
0.306680571794
0.298405157703
0.299408386271
0.338072494665
0.432181348347
0.545816173493
0.575623819563
0.575797203999
0.614676078629
0.609902429558
0.629586383354
0.671095570718
0.659526140652
0.597772590546
0.521789692116
0.465339926677
0.423658742587
0.390837729077
0.363638038056
0.343597547466
0.339468444277
0.359787408495
0.41826543739
0.499332308195
0.562838929691
0.575623819563
0.575766861715
0.565467494675
0.643637969249
0.690995276423
0.740436214127
0.765886993453
0.750706255246
0.71309343068
0.660231932943
0.606140801372
0.556688923417
0.513962806811
0.480757867393
0.461231632272
0.465487548608
0.499282830633
0.544301358982
0.564979565466
0.566102240957
0.567050037694
0.550396174022
0.506489372482
0.792016532701
0.832339759982
0.834158281822
0.82423783841
0.810329457968
0.797473832892
0.781323540908
0.760056353603
0.733348780149
0.70358815087
0.673477529873
0.644785584436
0.620005488065
0.601965979496
0.582782345038
0.565099297132
0.549518887707
0.519372928733
0.467900330651
0.393126121116
0.891842817731
0.885719667802
0.856863195727
0.83340363994
0.822910564465
0.820753192883
0.819707938608
0.818185840944
0.811443507727
0.798209137493
0.776666224604
0.744929970484
0.700218788776
0.646418688097
0.593002369996
0.550688722827
0.500872992537
0.436843681067
0.357727823687
0.266319794594
0.908739494142
0.886333818982
0.854258809846
0.828408881134
0.820272455683
0.820689711854
0.822570043934
0.8226198083
0.82134100244
0.812582506201
0.793713167313
0.762527741361
0.71699402778
0.658154396202
0.59359764872
0.524781983527
0.445183940359
0.356888495784
0.260786092085
0.175167111186
0.908738617023
0.879251457663
0.840347361337
0.810108449226
0.8058059743
0.810895352013
0.816600558652
0.818894044556
0.817670820038
0.809267873089
0.790442851111
0.758972837491
0.71319361839
0.652940972696
0.57954347588
0.490138072202
0.392379362834
0.288771209159
0.189542855833
0.155369712616
0.907269747228
0.860114250403
0.814371216124
0.781610334552
0.777152178954
0.784384894084
0.794269083287
0.799575566617
0.79884184967
0.79025472042
0.7699897191
0.736068755154
0.687139639032
0.621692234877
0.537788889256
0.439024804315
0.33207952292
0.222426108309
0.157202078895
0.155400825628
0.892113492786
0.825681888915
0.785176797691
0.758889721656
0.749619736961
0.74822631833
0.75476166961
0.75908512169
0.757035911962
0.745105005384
0.719819868699
0.680172375453
0.625716726072
0.554533192455
0.466181019744
0.364921050701
0.25565945497
0.166920149315
0.156977253674
0.186788448894
0.844047557695
0.774863525796
0.759305327404
0.752637004299
0.740196145462
0.723038280389
0.71079956728
0.703271830579
0.692693721918
0.672585626766
0.63988090548
0.59373642859
0.533281008525
0.457970133779
0.368687645483
0.269094927079
0.17770248949
0.160212464419
0.165281654314
0.372080190627
0.742881930091
0.719788668118
0.740223201436
0.752424984986
0.745172320699
0.72125245217
0.677695187445
0.643751406854
0.61547612464
0.583014981644
0.540725607606
0.486676092035
0.420367394018
0.342339449187
0.256100248397
0.178267527044
0.15856933327
0.160109668079
0.276043817835
0.647427697661
0.616678519054
0.666457588661
0.732628396566
0.752179030924
0.751984456484
0.726248508366
0.665942478206
0.594832042231
0.537681244375
0.486882349362
0.432423038017
0.369637623424
0.298441977659
0.225172730045
0.169304197925
0.154501973654
0.157619516673
0.230231901653
0.517202505907
0.7493985397
0.526616565338
0.62464405497
0.728032087152
0.751984456484
0.752197131525
0.733406735372
0.669033982788
0.565705416269
0.471747021886
0.395752615715
0.325921724763
0.255386599821
0.192739978362
0.159052760878
0.154501973654
0.154409041336
0.203083037255
0.439240762639
0.637409844277
0.746888376527
0.501396861973
0.59701544065
0.717783189177
0.752000408396
0.751642030082
0.73777376235
0.673421071753
0.553724014838
0.425604889763
0.319633108187
0.23434605334
0.173914206158
0.154875166583
0.154501973654
0.154211971356
0.170507106014
0.365262842322
0.594600294296
0.637393294211
0.71370022199
0.501558052724
0.568717081207
0.693770286176
0.750558553061
0.75141230235
0.738672602688
0.675493251082
0.550625421907
0.400046119573
0.266631990266
0.178369349549
0.154538393715
0.154501973654
0.154197703103
0.154501973654
0.242004941539
0.538777486852
0.608936997084
0.616705250059
0.64591611069
0.517878797097
0.537963097843
0.65382332547
0.740676421573
0.751181342309
0.7374013927
0.674461058995
0.549434994174
0.390775832353
0.243937962097
0.163417211169
0.154501973654
0.154252392407
0.154501973654
0.158860437586
0.339216813997
0.58913825973
0.608769339899
0.580506494644
0.563088248792
0.517302936041
0.50876119683
0.606800032831
0.715114651663
0.744333370786
0.729323381679
0.667173494892
0.544668693014
0.385842141648
0.238180004438
0.162535821829
0.154398801219
0.154501973654
0.154086641224
0.172940798831
0.37048665291
0.584580495345
0.603650194838
0.548727096734
0.488573438648
0.516572064852
0.500674926319
0.562279424161
0.670912905404
0.720384412676
0.705899029098
0.645133436343
0.527861794445
0.374461809322
0.231993923519
0.161974288608
0.154501973654
0.154214151426
0.154501973654
0.177798535355
0.362560894087
0.552349866326
0.574898782079
0.520537979689
0.445094675404
0.515991575205
0.499202531173
0.522144261067
0.61429186408
0.67600254753
0.66360212768
0.604478330047
0.491503566413
0.347184558576
0.21825638397
0.160320762554
0.154412033718
0.154501973654
0.154193845507
0.174566781742
0.323854462005
0.475750586685
0.507664139026
0.477036057134
0.419635338772
0.511252255662
0.500674926319
0.499883934981
0.563137588747
0.624432889223
0.621309003023
0.567122147066
0.452637051662
0.315304195237
0.205205806184
0.159110602596
0.154501973654
0.15423895982
0.154501973654
0.16073304016
0.24858047665
0.364550119216
0.416278889115
0.415389973414
0.39402990551
0.503965989504
0.497691157123
0.500674926319
0.526562971185
0.588825465739
0.611586408876
0.564595132227
0.450657830784
0.313902457386
0.207712161192
0.16094870066
0.154388883112
0.154501973654
0.154052119402
0.154501973654
0.180329207551
0.275493977189
0.354729297971
0.373715508516
0.380889503232
0.501298410691
0.500674926319
0.497964698229
0.510359381588
0.58165015729
0.622393009826
0.587998486405
0.490818023309
0.36078189706
0.248649362757
0.180872059323
0.154501973654
0.1540153385
0.154501973654
0.153820930876
0.167235884182
0.267357368597
0.353749399775
0.373894819303
0.3889279027
0.500674926319
0.497649272213
0.500674926319
0.512143305896
0.595075965407
0.641505097438
0.631727582985
0.58319501407
0.493913262722
0.375995505712
0.257938420771
0.176303595594
0.154501973654
0.153769951521
0.15618772142
0.207999478461
0.332102925941
0.409295095902
0.419504086082
0.442193924316
0.499826351313
0.500674926319
0.497520370822
0.533239908191
0.627486898862
0.641458490179
0.641948309604
0.634379596135
0.590253330984
0.496862145789
0.369714115586
0.259781849392
0.219075660708
0.228774099395
0.291091847938
0.419996928988
0.531241481524
0.561977467636
0.547796102272
0.538990879635
0.500674926319
0.497625651989
0.500674926319
0.570562670614
0.641458490179
0.641948309604
0.641458490179
0.631220673921
0.58777318917
0.518124995141
0.450921283093
0.417991666776
0.436068467022
0.498128748916
0.587898389401
0.666716123898
0.697753508974
0.700761969686
0.671936446785
0.611760859505
0.499167669827
0.500674926319
0.517395415405
0.609022219033
0.636144716249
0.633386774899
0.621403427903
0.594025672209
0.557381465433
0.531545221175
0.54764820353
0.609958347524
0.670056940297
0.707335557092
0.733614323435
0.746065963713
0.746208000371
0.744692267535
0.715568665386
0.637121353089
0.501528032286
0.536050806497
0.586098939018
0.610845963513
0.60754941429
0.590674033485
0.565697459786
0.544161747065
0.544458221526
0.579926550241
0.663432481686
0.725670894307
0.744708975907
0.749466827419
0.750147544596
0.750211541413
0.7501601018
0.744714500567
0.714537919325
0.635830181426
0.599204565544
0.648975866961
0.638909671832
0.610831839576
0.578033485742
0.550298497225
0.536795945724
0.536664178744
0.562547856173
0.645445895942
0.723573586262
0.749709697993
0.750165273246
0.750126984703
0.750192163788
0.750163967226
0.746036573404
0.727378759223
0.687251808008
0.607357592117
0.705870034557
0.723962069166
0.66949166567
0.615346405488
0.57801386795
0.549705980926
0.538895624812
0.548117452097
0.593760454271
0.671364269501
0.733560976961
0.750127782723
0.750127715632
0.750164523077
0.750164523077
0.750191646922
0.737475727949
0.695059522734
0.630696274639
0.541203090053
0.451695116642
0.310255767567
0.068946444935
0.00302883484079
0.000762009859491
0.000757041566924
0.000756927515904
0.000752547622114
0.000758697331989
0.00171423308714
0.122351076678
0.508122459146
0.424383682456
0.271609753025
0.178440576482
0.0199026755905
0.477393509731
0.49252456462
0.451187040891
0.427313428591
0.429697929554
0.31306464797
0.0787207660159
0.00378258023556
0.000759355525288
0.000756927515904
0.000752547622114
0.000755038068191
0.000750746836581
0.0014321774721
0.079653343408
0.415789339477
0.393671835002
0.263903954973
0.160946275413
0.0392908719172
0.460759808596
0.480516864391
0.435621969272
0.402837512638
0.405304508579
0.318707616813
0.0965887824509
0.00567134974668
0.000757719676456
0.000752446874651
0.000754717069198
0.000747097168319
0.000754993433179
0.000876412461947
0.025144659017
0.233228180789
0.340656337383
0.258250580879
0.15546074706
0.0460553948984
0.444203353116
0.461876428397
0.411898291298
0.373695929679
0.376334390461
0.320706288224
0.123466267845
0.0101585125564
0.000764958489821
0.000754717069198
0.000748924894303
0.000751410039326
0.000745850645529
0.000754993433179
0.00350116819201
0.0826984935325
0.260082351221
0.236533602516
0.147122056558
0.040990379363
0.438391444513
0.440793455682
0.378870038178
0.338838509337
0.341891660942
0.315516103552
0.165069749469
0.0221913141198
0.00104296071301
0.000748434500531
0.000749910795141
0.000745850645529
0.000751410039326
0.000743112043971
0.000951399535693
0.0292661865679
0.192897601508
0.209568361835
0.131637659107
0.0285407954904
0.444490790507
0.429240838042
0.35485386625
0.30226017019
0.303821425777
0.299477300801
0.218225300269
0.0518449143133
0.00283634443097
0.000749910795141
0.000745850645529
0.00074814960687
0.000739424187237
0.000751410039326
0.000769033434265
0.0253415444156
0.182482849551
0.190741255968
0.10119337916
0.0133132407736
0.46646015116
0.431987365308
0.352637303681
0.292069736301
0.268179297376
0.270993739468
0.240164982974
0.103122973108
0.0111658798224
0.000826508774445
0.000748032190288
0.000741931983043
0.000748071574631
0.000738025496008
0.00153892734086
0.0664760598481
0.196580620249
0.163454230356
0.0560498524251
0.00555083876458
0.503587441512
0.444633384124
0.362031248389
0.297878418063
0.249962609181
0.234832903173
0.231907935172
0.165615629138
0.0397947624334
0.00304017922997
0.000744906673033
0.000747349649894
0.000738959105447
0.000750575446791
0.0407012637057
0.205212683857
0.20578643288
0.105311749222
0.0314780513656
0.0054200484324
0.539019447194
0.466647500928
0.386145030894
0.314114296034
0.247326795288
0.207577893827
0.209177866535
0.197275525714
0.104685202436
0.0204883988263
0.00288125000863
0.00105733352225
0.00133247045188
0.0384345048399
0.264107358675
0.267712890167
0.147072640788
0.067427471539
0.037003922798
0.0114032169806
0.542747538805
0.471564097777
0.390886316086
0.314795962173
0.240601943155
0.197557320639
0.197301245496
0.208888295423
0.213598315028
0.127268285621
0.0369177029505
0.0143887983272
0.0640802844764
0.379910736109
0.356703795033
0.184534181619
0.098242628255
0.0753387466471
0.0540163262614
0.0207339403822
0.519085039653
0.44440905936
0.360201541009
0.280177808565
0.216082399528
0.197301245496
0.205619611723
0.279515757099
0.444353378708
0.460503915249
0.297288589292
0.222878223881
0.388756488642
0.458008657482
0.295302224813
0.132814760641
0.0932746184271
0.092784099384
0.0782951427918
0.0328644600193
0.43597108494
0.350089934176
0.261874432187
0.212093881564
0.211291377479
0.230574477599
0.39277028289
0.606951325023
0.754914482636
0.781755416256
0.710547083144
0.642512997999
0.578454861302
0.457639539709
0.270296029334
0.131249391605
0.0833715983828
0.105565079886
0.107235351405
0.0491326802649
0.30283742485
0.215868918018
0.185357166499
0.186701033026
0.269435430269
0.531285066092
0.763596566216
0.837263654936
0.846093874967
0.844258737503
0.842020288129
0.793868346642
0.606817036255
0.433661039618
0.254032218636
0.12474602334
0.0677391792606
0.111659139092
0.146313859826
0.0718574619476
0.183339088755
0.166655386851
0.173251951587
0.293747831941
0.616953458864
0.822607170735
0.844336875266
0.846932716937
0.844258737503
0.847043241608
0.844258737503
0.798038967877
0.575519786781
0.387437223286
0.22331578629
0.110524533431
0.0418706011318
0.0560642370218
0.182133884713
0.163688960334
0.159786923596
0.165143904807
0.290357322022
0.647418849672
0.839587313281
0.844360577936
0.847326554772
0.844336875266
0.847392052591
0.844258737503
0.845136876899
0.763846677007
0.529393028893
0.339173124121
0.19043452777
0.0932722989484
0.0355649751976
0.0125242963659
0.182558316156
0.251752926973
0.158393036405
0.263737064963
0.626338660377
0.841009678229
0.844360577936
0.847168634295
0.844360577936
0.847383935932
0.844336875266
0.846319364029
0.844258737503
0.696513947979
0.476753121901
0.296553713065
0.164595095445
0.0808064545791
0.0313777791454
0.00755131651517
0.150276732506
0.307347734826
0.223875831169
0.566210253467
0.832605032475
0.844336875266
0.846703917181
0.844360577936
0.846874567758
0.844336875266
0.846593693764
0.844336875266
0.837529614084
0.639549686259
0.429168950598
0.26222835917
0.146906609726
0.0742703009287
0.0298954074669
0.00747799277375
0.158781776867
0.307820862499
0.474228026775
0.804527206999
0.844336875266
0.84613394116
0.844336875266
0.846610318711
0.844336875266
0.846423390482
0.844336875266
0.845267824008
0.805752504946
0.599040998513
0.392352320392
0.236897257844
0.134719243816
0.0707876531758
0.0289485822989
0.00817145757284
0.199904969303
0.307735654644
0.74323515931
0.844201437544
0.845600135994
0.844336875266
0.846077866309
0.844336875266
0.845949793767
0.844336875266
0.845491228706
0.844258737503
0.756165006808
0.558234887568
0.362132758569
0.217349652594
0.124810045399
0.0673622456682
0.0261072704656
0.0117633870398
0.259751226335
0.307727455362
0.832725563563
0.845099709615
0.844201437544
0.845562141348
0.844336875266
0.845698226631
0.844336875266
0.845328644051
0.844258737503
0.830158528597
0.701245764813
0.513996734543
0.333227739991
0.199280793972
0.114485736792
0.0616749159794
0.0245954332227
0.0191449291283
0.264737185128
0.307735654644
0.839089617229
0.844201437544
0.844995494397
0.844201437544
0.845071361083
0.844336875266
0.844747195439
0.844258737503
0.836618382053
0.77769177234
0.639691141536
0.466370202053
0.301374939439
0.178983620628
0.102071520436
0.0514478219508
0.024477555349
0.0475178399077
0.26505976302
0.264478868376
0.829940835267
0.84444684484
0.844201437544
0.844510224812
0.844201437544
0.844533058107
0.841210729772
0.827084217679
0.787742880407
0.697899025859
0.567046661774
0.41018572225
0.261820453524
0.152618893662
0.0845906538224
0.0446952630868
0.0559055578799
0.162068314196
0.235035725921
0.214443693254
0.793158983995
0.828871064536
0.83537660637
0.835689874889
0.832580949298
0.823728475263
0.802794845072
0.76387293915
0.699465164025
0.605228848105
0.483495266317
0.34171361514
0.21186872271
0.119097569022
0.0545905791466
0.0476227207008
0.15255442414
0.177258743337
0.176770194222
0.171614741742
0.717614559881
0.770609733439
0.786908370756
0.787128168329
0.777241391207
0.755567727055
0.71812090529
0.663840522816
0.59235468464
0.50147387937
0.387752611561
0.261871935494
0.153385173196
0.0800005306676
0.0276940243477
0.0942462685679
0.21734543316
0.16962918171
0.118129923285
0.141268383897
0.606117996038
0.661288168356
0.684093427656
0.683820744959
0.668690420711
0.640928589296
0.598498214407
0.541755163024
0.471140863888
0.385016003231
0.282291219974
0.17712725974
0.0933630330141
0.0390335041314
0.0269837638125
0.156720490138
0.21703287456
0.128631429485
0.117233236633
0.125101566354
0.477708304258
0.513240300088
0.53432638328
0.533281188352
0.516866034222
0.489654251363
0.450144972668
0.398194128413
0.334757701236
0.259738563153
0.176052379332
0.0977492737274
0.0419686276047
0.0109605094273
0.0321541805766
0.163622903499
0.189820708938
0.116797873303
0.116925442228
0.118899169511
0.377423491816
0.362399522762
0.365942710616
0.361121668056
0.344935338101
0.320363369931
0.286251308365
0.242982643672
0.192990072824
0.137727010863
0.0817299459988
0.0362722227316
0.0104330953199
0.00178964321158
0.040016092699
0.1407704392
0.138011163637
0.115840585892
0.115803142462
0.116925442228
0.349557930913
0.285118034172
0.251705640618
0.23489757752
0.219780802283
0.200562604703
0.172054631223
0.133652809051
0.0915325440807
0.0533514834348
0.0246748053558
0.00848382261704
0.00236696642055
0.000908965379203
0.0214671063106
0.100011089786
0.114682362288
0.114980792157
0.115843872684
0.115809106545
0.349423571812
0.282400258039
0.23767849729
0.214309906976
0.200254626876
0.184554655266
0.158672071267
0.120040665125
0.0762478922001
0.0397763854852
0.0175367560786
0.00705002261393
0.00265890524193
0.000893858305961
0.00207122203916
0.0324482622078
0.142742306119
0.148226906932
0.115647239309
0.116922799932
0.356939691519
0.301997183693
0.258010442464
0.233247252987
0.218990775336
0.20355596596
0.176728233324
0.134321195938
0.0854395689013
0.0453453557231
0.0211643571449
0.00935927532298
0.00409833221718
0.00222476098356
0.00381313743205
0.0501473328393
0.296046167908
0.453921882263
0.427130495505
0.287099164513
0.395555478689
0.374258070073
0.342298266637
0.314862193343
0.293760087918
0.268706922032
0.230305967437
0.174794568461
0.112968455546
0.0628491373274
0.0317367424678
0.0190306231762
0.0200880984518
0.0729620954753
0.315988740295
0.548396571963
0.677959297243
0.724054033392
0.723671332186
0.707572224613
0.473764744306
0.466276761625
0.438301731839
0.404889927881
0.366640224179
0.32176996693
0.273235180577
0.219942105324
0.165165688375
0.120521666954
0.115740888495
0.175346454261
0.38101593571
0.609221530328
0.716672433278
0.737426797066
0.739951831633
0.737426797066
0.740507325864
0.737426797066
0.526662645332
0.488029980829
0.451180604154
0.417711966232
0.381330507415
0.34975817
0.333894903888
0.342514551816
0.379350282348
0.426984266736
0.495658442314
0.582662712534
0.665469752108
0.717503910466
0.737426797066
0.738652473109
0.737426797066
0.740198808891
0.737426797066
0.740445610683
0.536406257201
0.475280282754
0.439612085995
0.41786612682
0.417009381684
0.459789439003
0.547557356071
0.651072083964
0.726403120279
0.759140886593
0.739721471734
0.681218432118
0.656176329422
0.679040686731
0.715714825079
0.737426797066
0.739154253284
0.737426797066
0.740384943537
0.737426797066
0.53623996311
0.452079456066
0.439633323655
0.460508323088
0.577854595448
0.709121670941
0.794580086111
0.844399603048
0.862753373643
0.848755829171
0.791653250488
0.695892622066
0.628179339968
0.614635471884
0.643067373169
0.7019194571
0.737426797066
0.739356645798
0.737426797066
0.739220821793
0.528590921872
0.452057940068
0.468043518017
0.616079842954
0.788642575294
0.854267578915
0.874899970616
0.880185704278
0.880208805825
0.855254062375
0.800309919054
0.720529793476
0.635796981934
0.58364380489
0.568835424448
0.604383764973
0.700014087408
0.737426797066
0.738817606189
0.737426797066
0.507543889246
0.473554633756
0.575797711661
0.779919591709
0.869600957229
0.87987690037
0.880213188517
0.88020856664
0.880214741522
0.851342212519
0.798975895602
0.734767983699
0.661129420294
0.594779353288
0.537038915661
0.514501685952
0.583069616746
0.731912348647
0.737426797066
0.726063787686
0.459365079725
0.494259581369
0.684127810693
0.847842095984
0.879848468983
0.880208590618
0.880208585068
0.880213131367
0.880213089544
0.846004148839
0.795333448789
0.734477933654
0.669477249055
0.610175231504
0.538664123669
0.482061414421
0.49310895196
0.712829285307
0.734506337476
0.685231094015
)
;

boundaryField
{
    emptyPatch
    {
        type            empty;
    }
    minY
    {
        type            fixedValue;
        value           nonuniform List<scalar> 0();
    }
    maxY
    {
        type            inletOutlet;
        phi             phi.gas;
        inletValue      uniform 1;
        value           nonuniform List<scalar> 
40
(
0.705870034557
0.723962069166
0.66949166567
0.615346405488
0.57801386795
0.549705980926
0.538895624812
0.548117452097
0.593760454271
0.671364269501
0.733560976961
0.750127782723
0.750127715632
0.750164523077
0.750164523077
0.750191646922
0.737475727949
0.695059522734
0.630696274639
0.541203090053
0.459365079725
0.494259581369
0.684127810693
0.847842095984
0.879848468983
0.880208590618
0.880208585068
0.880213131367
0.880213089544
0.846004148839
0.795333448789
0.734477933654
0.669477249055
0.610175231504
0.538664123669
0.482061414421
0.49310895196
0.712829285307
0.734506337476
0.685231094015
)
;
    }
    maxX
    {
        type            zeroGradient;
    }
    water_to_heater
    {
        type            zeroGradient;
    }
    procBoundary0to1
    {
        type            processor;
        value           nonuniform List<scalar> 
41
(
0.614912159614
0.609484117853
0.614912159614
0.626079288746
0.684759502334
0.711564953209
0.686019427665
0.605113060542
0.476180171261
0.353967827545
0.292353774923
0.286219583432
0.29546849473
0.317236346484
0.334106839552
0.324552392193
0.283027742132
0.240655747835
0.254359948793
0.362313889588
0.473641855018
0.312852348507
0.0661350300706
0.00286276220152
0.000762794584955
0.000762009859491
0.000755358877899
0.000758697331989
0.000757498394855
0.00130768733141
0.132607556081
0.519353440708
0.44931934127
0.302735401445
0.198799485456
0.0148900885192
0.489222282543
0.500405305956
0.463812504048
0.449178882224
0.449178882224
)
;
    }
}


// ************************************************************************* //
