/*--------------------------------*- C++ -*----------------------------------*\
| =========                 |                                                 |
| \\      /  F ield         | OpenFOAM: The Open Source CFD Toolbox           |
|  \\    /   O peration     | Version:  2312                                  |
|   \\  /    A nd           | Website:  www.openfoam.com                      |
|    \\/     M anipulation  |                                                 |
\*---------------------------------------------------------------------------*/
FoamFile
{
    version     2.0;
    format      ascii;
    arch        "LSB;label=32;scalar=64";
    class       volVectorField;
    location    "0.56/water";
    object      U.gas;
}
// * * * * * * * * * * * * * * * * * * * * * * * * * * * * * * * * * * * * * //

dimensions      [0 1 -1 0 0 0 0];

internalField   nonuniform List<vector> 
1497
(
(0.011373425723 1.33905081417 0)
(-0.00869113267538 1.23623631848 0)
(-0.0188901988102 1.13621853556 0)
(-0.0209843358928 1.05254921353 0)
(-0.0169159014051 0.989896412425 0)
(-0.00801877430938 0.94287406985 0)
(0.0047011714821 0.899692801601 0)
(0.0196066193269 0.85406602292 0)
(0.0347045690406 0.808569450943 0)
(0.0495390065489 0.764372471715 0)
(0.0647872932539 0.721813043467 0)
(0.080976561949 0.679791701057 0)
(0.0980942824493 0.636481784406 0)
(0.0779609974286 1.7849481593 0)
(0.147403275981 1.61209396207 0)
(0.130941644294 1.55525512149 0)
(0.111619951282 1.52227979875 0)
(0.0861588955702 1.49112265249 0)
(0.0557072244837 1.46231921233 0)
(0.022760400675 1.42365168784 0)
(-0.00771496044487 1.34299450672 0)
(-0.0295571955526 1.21921514473 0)
(-0.0400086244502 1.09925022035 0)
(-0.0414491412676 1.00172508362 0)
(-0.0368464441068 0.930113879248 0)
(-0.0273638501321 0.880199981309 0)
(-0.0128661343479 0.841020591681 0)
(0.00517180418308 0.800379468379 0)
(0.0235865297554 0.759387151345 0)
(0.0410096566804 0.71861968956 0)
(0.0579477120084 0.67888631316 0)
(0.0750440444669 0.639341281013 0)
(0.0924758233763 0.598198332871 0)
(0.0653030908397 1.34228264924 0)
(0.120503696618 1.47575393619 0)
(0.103847845536 1.49697588495 0)
(0.0906673925416 1.49728787496 0)
(0.0764202109156 1.48886214706 0)
(0.0596565050705 1.47391523089 0)
(0.0407603630786 1.43873115834 0)
(0.0211715940663 1.35652672758 0)
(0.0039599656044 1.21742207476 0)
(-0.00567417293705 1.07241638949 0)
(-0.00793375092379 0.962350190019 0)
(-0.00621413737907 0.882219156092 0)
(-0.00126828682721 0.825317862601 0)
(0.00787236836415 0.786311156472 0)
(0.0215939746195 0.750394847327 0)
(0.0371030489089 0.713645835887 0)
(0.0521057726317 0.67629176798 0)
(0.0665535645402 0.639437013886 0)
(0.0809645466174 0.602450989955 0)
(0.0955819259901 0.563566916489 0)
(0.0227607315757 1.02013105237 0)
(0.0486230853642 1.40138359619 0)
(0.0537845840759 1.46491754202 0)
(0.0569660951246 1.47956289155 0)
(0.0580618504006 1.48552557747 0)
(0.0568853710843 1.48270184923 0)
(0.0537348994472 1.45352562126 0)
(0.0490429147021 1.37581328401 0)
(0.0412395890932 1.24063677109 0)
(0.0355378277965 1.06494675163 0)
(0.0354636822495 0.945434059115 0)
(0.0372719013188 0.859111509055 0)
(0.0406331221464 0.795805436208 0)
(0.0461122242951 0.752429305393 0)
(0.0545184596578 0.717606767304 0)
(0.0646284197505 0.682725003338 0)
(0.0746326564938 0.647084007502 0)
(0.0842653078151 0.611767722583 0)
(0.0938542193401 0.576245661421 0)
(0.103698267579 0.538746173039 0)
(0.0137463186418 0.923392182375 0)
(0.0283847966148 1.33452624669 0)
(0.0320785936417 1.4172256907 0)
(0.0385961064128 1.44394462851 0)
(0.0453827282591 1.46405019658 0)
(0.0508009707036 1.47277309693 0)
(0.0550311702533 1.45158021402 0)
(0.0584753076892 1.38051021865 0)
(0.0613143188643 1.25814105428 0)
(0.0644423646268 1.06641835666 0)
(0.0679991919197 0.944890786284 0)
(0.0716513609072 0.856250996524 0)
(0.0760863709476 0.789067264217 0)
(0.0814905646885 0.741282938581 0)
(0.087510464396 0.704957168592 0)
(0.0932808005379 0.669830005949 0)
(0.0983934974235 0.634276057231 0)
(0.103034907237 0.599130380331 0)
(0.107460182223 0.563822229122 0)
(0.112058042757 0.526575974974 0)
(0.00630908179337 0.915032705896 0)
(0.0106552974669 1.31329489036 0)
(0.0119200755197 1.37727808094 0)
(0.0209861346925 1.40008974179 0)
(0.0322398403491 1.42912524852 0)
(0.0420519069123 1.44803023396 0)
(0.0507576219052 1.43280675729 0)
(0.0595190249299 1.36649176817 0)
(0.0724622235599 1.23534225386 0)
(0.0849020349591 1.06336849918 0)
(0.0914923529286 0.950349515196 0)
(0.0967291866645 0.863892136222 0)
(0.102436203976 0.79594597549 0)
(0.108682667927 0.74629464031 0)
(0.113811543519 0.708596939827 0)
(0.116640156827 0.672461447548 0)
(0.117843979259 0.63626957487 0)
(0.118125323632 0.600573587132 0)
(0.117816302283 0.564693599373 0)
(0.117429468883 0.526874360914 0)
(-0.00505503847238 1.02730729044 0)
(-0.0193994596839 1.37958595821 0)
(-0.0291991428955 1.37646876133 0)
(-0.0176870239263 1.33525575936 0)
(0.0042243332552 1.37897437212 0)
(0.0216183129978 1.41391877746 0)
(0.0372416297562 1.39915955108 0)
(0.0584284830222 1.31615251436 0)
(0.083219987249 1.18141973752 0)
(0.100139450252 1.05617586968 0)
(0.108865052257 0.958028397275 0)
(0.115773750786 0.877199696937 0)
(0.123112501366 0.811481412035 0)
(0.130502004092 0.762958063063 0)
(0.134790955721 0.724689005341 0)
(0.134788734783 0.68741516331 0)
(0.132347798996 0.650403590708 0)
(0.128500991894 0.613890354268 0)
(0.123667263018 0.577080771276 0)
(0.118439139035 0.538278470997 0)
(-0.0218102697009 1.31634311545 0)
(-0.0619315043346 1.57746171076 0)
(-0.0768699795031 1.39177952986 0)
(-0.061597366245 1.25246389498 0)
(-0.0325857888622 1.29136486862 0)
(0.00334143194816 1.3342074064 0)
(0.0410659835731 1.32031132503 0)
(0.0741135378622 1.2413746558 0)
(0.0963966608149 1.14085560969 0)
(0.110671147553 1.05205658638 0)
(0.121678432893 0.968983930379 0)
(0.131447800883 0.895941290313 0)
(0.141596616647 0.835358074412 0)
(0.149695590903 0.790076686191 0)
(0.151491491907 0.750994260428 0)
(0.147931921161 0.712497343306 0)
(0.141902041654 0.674588939865 0)
(0.134018870246 0.637180117737 0)
(0.124810926801 0.599251945102 0)
(0.114835904833 0.559187198921 0)
(-0.000691313790036 1.63282314121 0)
(0.00603928213589 1.69801819815 0)
(0.00955754171329 1.41365011079 0)
(0.00324322201129 1.22673963356 0)
(0.00742080934457 1.21812807797 0)
(0.0265584073697 1.2422429954 0)
(0.0527501319354 1.23220634722 0)
(0.0783939627063 1.18559719916 0)
(0.100222829123 1.1219691637 0)
(0.11802998095 1.05264857634 0)
(0.133150571522 0.984022703536 0)
(0.147406309951 0.92103237487 0)
(0.159833093407 0.868242507716 0)
(0.165391644968 0.825241245839 0)
(0.162639826937 0.784690458322 0)
(0.155605066839 0.745219994689 0)
(0.146405650722 0.706591085312 0)
(0.134931628678 0.668156465506 0)
(0.1213361768 0.628449238183 0)
(0.106386269599 0.586538761945 0)
(0.0338208324806 1.77544060177 0)
(0.0732118324994 1.6773775894 0)
(0.0713102460764 1.46569175234 0)
(0.0552058138272 1.27916222492 0)
(0.0451178016751 1.21283963564 0)
(0.0501710894215 1.20131496199 0)
(0.0671453439835 1.18817544847 0)
(0.0887317760844 1.15697476677 0)
(0.110325511918 1.11241595752 0)
(0.130583604233 1.06067551516 0)
(0.149632052765 1.00625551682 0)
(0.166088070987 0.954222204244 0)
(0.17500072161 0.907452764626 0)
(0.173930696182 0.864105206639 0)
(0.167099389365 0.822496410235 0)
(0.158000905387 0.782436471256 0)
(0.146025556509 0.742634111255 0)
(0.130055916619 0.701548139864 0)
(0.111499909016 0.659226941892 0)
(0.0930380636112 0.615845791731 0)
(0.0456597978769 1.77870341601 0)
(0.101066726137 1.65189232804 0)
(0.104804641688 1.51099503497 0)
(0.091025981152 1.35169848967 0)
(0.0784314681519 1.24760559121 0)
(0.0755819780416 1.19841739768 0)
(0.0853003789962 1.17373817179 0)
(0.103785164054 1.15037673212 0)
(0.125994931466 1.11936634015 0)
(0.148233601846 1.08078641023 0)
(0.16687974849 1.03739465281 0)
(0.177313154313 0.992153925375 0)
(0.178090205245 0.947058113731 0)
(0.172852806633 0.903050465289 0)
(0.164924712652 0.860920418337 0)
(0.153423663749 0.81948901931 0)
(0.13641178406 0.776449113546 0)
(0.116141644095 0.732298573055 0)
(0.0966183375235 0.688409134745 0)
(0.0786175260468 0.64467841806 0)
(0.0424374994273 1.74769615086 0)
(0.10172089325 1.61033258727 0)
(0.116025023865 1.52720677581 0)
(0.110340798174 1.40874676907 0)
(0.104236281356 1.29567973179 0)
(0.102362711635 1.21920451971 0)
(0.109401755416 1.18168492646 0)
(0.124817728517 1.16198243192 0)
(0.143553340888 1.13944624905 0)
(0.159513728557 1.10869731139 0)
(0.169391154929 1.0711743409 0)
(0.172742999758 1.02882454786 0)
(0.170747613948 0.984210888162 0)
(0.164790437396 0.939840729401 0)
(0.154205897528 0.896358527833 0)
(0.137240610324 0.851744731295 0)
(0.117121376842 0.806066244004 0)
(0.0984528644418 0.760819101196 0)
(0.0815376970656 0.716220772113 0)
(0.0652186332646 0.671929634784 0)
(0.0353716834623 1.73178134872 0)
(0.0917488306787 1.56955912522 0)
(0.113505882181 1.52264114467 0)
(0.116006106997 1.44213276308 0)
(0.118803987225 1.33923557574 0)
(0.122752514609 1.2508283043 0)
(0.129837455164 1.20569926399 0)
(0.138502614874 1.18657372201 0)
(0.147003305627 1.16755696063 0)
(0.154585485498 1.1411118081 0)
(0.160191319881 1.10676831199 0)
(0.161720468921 1.06562130492 0)
(0.15814986487 1.02007921444 0)
(0.148888440809 0.97360713232 0)
(0.132360052602 0.926673120395 0)
(0.112251282658 0.879617703477 0)
(0.0946314604953 0.833528744455 0)
(0.0794893768268 0.787337182934 0)
(0.0651954727048 0.741102126806 0)
(0.051114019104 0.695287102409 0)
(0.0337120052046 1.73268905262 0)
(0.0903426442858 1.55077679735 0)
(0.112512696512 1.51985656362 0)
(0.115306827598 1.46828402829 0)
(0.121919191142 1.38109074741 0)
(0.128666071379 1.29060354568 0)
(0.133353559502 1.24425494323 0)
(0.134841907022 1.22448939371 0)
(0.137332854003 1.20736096324 0)
(0.14187361679 1.18406314802 0)
(0.14522474965 1.15041276817 0)
(0.144033400943 1.10620904951 0)
(0.136570414693 1.05565259795 0)
(0.120226273384 1.00300044273 0)
(0.0987512466748 0.952348888636 0)
(0.0810648631257 0.904965448453 0)
(0.0680935650357 0.85803739399 0)
(0.0567761845166 0.809678878787 0)
(0.0458037192759 0.760721467812 0)
(0.0348076138761 0.712601307833 0)
(0.0349344001861 1.74900397798 0)
(0.0949530086028 1.56780087543 0)
(0.115948007862 1.54313047614 0)
(0.112730394409 1.51420040087 0)
(0.115265074396 1.43879933199 0)
(0.1189668857 1.34621188677 0)
(0.119104808947 1.3011125358 0)
(0.115919328876 1.2814036256 0)
(0.11555232619 1.26702761308 0)
(0.117403614656 1.24512427523 0)
(0.117316118081 1.20611309918 0)
(0.111339280079 1.15105935762 0)
(0.0947125270599 1.08766184704 0)
(0.0715240628095 1.02598024456 0)
(0.0532611368724 0.973862488482 0)
(0.0422420354131 0.925698793733 0)
(0.0347235030606 0.876576744681 0)
(0.0281711415712 0.824942069124 0)
(0.0215257024891 0.772454070872 0)
(0.0152266477248 0.721724366959 0)
(0.0389145470112 1.79659041541 0)
(0.10396419675 1.62355218574 0)
(0.121820312336 1.61024586601 0)
(0.107750792704 1.60410089821 0)
(0.0992197026645 1.53200286999 0)
(0.0953009811726 1.43037149096 0)
(0.0896177120053 1.38231946452 0)
(0.0817544481259 1.36354916962 0)
(0.0763883226516 1.35494555095 0)
(0.0713959470835 1.33068751129 0)
(0.0617550080382 1.27353255594 0)
(0.0431734236065 1.19340334034 0)
(0.0201727925161 1.10868025201 0)
(0.00364417531162 1.03811838094 0)
(-0.00420282665838 0.984665782958 0)
(-0.00713318271298 0.934331213561 0)
(-0.00762497171761 0.882363843509 0)
(-0.00754364444895 0.827486873704 0)
(-0.00741358262605 0.772124587732 0)
(-0.00681366741042 0.71960000587 0)
(0.0525017349377 1.83238341243 0)
(0.121308443527 1.68148808232 0)
(0.124618411401 1.69421439121 0)
(0.0999205222138 1.71157288751 0)
(0.0815837367592 1.63705362582 0)
(0.0686225208762 1.52609804363 0)
(0.0529110167039 1.47027704179 0)
(0.0331907106022 1.45524983786 0)
(0.0101946483269 1.45836074656 0)
(-0.01724109351 1.42692659399 0)
(-0.0453692633949 1.33548506464 0)
(-0.0666513342805 1.21530310303 0)
(-0.0760308141051 1.10454150405 0)
(-0.0760908831479 1.02457525074 0)
(-0.0716628325478 0.969884177772 0)
(-0.0641702383602 0.918951032952 0)
(-0.0547324928909 0.866489443691 0)
(-0.0450020326049 0.811254810652 0)
(-0.0359147878394 0.755800651778 0)
(-0.0272730200449 0.703784974231 0)
(0.0642662651052 1.77537266576 0)
(0.124630250786 1.67297181323 0)
(0.111219565824 1.70560651759 0)
(0.0954156967158 1.73939935752 0)
(0.081920614621 1.67646803849 0)
(0.0613754509321 1.57784232786 0)
(0.0287362746037 1.52610226583 0)
(-0.0137847183381 1.52050899709 0)
(-0.0642819773564 1.53965266449 0)
(-0.116799357514 1.50101700777 0)
(-0.154181480478 1.36431904133 0)
(-0.16459154895 1.19086942092 0)
(-0.156393921667 1.05793240983 0)
(-0.142570242334 0.971359489508 0)
(-0.126866365041 0.920112497036 0)
(-0.108626004354 0.874337100863 0)
(-0.0887537400703 0.826751681133 0)
(-0.0698335917726 0.775884276547 0)
(-0.0531885654978 0.724367967347 0)
(-0.0384325575036 0.676159123328 0)
(0.0621478032678 1.61850083881 0)
(0.117512211658 1.57074207079 0)
(0.112112174104 1.61499925918 0)
(0.117284622072 1.65316957026 0)
(0.114473618171 1.64165721623 0)
(0.0868847864305 1.60834526108 0)
(0.0371182736625 1.59075286708 0)
(-0.0226191734037 1.59374347646 0)
(-0.0856425613005 1.62035262133 0)
(-0.14208513991 1.55467826704 0)
(-0.174601547349 1.3522353952 0)
(-0.177275673943 1.11566075075 0)
(-0.164978384513 0.978056569052 0)
(-0.150792149405 0.893811756701 0)
(-0.134132966227 0.849477118989 0)
(-0.113202645474 0.813595408689 0)
(-0.0899107729289 0.774763813941 0)
(-0.0681117542112 0.731511801294 0)
(-0.0495467225352 0.686803139832 0)
(-0.0335898795857 0.644922992619 0)
(0.0664863447248 1.35377906535 0)
(0.145848022475 1.37134984084 0)
(0.171410681621 1.45508689653 0)
(0.179689974506 1.57203028744 0)
(0.158103790285 1.65168903027 0)
(0.117303579548 1.69995840464 0)
(0.0688019067083 1.71636787003 0)
(0.0183897386351 1.7201683937 0)
(-0.0264461933035 1.7210860652 0)
(-0.0624473608418 1.62045928354 0)
(-0.0981157106862 1.38262205912 0)
(-0.113592309969 1.03838020563 0)
(-0.106631867211 0.907272676718 0)
(-0.0998594232897 0.829220522131 0)
(-0.0910659392784 0.78918228596 0)
(-0.0766914053653 0.761277590733 0)
(-0.0583008119505 0.729980057849 0)
(-0.040623974042 0.693749509165 0)
(-0.0258376086337 0.655774133666 0)
(-0.0133259893025 0.620612139391 0)
(0.0416177665873 1.15939844073 0)
(0.0893513534823 1.19253888142 0)
(0.108083192871 1.27735409848 0)
(0.114469538689 1.56383982165 0)
(0.0933722700597 1.73642030026 0)
(0.0603095456437 1.83759677932 0)
(0.0246948609348 1.86190625081 0)
(-0.00826752674843 1.85461153145 0)
(-0.0348751140091 1.81299667906 0)
(-0.0564274452584 1.69609396117 0)
(-0.0564766433259 1.38869737659 0)
(-0.0436610625279 0.998413708325 0)
(-0.0391961366135 0.872985414285 0)
(-0.0353744552574 0.798297282835 0)
(-0.0310079129634 0.758730995472 0)
(-0.0230762917766 0.733111826158 0)
(-0.01174742575 0.705076690543 0)
(-0.000727302446125 0.672850142098 0)
(0.00808682214886 0.639508910006 0)
(0.014744880186 0.609863539096 0)
(0.0284576781091 1.18003195464 0)
(0.0554919879885 1.13665054036 0)
(0.0586309303246 1.16063926787 0)
(0.0558663168595 1.59809484764 0)
(0.0284081184281 1.86676487237 0)
(-0.0126086788781 1.99748730327 0)
(-0.0487613614303 1.99644250828 0)
(-0.072546344579 1.9540651662 0)
(-0.0818920209564 1.86662730271 0)
(-0.0640745846215 1.67406450255 0)
(-0.0206195443846 1.27076262907 0)
(0.00774922242004 0.984293784969 0)
(0.0137893316059 0.867781399536 0)
(0.0185661860622 0.796243779993 0)
(0.0229338959883 0.756630436617 0)
(0.0278710593094 0.729473129743 0)
(0.0338567809088 0.701135351222 0)
(0.0392311641501 0.67007539023 0)
(0.0428809669622 0.639142498799 0)
(0.0416930107464 0.613258094975 0)
(0.0234891194268 1.31051756386 0)
(0.0379407490108 1.17031871361 0)
(0.025266983491 1.13608246081 0)
(0.0315171720624 1.57851189773 0)
(-0.00360569448187 2.15012271111 0)
(-0.084357444304 2.25341800866 0)
(-0.148419420679 2.1915438823 0)
(-0.179344533914 2.02293181246 0)
(-0.134800867143 1.72128416578 0)
(-0.0409579515903 1.47145427224 0)
(0.0203094473253 1.16154291519 0)
(0.0408918633967 0.980150423418 0)
(0.0513084541237 0.87794800923 0)
(0.0595874886716 0.81262896939 0)
(0.0654339694284 0.774216904937 0)
(0.068650028077 0.74404413564 0)
(0.0711656568335 0.713682323692 0)
(0.0727603079074 0.682028323885 0)
(0.0718953387503 0.652118587146 0)
(0.0588752558429 0.626707603221 0)
(0.037069437412 1.42804691701 0)
(0.0623371369042 1.25756875046 0)
(0.0396061876698 1.18944059546 0)
(0.0262192403004 1.54842451693 0)
(-0.0435750069541 2.66254345039 0)
(-0.168158781256 2.69036176569 0)
(-0.215607632769 2.30529505533 0)
(-0.143328393559 1.83711914019 0)
(-0.0500973128759 1.48266975221 0)
(0.00308109775195 1.27977995738 0)
(0.0398921285937 1.11144551985 0)
(0.0628230820714 0.981642083599 0)
(0.0782134835779 0.897217778837 0)
(0.0893808167824 0.841397034234 0)
(0.0946287553113 0.803749829156 0)
(0.0960423428543 0.770753817789 0)
(0.0967955716225 0.738146862152 0)
(0.0962450632909 0.7050035848 0)
(0.086214407096 0.673037419474 0)
(0.0586497623162 0.644096179239 0)
(0.0445767127366 1.48957253248 0)
(0.0772951446844 1.35446455681 0)
(0.0505781755739 1.29391681908 0)
(0.0240754956175 1.62168256048 0)
(-0.0496434175667 3.27465713463 0)
(-0.137011682049 3.10376937898 0)
(-0.120607180757 2.14645938765 0)
(-0.057159610022 1.57537784164 0)
(-0.0126834067626 1.35917294196 0)
(0.0280150825591 1.20850856722 0)
(0.0589115579984 1.08662686147 0)
(0.0814755335122 0.99220396288 0)
(0.0978498835969 0.925274926116 0)
(0.106639363777 0.8776965203 0)
(0.108761744188 0.840083829549 0)
(0.10932050806 0.806127175542 0)
(0.109550479119 0.771982639851 0)
(0.101827346364 0.73440532142 0)
(0.0755375286133 0.693952645868 0)
(0.0422255061765 0.660853798066 0)
(0.0456615006264 1.55968773707 0)
(0.0770336819488 1.45448233537 0)
(0.0436018412611 1.43877711431 0)
(0.00779498865523 1.75794465856 0)
(-0.0448377251986 3.76978844277 0)
(-0.0480219501873 3.13994993782 0)
(-0.0115956476017 2.01901128241 0)
(0.00200451794096 1.52898525428 0)
(0.025112088866 1.31221559606 0)
(0.0509955230217 1.18219413522 0)
(0.0744726144537 1.0867312148 0)
(0.0929440552578 1.01436436724 0)
(0.103941323164 0.959908943699 0)
(0.107729394901 0.917454381579 0)
(0.109071978569 0.882560697006 0)
(0.109799764741 0.850482927745 0)
(0.102432810244 0.812823813392 0)
(0.0762968033085 0.762205393705 0)
(0.0412379320866 0.710381479881 0)
(0.0180370633486 0.672613381149 0)
(0.0498452114408 1.63247849122 0)
(0.0863786205558 1.54991496761 0)
(0.0536876169184 1.60365484111 0)
(0.0163786854919 1.91852927935 0)
(0.0259901889623 3.87118872398 0)
(0.0609180100222 3.02821415515 0)
(0.0631574586311 2.08640366532 0)
(0.0563494639822 1.57509857315 0)
(0.0592145466719 1.33201605291 0)
(0.0705874483058 1.19553960716 0)
(0.084082285791 1.10628043037 0)
(0.0950055369553 1.04364280846 0)
(0.100869086393 0.995786601703 0)
(0.102924244439 0.958742362019 0)
(0.10067790204 0.930474736442 0)
(0.0875930262143 0.90006586002 0)
(0.0575642673557 0.852116762263 0)
(0.0214189325927 0.782460365881 0)
(-0.000697959972154 0.717047329627 0)
(-0.00869741660426 0.673034352495 0)
(0.0592705075642 1.63895088593 0)
(0.108974158969 1.59708785678 0)
(0.0847559182107 1.72613955928 0)
(0.0580588347859 2.04480119466 0)
(0.0797016879013 3.63586844915 0)
(0.124804232972 2.98637482976 0)
(0.129084547795 2.18847107423 0)
(0.114407070315 1.68090700363 0)
(0.104308142445 1.40106453981 0)
(0.102796062577 1.23975440475 0)
(0.105909044064 1.13812500434 0)
(0.108211007563 1.06997264611 0)
(0.104986304621 1.02103940461 0)
(0.0927408670867 0.988874339878 0)
(0.0662059626487 0.972452575581 0)
(0.0266465820985 0.943217559405 0)
(-0.0108923834659 0.878716322598 0)
(-0.030907203471 0.786693584639 0)
(-0.0344796151646 0.706868449008 0)
(-0.0321071144601 0.658006110369 0)
(0.0616515874091 1.55901471699 0)
(0.112993839874 1.57412650081 0)
(0.0984706947206 1.74860308323 0)
(0.101869962887 2.03504269761 0)
(0.159630697826 3.26208521434 0)
(0.227094098287 2.87458116821 0)
(0.2410098845 2.25175027637 0)
(0.227415373394 1.77998222248 0)
(0.207755458342 1.47939357051 0)
(0.189724049609 1.2886926774 0)
(0.171222009429 1.16229593943 0)
(0.14759960024 1.07806142662 0)
(0.115510130566 1.02564356753 0)
(0.0739459850887 1.00518255893 0)
(0.022916013333 1.01292882905 0)
(-0.0238234249171 0.977606248231 0)
(-0.0467609608035 0.883039654207 0)
(-0.0492381532484 0.769828975828 0)
(-0.0446798818234 0.682159230236 0)
(-0.0379464639777 0.631022164339 0)
(0.058907399399 1.40488067058 0)
(0.103231326715 1.54208358101 0)
(0.0965168611562 1.67027748538 0)
(0.138223987563 1.81096944216 0)
(0.266792011629 2.5957893701 0)
(0.421741405505 2.52249425043 0)
(0.487708814129 2.20625681192 0)
(0.475028994801 1.84718782455 0)
(0.431378551984 1.55956252186 0)
(0.377551097357 1.35191143447 0)
(0.317001596349 1.20928116025 0)
(0.25014309045 1.12019321076 0)
(0.17891753079 1.07722532105 0)
(0.106404976354 1.07655354501 0)
(0.0400382036341 1.09071420443 0)
(-0.00668509525435 1.02246335976 0)
(-0.0240443498541 0.87409727003 0)
(-0.0234762158022 0.746812621858 0)
(-0.0207248585122 0.657055595737 0)
(-0.0170925618085 0.604232336654 0)
(0.0425979750211 1.21683839431 0)
(0.0904091214374 1.47215110904 0)
(0.139914107946 1.38356223402 0)
(0.237734152749 1.38114643648 0)
(0.384797883296 1.72311817066 0)
(0.515327518804 2.04542661838 0)
(0.569329073446 2.0169448427 0)
(0.580411845513 1.8472562818 0)
(0.552251273498 1.64812649871 0)
(0.496222158193 1.47854116093 0)
(0.422443810507 1.35481946818 0)
(0.340264614989 1.27727519235 0)
(0.257886775464 1.23948926108 0)
(0.18320557452 1.23205445582 0)
(0.120961658008 1.21782494388 0)
(0.0681230601411 1.11747458997 0)
(0.0375794097879 0.883937391796 0)
(0.0302634403404 0.74052910736 0)
(0.0267056980223 0.647757877402 0)
(0.0233677857695 0.591040680354 0)
(0.0257326007144 1.08563624579 0)
(0.0871715255456 1.20791859543 0)
(0.143735725169 1.05712155113 0)
(0.184152940995 1.03658261732 0)
(0.227003163042 1.17041599433 0)
(0.306705029134 1.56700799471 0)
(0.375023383606 1.80212698198 0)
(0.389907146705 1.79621935248 0)
(0.386348721893 1.70915951661 0)
(0.364882937401 1.61086026124 0)
(0.328936424779 1.52743538096 0)
(0.283439074771 1.46618013793 0)
(0.233114111693 1.42470021755 0)
(0.182098105002 1.3952956725 0)
(0.135720129256 1.35078705423 0)
(0.10246949455 1.22050887356 0)
(0.0867199087187 0.912541384418 0)
(0.0804262504717 0.755361988593 0)
(0.0745387156044 0.657983943376 0)
(0.0663451301714 0.595788202515 0)
(0.00776504935927 1.10345774287 0)
(0.0325338775684 0.94008151766 0)
(0.0661620260826 0.89678367826 0)
(0.0969676698211 0.902784911112 0)
(0.123791426941 0.993736053615 0)
(0.151610837676 1.20389821125 0)
(0.180884000939 1.64427489914 0)
(0.204899000158 1.72978612859 0)
(0.217600465305 1.71496894016 0)
(0.217095345505 1.66904123349 0)
(0.205461944759 1.6206635138 0)
(0.185082284787 1.57870105946 0)
(0.158303720813 1.54366597828 0)
(0.127774758852 1.50994326373 0)
(0.100314159144 1.44501892989 0)
(0.104383643208 1.22273072198 0)
(0.120812907875 0.935615876948 0)
(0.119859685908 0.780877392901 0)
(0.114142616664 0.681924370378 0)
(0.102728965379 0.615018073779 0)
(-0.0133696851715 1.33273204369 0)
(-0.0149536939141 0.832353516614 0)
(0.00437438569523 0.808199847361 0)
(0.0201454368327 0.832498320393 0)
(0.0353123549691 0.908357969072 0)
(0.0517481510478 1.07546266033 0)
(0.0867650605524 1.4625495051 0)
(0.118875095102 1.6555432474 0)
(0.128806978436 1.68612282174 0)
(0.131729414699 1.67574690412 0)
(0.127982322492 1.65319439407 0)
(0.118852127182 1.62806935282 0)
(0.106068324446 1.60089173823 0)
(0.0949456027721 1.56122762473 0)
(0.104337717138 1.44986482832 0)
(0.132011589024 1.16596570464 0)
(0.150030104675 0.952599871739 0)
(0.15311023882 0.812625003615 0)
(0.14671210753 0.715498220003 0)
(0.131104288935 0.644753229884 0)
(-0.00714002307995 1.64969579224 0)
(-0.0208422213175 0.829138197162 0)
(-0.028823519614 0.778531294711 0)
(-0.028208003437 0.811014380227 0)
(-0.0218565820224 0.882258175969 0)
(-0.00888103683217 1.01620368469 0)
(0.0224551062477 1.27443657744 0)
(0.0620290238691 1.56178698125 0)
(0.0849313267898 1.64568663624 0)
(0.0925292018264 1.66314254001 0)
(0.0923845932588 1.6599459275 0)
(0.0873328965817 1.64554205277 0)
(0.0819878151925 1.617439287 0)
(0.0894200218534 1.54727990433 0)
(0.127111863663 1.36101839213 0)
(0.166662132015 1.13946763325 0)
(0.182410959727 0.974916360701 0)
(0.184414761047 0.851235634701 0)
(0.17300869094 0.756790486132 0)
(0.151000313179 0.682163399784 0)
(0.0117517676139 1.86855980203 0)
(0.00229365539219 0.958100156686 0)
(-0.0304471922506 0.805871917414 0)
(-0.0452896751212 0.82412232397 0)
(-0.0477581121129 0.888724475473 0)
(-0.0396096868318 0.998195433495 0)
(-0.0186606296133 1.16968027439 0)
(0.0230110673793 1.40667322586 0)
(0.067811109534 1.56499139665 0)
(0.0879384459296 1.64259026435 0)
(0.0906625890027 1.66092616032 0)
(0.0908190360384 1.64656851857 0)
(0.103445431186 1.58861037985 0)
(0.14165808811 1.46982150545 0)
(0.182613573079 1.29375969138 0)
(0.206854177108 1.14354440163 0)
(0.217733112715 1.00922853322 0)
(0.211441804232 0.897763081835 0)
(0.190480868859 0.804793704779 0)
(0.161348928875 0.725182688811 0)
(0.0269534122827 1.95102619658 0)
(0.0334604168752 1.13907920745 0)
(-0.00652015242726 0.893990582142 0)
(-0.0352261740214 0.867810453118 0)
(-0.0474439498447 0.91690913134 0)
(-0.047619057972 1.00586687208 0)
(-0.033355744917 1.13720025038 0)
(-0.0072460506794 1.2936031504 0)
(0.0260143669503 1.464222444 0)
(0.0633584578907 1.58259716666 0)
(0.0976805082712 1.62553513935 0)
(0.130659553474 1.60681267063 0)
(0.167538226029 1.53000489707 0)
(0.202254884531 1.41248561994 0)
(0.230190290062 1.29397503849 0)
(0.246853311914 1.1712188081 0)
(0.24483876432 1.05578873773 0)
(0.225179752436 0.952153620073 0)
(0.194170733759 0.858200400763 0)
(0.16014484323 0.770773146472 0)
(0.0390286411705 1.91990687543 0)
(0.0667228046017 1.28066310918 0)
(0.0361183337535 1.0174165473 0)
(0.00375339204273 0.942850987024 0)
(-0.016096100579 0.96593200598 0)
(-0.024901431017 1.03486510466 0)
(-0.0220278846069 1.13516040031 0)
(-0.00373034377474 1.26099579538 0)
(0.0275729084054 1.39455841714 0)
(0.0662762282947 1.4974600369 0)
(0.110045004076 1.54956889305 0)
(0.156179578808 1.54034406137 0)
(0.200445451168 1.4882399006 0)
(0.237676985422 1.41144444251 0)
(0.260330863802 1.31554520013 0)
(0.262592208364 1.21243389145 0)
(0.245705779212 1.10904860391 0)
(0.215186284027 1.00963694557 0)
(0.179119568606 0.910588377695 0)
(0.147189757149 0.812108097549 0)
(0.115544875278 0.591266200834 0)
(0.132858160995 0.545770286014 0)
(0.150437649939 0.502440228125 0)
(0.169813806186 0.463152535304 0)
(0.193149519345 0.426436074631 0)
(0.221832834546 0.389484926069 0)
(0.255111359139 0.349537744565 0)
(0.28657841252 0.313636568922 0)
(0.311728341336 0.283498020298 0)
(0.336170412031 0.259465329917 0)
(0.363379252774 0.241002426559 0)
(0.368226694324 0.212180302166 0)
(0.309585190156 0.2341355953 0)
(0.169387450132 0.474465374477 0)
(0.0359722054594 0.692975479207 0)
(-0.0114326292076 0.893872725569 0)
(-0.0160202338915 0.946937883424 0)
(-0.0353245835727 0.854922122507 0)
(-0.0363194435624 -0.199331621064 0)
(-0.00895872322147 -0.280537040023 0)
(0.10989323886 0.555037948062 0)
(0.127103101962 0.511340970329 0)
(0.144708715082 0.468327759536 0)
(0.164014109436 0.42601506122 0)
(0.186285222577 0.382398154445 0)
(0.213011712213 0.336035679249 0)
(0.245505162216 0.288329107291 0)
(0.27950834245 0.244760359441 0)
(0.311697810415 0.214063583272 0)
(0.328097045837 0.203482839393 0)
(0.29206746038 0.196688315077 0)
(0.170446033046 0.393735021713 0)
(0.0223789606887 0.479243046858 0)
(-0.0418820674442 0.757320061175 0)
(-0.0430673178526 0.832147914509 0)
(-0.0398767437728 0.876137599406 0)
(-0.0312260831025 0.891042922954 0)
(-0.0445279522482 0.783595472224 0)
(-0.0427506133814 -0.210684657254 0)
(-0.0110281227865 -0.27828556865 0)
(0.11025179248 0.522483295686 0)
(0.124988985886 0.480526723473 0)
(0.140506445985 0.438292974061 0)
(0.158056707152 0.394917897518 0)
(0.178899973933 0.348442893986 0)
(0.203571458048 0.298342235776 0)
(0.231477800504 0.246576097487 0)
(0.27193632993 0.199755537414 0)
(0.299973188316 0.172891329341 0)
(0.244619917961 0.159797488802 0)
(0.104471094203 0.36793173467 0)
(0.00843531059867 0.629160655687 0)
(-0.0108131647205 0.707142630471 0)
(-0.0212843658895 0.762065423541 0)
(-0.0250432340756 0.80478268765 0)
(-0.0215566258868 0.822131320689 0)
(-0.0158362460704 0.81509670269 0)
(-0.0419463304041 0.697051168586 0)
(-0.0495604235622 -0.217213001673 0)
(-0.0139622140959 -0.268619050456 0)
(0.113858053376 0.498953058817 0)
(0.124612385897 0.458017300821 0)
(0.136713082879 0.416242416281 0)
(0.151391919959 0.372483311841 0)
(0.169538938172 0.324851695923 0)
(0.19072451094 0.273597006505 0)
(0.219210345878 0.221778613043 0)
(0.262344906509 0.181957187754 0)
(0.238317724515 0.154201432678 0)
(0.101790967557 0.294700383922 0)
(0.0190050445926 0.54705529557 0)
(0.0224123636711 0.66096243746 0)
(0.018293753025 0.726428645968 0)
(0.0129991259442 0.767111357176 0)
(0.0097913277828 0.783148657394 0)
(0.00643685340215 0.786529659886 0)
(0.00252946983368 0.771830364295 0)
(-0.0360196181514 0.65727684313 0)
(-0.0521405514528 -0.212833921089 0)
(-0.0159238474773 -0.250058230668 0)
(0.11716231801 0.487021681879 0)
(0.123338583775 0.446145329709 0)
(0.131364077447 0.404139175171 0)
(0.142165689791 0.359929336905 0)
(0.155953235213 0.312137256131 0)
(0.172842344869 0.262072022581 0)
(0.205188500482 0.215603063201 0)
(0.212328000387 0.184883669585 0)
(0.132021341463 0.189337117201 0)
(0.0699045450808 0.413947766313 0)
(0.0911220684965 0.454882672553 0)
(0.102899624548 0.672960632422 0)
(0.0871869533806 0.753763432482 0)
(0.0704004840958 0.78483405641 0)
(0.0544339354056 0.796791442446 0)
(0.0386412487432 0.796343593873 0)
(0.0224417813032 0.779163665695 0)
(-0.027158560622 0.669086402615 0)
(-0.0506329142139 -0.196618654109 0)