/*--------------------------------*- C++ -*----------------------------------*\
| =========                 |                                                 |
| \\      /  F ield         | OpenFOAM: The Open Source CFD Toolbox           |
|  \\    /   O peration     | Version:  2312                                  |
|   \\  /    A nd           | Website:  www.openfoam.com                      |
|    \\/     M anipulation  |                                                 |
\*---------------------------------------------------------------------------*/
FoamFile
{
    version     2.0;
    format      ascii;
    arch        "LSB;label=32;scalar=64";
    class       volScalarField;
    location    "1/heater";
    object      T;
}
// * * * * * * * * * * * * * * * * * * * * * * * * * * * * * * * * * * * * * //

dimensions      [0 0 0 1 0 0 0];

internalField   nonuniform List<scalar> 
150
(
786.863587394
786.741423367
786.497747071
786.133934629
785.652214502
786.711798508
786.579309563
786.313906754
785.914671064
785.379993601
786.583694284
786.44933657
786.180569577
785.777312679
785.239478722
786.504946554
786.370602429
786.101934021
785.698996405
785.161890252
786.467184875
786.333505807
786.066221087
785.665491556
785.131551616
786.451018322
786.317748956
786.051289376
785.65173634
785.118940192
786.44296617
786.309801942
786.043543759
785.644227733
785.111524222
786.436324751
786.303194366
786.037030237
785.637891857
785.105357492
786.426902465
786.29367298
786.027352578
785.628114257
785.095625923
786.41341331
786.279937896
786.013129645
785.613274621
785.080370131
786.397238134
786.26348707
785.996100033
785.595427549
785.061875811
786.380362793
786.246387087
785.978516563
785.577128337
785.04301577
786.364015315
786.229831085
785.96148401
785.559272503
785.024461689
786.349307609
786.214954119
785.946233681
785.543258224
785.007309965
786.337024783
786.202535593
785.933540879
785.529968568
784.992283254
786.327601575
786.193033
785.923898238
785.520072059
784.981136083
786.320577612
786.185962562
785.916761309
785.512886453
784.973817421
786.315101441
786.180416237
785.91109911
785.507115255
784.968010943
786.310965012
786.176199614
785.906744224
785.502620701
784.963441588
786.30829729
786.173501378
785.90401137
785.499902518
784.960787308
786.30654202
786.171736163
785.902261403
785.498273419
784.959368934
786.305019155
786.170154069
785.900573317
785.496509393
784.957651038
786.304095588
786.169162285
785.89944331
785.495245683
784.95642335
786.304531048
786.169593254
785.89987586
785.495805103
784.957451342
786.306350802
786.171396278
785.90163871
785.497652937
784.960147378
786.309833646
786.174822208
785.904899971
785.500593384
784.963454459
786.316862837
786.181862827
785.911937422
785.507453391
784.970425556
786.330081935
786.195173702
785.925462001
785.521258861
784.984033344
786.352307047
786.21752578
785.948120401
785.544630024
785.00820715
786.386659473
786.251970963
785.982768715
785.579837981
785.046383986
)
;

boundaryField
{
    emptyPatch
    {
        type            empty;
    }
    minY
    {
        type            zeroGradient;
    }
    maxY
    {
        type            zeroGradient;
    }
    minX
    {
        type            zeroGradient;
    }
    heater_to_water
    {
        type            compressible::turbulentTemperatureTwoPhaseRadCoupledMixed;
        refValue        nonuniform List<scalar> 
60
(
304.641122763
325.225834311
325.228461605
326.56184321
326.563296664
326.306115358
326.306939059
324.717581473
322.53153251
321.913643442
321.913812805
321.720176584
321.720301966
321.769380446
321.76949528
321.695772014
321.860207195
321.785147249
321.785336962
321.93800244
321.938219212
321.814704984
321.814924271
321.826799244
321.703793971
321.0107765
321.010976144
320.477945823
320.478125337
321.412423567
321.412575968
324.8709796
326.36436364
326.446161564
326.446281943
326.750448133
326.75055671
326.524414838
326.524505185
326.743904222
326.487500656
326.676645135
326.676725965
326.379558899
326.379635237
326.453847089
326.453901459
326.28085787
326.281553586
325.371786409
325.371819884
322.560740893
322.560746825
319.25194593
319.251909946
318.271560665
320.981310434
332.535262687
332.534901517
346.994456782
)
;
        refGradient     uniform 0;
        valueFraction   nonuniform List<scalar> 
60
(
0.000599908560175
0.000731640513046
0.000731564180109
0.000732866539607
0.00073282630696
0.00073285938254
0.000732836325973
0.00072847108968
0.000720909672464
0.000719929438558
0.00071992382238
0.000719709394826
0.000719705197132
0.000720430472085
0.000720426629196
0.00071972593395
0.000720745265065
0.000719803999481
0.000719797647291
0.000720778414515
0.000720771193927
0.000719802661215
0.000719795321536
0.000720084974948
0.000719732685126
0.000717205680416
0.00071719875328
0.000715036900344
0.000715030520666
0.000719431954058
0.000719426741165
0.000733032621748
0.000736919199992
0.000736282504438
0.00073627909776
0.000737359199641
0.0007373561571
0.000736313541293
0.00073631099072
0.000737350525123
0.000736306744922
0.000737301177378
0.000737298905089
0.000736243839302
0.000736241671547
0.000736853546198
0.000736852005162
0.000736204120997
0.000736351168154
0.000734410179393
0.000734409191928
0.000724959512934
0.000724959318122
0.000709483563596
0.00070948492506
0.000705844790497
0.000720153351593
0.00074570883742
0.000745717267097
0.00073505951279
)
;
        source          uniform 0;
        value           nonuniform List<scalar> 
60
(
785.365009459
785.316705358
785.04472367
785.045101576
784.90471285
784.904509202
784.826991954
784.827837169
784.799433058
784.799441679
784.786861422
784.786821384
784.779420221
784.779119491
784.772961564
784.773233162
784.763160907
784.763542907
784.748291685
784.747947337
784.729460847
784.729820492
784.710970085
784.71084446
784.692366348
784.693040129
784.675875063
784.676497021
784.661474099
784.660101729
784.64902615
784.645253996
784.63728142
784.637633642
784.631829153
784.631558181
784.626991882
784.627303112
784.624655679
784.624340891
784.623212743
784.622896278
784.621183774
784.621448505
784.620221561
784.619995652
784.621027919
784.621197582
784.623833964
784.624056115
784.627340376
784.629645464
784.63652222
784.64133084
784.654867359
784.655870716
784.67541493
784.672172346
784.710273435
784.725724839
)
;
        kappaMethod     solidThermo;
        Tnbr            T.liquid;
        region          solid;
        otherPhase      gas;
    }
    procBoundary2to3
    {
        type            processor;
        value           nonuniform List<scalar> 5(786.435521383 786.300949685 786.031972193 785.629407178 785.09761659);
    }
}


// ************************************************************************* //
