/*--------------------------------*- C++ -*----------------------------------*\
| =========                 |                                                 |
| \\      /  F ield         | OpenFOAM: The Open Source CFD Toolbox           |
|  \\    /   O peration     | Version:  2312                                  |
|   \\  /    A nd           | Website:  www.openfoam.com                      |
|    \\/     M anipulation  |                                                 |
\*---------------------------------------------------------------------------*/
FoamFile
{
    version     2.0;
    format      ascii;
    arch        "LSB;label=32;scalar=64";
    class       volScalarField;
    location    "0.4/water";
    object      alphat.gas;
}
// * * * * * * * * * * * * * * * * * * * * * * * * * * * * * * * * * * * * * //

dimensions      [1 -1 -1 0 0 0 0];

internalField   nonuniform List<scalar> 
1504
(
2.7344470201e-06
2.79533421293e-06
2.435591235e-06
1.98603597038e-06
1.55318712232e-06
1.1927265737e-06
9.3912098128e-07
7.73375434591e-07
6.69137898118e-07
5.8909421328e-07
4.73661150807e-07
2.85942327385e-07
1.04572258348e-07
3.39338766316e-08
2.14740650283e-08
2.03516197561e-08
1.95780452921e-08
1.90824724009e-08
2.0449928484e-08
2.99820014922e-08
2.75493096372e-06
2.8105267205e-06
2.43404271556e-06
1.96611174133e-06
1.52322378434e-06
1.17232434127e-06
9.31214139129e-07
7.74898763378e-07
6.76280692007e-07
5.93318713472e-07
4.68322194848e-07
2.75370160232e-07
1.0047181343e-07
3.37413529622e-08
2.15666275668e-08
2.04326154786e-08
1.96976217898e-08
1.91630390293e-08
1.9988437418e-08
2.60409271025e-08
2.77408024006e-06
2.82657850392e-06
2.43154041041e-06
1.94040633945e-06
1.49287428524e-06
1.15291511737e-06
9.22657622149e-07
7.76376400164e-07
6.82643658245e-07
5.93991069612e-07
4.57567584075e-07
2.60574319523e-07
9.48065428337e-08
3.31145293999e-08
2.1575737306e-08
2.04909940418e-08
1.98253649341e-08
1.93307025095e-08
1.98997536449e-08
2.38764836014e-08
2.79288559088e-06
2.83669318134e-06
2.42162413146e-06
1.91302704456e-06
1.46730186607e-06
1.13558223558e-06
9.14870814054e-07
7.79105693551e-07
6.87733008075e-07
5.90784773427e-07
4.42116212668e-07
2.4351937946e-07
8.87133442446e-08
3.22568577655e-08
2.15076340465e-08
2.05120737757e-08
1.99224903727e-08
1.94728195202e-08
2.00152838686e-08
2.28374729966e-08
2.80155619457e-06
2.83201327933e-06
2.40012791044e-06
1.88577662038e-06
1.44524233584e-06
1.1202390057e-06
9.1006307027e-07
7.83759425985e-07
6.91432629092e-07
5.84143979924e-07
4.23101562619e-07
2.2622715839e-07
8.31106804595e-08
3.13495609688e-08
2.13780336257e-08
2.04863677591e-08
1.99455286353e-08
1.94971739749e-08
2.01242790996e-08
2.24144455547e-08
2.81025165173e-06
2.80976532854e-06
2.36335509336e-06
1.85204872186e-06
1.42075606924e-06
1.10637372627e-06
9.09889251725e-07
7.90828874775e-07
6.94788909711e-07
5.7466888343e-07
4.02399267328e-07
2.10892911374e-07
7.88867947112e-08
3.06465171425e-08
2.12418272099e-08
2.04045352225e-08
1.98597435025e-08
1.94074637096e-08
2.01305232878e-08
2.22084064346e-08
2.80253882337e-06
2.76861764569e-06
2.31314994212e-06
1.80987295412e-06
1.39318330315e-06
1.09643979169e-06
9.16218649417e-07
8.02387339782e-07
6.99109146383e-07
5.6264896261e-07
3.8249852906e-07
1.99503223103e-07
7.68373085453e-08
3.0470425724e-08
2.11774600053e-08
2.02598569798e-08
1.96909160689e-08
1.92727919507e-08
2.002962528e-08
2.19887613892e-08
2.74865290513e-06
2.68386624395e-06
2.24092156649e-06
1.76255491566e-06
1.37033018594e-06
1.09758815636e-06
9.34198009379e-07
8.21767665725e-07
7.03399203219e-07
5.4849205967e-07
3.66127655053e-07
1.93492410183e-07
7.76094156889e-08
3.11461545184e-08
2.12530686576e-08
2.00637598254e-08
1.94739852423e-08
1.91211967015e-08
1.98269400255e-08
2.16725312228e-08
2.63723522092e-06
2.56544537956e-06
2.16956212556e-06
1.73335253743e-06
1.37064582895e-06
1.12197993443e-06
9.70928519472e-07
8.48793351593e-07
7.04334301842e-07
5.33775493755e-07
3.55881371776e-07
1.9389746063e-07
8.18677539462e-08
3.30543067728e-08
2.15574639796e-08
1.98535753638e-08
1.92307877147e-08
1.89517282664e-08
1.95181461846e-08
2.1175783485e-08
2.54196808555e-06
2.49848962361e-06
2.15666981756e-06
1.75433569224e-06
1.41223105275e-06
1.17941666671e-06
1.02683888642e-06
8.76016274523e-07
6.99706057023e-07
5.22356425835e-07
3.54624218547e-07
2.02548738876e-07
9.09619633326e-08
3.67678043623e-08
2.22258835601e-08
1.97108568035e-08
1.8986527971e-08
1.87453763748e-08
1.91229449247e-08
2.04819732965e-08
2.5619439807e-06
2.55802351633e-06
2.2364013718e-06
1.83652437097e-06
1.49565570302e-06
1.26418194854e-06
1.08842622368e-06
8.96971139278e-07
6.97041439591e-07
5.21088579739e-07
3.66066370144e-07
2.22242476706e-07
1.06346805945e-07
4.26805969378e-08
2.33802667171e-08
1.97251551276e-08
1.87945590177e-08
1.85028334542e-08
1.87033066928e-08
1.96759357798e-08
2.71414428515e-06
2.72958782877e-06
2.37868681681e-06
1.94546760981e-06
1.59282154138e-06
1.35357858299e-06
1.14811003669e-06
9.21952209399e-07
7.04570270184e-07
5.32637254894e-07
3.92773751599e-07
2.55701343586e-07
1.30606273925e-07
5.19782575765e-08
2.53537691631e-08
1.99872009896e-08
1.87454764588e-08
1.8273733172e-08
1.83097539522e-08
1.87819054058e-08
2.89717192677e-06
2.89276088088e-06
2.4773642626e-06
2.01775506969e-06
1.67336275982e-06
1.43674389771e-06
1.2122564972e-06
9.61038395769e-07
7.30061964587e-07
5.60084717422e-07
4.32554096991e-07
3.02275005711e-07
1.66010049644e-07
6.63317818742e-08
2.85770123309e-08
2.06288266065e-08
1.89075524974e-08
1.81403946548e-08
1.79404238651e-08
1.79014811113e-08
2.93360043718e-06
2.87183482506e-06
2.45166947776e-06
2.02788593777e-06
1.71915854869e-06
1.50381633486e-06
1.28104602471e-06
1.01880202764e-06
7.75306123495e-07
5.98338538211e-07
4.75939518319e-07
3.54810602662e-07
2.11159274148e-07
8.68608044892e-08
3.34361439345e-08
2.1673030989e-08
1.92607718171e-08
1.81882673429e-08
1.76526582034e-08
1.71756597076e-08
2.80300640439e-06
2.75868168783e-06
2.39068174641e-06
2.01403681365e-06
1.74122580988e-06
1.55016368625e-06
1.34566847993e-06
1.08515001342e-06
8.29386890409e-07
6.3797428721e-07
5.13512268498e-07
4.02456609978e-07
2.59107660352e-07
1.12670689164e-07
4.01451147215e-08
2.30366145277e-08
1.97603623758e-08
1.84043937825e-08
1.75035693485e-08
1.663376075e-08
2.7296367852e-06
2.68465060008e-06
2.33995996956e-06
1.99763003458e-06
1.75613493426e-06
1.58447705778e-06
1.39227351205e-06
1.14128750242e-06
8.78987122605e-07
6.7217276455e-07
5.41691663173e-07
4.38523575473e-07
3.01305973042e-07
1.40529053235e-07
4.86729517947e-08
2.47351761228e-08
2.0280438345e-08
1.87017434208e-08
1.75044640941e-08
1.62685233843e-08
2.6599326589e-06
2.62966331215e-06
2.30484495409e-06
1.98619817325e-06
1.76786769959e-06
1.61011333493e-06
1.42287520465e-06
1.17547958752e-06
9.11590463516e-07
6.97355509667e-07
5.6156591875e-07
4.62745822822e-07
3.32617043177e-07
1.66143659088e-07
5.85880785177e-08
2.68895135713e-08
2.07577911961e-08
1.90327382515e-08
1.76172867855e-08
1.60360242079e-08
2.60396963789e-06
2.59280278379e-06
2.28615159339e-06
1.98104338581e-06
1.7757496009e-06
1.62506131784e-06
1.43720278714e-06
1.19009423538e-06
9.27816638567e-07
7.13839435348e-07
5.77010190285e-07
4.80003985779e-07
3.53632889885e-07
1.84906629077e-07
6.74320525224e-08
2.92592717301e-08
2.11962516582e-08
1.92878007954e-08
1.77735665416e-08
1.58727108251e-08
2.55103332318e-06
2.57427035864e-06
2.28434207683e-06
1.98259628605e-06
1.77989032834e-06
1.62855630563e-06
1.43520154145e-06
1.18692497673e-06
9.2991789305e-07
7.23136985662e-07
5.89988379281e-07
4.93770218316e-07
3.66990449932e-07
1.95807775004e-07
7.31529949125e-08
3.10430610365e-08
2.14835364283e-08
1.93883148699e-08
1.78815087634e-08
1.5733574743e-08
2.52451838465e-06
2.57851818583e-06
2.29528835458e-06
1.98857673191e-06
1.78125510756e-06
1.62200181649e-06
1.41837187782e-06
1.16843249042e-06
9.20822122563e-07
7.27139503105e-07
6.01507482491e-07
5.05137620254e-07
3.73550674269e-07
1.98523309744e-07
7.49226708796e-08
3.18073775786e-08
2.1518400145e-08
1.93186259878e-08
1.78799085646e-08
1.55951720696e-08
2.52010627076e-06
2.5979711036e-06
2.31094420007e-06
1.99520006003e-06
1.7813452988e-06
1.60937885839e-06
1.39184212666e-06
1.14061050729e-06
9.06156662544e-07
7.29408589165e-07
6.12711555747e-07
5.13741894687e-07
3.72603312737e-07
1.9293741575e-07
7.27644435855e-08
3.14216552466e-08
2.12403434459e-08
1.90874886809e-08
1.77253559613e-08
1.54529795084e-08
2.54920749759e-06
2.63097452684e-06
2.3306550528e-06
2.00746930391e-06
1.78756924241e-06
1.59907074194e-06
1.36553316349e-06
1.11367233114e-06
8.93938159192e-07
7.34111440871e-07
6.24121971297e-07
5.17952669087e-07
3.62830900482e-07
1.79919507092e-07
6.75392656479e-08
3.00625215673e-08
2.06676373919e-08
1.87162404575e-08
1.74570507489e-08
1.53055639728e-08
2.57971071069e-06
2.65632476478e-06
2.35084848194e-06
2.03400529313e-06
1.80966366732e-06
1.60113066723e-06
1.35112250927e-06
1.09871920184e-06
8.9151913728e-07
7.44006786022e-07
6.34870232116e-07
5.15508376901e-07
3.44132454525e-07
1.61989943853e-07
6.06599771481e-08
2.81184968314e-08
1.98921266037e-08
1.82375013764e-08
1.71092275273e-08
1.51593133762e-08
2.60318083168e-06
2.66892465358e-06
2.38198389419e-06
2.08897883456e-06
1.85718369893e-06
1.62258816414e-06
1.35644653356e-06
1.10328363497e-06
9.03149097199e-07
7.59439218955e-07
6.4291040044e-07
5.05430052474e-07
3.19387835022e-07
1.42652705096e-07
5.36198985662e-08
2.6045004566e-08
1.90336902524e-08
1.76865811709e-08
1.67107384408e-08
1.50210307261e-08
2.59949214373e-06
2.68583593429e-06
2.45000228027e-06
2.18641961422e-06
1.93647731948e-06
1.66667742822e-06
1.38463221142e-06
1.13015324203e-06
9.29440343946e-07
7.78633556654e-07
6.4666645538e-07
4.89797886543e-07
2.93579902691e-07
1.25272274498e-07
4.75928405763e-08
2.42033700192e-08
1.8197196987e-08
1.70961529993e-08
1.62916172151e-08
1.48958255922e-08
2.64473794423e-06
2.78054580287e-06
2.59159714101e-06
2.33877752694e-06
2.0483070202e-06
1.73302044929e-06
1.43648896482e-06
1.17918429307e-06
9.68821819054e-07
7.99990565848e-07
6.47634429031e-07
4.74034266766e-07
2.72388264623e-07
1.12474222509e-07
4.32809000218e-08
2.28062321005e-08
1.74626808243e-08
1.64962023938e-08
1.58871868678e-08
1.47822398076e-08
2.79304724875e-06
2.98949448759e-06
2.82539142423e-06
2.55121825887e-06
2.19013355415e-06
1.82252836896e-06
1.51037330541e-06
1.2472922764e-06
1.0190810233e-06
8.24381305049e-07
6.50429216016e-07
4.65181339395e-07
2.61312714193e-07
1.06243931259e-07
4.11319642683e-08
2.19928137419e-08
1.690058874e-08
1.59191327485e-08
1.55114900479e-08
1.46794969377e-08
2.99712333318e-06
3.25555757636e-06
3.12608825119e-06
2.80141547297e-06
2.35329139441e-06
1.93977615744e-06
1.60872130604e-06
1.32929199623e-06
1.07770078838e-06
8.55420201194e-07
6.61201875877e-07
4.6910018704e-07
2.64442957702e-07
1.08233946745e-07
4.16981033716e-08
2.1955127229e-08
1.65923281049e-08
1.54110300478e-08
1.51565838848e-08
1.45893106744e-08
3.19660082339e-06
3.54575965468e-06
3.46121556581e-06
3.0591333635e-06
2.54086728366e-06
2.09150696779e-06
1.73130586139e-06
1.42428393032e-06
1.14575089377e-06
8.97700303815e-07
6.85156689872e-07
4.88143140261e-07
2.82568740292e-07
1.19301981354e-07
4.56928785228e-08
2.29957837827e-08
1.66442017872e-08
1.5033149353e-08
1.48007216748e-08
1.44699462992e-08
3.39236165607e-06
3.80371756548e-06
3.70587341816e-06
3.2746104279e-06
2.7471878866e-06
2.26571399567e-06
1.8637892818e-06
1.52343122877e-06
1.22138405928e-06
9.53662774986e-07
7.24550113741e-07
5.21182557402e-07
3.14128115398e-07
1.39872901436e-07
5.38201817337e-08
2.54505872043e-08
1.71826235116e-08
1.48600315872e-08
1.44333109194e-08
1.42820809772e-08
3.42753740609e-06
3.80317152756e-06
3.73440104382e-06
3.38488665791e-06
2.89808225249e-06
2.40189391309e-06
1.96885760169e-06
1.60528044814e-06
1.2911092482e-06
1.01493950171e-06
7.75160494161e-07
5.64623560777e-07
3.55636017507e-07
1.68988304898e-07
6.63174459245e-08
2.95249822424e-08
1.83238559486e-08
1.496095792e-08
1.41133120898e-08
1.3984144241e-08
3.23937287673e-06
3.60063173247e-06
3.60162867554e-06
3.36004937965e-06
2.94174128528e-06
2.46491788528e-06
2.02692273881e-06
1.65662861017e-06
1.34163693159e-06
1.06713270751e-06
8.25246204119e-07
6.10424229574e-07
3.99585004685e-07
2.02240961243e-07
8.21612305506e-08
3.51469375646e-08
2.01045765191e-08
1.53783927224e-08
1.39298191634e-08
1.36057368357e-08
3.18000891091e-06
3.48522379454e-06
3.44737419916e-06
3.25030342233e-06
2.89463748535e-06
2.4577167291e-06
2.03620410337e-06
1.67245558308e-06
1.36441486678e-06
1.09915211524e-06
8.6415653818e-07
6.51188603886e-07
4.40105884045e-07
2.34906393335e-07
9.95131002337e-08
4.1947479581e-08
2.24788351106e-08
1.6112763619e-08
1.39361133248e-08
1.32341093565e-08
3.08233255853e-06
3.35903057073e-06
3.28253029236e-06
3.08907790341e-06
2.77601279977e-06
2.38422913387e-06
1.99422034975e-06
1.65010328448e-06
1.3586702529e-06
1.11051223255e-06
8.89776189651e-07
6.84288603794e-07
4.74607832888e-07
2.63906828906e-07
1.16639585254e-07
4.94669880801e-08
2.53800478007e-08
1.71610109042e-08
1.41633105769e-08
1.2964012674e-08
2.94810625383e-06
3.19377987789e-06
3.08421295036e-06
2.88196817189e-06
2.60008121554e-06
2.25608881872e-06
1.90716420952e-06
1.59486021901e-06
1.33142851841e-06
1.10862408576e-06
9.06822486484e-07
7.11348825486e-07
5.02839309601e-07
2.87973336282e-07
1.32574949182e-07
5.74441213509e-08
2.88077094333e-08
1.85478532739e-08
1.46278328014e-08
1.28714561815e-08
2.79939917996e-06
3.01067624642e-06
2.8589256087e-06
2.64189205801e-06
2.38834207669e-06
2.09263286244e-06
1.79198940886e-06
1.52321313268e-06
1.2987919535e-06
1.10641513997e-06
9.23516603748e-07
7.36204456208e-07
5.25853633093e-07
3.07633568268e-07
1.47701411953e-07
6.62206766853e-08
3.3004497068e-08
2.04066492894e-08
1.53889796128e-08
1.30187713949e-08
2.69186102255e-06
2.86114500062e-06
2.64451091225e-06
2.40262474202e-06
2.17339652727e-06
1.92645321731e-06
1.68053927039e-06
1.4642691218e-06
1.28372619605e-06
1.11838999164e-06
9.48706125889e-07
7.6283280498e-07
5.45981020065e-07
3.25930905173e-07
1.64430410147e-07
7.72495107677e-08
3.87313049363e-08
2.31101743806e-08
1.66384945502e-08
1.35070052215e-08
2.62508727948e-06
2.71327902272e-06
2.4534897033e-06
2.19824147048e-06
2.00076417458e-06
1.80634787946e-06
1.61756433547e-06
5.24516174087e-06
3.98103843008e-06
2.67861111649e-06
1.77404348635e-06
1.35811267823e-06
1.35022291471e-06
1.62730801508e-06
2.03665640814e-06
2.43658803615e-06
2.74538922088e-06
2.92663400055e-06
2.96581647135e-06
2.86055607434e-06
2.62320653281e-06
2.30167635482e-06
2.0257367821e-06
1.99927440662e-06
1.62035598309e-07
2.75451217085e-06
4.94254460426e-06
4.7489507976e-06
3.56638699425e-06
2.39226327616e-06
1.64036305934e-06
1.35510853355e-06
1.44111907177e-06
1.77031619389e-06
2.19031609044e-06
2.57627369762e-06
2.86152570507e-06
3.0167461537e-06
3.03038176962e-06
2.90133170124e-06
2.64268088295e-06
2.3016976097e-06
2.00372515774e-06
1.95289112572e-06
9.6127346857e-08
1.91246140785e-06
4.32315983995e-06
4.26733554052e-06
3.18222972715e-06
2.14893939534e-06
1.5476724328e-06
1.38360064041e-06
1.55301224468e-06
1.9229176858e-06
2.34595071458e-06
2.71494574354e-06
2.97588912e-06
3.10519813979e-06
3.09365278703e-06
2.94113060893e-06
2.66152002152e-06
2.30209485941e-06
1.9835416211e-06
1.9063946731e-06
6.64023158003e-08
1.19746257853e-06
3.7072574512e-06
3.81011582853e-06
2.83753171068e-06
1.95202988012e-06
1.49479424817e-06
1.44138458258e-06
1.68303994784e-06
2.08273874663e-06
2.50252753247e-06
2.85229804513e-06
3.08848514126e-06
3.19214321629e-06
3.15585527398e-06
2.98017250148e-06
2.67980409794e-06
2.30276878633e-06
1.96538852464e-06
1.86085108223e-06
5.1189079088e-08
6.80830804051e-07
3.11039664092e-06
3.38655572632e-06
2.53839019867e-06
1.80201770627e-06
1.47946371248e-06
1.52591958664e-06
1.82832874316e-06
2.24785132952e-06
2.65932719799e-06
2.98817008176e-06
3.19937880655e-06
3.27774986767e-06
3.21721335797e-06
3.01867567791e-06
2.69760326035e-06
2.30354717328e-06
1.94941255551e-06
1.81749289243e-06
3.87133684091e-08
3.59900220149e-07
2.54568349719e-06
3.00286544937e-06
2.28766271037e-06
1.69729927054e-06
1.49898380043e-06
1.63447667202e-06
1.98612395516e-06
2.41667719055e-06
2.81577673031e-06
3.12241277621e-06
3.30859128272e-06
3.36212761173e-06
3.27790202484e-06
3.05683652729e-06
2.71498349734e-06
2.30418577759e-06
1.93552933197e-06
1.77742217169e-06
2.89742053604e-08
1.85395550598e-07
2.01072730243e-06
2.66138508538e-06
2.08586959917e-06
1.63526920496e-06
1.55051792884e-06
1.76406366347e-06
2.15371681972e-06
2.58776012138e-06
2.97125774342e-06
3.25476697243e-06
3.41603110088e-06
3.44529722169e-06
3.33804598217e-06
3.09484875009e-06
2.73203910003e-06
2.3043927653e-06
1.92340267255e-06
1.74155825007e-06
2.6621319009e-08
1.02222581545e-07
1.50931729555e-06
2.36279847935e-06
1.93212088705e-06
1.61288981603e-06
1.63097690272e-06
1.91130304243e-06
2.32837432571e-06
2.75963297657e-06
3.12504601979e-06
3.38485813639e-06
3.52151751759e-06
3.5272267366e-06
3.39775902563e-06
3.13294203088e-06
2.74893120869e-06
2.30385772971e-06
1.91238977903e-06
1.71054155832e-06
2.52777822974e-08
6.5919103716e-08
1.06697224338e-06
2.10705980291e-06
1.82431747682e-06
1.62675629281e-06
1.73685552663e-06
2.07253443924e-06
2.50746515303e-06
2.93090116032e-06
3.27642198024e-06
3.51230351938e-06
3.62486726631e-06
3.60789270433e-06
3.45718141818e-06
3.17140311054e-06
2.76590820924e-06
2.30228534181e-06
1.90149782131e-06
1.6845625754e-06
2.42398053833e-08
5.11737538842e-08
6.97403208647e-07
1.88981549978e-06
1.75906423891e-06
1.67316191829e-06
1.86438844473e-06
2.24423172662e-06
2.68876985945e-06
3.1004652046e-06
3.42484873331e-06
3.63683564516e-06
3.72596691809e-06
3.68731122531e-06
3.51648094294e-06
3.21056133762e-06
2.78330420837e-06
2.29944592485e-06
1.88941116728e-06
1.66316162177e-06
2.32108803175e-08
4.17739292775e-08
3.93537134553e-07
1.69779752658e-06
1.73195943384e-06
1.74844764844e-06
2.01002424201e-06
2.42350928976e-06
2.87074852683e-06
3.26766855928e-06
3.57004943721e-06
3.75832490109e-06
3.82475868959e-06
3.76550211896e-06
3.5758058936e-06
3.250741287e-06
2.80151682813e-06
2.29524330457e-06
1.87463137999e-06
1.645079601e-06
2.20509612696e-08
2.9621714395e-08
1.83101332924e-07
1.50560074101e-06
1.73826132754e-06
1.84939124944e-06
2.17078859511e-06
2.60830501414e-06
3.05249255821e-06
3.43218812588e-06
3.71188362301e-06
3.87666057731e-06
3.92113918332e-06
3.84241161088e-06
3.63523049089e-06
3.29222504358e-06
2.82099563637e-06
2.28979553762e-06
1.85572984887e-06
1.62823890326e-06
2.07524135412e-08
2.7013096035e-08
9.26320456278e-08
1.26161192052e-06
1.77323941845e-06
1.97336487067e-06
2.3443199514e-06
2.79718222854e-06
3.23341103355e-06
3.59375201511e-06
3.85012128738e-06
3.99158558715e-06
4.01485348618e-06
3.91785968458e-06
3.69474288135e-06
3.33526049115e-06
2.84225338765e-06
2.28349900078e-06
1.83164455911e-06
1.60991662272e-06
1.93552174658e-08
2.46342231993e-08
6.83463740131e-08
8.9003607567e-07
1.83024100536e-06
2.11821560872e-06
2.52867904576e-06
2.98894815056e-06
3.41283961964e-06
3.75183538811e-06
3.98423109876e-06
4.10256981566e-06
4.10544445325e-06
3.99155509899e-06
3.75431094743e-06
3.38014858769e-06
2.86593152359e-06
2.27707393886e-06
1.80193770001e-06
1.58714967981e-06
1.8044463097e-08
2.2498560602e-08
5.13178356279e-08
4.65936635447e-07
1.8875171058e-06
2.28139476072e-06
2.72169195244e-06
3.18203055823e-06
3.58957674091e-06
3.90536738968e-06
4.11322465519e-06
4.20876272106e-06
4.192293309e-06
4.06320984218e-06
3.81405410747e-06
3.42743719645e-06
2.89294889971e-06
2.27161549378e-06
1.76694551766e-06
1.55731767269e-06
1.69494347014e-08
2.0701178457e-08
3.90646489327e-08
2.22009563857e-07
1.86794176746e-06
2.45870782011e-06
2.92032967468e-06
3.37408306957e-06
3.76171316003e-06
4.05272292664e-06
4.23575437647e-06
4.30916589575e-06
4.27485555597e-06
4.13283737726e-06
3.87459617148e-06
3.47828864428e-06
2.92479864534e-06
2.26873115526e-06
1.72785263155e-06
1.5187396324e-06
1.6098109482e-08
1.92671529355e-08
3.50951255186e-08
1.44492310345e-07
1.60984226686e-06
2.64158583887e-06
3.12086093905e-06
3.56233620139e-06
3.92705882736e-06
4.19215176953e-06
4.3505159338e-06
4.40301625542e-06
4.35305598203e-06
4.20119626193e-06
3.93756923514e-06
3.53499763379e-06
2.96399115237e-06
2.27085654182e-06
1.68689912305e-06
1.47123676372e-06
1.54464289035e-08
1.82083028012e-08
3.18612541255e-08
1.24143109669e-07
1.08743123753e-06
2.8042700298e-06
3.31957039968e-06
3.74441740583e-06
4.08384456067e-06
4.32231587676e-06
4.45663193008e-06
4.49005566422e-06
4.42750252158e-06
4.27000815472e-06
4.00586051789e-06
3.60121736336e-06
3.01417764735e-06
2.28130542379e-06
1.64742032624e-06
1.41640082742e-06
1.4962978647e-08
1.74363844435e-08
2.94600104282e-08
9.50267532832e-08
6.01680622564e-07
2.86801353462e-06
3.51294423631e-06
3.91881865518e-06
4.23105879048e-06
4.44239117935e-06
4.55344222452e-06
4.56990750599e-06
4.49833096418e-06
4.34018052512e-06
4.08121956736e-06
3.67913218226e-06
3.077251343e-06
2.30164267109e-06
1.61159243316e-06
1.35606131888e-06
1.46248326525e-08
1.69083887154e-08
2.78834426543e-08
7.99123257909e-08
3.61357780147e-07
2.65280051934e-06
3.69425500648e-06
4.08428621315e-06
4.3680561041e-06
4.5515553229e-06
4.63954759427e-06
4.64025595125e-06
4.56202083058e-06
4.40683622445e-06
4.15749248385e-06
3.76170946048e-06
3.14616529713e-06
2.3262260477e-06
1.57691994176e-06
1.29056037692e-06
1.44008319619e-08
1.65930279916e-08
2.69417281996e-08
7.44534158061e-08
2.8111157915e-07
2.01604356169e-06
3.83847243739e-06
4.23872543441e-06
4.49414227417e-06
4.64885619631e-06
4.71268274134e-06
4.6964343967e-06
4.61037211002e-06
4.45742277286e-06
4.21798852252e-06
3.83020071916e-06
3.20405170155e-06
2.34378842396e-06
1.53993681278e-06
1.22111168303e-06
1.42718961044e-08
1.64629758088e-08
2.6474709487e-08
6.81152605661e-08
2.48264833413e-07
1.26057618902e-06
3.8687106247e-06
4.37802715624e-06
4.6085354287e-06
4.73393823506e-06
4.77107504595e-06
4.73333297031e-06
4.6327043382e-06
4.47364136835e-06
4.23652205679e-06
3.85435479766e-06
3.22474063552e-06
2.34016849153e-06
1.49630224355e-06
1.14937687553e-06
1.42283453907e-08
1.65019318783e-08
2.63212928335e-08
6.17810651684e-08
1.93267722536e-07
7.72549790879e-07
3.64502310679e-06
4.49233327901e-06
4.70955240591e-06
4.80696819775e-06
4.81380788588e-06
4.74605276653e-06
4.61641301406e-06
4.43077358136e-06
4.17356290351e-06
3.78403373851e-06
3.16120361164e-06
2.28569064378e-06
1.43572936765e-06
1.07526176315e-06
1.42635104976e-08
1.66843896418e-08
2.64052365999e-08
5.64960955694e-08
1.48247197586e-07
5.32154112735e-07
3.06595796514e-06
4.55675552218e-06
4.79257838438e-06
4.86786440714e-06
4.84195090013e-06
4.73494954819e-06
4.55978168893e-06
4.32335684096e-06
4.01748633399e-06
3.60030549961e-06
2.99279512247e-06
2.16936819917e-06
1.36308510162e-06
1.00859515061e-06
1.43669337545e-08
1.69778564895e-08
2.66767022878e-08
5.25909516617e-08
1.24880587316e-07
4.04928514634e-07
2.23479735321e-06
4.5150838583e-06
4.84539362169e-06
4.9116242305e-06
4.8537356365e-06
4.70066478045e-06
4.46779569216e-06
4.16469955306e-06
3.79312119453e-06
3.33691080576e-06
2.75419884069e-06
2.02475084033e-06
1.3094527151e-06
9.6756120701e-07
1.45126608394e-08
1.7336587044e-08
2.70779561952e-08
4.99130308707e-08
1.05036849318e-07
3.22230974322e-07
1.40710600008e-06
4.26109324219e-06
4.83259363773e-06
4.90474850877e-06
4.81036165588e-06
4.59616257557e-06
4.28654442711e-06
3.900196136e-06
3.45564589735e-06
2.970183094e-06
2.45057490099e-06
1.8901253549e-06
1.33666609009e-06
9.94985089331e-07
1.4659613999e-08
1.77189145574e-08
2.75728940227e-08
4.83012543198e-08
9.06647131887e-08
2.44467549647e-07
8.0400364415e-07
3.63455960324e-06
4.65723006574e-06
4.72406012539e-06
4.55323241736e-06
4.23029488791e-06
3.80515081033e-06
3.32335873225e-06
2.8387408224e-06
2.41667802596e-06
2.1149110169e-06
1.91486141258e-06
1.6669565269e-06
1.27062916221e-06
1.47713593134e-08
1.80730476517e-08
2.81127655004e-08
4.7865284271e-08
8.22221523537e-08
1.56414064816e-07
4.6750321831e-07
2.53932676709e-06
4.14557672043e-06
4.16267264954e-06
3.85483274701e-06
3.40865498048e-06
2.92669190503e-06
2.49396316161e-06
2.18665090697e-06
2.07550208461e-06
2.22053678731e-06
2.60985980178e-06
2.97541314305e-06
2.56919570209e-06
1.48124516191e-08
1.8295208027e-08
2.85974637049e-08
4.84141603018e-08
7.80391016967e-08
1.23760392222e-07
3.03085396275e-07
1.32349073771e-06
3.23978841664e-06
3.27499424118e-06
2.91456257905e-06
2.53224100566e-06
2.24115646297e-06
2.09035867032e-06
2.09683016249e-06
2.27130448137e-06
2.63766588985e-06
3.31143718234e-06
4.63392656479e-06
6.65533091724e-06
1.47296799496e-08
1.82240677639e-08
2.87925528496e-08
4.93014430973e-08
7.634475347e-08
1.08081314574e-07
2.10144412938e-07
5.42622801469e-07
2.1207737841e-06
2.46168342197e-06
2.21751910075e-06
2.02851331141e-06
1.95735686464e-06
1.99561693549e-06
2.13692624164e-06
2.35873598652e-06
2.6518418e-06
3.03709678308e-06
3.62850177144e-06
4.97729006931e-06
1.44881275546e-08
1.76780159575e-08
2.81929576523e-08
4.96002977432e-08
7.62125586738e-08
9.91539378326e-08
1.22219621124e-07
2.42893458041e-07
9.68903367456e-07
1.76649523633e-06
1.67017012181e-06
1.58071628523e-06
1.59974980846e-06
1.7265957241e-06
1.93013395685e-06
2.17984512859e-06
2.46805505763e-06
2.79833493734e-06
3.20751823482e-06
3.88152367585e-06
1.4139659649e-08
1.67258820773e-08
2.61926771133e-08
4.78497287504e-08
7.59097247878e-08
9.4299288372e-08
1.014419218e-07
1.40403511479e-07
2.55250426673e-07
8.81085074318e-07
1.04133853055e-06
1.01722369511e-06
1.10658377952e-06
1.27754560856e-06
1.43032168585e-06
1.61333675939e-06
2.07684081114e-06
2.54041185582e-06
2.96716715359e-06
3.53627552255e-06
1.37103872901e-08
1.57920433269e-08
2.36712396468e-08
4.2650477361e-08
7.03407794407e-08
9.212600189e-08
9.30988537527e-08
8.16105573209e-08
9.56790547962e-08
1.49116408357e-07
3.96685684492e-07
5.16067569367e-07
6.38628187137e-07
6.38288112394e-07
3.4122707999e-07
2.54206441683e-07
4.27917607078e-07
1.48327706255e-06
2.72466627264e-06
3.32621144839e-06
1.31903852359e-08
1.48115949313e-08
2.11278766343e-08
3.65994057037e-08
6.06278615449e-08
8.3344853905e-08
9.16343276102e-08
8.27462701471e-08
6.16636292371e-08
5.034106488e-08
4.84818561653e-08
1.10844172182e-07
1.72748127182e-07
1.41363525535e-07
1.09560340956e-07
1.00639840646e-07
1.28293539031e-07
2.84395906578e-07
1.05351872177e-06
3.095599412e-06
1.26216919162e-08
1.37740653275e-08
1.86658490382e-08
3.07295389402e-08
5.04390399899e-08
7.19944010505e-08
8.55865397206e-08
8.6400023452e-08
7.65515825975e-08
6.40044420966e-08
5.65348546999e-08
5.67996056042e-08
5.31022051089e-08
5.45847780724e-08
5.74884678749e-08
6.12052916903e-08
6.87627413446e-08
1.66528665103e-07
2.46633807444e-07
2.59509021332e-06
1.20881690238e-08
1.27281277134e-08
1.64184631259e-08
2.57783608276e-08
4.19015389288e-08
6.11599702783e-08
7.53362253879e-08
8.07481562879e-08
7.90388785473e-08
7.44001676509e-08
7.14565720416e-08
7.15357707098e-08
7.04169146617e-08
6.44087770009e-08
5.8421835381e-08
5.03821436458e-08
3.40601952012e-08
1.28015979738e-07
2.17993166901e-07
1.20853495765e-06
1.17248621783e-08
1.17579411007e-08
1.44823979171e-08
2.18618617457e-08
3.5188774603e-08
5.16467343634e-08
6.47615505058e-08
7.18074192691e-08
7.35222033935e-08
7.22171169673e-08
7.03846470914e-08
6.86827863257e-08
6.64067926848e-08
6.37691695605e-08
6.1528028682e-08
5.73708043443e-08
2.02489696313e-08
1.06523802234e-07
2.0240803184e-07
5.97315951326e-07
1.16855618676e-08
1.1103275692e-08
1.29226962104e-08
1.87545796262e-08
2.96617851121e-08
4.35058472941e-08
5.51382411432e-08
6.24026027588e-08
6.57433028664e-08
6.64706059822e-08
6.59636400672e-08
6.4688178072e-08
6.29739182712e-08
6.15531610818e-08
5.9188039988e-08
5.45489360556e-08
1.64474333563e-08
9.19929381097e-08
1.96476456041e-07
5.75499162044e-07
)
;

boundaryField
{
    emptyPatch
    {
        type            empty;
    }
    minY
    {
        type            zeroGradient;
    }
    maxY
    {
        type            calculated;
        value           nonuniform List<scalar> 0();
    }
    maxX
    {
        type            compressible::alphatPhaseChangeJayatillekeWallFunction;
        Prt             0.85;
        Cmu             0.09;
        kappa           0.41;
        E               9.8;
        dmdt            uniform 0;
        value           nonuniform List<scalar> 
38
(
0
0
0
0
0
0
0
0
0
0
0
0
0
0
0
0
0
0
0
0
0
0
0
0
0
0
0
0
0
5.04241875323e-06
3.90715119225e-06
2.88493185105e-06
2.33001139296e-06
4.45910250463e-07
1.01971610723e-06
1.68539389223e-06
1.55563050124e-06
1.11071631908e-06
)
;
    }
    water_to_heater
    {
        type            compressible::alphatWallBoilingWallFunction;
        phaseType       vapor;
        relax           constant 1;
        partitioningModel
        {
            type            Lavieville;
            alphaCrit       0.2;
        }
        otherPhase      liquid;
        dmdt            uniform 0;
        dDep            uniform 1e-05;
        qQuenching      uniform 0;
        alphatConv      uniform 0;
        value           nonuniform List<scalar> 
60
(
2.46379149582e-07
2.46379149582e-07
2.5750689331e-07
2.46379149582e-07
2.53235257271e-07
2.53235257271e-07
2.46379149582e-07
2.46379149582e-07
2.49207662848e-07
2.49207662848e-07
2.46379149582e-07
2.47055700785e-07
2.33152046298e-07
2.33152046298e-07
1.61400106474e-07
1.61400106474e-07
7.13907931956e-08
7.13907931956e-08
3.47407482535e-08
3.6796526147e-08
7.839155067e-08
7.839155067e-08
2.01347495774e-07
2.01347495774e-07
2.26599554912e-07
2.26599554912e-07
2.13644354643e-07
2.38426015706e-07
2.17232465684e-07
2.17232465684e-07
2.36767952577e-07
2.36767952577e-07
2.16609426788e-07
2.16609426788e-07
2.32134937662e-07
2.12203170152e-07
2.1874897415e-07
2.1874897415e-07
2.11113389396e-07
2.11113389396e-07
1.61303240871e-07
1.61303240871e-07
7.55293739246e-08
3.82421807069e-08
3.11386641047e-08
3.11386641047e-08
4.15743847481e-08
4.15743847481e-08
1.2348043781e-07
1.2348043781e-07