/*--------------------------------*- C++ -*----------------------------------*\
| =========                 |                                                 |
| \\      /  F ield         | OpenFOAM: The Open Source CFD Toolbox           |
|  \\    /   O peration     | Version:  2312                                  |
|   \\  /    A nd           | Website:  www.openfoam.com                      |
|    \\/     M anipulation  |                                                 |
\*---------------------------------------------------------------------------*/
FoamFile
{
    version     2.0;
    format      ascii;
    arch        "LSB;label=32;scalar=64";
    class       volScalarField;
    location    "0.85/water";
    object      nut.gas;
}
// * * * * * * * * * * * * * * * * * * * * * * * * * * * * * * * * * * * * * //

dimensions      [0 2 -1 0 0 0 0];

internalField   nonuniform List<scalar> 
1504
(
4.47189074132e-06
3.54143317493e-06
2.67804226241e-06
2.05668780049e-06
1.64982946106e-06
1.35750835683e-06
1.13006566449e-06
9.51967793567e-07
7.69309797128e-07
5.40976863421e-07
3.03872443685e-07
1.28190183773e-07
4.85242461928e-08
2.86461509915e-08
2.67519991661e-08
2.72987040484e-08
2.67379868153e-08
2.60099780458e-08
2.68995601084e-08
5.74496093025e-08
4.16127751284e-06
3.28875419258e-06
2.58363415025e-06
2.08726135583e-06
1.71890163977e-06
1.40239890584e-06
1.13927400386e-06
9.3207647929e-07
7.28261184706e-07
5.04498020993e-07
2.89001018124e-07
1.29743995186e-07
5.25057688343e-08
3.00327498441e-08
2.68634394017e-08
2.71092126943e-08
2.65264084982e-08
2.59055239677e-08
2.65260354875e-08
4.6626225276e-08
3.82364675378e-06
3.19317196906e-06
2.71536462384e-06
2.28915202148e-06
1.86327916191e-06
1.45930097194e-06
1.13690701743e-06
8.98515758343e-07
6.90396261848e-07
4.83811330361e-07
2.88681288538e-07
1.3900900671e-07
5.90139705475e-08
3.20097880875e-08
2.69817249301e-08
2.6736289108e-08
2.6215387777e-08
2.56214551771e-08
2.62749289093e-08
3.36804856903e-08
3.94946104415e-06
3.64705933716e-06
3.22140772767e-06
2.63766291805e-06
2.01301141484e-06
1.48684983466e-06
1.11559485233e-06
8.67558915211e-07
6.72920256443e-07
4.86946639974e-07
3.06118276034e-07
1.57565458816e-07
6.89880268377e-08
3.489223618e-08
2.72094627458e-08
2.62932372004e-08
2.5873534658e-08
2.52861645756e-08
2.5999616732e-08
2.89478188162e-08
4.80141090771e-06
4.55404871105e-06
3.85580719536e-06
2.93346943059e-06
2.11334319557e-06
1.51311252553e-06
1.11494476329e-06
8.6570930988e-07
6.86830162099e-07
5.18828353322e-07
3.46558175702e-07
1.91120630638e-07
8.58727287837e-08
3.97952141843e-08
2.78879278212e-08
2.59952668228e-08
2.55982491865e-08
2.50700616049e-08
2.56694027439e-08
2.79469566577e-08
6.03258519461e-06
5.48079165468e-06
4.33453958644e-06
3.16082198476e-06
2.27180049415e-06
1.62853098168e-06
1.18941397174e-06
9.16519987557e-07
7.37723245217e-07
5.82111373315e-07
4.16394614999e-07
2.48789370824e-07
1.16159970841e-07
4.90288556468e-08
2.96411257004e-08
2.61416981937e-08
2.55408046176e-08
2.50831044872e-08
2.54178500347e-08
2.71376225795e-08
6.68956892658e-06
5.8494547192e-06
4.57464818327e-06
3.43104294116e-06
2.55277277555e-06
1.86468488397e-06
1.36231664758e-06
1.0296968569e-06
8.21132725161e-07
6.67115976502e-07
5.10631950086e-07
3.3422252353e-07
1.66869443245e-07
6.58198653162e-08
3.34305958479e-08
2.70000896034e-08
2.59193226861e-08
2.53553305895e-08
2.53014109574e-08
2.6477863271e-08
6.39252410424e-06
5.75942646625e-06
4.63666662508e-06
3.65609064882e-06
2.87120780946e-06
2.16251788549e-06
1.58413265479e-06
1.17543213985e-06
9.18198913594e-07
7.51389424513e-07
6.04726559118e-07
4.30638223936e-07
2.3446865882e-07
9.15613751582e-08
3.96771964937e-08
2.86757714214e-08
2.6742365265e-08
2.5821560004e-08
2.53508610074e-08
2.6050740134e-08
6.05184434453e-06
5.63748961201e-06
4.63174801177e-06
3.73125091166e-06
3.03892288706e-06
2.40058202647e-06
1.78774435208e-06
1.30738396452e-06
1.00339850007e-06
8.1723103496e-07
6.76222696077e-07
5.11918522402e-07
3.01369010165e-07
1.21988754907e-07
4.76929867865e-08
3.06921111771e-08
2.76329114563e-08
2.6371131256e-08
2.55969529552e-08
2.58754648061e-08
5.86174032233e-06
5.5549730724e-06
4.5998323428e-06
3.74375470297e-06
3.10655609437e-06
2.50235168528e-06
1.90138139082e-06
1.40051333475e-06
1.06790515734e-06
8.63470177334e-07
7.2237402575e-07
5.67191754032e-07
3.53277322523e-07
1.50520805672e-07
5.6358638157e-08
3.26507999121e-08
2.83186202263e-08
2.68743357815e-08
2.59738175759e-08
2.59466625959e-08
5.70945178885e-06
5.47627522638e-06
4.56829099774e-06
3.74707401871e-06
3.13518028354e-06
2.53623024158e-06
1.94519235098e-06
1.45742678165e-06
1.11686609432e-06
8.98400527769e-07
7.51339585148e-07
5.98769949423e-07
3.85948609693e-07
1.73275115068e-07
6.49135400723e-08
3.46159623505e-08
2.87650875633e-08
2.72583362459e-08
2.6411566365e-08
2.62276028728e-08
5.63856048487e-06
5.44650330248e-06
4.56837708993e-06
3.76091694044e-06
3.14757253704e-06
2.54197149181e-06
1.96540963356e-06
1.50116377119e-06
1.16076901536e-06
9.3049536952e-07
7.73157067358e-07
6.14888525267e-07
4.00437416681e-07
1.86054936998e-07
7.14662553266e-08
3.6473355322e-08
2.90528000653e-08
2.75063486495e-08
2.68527532152e-08
2.6657510317e-08
5.61198183426e-06
5.46929339424e-06
4.60477103911e-06
3.78381598014e-06
3.14991767263e-06
2.54142480816e-06
1.98988541213e-06
1.54209337922e-06
1.2008839833e-06
9.60494163135e-07
7.90638583986e-07
6.21064863009e-07
4.02081095596e-07
1.89670392631e-07
7.47839012014e-08
3.7666673856e-08
2.91535453149e-08
2.76149875813e-08
2.72461635899e-08
2.71648900432e-08
5.64906487636e-06
5.55097235114e-06
4.6788264944e-06
3.81712882247e-06
3.14709668318e-06
2.53916550467e-06
2.01367333137e-06
1.57591125452e-06
1.23205201485e-06
9.84507083274e-07
8.01790401773e-07
6.18795244175e-07
3.94207149651e-07
1.86452648571e-07
7.53419783658e-08
3.81492246446e-08
2.90801098441e-08
2.75774632306e-08
2.75456042541e-08
2.76777233179e-08
5.71093900417e-06
5.66849008013e-06
4.76788415051e-06
3.84577241235e-06
3.13968052055e-06
2.53870184412e-06
2.02276599853e-06
1.5881650422e-06
1.2462067582e-06
9.97149006366e-07
8.03984202374e-07
6.08293687923e-07
3.78596432836e-07
1.78331319076e-07
7.38254898771e-08
3.8007355609e-08
2.88413453997e-08
2.74076461056e-08
2.77282173123e-08
2.8139364864e-08
5.82891501499e-06
5.81463119426e-06
4.85116971104e-06
3.86032014452e-06
3.11636944344e-06
2.51054581538e-06
1.99372126198e-06
1.56768865383e-06
1.23926278754e-06
9.95695897839e-07
7.95968873373e-07
5.8913633659e-07
3.5635391892e-07
1.66889483895e-07
7.09060660477e-08
3.73828838573e-08
2.84592505716e-08
2.71240657091e-08
2.77832532493e-08
2.85140122095e-08
5.96634425949e-06
5.95767472503e-06
4.9054501433e-06
3.85034336384e-06
3.04772356255e-06
2.42060361518e-06
1.91547886723e-06
1.51613768776e-06
1.21417543243e-06
9.81049212159e-07
7.77779423161e-07
5.60931427622e-07
3.28940589813e-07
1.53740557523e-07
6.72603176924e-08
3.64586538773e-08
2.79753560896e-08
2.67515464866e-08
2.76995725511e-08
2.87628258937e-08
6.06425526135e-06
5.99844485299e-06
4.90064400631e-06
3.76851919364e-06
2.90813282346e-06
2.2781086898e-06
1.80542942261e-06
1.44948994819e-06
1.17869552383e-06
9.56458019137e-07
7.4999956777e-07
5.24112883136e-07
2.98837899697e-07
1.40608749581e-07
6.35496524847e-08
3.54390265059e-08
2.74513696891e-08
2.63147535007e-08
2.74603578505e-08
2.88393300093e-08
6.00849507559e-06
5.87695349186e-06
4.78082459705e-06
3.63007207561e-06
2.7455750852e-06
2.12747468995e-06
1.6970421701e-06
1.38615871987e-06
1.14034463799e-06
9.25681832834e-07
7.12715438096e-07
4.80917529863e-07
2.69515599609e-07
1.29128298057e-07
6.03770819382e-08
3.45372600363e-08
2.69625684861e-08
2.58372861587e-08
2.70500427528e-08
2.87033915747e-08
5.83012787867e-06
5.64050379624e-06
4.61555400381e-06
3.4779343042e-06
2.59395630599e-06
2.00044588952e-06
1.61333757319e-06
1.33579197565e-06
1.1052112923e-06
8.90615642762e-07
6.66211004078e-07
4.3636463791e-07
2.44713796684e-07
1.20640726064e-07
5.82852296569e-08
3.39750418342e-08
2.65926204515e-08
2.53463739355e-08
2.64804759382e-08
2.83618200629e-08
5.53996916512e-06
5.32201976706e-06
4.36537762886e-06
3.27791931743e-06
2.44543070341e-06
1.90587337001e-06
1.56106534529e-06
1.30595527282e-06
1.07854552922e-06
8.49427133349e-07
6.14734206906e-07
3.9793259816e-07
2.27617987832e-07
1.16237387856e-07
5.78353736128e-08
3.40120406891e-08
2.64407737681e-08
2.48911887337e-08
2.58053604131e-08
2.78594626827e-08
5.14165671511e-06
4.83610642478e-06
3.97068605775e-06
3.02288043161e-06
2.31730806248e-06
1.85867162223e-06
1.55448785705e-06
1.30557917669e-06
1.0549188828e-06
8.01058595469e-07
5.68439647555e-07
3.72455917467e-07
2.20273477798e-07
1.16920467731e-07
5.97225861272e-08
3.49932163782e-08
2.66282566961e-08
2.45545549697e-08
2.51172090143e-08
2.72744850339e-08
4.62966308161e-06
4.22471485869e-06
3.55277396349e-06
2.83700602509e-06
2.28368157968e-06
1.8998282895e-06
1.60785912412e-06
1.32074390191e-06
1.02199151027e-06
7.55546386179e-07
5.39903947709e-07
3.6464778056e-07
2.24574972235e-07
1.24002544907e-07
6.44842367776e-08
3.70030120875e-08
2.71513892628e-08
2.44003302669e-08
2.45192029946e-08
2.667740488e-08
4.36865512074e-06
3.93036298857e-06
3.44074334797e-06
2.89574280218e-06
2.41977632132e-06
2.03651164069e-06
1.6889357656e-06
1.32797774162e-06
9.91700210409e-07
7.31075414247e-07
5.35695509514e-07
3.75735377395e-07
2.41260427243e-07
1.38034175412e-07
7.23886878569e-08
4.01385926017e-08
2.80557723113e-08
2.4479513658e-08
2.40757518148e-08
2.61363033432e-08
4.54467970798e-06
4.25664045166e-06
3.79617260237e-06
3.21584926069e-06
2.67178929195e-06
2.21527994357e-06
1.78080131266e-06
1.34778776269e-06
9.87496591013e-07
7.35947282825e-07
5.56861321601e-07
4.07523507522e-07
2.73706635586e-07
1.62241871921e-07
8.53117504853e-08
4.50698227588e-08
2.95125005875e-08
2.48058022821e-08
2.38961959172e-08
2.57290045391e-08
5.31952794531e-06
5.01456595712e-06
4.38686179696e-06
3.63235929035e-06
2.98552739279e-06
2.45907511976e-06
1.94172767245e-06
1.43894993949e-06
1.04215085408e-06
7.80954983687e-07
6.06806022944e-07
4.64963878224e-07
3.29248177853e-07
2.03650518567e-07
1.07402520818e-07
5.32272258656e-08
3.18546975951e-08
2.54119599806e-08
2.40264062665e-08
2.54757321241e-08
6.3208154138e-06
5.78902947823e-06
4.8974685566e-06
4.00001828903e-06
3.32693401908e-06
2.79157729572e-06
2.22705308936e-06
1.65561581088e-06
1.19105481955e-06
8.82782759263e-07
6.87481838533e-07
5.48208023586e-07
4.13856091106e-07
2.71747912735e-07
1.456776557e-07
6.72351291123e-08
3.56871301535e-08
2.63873729489e-08
2.43799231167e-08
2.55111457089e-08
6.54609357679e-06
5.88453236623e-06
4.96553844807e-06
4.13726272348e-06
3.54424198609e-06
3.08444252946e-06
2.55518307866e-06
1.95761777428e-06
1.42336825373e-06
1.04602402902e-06
7.94443961465e-07
6.41261441008e-07
5.16128937637e-07
3.66727422924e-07
2.06102605263e-07
9.04893896234e-08
4.18235382477e-08
2.78417683183e-08
2.47926132697e-08
2.58428355524e-08
5.97582858636e-06
5.75736476556e-06
4.9479798922e-06
4.14899187556e-06
3.59718901867e-06
3.21134395264e-06
2.78366838994e-06
2.2470605238e-06
1.67548292623e-06
1.23365352503e-06
9.10700780537e-07
7.2367329148e-07
6.07145006332e-07
4.66914190025e-07
2.82140306736e-07
1.23705296575e-07
5.07245135013e-08
2.97821527058e-08
2.51287846486e-08
2.60470121271e-08
5.62549070653e-06
5.62709309629e-06
4.89452938489e-06
4.11975999158e-06
3.59766692014e-06
3.25034898213e-06
2.88668079655e-06
2.42370250202e-06
1.89622787792e-06
1.41860651957e-06
1.01914024718e-06
7.88783931499e-07
6.71688430222e-07
5.48950771309e-07
3.5700382121e-07
1.62413943882e-07
6.19570790311e-08
3.21187419924e-08
2.53400959775e-08
2.59643288906e-08
5.37220706423e-06
5.46444886864e-06
4.80135606721e-06
4.07166597397e-06
3.58017663321e-06
3.25618636835e-06
2.92753636468e-06
2.50991986028e-06
2.01560814026e-06
1.52919438199e-06
1.10686678377e-06
8.41569188604e-07
7.14041151498e-07
6.0642980918e-07
4.2014437106e-07
2.01993722778e-07
7.51491513916e-08
3.49511233103e-08
2.55672504896e-08
2.57398014508e-08
5.17460026118e-06
5.29743780392e-06
4.69001392292e-06
4.00797574045e-06
3.54651159415e-06
3.23935224858e-06
2.92902329757e-06
2.5357970685e-06
2.0647515822e-06
1.58591040963e-06
1.16496910486e-06
8.86284951378e-07
7.47377488766e-07
6.44672260254e-07
4.66236642816e-07
2.37926159863e-07
9.01506824577e-08
3.87153532555e-08
2.61009574537e-08
2.56170706476e-08
4.99502864695e-06
5.14321107606e-06
4.58231170809e-06
3.94123071124e-06
3.50383368253e-06
3.20733778424e-06
2.90430347505e-06
2.52138170844e-06
2.06517040802e-06
1.60130852516e-06
1.19771423653e-06
9.23536191396e-07
7.79990285441e-07
6.7571767778e-07
4.98762087501e-07
2.64776316486e-07
1.03393181992e-07
4.27641309394e-08
2.7023053372e-08
2.58665667848e-08
4.83019793713e-06
5.0053100381e-06
4.49251603803e-06
3.88542319381e-06
3.46121709976e-06
3.1655973815e-06
2.86023516883e-06
2.47683144397e-06
2.02937258562e-06
1.58643352354e-06
1.21077363822e-06
9.53301731805e-07
8.12153991321e-07
7.03340434168e-07
5.21647106502e-07
2.82788856975e-07
1.13437003319e-07
4.64107009088e-08
2.8103984272e-08
2.63971937869e-08
4.66444105739e-06
4.88867744314e-06
4.43660669902e-06
3.85210141237e-06
3.42085496446e-06
3.11103239632e-06
2.79412885748e-06
2.40396155017e-06
1.96583175375e-06
1.55109254426e-06
1.20990620887e-06
9.76688902131e-07
8.42910874106e-07
7.27560891639e-07
5.36105535415e-07
2.92724616625e-07
1.20129374178e-07
4.94828748496e-08
2.92532562014e-08
2.69567959493e-08
4.53327406977e-06
4.85843637162e-06
4.46592957659e-06
3.84729901693e-06
3.36936611907e-06
3.02787370973e-06
2.69387653474e-06
2.30062199709e-06
1.88142606141e-06
1.50284010398e-06
1.20009109092e-06
9.95620505901e-07
8.71724154642e-07
7.47081385386e-07
5.41999794055e-07
2.9541966135e-07
1.23868180878e-07
5.20533735321e-08
3.04648167505e-08
2.74357119508e-08
4.6302208194e-06
5.05056904917e-06
4.5844764192e-06
3.82243139292e-06
3.26798184902e-06
2.89473394699e-06
2.55013741148e-06
2.16829392745e-06
1.78297194331e-06
1.44724024336e-06
1.1865107242e-06
1.01346171633e-06
8.98878826023e-07
7.60330158288e-07
5.39224024492e-07
2.923852445e-07
1.25676719228e-07
5.44932516035e-08
3.18769531993e-08
2.78670752814e-08
4.82325855735e-06
5.31655720873e-06
4.60767296247e-06
3.68431276079e-06
3.08395565496e-06
2.70625392123e-06
2.37122684397e-06
6.80834301138e-06
4.98091514209e-06
3.30001104754e-06
2.23345080952e-06
1.8036946424e-06
1.87220464531e-06
2.27837056415e-06
2.83006355293e-06
3.35348215185e-06
3.74957174939e-06
3.97460253769e-06
4.0126395206e-06
3.86586346853e-06
3.56116286424e-06
3.16809363284e-06
2.80010920613e-06
2.60497919289e-06
1.04610741661e-06
4.61237981818e-06
6.80287162274e-06
6.13192625842e-06
4.43691103634e-06
2.95364591842e-06
2.09398657896e-06
1.82816583673e-06
2.01111790138e-06
2.47799860088e-06
3.03846702525e-06
3.54052585009e-06
3.90388915354e-06
4.09374304346e-06
4.09794203173e-06
3.92025676501e-06
3.58901594905e-06
3.17831961722e-06
2.80643084455e-06
2.59227359148e-06
6.19140375377e-07
3.52697934331e-06
5.97685273545e-06
5.49412517542e-06
3.95688480938e-06
2.67774181039e-06
2.01082745751e-06
1.89162868007e-06
2.1735361729e-06
2.68617267623e-06
3.24638355617e-06
3.72417805168e-06
4.05469676174e-06
4.21025076253e-06
4.18175258843e-06
3.97416643491e-06
3.61674712965e-06
3.18808642849e-06
2.81562464418e-06
2.59392864342e-06
3.05434769995e-07
2.51673891768e-06
5.15736881295e-06
4.90515182438e-06
3.54516997271e-06
2.46798772785e-06
1.97734260689e-06
1.98895000528e-06
2.35496323431e-06
2.8999939469e-06
3.4529861083e-06
3.90459401346e-06
4.20247059702e-06
4.32465137288e-06
4.26455131302e-06
4.02803250455e-06
3.64472356652e-06
3.19713265422e-06
2.82587370904e-06
2.61064826414e-06
1.20808831027e-07
1.67178150525e-06
4.35304886271e-06
4.37175358301e-06
3.20174650179e-06
2.31812683675e-06
1.98739264e-06
2.1155709897e-06
2.55154308116e-06
3.11747669187e-06
3.65801869318e-06
4.08221845046e-06
4.34783162842e-06
4.43752574117e-06
4.34680554472e-06
4.08224351547e-06
3.67331410909e-06
3.20534931997e-06
2.83521143796e-06
2.64246477262e-06
6.10520091673e-08
9.96130114094e-07
3.56961400363e-06
3.89673820005e-06
2.92335908612e-06
2.22149943979e-06
2.03583753882e-06
2.26763466528e-06
2.76028253147e-06
3.33754651496e-06
3.86174440127e-06
4.25776228883e-06
4.49152733279e-06
4.54948805844e-06
4.42894168593e-06
4.13710211426e-06
3.70286167377e-06
3.21282456756e-06
2.8414942273e-06
2.6877232586e-06
4.40111265535e-08
4.3558724911e-07
2.79639525744e-06
3.47860000176e-06
2.70483434874e-06
2.17215487878e-06
2.11880559896e-06
2.44218187303e-06
2.97926000983e-06
3.56001922463e-06
4.06490253267e-06
4.43216776236e-06
4.63439401354e-06
4.66114625813e-06
4.51130515716e-06
4.1927779324e-06
3.73363763387e-06
3.21989519532e-06
2.84279351208e-06
2.74230302739e-06
3.16704023789e-08
1.4253999255e-07
1.99409223384e-06
3.111160029e-06
2.54037346368e-06
2.16560875078e-06
2.23382714871e-06
2.63729960535e-06
3.20766240499e-06
3.78545052765e-06
4.26857011625e-06
4.60649217675e-06
4.77726191388e-06
4.7730330363e-06
4.59411812313e-06
4.24927796349e-06
3.76579353505e-06
3.227161178e-06
2.83787163319e-06
2.79915666525e-06
2.9434969246e-08
7.75209588629e-08
1.12968148337e-06
2.7817658216e-06
2.42495618749e-06
2.19926533444e-06
2.37972975108e-06
2.85200820661e-06
3.44550742782e-06
4.01478268504e-06
4.47388251509e-06
4.78169717686e-06
4.92080409675e-06
4.8855081483e-06
4.67742550354e-06
4.30640820175e-06
3.79929276077e-06
3.23539873091e-06
2.82659966931e-06
2.84872473653e-06
2.79582634323e-08
4.92132577089e-08
4.4187566704e-07
2.45432731013e-06
2.35534734642e-06
2.27229357983e-06
2.55611088088e-06
3.08576216995e-06
3.69305484404e-06
4.24883124522e-06
4.68166671548e-06
4.95839991453e-06
5.06538147803e-06
4.99867935855e-06
4.76107746539e-06
4.36379252295e-06
3.83388468095e-06
3.24542984999e-06
2.81017523198e-06
2.8807260851e-06
2.70373631263e-08
3.68564080407e-08
1.81536526329e-07
2.03296639122e-06
2.32980484984e-06
2.38481912699e-06
2.76241858125e-06
3.33771006452e-06
3.9501398403e-06
4.48782507754e-06
4.8921722599e-06
5.13673869081e-06
5.21099963114e-06
5.11241849749e-06
4.8447817279e-06
4.42093608483e-06
3.869119354e-06
3.25794098654e-06
2.79095399958e-06
2.88701325983e-06
2.66154007365e-08
3.23678315588e-08
1.13157829546e-07
1.45368533499e-06
2.34444510824e-06
2.53675429796e-06
2.99716864014e-06
3.60624943294e-06
4.2159067518e-06
4.73135264639e-06
5.10515134e-06
5.31651736783e-06
5.35747328983e-06
5.22651922515e-06
4.92824660962e-06
4.47736369081e-06
3.90445259844e-06
3.27341402168e-06
2.77206089273e-06
2.86432768637e-06
2.66509281981e-08
2.98970826194e-08
8.55626264009e-08
8.67111958065e-07
2.38543418076e-06
2.72709886605e-06
3.25804156449e-06
3.88938215558e-06
4.48922679183e-06
4.97881350222e-06
5.3202731382e-06
5.49754724626e-06
5.50468694375e-06
5.34088585809e-06
5.01132279693e-06
4.53275328748e-06
3.93940978738e-06
3.29222671291e-06
2.75707299228e-06
2.81552931241e-06
2.70715936882e-08
2.89547619773e-08
5.80245454516e-08
4.67552745092e-07
2.42119893749e-06
2.95392568427e-06
3.54264743246e-06
4.18542147441e-06
4.76926035044e-06
5.22984804968e-06
5.5374201799e-06
5.67983164671e-06
5.65269987067e-06
5.45559052002e-06
5.09403932013e-06
4.58697642143e-06
3.97364170717e-06
3.31466124664e-06
2.74961310663e-06
2.74866247372e-06
2.77294853311e-08
2.91040093423e-08
4.51138873953e-08
2.68190332623e-07
2.39147814588e-06
3.2138856793e-06
3.8487932682e-06
4.49309309802e-06
5.05544953963e-06
5.48428107949e-06
5.7566137178e-06
5.86350015587e-06
5.80170778016e-06
5.57086716798e-06
5.17661963656e-06
4.6401278339e-06
4.00699041845e-06
3.34100025973e-06
2.75329065255e-06
2.67494619027e-06
2.8449708012e-08
2.99265934983e-08
4.21764621145e-08
1.84851051747e-07
2.2073770408e-06
3.49926642091e-06
4.17396929554e-06
4.81116954516e-06
5.3472594032e-06
5.74197265066e-06
5.97796175888e-06
6.04883682778e-06
5.95212936305e-06
5.6872272811e-06
5.25959622923e-06
4.69262035641e-06
4.03956577083e-06
3.37160238095e-06
2.77174559569e-06
2.60664356087e-06
2.91095679736e-08
3.10851680257e-08
4.17752825382e-08
1.52557457864e-07
1.81362535918e-06
3.79273907396e-06
4.51509606724e-06
5.13872119875e-06
5.64451200052e-06
6.0031560898e-06
6.20197695338e-06
6.23656388115e-06
6.10484050803e-06
5.80562797222e-06
5.34390268887e-06
4.74520836472e-06
4.07174049662e-06
3.40691896805e-06
2.80878296054e-06
2.55589587476e-06
2.96260081339e-08
3.24669505684e-08
4.31265252423e-08
1.35652992251e-07
1.28638420129e-06
4.05815174482e-06
4.86796189519e-06
5.47551027473e-06
5.94782438612e-06
6.26876655917e-06
6.42980023422e-06
6.42798345479e-06
6.26125179212e-06
5.92750218431e-06
5.43087840081e-06
4.79899229728e-06
4.10419654223e-06
3.44766661194e-06
2.86898665873e-06
2.53537577227e-06
2.99736641968e-08
3.3868892934e-08
4.57321961941e-08
1.08043668441e-07
8.02378400668e-07
4.21766121594e-06
5.22338296608e-06
5.82051666243e-06
6.25791814905e-06
6.54003773181e-06
6.66295366451e-06
6.62483869279e-06
6.42324624598e-06
6.05474857398e-06
5.52229031916e-06
4.85546330148e-06
4.13802108358e-06
3.49506693081e-06
2.95859342299e-06
2.56046339467e-06
3.02197432803e-08
3.52751446896e-08
4.91954976568e-08
9.61372778256e-08
4.95425294714e-07
4.0990561564e-06
5.56017292812e-06
6.16941911816e-06
6.57488811359e-06
6.81840856905e-06
6.90347052947e-06
6.82949693779e-06
6.59333215039e-06
6.18981238075e-06
5.62032715971e-06
4.91642482593e-06
4.17461409919e-06
3.5508500324e-06
3.08617152025e-06
2.65292099138e-06
3.0468694725e-08
3.66815971564e-08
5.32730177128e-08
9.86937376289e-08
3.57027732024e-07
3.41296805466e-06
5.83016273981e-06
6.51222953506e-06
6.89810461501e-06
7.10601391706e-06
7.15433805543e-06
7.0451531351e-06
6.77458411084e-06
6.3354075437e-06
5.72717351366e-06
4.9834955801e-06
4.21520511738e-06
3.61708657161e-06
3.26424127165e-06
2.84886307703e-06
3.07415210483e-08
3.80500371755e-08
5.78534393473e-08
1.04086651048e-07
3.10930171547e-07
2.13154517912e-06
5.90021228622e-06
6.8268110476e-06
7.22322395467e-06
7.40425785181e-06
7.41856134983e-06
7.27497097633e-06
6.96974317834e-06
6.4935814151e-06
5.84409698283e-06
5.05727635744e-06
4.26022880122e-06
3.6965365037e-06
3.51436818124e-06
3.22015106238e-06
3.10146528447e-08
3.95060466043e-08
6.25954560284e-08
1.11370113071e-07
2.33849373265e-07
1.01667339284e-06
5.33391130262e-06
7.05958537254e-06
7.53522217721e-06
7.70956600612e-06
7.69632918896e-06
7.51986446543e-06
7.17926255853e-06
6.66391656929e-06
5.96972926585e-06
5.13520786693e-06
4.30496256476e-06
3.78352472003e-06
3.86329924325e-06
3.93778885551e-06
3.12460131882e-08
4.1196977472e-08
6.75144190129e-08
1.1985425987e-07
2.15402968571e-07
5.93774227545e-07
3.52716010907e-06
7.01411423015e-06
7.79879394595e-06
8.00631083447e-06
7.97935549635e-06
7.77341305326e-06
7.39635221534e-06
6.83856438541e-06
6.09457197661e-06
5.20208627331e-06
4.31080957335e-06
3.76593728572e-06
4.10574807565e-06
5.28587579846e-06
3.14222986999e-08
4.32239083939e-08
7.23370743611e-08
1.28709477087e-07
2.17773285392e-07
4.89165947442e-07
1.54589325265e-06
5.93439956321e-06
7.91924151194e-06
8.25957813651e-06
8.24314541724e-06
8.01410881911e-06
7.59940375657e-06
6.99573328462e-06
6.19888514195e-06
5.24401181866e-06
4.26988034104e-06
3.59651793639e-06
3.84097213329e-06
6.47204486244e-06
3.1584462236e-08
4.54846589592e-08
7.74033578917e-08
1.37771303949e-07
2.22500061442e-07
3.4980314383e-07
8.18486626688e-07
3.34485098295e-06
7.43326033861e-06
8.4063639236e-06
8.43826766654e-06
8.19414741673e-06
7.73968088445e-06
7.08685845554e-06
6.23902453512e-06
5.23247102278e-06
4.192160025e-06
3.37532459309e-06
3.10889293791e-06
3.49055402411e-06
3.1786192507e-08
4.76986081822e-08
8.31222586496e-08
1.47407827253e-07
2.29243040417e-07
3.3965986338e-07
6.62720751123e-07
1.43438444469e-06
5.24806729276e-06
8.2028840993e-06
8.48038722316e-06
8.22045051608e-06
7.71788767668e-06
7.01266083823e-06
6.12646595672e-06
5.10542604231e-06
4.06649546148e-06
3.2205494507e-06
2.72201625379e-06
2.35310344083e-06
3.21848015892e-08
4.99442716805e-08
8.95221462589e-08
1.56484728791e-07
2.37542719855e-07
3.36544236758e-07
4.72769217263e-07
9.29277998903e-07
2.48002697374e-06
6.6721837806e-06
8.19559864385e-06
7.94317728647e-06
7.37444326292e-06
6.62799562628e-06
5.75968801711e-06
4.84896864035e-06
4.02261423169e-06
3.36146421876e-06
2.73304660373e-06
1.96581460926e-06
3.28449780565e-08
5.27469459166e-08
9.68791588797e-08
1.65426320278e-07
2.46151982125e-07
3.36187858599e-07
4.53943302624e-07
7.54157505771e-07
1.2797084023e-06
3.81733337138e-06
7.07817566136e-06
7.2640590392e-06
6.67936152541e-06
6.02639816115e-06
5.43170838675e-06
4.98073649836e-06
4.64449352094e-06
4.19382952665e-06
3.25293394751e-06
2.10252636638e-06
3.3656063375e-08
5.65857165369e-08
1.05493094254e-07
1.75304313256e-07
2.52997573897e-07
3.35682721616e-07
4.39357013187e-07
5.70165685059e-07
9.85768065022e-07
1.90010742422e-06
4.86351228151e-06
6.31680964082e-06
6.03723274523e-06
5.71438547229e-06
5.52459917763e-06
5.40601957906e-06
5.2145052655e-06
4.71693562294e-06
3.73239207049e-06
2.62531405185e-06
3.46249212562e-08
6.16839614846e-08
1.15403905198e-07
1.85027242162e-07
2.56964313371e-07
3.31352024846e-07
4.22285488642e-07
5.33202559286e-07
8.58480984597e-07
1.18648055877e-06
2.85020712606e-06
4.99803356402e-06
5.24573080591e-06
5.02304777816e-06
4.84841699563e-06
4.70771220217e-06
4.56085883736e-06
4.32015203383e-06
3.86491528142e-06
3.28385599073e-06
3.55339927902e-08
6.75472643445e-08
1.25537330509e-07
1.92937239851e-07
2.57514483777e-07
3.21756813994e-07
3.98921185197e-07
4.90376433493e-07
7.05969949123e-07
8.97401972554e-07
1.75423854975e-06
3.60421440473e-06
4.32727683825e-06
4.21354468443e-06
4.07244049495e-06
3.98755386966e-06
3.985859238e-06
4.0384923295e-06
4.03266126e-06
3.94354962854e-06
3.61450344795e-08
7.28997159639e-08
1.3408986013e-07
1.9772199573e-07
2.54200864306e-07
3.06664443545e-07
3.67637395858e-07
4.39069726175e-07
5.60517470183e-07
7.33019571386e-07
1.20384825536e-06
2.63381017334e-06
3.66619054031e-06
3.67642735215e-06
3.16639654693e-06
2.38447044123e-06
2.20590801255e-06
3.33664513888e-06
4.18863593746e-06
4.5525963773e-06
3.64960572004e-08
7.55225182381e-08
1.39320407831e-07
1.9890940976e-07
2.4776311275e-07
2.87994981537e-07
3.31187873983e-07
3.84154654029e-07
4.42364203719e-07
6.38110763946e-07
8.70909539896e-07
1.85490237583e-06
3.12090604492e-06
3.25679870401e-06
1.05797285562e-06
4.91117893092e-07
4.05448517041e-07
5.96500766151e-07
1.76541966306e-06
4.59112727765e-06
3.72921651984e-08
7.44090596979e-08
1.38498194766e-07
1.96098838532e-07
2.39746244191e-07
2.69560705413e-07
2.94556011024e-07
3.28006693288e-07
3.70171124169e-07
5.44299917709e-07
6.50031951928e-07
1.05765546681e-06
2.17842989292e-06
2.35134702837e-06
5.49134323e-07
3.38208113148e-07
3.32721716544e-07
3.77673188216e-07
4.56541771969e-07
1.22466224699e-06
3.77659052887e-08
7.23919159262e-08
1.31757185834e-07
1.87233457937e-07
2.2825948366e-07
2.51768620438e-07
2.64179985732e-07
2.78036150445e-07
3.03751711937e-07
3.4521574262e-07
5.25939605993e-07
6.05192391544e-07
8.27536593889e-07
5.60103111264e-07
3.53123030224e-07
2.89959491298e-07
2.51831615088e-07
2.65972042612e-07
3.61340698876e-07
6.81926058147e-07
3.7426584726e-08
6.86031950777e-08
1.21805751754e-07
1.73724306042e-07
2.12507194556e-07
2.34312195119e-07
2.4329395033e-07
2.48888574197e-07
2.62066905695e-07
2.95481952438e-07
3.56639332234e-07
4.290092774e-07
4.14289730224e-07
3.53295968449e-07
2.83044298282e-07
2.32892671608e-07
2.06333665262e-07
2.05985221677e-07
2.82831993264e-07
4.52181568586e-07
3.6325515517e-08
6.30474413758e-08
1.09242755226e-07
1.56466355995e-07
1.92655497298e-07
2.15125918701e-07
2.27844647844e-07
2.39108799839e-07
2.55323932436e-07
2.85992158868e-07
3.33523218786e-07
3.5005675858e-07
3.09381063861e-07
2.64810540062e-07
2.3891346316e-07
2.19374709214e-07
2.00453601098e-07
1.94793154709e-07
2.35088863233e-07
3.8668139758e-07
)
;

boundaryField
{
    emptyPatch
    {
        type            empty;
    }
    minY
    {
        type            calculated;
        value           nonuniform List<scalar> 0();
    }
    maxY
    {
        type            calculated;
        value           nonuniform List<scalar> 0();
    }
    water_to_cooler
    {
        type            nutkWallFunction;
        blending        stepwise;
        value           uniform 0;
    }
    water_to_heater
    {
        type            nutkWallFunction;
        blending        stepwise;
        value           uniform 0;
    }
    procBoundary3to1
    {
        type            processor;
        value           nonuniform List<scalar> 
41
(
2.02024918012e-06
1.68153715745e-06
1.39277607988e-06
1.17716277088e-06
1.03579489588e-06
9.25373950062e-07
7.66158574772e-07
5.29240109863e-07
2.86682368546e-07
1.27479466937e-07
5.76230992122e-08
3.38518738195e-08
2.84593163758e-08
4.82505658436e-06
5.12722843702e-06
4.33621383495e-06
3.42168287036e-06
2.8456996122e-06
2.49198330656e-06
2.02024918012e-06
2.18674391796e-06
3.4827759496e-08
5.64988691358e-08
9.50330224304e-08
1.3669990818e-07
1.7013917186e-07
1.94401084267e-07
2.1465547432e-07
2.31717235496e-07
2.42888713289e-07
2.53323159126e-07
2.5845560997e-07
2.50555408938e-07
2.38785490411e-07
2.3005945976e-07
2.21804204458e-07
2.11577885382e-07
2.03040746495e-07
2.03885080731e-07
2.17340506642e-07
3.38743356738e-07
)
;
    }
    procBoundary3to2
    {
        type            processor;
        value           nonuniform List<scalar> 
41
(
4.65005510429e-06
3.70804079002e-06
2.78731720427e-06
2.0950734502e-06
1.63899704811e-06
1.33631431535e-06
1.12238633532e-06
9.6237537731e-07
8.03132591573e-07
5.83487799397e-07
3.28606322701e-07
1.31886191806e-07
4.66222595725e-08
2.78253856357e-08
2.66754005349e-08
2.73248637922e-08
2.68282442348e-08
2.60767165616e-08
2.77391012923e-08
8.148220001e-08
7.51086559516e-06
5.58006445395e-06
3.71753825006e-06
2.43538459031e-06
1.82374368887e-06
1.76169123506e-06
2.09106024601e-06
2.62265892262e-06
3.16322490886e-06
3.5914396897e-06
3.85238225286e-06
3.92538619821e-06
3.81054482554e-06
3.53282413495e-06
3.15748107939e-06