/*--------------------------------*- C++ -*----------------------------------*\
| =========                 |                                                 |
| \\      /  F ield         | OpenFOAM: The Open Source CFD Toolbox           |
|  \\    /   O peration     | Version:  2312                                  |
|   \\  /    A nd           | Website:  www.openfoam.com                      |
|    \\/     M anipulation  |                                                 |
\*---------------------------------------------------------------------------*/
FoamFile
{
    version     2.0;
    format      ascii;
    arch        "LSB;label=32;scalar=64";
    class       volVectorField;
    location    "12";
    object      Ur;
}
// * * * * * * * * * * * * * * * * * * * * * * * * * * * * * * * * * * * * * //

dimensions      [0 1 -1 0 0 0 0];

internalField   nonuniform List<vector> 
1875
(
(0.0191712 0.350099 0)
(0.0917142 0.343531 0)
(0.152581 0.314671 0)
(0.162481 0.296988 0)
(0.161961 0.281932 0)
(0.142922 0.272054 0)
(0.113721 0.268958 0)
(0.0805528 0.269459 0)
(0.0413152 0.269146 0)
(-0.00246157 0.264482 0)
(-0.0303343 0.252524 0)
(-0.0570707 0.252591 0)
(-0.0853019 0.26105 0)
(-0.111945 0.257095 0)
(-0.114864 0.231797 0)
(-0.149593 0.241068 0)
(-0.171362 0.239965 0)
(-0.190137 0.231406 0)
(-0.198771 0.223889 0)
(-0.196534 0.195143 0)
(-0.177292 0.185497 0)
(-0.150471 0.166336 0)
(-0.106388 0.170222 0)
(-0.0323697 0.197412 0)
(-0.000392009 0.204279 0)
(0.0368568 0.444135 0)
(0.109796 0.435675 0)
(0.155394 0.39412 0)
(0.18066 0.368903 0)
(0.192096 0.340704 0)
(0.186943 0.31893 0)
(0.176169 0.30221 0)
(0.162904 0.28669 0)
(0.145855 0.275955 0)
(0.128551 0.267971 0)
(0.110408 0.262857 0)
(0.0943883 0.262137 0)
(0.0734602 0.258176 0)
(0.0491558 0.255157 0)
(0.0252003 0.256659 0)
(-0.0132719 0.257143 0)
(-0.0516882 0.250202 0)
(-0.0958856 0.248764 0)
(-0.127341 0.254307 0)
(-0.148761 0.257778 0)
(-0.137784 0.262989 0)
(-0.11612 0.274176 0)
(-0.0732494 0.273897 0)
(-0.0171857 0.280068 0)
(-0.000713993 0.281395 0)
(0.0368414 0.376921 0)
(0.0724454 0.355341 0)
(0.108543 0.341032 0)
(0.135627 0.328751 0)
(0.134496 0.316588 0)
(0.118392 0.316134 0)
(0.0894012 0.308482 0)
(0.0636787 0.300218 0)
(0.0462147 0.289335 0)
(0.0314944 0.285058 0)
(0.0295616 0.277734 0)
(0.0315653 0.269516 0)
(0.0385193 0.263841 0)
(0.0415039 0.261963 0)
(0.0422413 0.257294 0)
(0.0238362 0.254726 0)
(0.00289488 0.256322 0)
(-0.0273912 0.265118 0)
(-0.0676085 0.269746 0)
(-0.0865018 0.261991 0)
(-0.0997528 0.254981 0)
(-0.078477 0.267753 0)
(-0.0501195 0.273209 0)
(-0.0174666 0.275972 0)
(-0.00213561 0.282064 0)
(0.0268998 0.311398 0)
(0.0565835 0.287871 0)
(0.0987207 0.275315 0)
(0.136611 0.252872 0)
(0.122367 0.266242 0)
(0.0962327 0.298937 0)
(0.0677363 0.320678 0)
(0.041525 0.310461 0)
(0.000421206 0.312884 0)
(-0.0256721 0.294718 0)
(-0.0315144 0.292123 0)
(-0.0320038 0.288197 0)
(-0.0400986 0.280176 0)
(-0.0419965 0.271856 0)
(-0.0441581 0.265008 0)
(-0.0498463 0.261171 0)
(-0.0529157 0.255014 0)
(-0.0651708 0.260728 0)
(-0.0779789 0.270283 0)
(-0.0925708 0.268218 0)
(-0.0888782 0.25952 0)
(-0.0702139 0.260767 0)
(-0.043816 0.273689 0)
(-0.0224405 0.276655 0)
(-0.00637263 0.277545 0)
(0.00748871 0.243162 0)
(0.032282 0.223145 0)
(0.110479 0.19509 0)
(0.161978 0.152262 0)
(0.149755 0.19985 0)
(0.129992 0.260921 0)
(0.114747 0.29212 0)
(0.103398 0.294299 0)
(0.058512 0.313001 0)
(0.00113541 0.275072 0)
(-0.0179562 0.275953 0)
(-0.029027 0.275074 0)
(-0.042198 0.271224 0)
(-0.0518275 0.266439 0)
(-0.0637222 0.258913 0)
(-0.0710487 0.253369 0)
(-0.0732212 0.248402 0)
(-0.0801366 0.248061 0)
(-0.0856801 0.25325 0)
(-0.0857209 0.252406 0)
(-0.0765022 0.25229 0)
(-0.0631904 0.266048 0)
(-0.0356843 0.272698 0)
(-0.0192612 0.278696 0)
(-0.00493541 0.277562 0)
(0.00500852 0.226131 0)
(0.0221966 0.190795 0)
(0.0776955 0.156067 0)
(0.131006 0.129745 0)
(0.160886 0.161952 0)
(0.174471 0.197242 0)
(0.171689 0.201708 0)
(0.136087 0.227053 0)
(0.0774379 0.246249 0)
(0.0487025 0.229442 0)
(0.0264561 0.228886 0)
(-0.00994961 0.242508 0)
(-0.0419248 0.247002 0)
(-0.0625878 0.24633 0)
(-0.0759936 0.248644 0)
(-0.073161 0.256724 0)
(-0.0715863 0.262968 0)
(-0.0718415 0.264486 0)
(-0.0729273 0.274646 0)
(-0.0798316 0.281329 0)
(-0.0667207 0.298427 0)
(-0.0498167 0.323016 0)
(-0.0396978 0.332156 0)
(-0.022561 0.338837 0)
(0.00089656 0.342585 0)
(-0.00366685 0.230345 0)
(-0.0254831 0.229143 0)
(-0.00989104 0.200083 0)
(0.0783833 0.155574 0)
(0.14878 0.13413 0)
(0.156582 0.175464 0)
(0.145674 0.167301 0)
(0.112326 0.171335 0)
(0.0836388 0.176456 0)
(0.0603475 0.183283 0)
(0.0306113 0.193674 0)
(-0.00476188 0.213313 0)
(-0.031996 0.226846 0)
(-0.0441585 0.237553 0)
(-0.0533879 0.262062 0)
(-0.05584 0.265533 0)
(-0.0597325 0.273463 0)
(-0.0544909 0.293527 0)
(-0.0557401 0.310316 0)
(-0.0580142 0.336267 0)
(-0.0487898 0.350598 0)
(-0.0392741 0.353085 0)
(-0.0713578 0.36914 0)
(-0.0674761 0.377688 0)
(-0.0214688 0.387556 0)
(-0.00122024 0.235553 0)
(-0.0216688 0.230242 0)
(-0.0173774 0.211228 0)
(0.030439 0.182839 0)
(0.0960468 0.167496 0)
(0.089319 0.193829 0)
(0.0776766 0.189933 0)
(0.0732851 0.18804 0)
(0.0629222 0.186671 0)
(0.0383811 0.197555 0)
(0.00809507 0.205519 0)
(-0.0151823 0.222314 0)
(-0.026174 0.237797 0)
(-0.0392049 0.252143 0)
(-0.0445837 0.259621 0)
(-0.0472199 0.274853 0)
(-0.0470083 0.289693 0)
(-0.0418055 0.303906 0)
(-0.0396323 0.310098 0)
(-0.0262147 0.305856 0)
(-0.0207965 0.304391 0)
(-0.0541977 0.296497 0)
(-0.0804124 0.279923 0)
(-0.0779726 0.273484 0)
(-0.0484203 0.291475 0)
(0.00172969 0.247104 0)
(-0.0302338 0.24711 0)
(-0.0353907 0.247998 0)
(-0.000774843 0.2167 0)
(0.0335354 0.211173 0)
(0.0505592 0.220062 0)
(0.0691683 0.212524 0)
(0.067212 0.203435 0)
(0.043914 0.217676 0)
(0.0227234 0.230029 0)
(0.00818836 0.235725 0)
(-0.0093707 0.258426 0)
(-0.0187426 0.260043 0)
(-0.0340135 0.268271 0)
(-0.0459018 0.283172 0)
(-0.0589796 0.292766 0)
(-0.063292 0.298789 0)
(-0.0572338 0.296891 0)
(-0.0418552 0.288229 0)
(-0.0278219 0.278539 0)
(-0.0249567 0.265694 0)
(-0.0490393 0.243929 0)
(-0.0580669 0.211245 0)
(-0.108721 0.174411 0)
(-0.0496297 0.209648 0)
(0.00292151 0.25121 0)
(-0.0146616 0.253065 0)
(-0.0324501 0.276698 0)
(-0.0212928 0.254595 0)
(0.00289951 0.238288 0)
(0.038525 0.234546 0)
(0.0482004 0.235142 0)
(0.0383324 0.244214 0)
(0.0313585 0.246014 0)
(0.0198473 0.249495 0)
(0.0067197 0.267287 0)
(-0.0033123 0.26505 0)
(-0.0218162 0.268018 0)
(-0.0329224 0.266348 0)
(-0.0488652 0.262493 0)
(-0.0617977 0.253281 0)
(-0.0743456 0.246256 0)
(-0.0836402 0.23962 0)
(-0.081346 0.238868 0)
(-0.0762205 0.234416 0)
(-0.0711194 0.220954 0)
(-0.0732618 0.194882 0)
(-0.108833 0.154942 0)
(-0.135757 0.108713 0)
(-0.0755432 0.136229 0)
(0.00293231 0.255886 0)
(0.00113254 0.259039 0)
(-0.0224333 0.277051 0)
(-0.0140432 0.278529 0)
(-0.0018802 0.258322 0)
(0.02819 0.244649 0)
(0.039422 0.254609 0)
(0.023553 0.270189 0)
(0.0133205 0.277856 0)
(0.00857486 0.279393 0)
(-0.00617902 0.27542 0)
(-0.0217384 0.279292 0)
(-0.0398869 0.286024 0)
(-0.0425495 0.283092 0)
(-0.0469951 0.276038 0)
(-0.0499244 0.263506 0)
(-0.0533485 0.250041 0)
(-0.0620315 0.238312 0)
(-0.0709947 0.224382 0)
(-0.0667245 0.218448 0)
(-0.0596496 0.211406 0)
(-0.0625835 0.201787 0)
(-0.1051 0.177527 0)
(-0.111304 0.160201 0)
(-0.0311277 0.203156 0)
(0.00583753 0.256004 0)
(0.0137473 0.266016 0)
(0.00155227 0.280865 0)
(-0.00135336 0.298981 0)
(0.00878481 0.278916 0)
(0.0176085 0.268549 0)
(0.0298262 0.254983 0)
(0.0232832 0.257428 0)
(0.00639267 0.26336 0)
(-0.00285876 0.268513 0)
(-0.000608019 0.267853 0)
(-0.0253362 0.264406 0)
(-0.0678124 0.260634 0)
(-0.08666 0.262079 0)
(-0.0974324 0.256768 0)
(-0.0997879 0.252868 0)
(-0.0981782 0.247159 0)
(-0.0918414 0.241488 0)
(-0.0767604 0.23855 0)
(-0.0745714 0.236814 0)
(-0.0659676 0.227928 0)
(-0.051762 0.214978 0)
(-0.0598728 0.202902 0)
(-0.0445608 0.201138 0)
(-0.00400032 0.237867 0)
(0.00713132 0.248049 0)
(0.0252155 0.252545 0)
(0.0334885 0.256816 0)
(0.018289 0.274753 0)
(0.00967746 0.290642 0)
(0.010683 0.274117 0)
(0.016239 0.257603 0)
(0.0141177 0.248847 0)
(0.00855233 0.239102 0)
(-0.000725385 0.234989 0)
(-0.00400992 0.241171 0)
(-0.0129991 0.251988 0)
(-0.0434868 0.260023 0)
(-0.0746796 0.254471 0)
(-0.086507 0.25523 0)
(-0.081119 0.262058 0)
(-0.0784537 0.261715 0)
(-0.0877566 0.254475 0)
(-0.0845374 0.250352 0)
(-0.0852821 0.230514 0)
(-0.0935752 0.215575 0)
(-0.0701256 0.218564 0)
(-0.0323718 0.226863 0)
(-0.0134323 0.240181 0)
(0.00542591 0.25597 0)
(0.00713284 0.223221 0)
(0.0297303 0.216978 0)
(0.0512746 0.215827 0)
(0.0318268 0.225874 0)
(0.0102417 0.24571 0)
(-0.00406664 0.256077 0)
(-0.00473197 0.251637 0)
(0.000357245 0.244187 0)
(0.00912158 0.235537 0)
(0.0121307 0.258118 0)
(0.00707908 0.291093 0)
(0.0273355 0.296489 0)
(0.0659753 0.270854 0)
(0.0681413 0.268182 0)
(0.0471308 0.269476 0)
(-0.00573062 0.271817 0)
(-0.0606459 0.27011 0)
(-0.0650331 0.239613 0)
(-0.0506345 0.236574 0)
(-0.0546525 0.240053 0)
(-0.0312744 0.234765 0)
(-0.0110064 0.25323 0)
(-0.0166758 0.274241 0)
(0.00409686 0.304344 0)
(0.0119321 0.294898 0)
(0.00588161 0.218492 0)
(0.0101828 0.210995 0)
(0.0218464 0.20842 0)
(0.0145915 0.211981 0)
(-0.00519248 0.229379 0)
(-0.0109229 0.242321 0)
(-0.00541584 0.25407 0)
(-0.00246679 0.255903 0)
(0.00389417 0.317911 0)
(0.051341 0.316226 0)
(0.0917727 0.282837 0)
(0.105863 0.264329 0)
(0.118307 0.256945 0)
(0.139918 0.204162 0)
(0.189355 0.139857 0)
(0.151323 0.151603 0)
(0.0588508 0.204131 0)
(0.0321392 0.235174 0)
(0.00421647 0.25322 0)
(-0.0297361 0.26669 0)
(-0.0387915 0.277242 0)
(-0.0198903 0.289199 0)
(-0.0188184 0.310532 0)
(-0.00906061 0.307742 0)
(-0.00284249 0.29525 0)
(0.00493162 0.2444 0)
(-0.00232382 0.234912 0)
(-0.00452087 0.237486 0)
(-0.00428889 0.236372 0)
(-0.010819 0.245052 0)
(-0.00286136 0.257191 0)
(-0.00245475 0.270485 0)
(-0.00375845 0.318597 0)
(0.0669492 0.277129 0)
(0.121026 0.250929 0)
(0.183245 0.175238 0)
(0.240454 0.110342 0)
(0.220231 0.126914 0)
(0.140441 0.16836 0)
(0.0408162 0.21495 0)
(-0.000964117 0.240666 0)
(-0.0187298 0.253954 0)
(-0.0314914 0.26069 0)
(-0.0349277 0.262584 0)
(-0.0388056 0.280251 0)
(-0.0387968 0.295284 0)
(-0.0274883 0.295402 0)
(-0.0130645 0.286604 0)
(-0.00694255 0.286177 0)
(-0.00207695 0.281607 0)
(0.00484062 0.259434 0)
(-0.00105341 0.253897 0)
(-0.00636098 0.257148 0)
(0.0014973 0.261638 0)
(-0.0064247 0.259476 0)
(-0.00231484 0.263459 0)
(0.000919813 0.275535 0)
(0.0375948 0.279508 0)
(0.137032 0.230208 0)
(0.202045 0.140973 0)
(0.137947 0.17717 0)
(0.089137 0.203607 0)
(0.0565246 0.217123 0)
(0.0211816 0.246014 0)
(-0.00314288 0.25796 0)
(-0.0121803 0.263212 0)
(-0.0257712 0.272008 0)
(-0.0335519 0.293492 0)
(-0.0400337 0.303288 0)
(-0.0316969 0.296466 0)
(-0.0216285 0.293549 0)
(-0.0127144 0.296468 0)
(-0.00355174 0.307277 0)
(0.00710984 0.294153 0)
(0.00752123 0.289512 0)
(0.00515021 0.262593 0)
(0.0016605 0.259593 0)
(0.000159499 0.260579 0)
(0.00638208 0.269548 0)
(0.000653447 0.267865 0)
(0.000497119 0.273233 0)
(0.0200674 0.283564 0)
(0.0976725 0.244949 0)
(0.121559 0.21577 0)
(0.0879947 0.212723 0)
(0.0562095 0.22679 0)
(0.0488649 0.237908 0)
(0.0326342 0.2524 0)
(0.0151498 0.262536 0)
(4.75618e-05 0.273981 0)
(-0.0155031 0.289648 0)
(-0.037874 0.30589 0)
(-0.0408755 0.307432 0)
(-0.0295692 0.307379 0)
(-0.0227987 0.308459 0)
(-0.0207647 0.30937 0)
(-0.0205219 0.312281 0)
(-0.0179465 0.309362 0)
(-0.0039031 0.307777 0)
(0.00178012 0.30844 0)
(0.00240383 0.266373 0)
(0.00480556 0.260974 0)
(0.00391912 0.259762 0)
(0.0106121 0.267658 0)
(0.00814518 0.273183 0)
(0.00836294 0.273499 0)
(0.0390958 0.268959 0)
(0.0638462 0.247707 0)
(0.0635208 0.242533 0)
(0.0468162 0.249787 0)
(0.0384559 0.255277 0)
(0.0336571 0.260377 0)
(0.0271829 0.262524 0)
(0.0190211 0.262592 0)
(0.0103296 0.265877 0)
(-0.00984409 0.268696 0)
(-0.0452258 0.266269 0)
(-0.0501114 0.27851 0)
(-0.0384678 0.289647 0)
(-0.0363669 0.294274 0)
(-0.0338075 0.293713 0)
(-0.0326921 0.292672 0)
(-0.0303783 0.294072 0)
(-0.0244774 0.306892 0)
(-0.00658918 0.316225 0)
(-0.000177384 0.269811 0)
(0.00711633 0.272375 0)
(-0.000164578 0.258766 0)
(0.0010881 0.269971 0)
(0.00711775 0.27946 0)
(0.0106758 0.273249 0)
(0.0148269 0.258346 0)
(0.0264935 0.248531 0)
(0.0296473 0.249525 0)
(0.0311434 0.263185 0)
(0.0348168 0.267577 0)
(0.0359536 0.26772 0)
(0.0336646 0.268223 0)
(0.0333108 0.269006 0)
(0.0298969 0.270695 0)
(0.0202833 0.269311 0)
(0.00138832 0.252452 0)
(-0.0330835 0.234607 0)
(-0.0561243 0.233986 0)
(-0.0216109 0.257552 0)
(-0.00955799 0.272342 0)
(-0.0126186 0.282444 0)
(-0.0156764 0.285449 0)
(-0.0215623 0.304697 0)
(-0.0123184 0.321356 0)
(0.00364177 0.262497 0)
(0.0105058 0.293021 0)
(0.00101008 0.278905 0)
(-0.0153268 0.260728 0)
(-0.00132619 0.270376 0)
(0.00443046 0.276535 0)
(0.0069004 0.264318 0)
(0.00679265 0.258654 0)
(0.00409585 0.255699 0)
(0.00755929 0.261938 0)
(0.0150848 0.270233 0)
(0.0222824 0.273629 0)
(0.0254229 0.274147 0)
(0.0227225 0.276511 0)
(0.0164828 0.280186 0)
(0.01472 0.27153 0)
(0.0264343 0.260361 0)
(0.0247243 0.24654 0)
(0.0218639 0.244764 0)
(0.036114 0.252475 0)
(0.0270159 0.267591 0)
(0.0122815 0.274524 0)
(0.00143035 0.276908 0)
(-0.00581752 0.277151 0)
(-0.0137577 0.2861 0)
(0.00570732 0.246671 0)
(0.00969648 0.279296 0)
(0.00659316 0.301576 0)
(0.00181601 0.261677 0)
(0.00171536 0.262764 0)
(0.0134382 0.267143 0)
(0.0141363 0.266152 0)
(0.0143224 0.264495 0)
(0.0165756 0.264005 0)
(0.00968666 0.26081 0)
(0.00532637 0.267007 0)
(0.0054947 0.272633 0)
(0.00751188 0.276333 0)
(0.00573234 0.275582 0)
(-0.00130436 0.26823 0)
(0.00755944 0.262431 0)
(0.027174 0.263452 0)
(0.0395342 0.24481 0)
(0.0527485 0.241256 0)
(0.0598486 0.267877 0)
(0.0508367 0.271484 0)
(0.0397487 0.271635 0)
(0.0135425 0.268348 0)
(-0.00595658 0.253544 0)
(-0.00816076 0.259349 0)
(-0.00397989 0.237237 0)
(0.0149819 0.248067 0)
(0.0276432 0.294465 0)
(0.0249051 0.266287 0)
(0.0280611 0.257551 0)
(0.0366226 0.251646 0)
(0.0290767 0.258486 0)
(0.0180032 0.265526 0)
(0.0169076 0.268655 0)
(0.0135731 0.271381 0)
(0.00501539 0.282075 0)
(0.0102103 0.284178 0)
(0.0107281 0.284339 0)
(0.0223267 0.281335 0)
(0.0298183 0.281714 0)
(0.0352826 0.27202 0)
(0.0535378 0.239244 0)
(0.058303 0.239834 0)
(0.0608274 0.273365 0)
(0.0555762 0.282098 0)
(0.0455837 0.282374 0)
(0.0258931 0.277345 0)
(0.0140091 0.263621 0)
(-0.00425756 0.249354 0)
(-0.00944713 0.248962 0)
(-0.0180927 0.250774 0)
(0.0159757 0.250718 0)
(0.0392614 0.270121 0)
(0.0404278 0.262139 0)
(0.0436549 0.248356 0)
(0.0341628 0.255816 0)
(0.0259122 0.267216 0)
(0.014817 0.280659 0)
(0.0152422 0.29656 0)
(0.0264081 0.299566 0)
(0.0371379 0.295067 0)
(0.0424721 0.290915 0)
(0.0521211 0.290619 0)
(0.0530353 0.282754 0)
(0.0651483 0.253609 0)
(0.0894578 0.227886 0)
(0.0731119 0.240807 0)
(0.0452016 0.273287 0)
(0.0440462 0.289761 0)
(0.0391327 0.29345 0)
(0.0200583 0.282339 0)
(0.00162194 0.268572 0)
(-0.00501237 0.257294 0)
(-0.0102933 0.246762 0)
(-0.00677975 0.244123 0)
(-0.00725399 0.265432 0)
(-0.000991582 0.275839 0)
(0.0252899 0.259498 0)
(0.0441483 0.256844 0)
(0.0471786 0.253862 0)
(0.0361004 0.266957 0)
(0.0179528 0.283479 0)
(0.0229341 0.291491 0)
(0.0403956 0.289256 0)
(0.0624386 0.285085 0)
(0.0912075 0.274698 0)
(0.104756 0.263394 0)
(0.110913 0.245697 0)
(0.10852 0.232293 0)
(0.0888161 0.235209 0)
(0.0547828 0.250832 0)
(0.0369945 0.26243 0)
(0.0355076 0.27651 0)
(0.0288656 0.291336 0)
(0.00782218 0.275397 0)
(-0.0133907 0.258137 0)
(-0.0248606 0.244948 0)
(-0.0253444 0.238944 0)
(-0.0184178 0.232431 0)
(-0.00709297 0.233013 0)
(-0.00499633 0.274295 0)
(-0.0151767 0.280362 0)
(0.0176071 0.286107 0)
(0.0386967 0.265987 0)
(0.0490958 0.249578 0)
(0.0465507 0.259478 0)
(0.034781 0.275388 0)
(0.0466161 0.281716 0)
(0.0755531 0.271835 0)
(0.0998411 0.263825 0)
(0.111305 0.254574 0)
(0.0996663 0.245101 0)
(0.0749727 0.243795 0)
(0.0553127 0.241152 0)
(0.0399888 0.242576 0)
(0.030427 0.250692 0)
(0.0284743 0.261182 0)
(0.0218657 0.269398 0)
(0.00996444 0.261463 0)
(-0.00734503 0.238576 0)
(-0.0266221 0.224098 0)
(-0.0327779 0.214636 0)
(-0.0247618 0.213283 0)
(-0.0140287 0.217999 0)
(-0.0037759 0.224396 0)
(-0.00170266 0.298025 0)
(-0.0153678 0.296139 0)
(0.00354478 0.315764 0)
(0.0375776 0.299172 0)
(0.0470916 0.27419 0)
(0.0429494 0.259506 0)
(0.0336333 0.250111 0)
(0.0341151 0.273345 0)
(0.0402427 0.277438 0)
(0.052899 0.274632 0)
(0.0448218 0.265384 0)
(0.036305 0.262881 0)
(0.0233877 0.259711 0)
(0.00938026 0.259988 0)
(0.000236052 0.259443 0)
(-0.000309756 0.26627 0)
(0.00797227 0.270873 0)
(0.0212886 0.267526 0)
(0.0167251 0.247855 0)
(0.00373983 0.236503 0)
(-0.00173454 0.229855 0)
(-0.00234389 0.222668 0)
(0.00293799 0.225048 0)
(0.00415747 0.229782 0)
(0.000203426 0.236662 0)
(0.000878422 0.315195 0)
(0.00471493 0.313883 0)
(0.00251992 0.311716 0)
(0.0284115 0.331787 0)
(0.0497951 0.307938 0)
(0.0413675 0.290161 0)
(0.0423764 0.275726 0)
(0.00654407 0.245411 0)
(-0.0247222 0.239161 0)
(-0.00222478 0.268316 0)
(-0.012802 0.272526 0)
(-0.0130461 0.273587 0)
(-0.0149708 0.276887 0)
(-0.0162287 0.280296 0)
(-0.0233162 0.289401 0)
(-0.017443 0.290371 0)
(-0.00262217 0.286508 0)
(0.00988363 0.280261 0)
(0.0190753 0.273816 0)
(0.0187996 0.261601 0)
(0.0124435 0.251828 0)
(0.00893932 0.247476 0)
(0.012161 0.248924 0)
(0.00624485 0.253459 0)
(-0.000746486 0.254897 0)
(0.00527515 0.302485 0)
(0.0123256 0.300964 0)
(0.0153665 0.302432 0)
(0.0235003 0.308349 0)
(0.0512222 0.327347 0)
(0.0465857 0.302511 0)
(0.0391976 0.283751 0)
(0.0309622 0.274834 0)
(-0.00159826 0.25796 0)
(-0.0622208 0.219284 0)
(-0.0576079 0.244372 0)
(-0.0523446 0.260596 0)
(-0.0483209 0.274265 0)
(-0.0403964 0.285606 0)
(-0.0258318 0.287946 0)
(-0.0243683 0.279695 0)
(-0.0229445 0.278107 0)
(-0.0121992 0.272183 0)
(-0.00367874 0.26984 0)
(-0.00248365 0.266426 0)
(0.000730922 0.263565 0)
(0.00378094 0.262566 0)
(0.0022566 0.266012 0)
(-0.000261478 0.267079 0)
(-0.000644733 0.26465 0)
(0.00296215 0.291328 0)
(0.00666963 0.290007 0)
(0.0143083 0.292063 0)
(0.020941 0.289264 0)
(0.0282229 0.295935 0)
(0.04613 0.310257 0)
(0.0381573 0.294953 0)
(0.02621 0.281611 0)
(0.0177526 0.270041 0)
(-0.00648466 0.25897 0)
(-0.0497846 0.226441 0)
(-0.0418987 0.245698 0)
(-0.0289122 0.267875 0)
(-0.0200627 0.285632 0)
(-0.00622484 0.291594 0)
(0.00241109 0.295573 0)
(-0.0140994 0.282008 0)
(-0.0161953 0.27488 0)
(-0.0109645 0.268203 0)
(-0.00680947 0.266348 0)
(-0.00119272 0.26616 0)
(-0.00475677 0.269695 0)
(-0.00638629 0.272221 0)
(-0.00490135 0.27043 0)
(-0.00230752 0.267055 0)
(-0.00484236 0.296862 0)
(-0.00122901 0.298156 0)
(0.00243733 0.29429 0)
(0.00738913 0.290269 0)
(0.0113136 0.284353 0)
(0.0215722 0.293933 0)
(0.0378999 0.30746 0)
(0.0314182 0.290272 0)
(0.0238529 0.279793 0)
(0.00559228 0.273858 0)
(-0.00885104 0.265655 0)
(-0.03592 0.241995 0)
(-0.0503688 0.234432 0)
(-0.0402057 0.25876 0)
(-0.0289995 0.280625 0)
(-0.0259157 0.280833 0)
(-0.0185891 0.282932 0)
(-0.0212016 0.272008 0)
(-0.0184153 0.267649 0)
(-0.0129389 0.267185 0)
(-0.00961583 0.266456 0)
(-0.011007 0.266269 0)
(-0.0110656 0.265513 0)
(-0.00953441 0.262837 0)
(-0.0040678 0.259426 0)
(0.000541934 0.312009 0)
(0.00323466 0.310352 0)
(0.00419052 0.307282 0)
(0.000423977 0.304269 0)
(-0.000743851 0.299482 0)
(0.000276152 0.295914 0)
(0.0142272 0.302974 0)
(0.0356685 0.315523 0)
(0.0278622 0.297687 0)
(0.018001 0.281754 0)
(0.00472795 0.274052 0)
(-0.00558422 0.26611 0)
(-0.0299796 0.242166 0)
(-0.0814854 0.198325 0)
(-0.111875 0.187141 0)
(-0.0762284 0.244631 0)
(-0.0511998 0.266052 0)
(-0.0389443 0.268001 0)
(-0.0330043 0.265244 0)
(-0.0243109 0.263253 0)
(-0.0200182 0.260586 0)
(-0.0181188 0.255651 0)
(-0.0159115 0.251476 0)
(-0.0113424 0.251244 0)
(-0.00288317 0.249856 0)
(0.0118422 0.317116 0)
(0.0151979 0.309906 0)
(0.0154698 0.312264 0)
(0.0089325 0.31235 0)
(0.00405356 0.312762 0)
(-0.00388377 0.309619 0)
(-0.00672437 0.308004 0)
(0.00492167 0.313869 0)
(0.0220163 0.325103 0)
(0.00635903 0.307463 0)
(-0.00795783 0.288379 0)
(-0.0121276 0.277417 0)
(-0.0190602 0.255796 0)
(-0.0369236 0.231193 0)
(-0.0711198 0.190363 0)
(-0.114577 0.172181 0)
(-0.103236 0.212045 0)
(-0.0661628 0.244223 0)
(-0.044779 0.250454 0)
(-0.0309861 0.250615 0)
(-0.0218975 0.251255 0)
(-0.0198886 0.244618 0)
(-0.0136518 0.243576 0)
(-0.00456348 0.245789 0)
(-0.000274582 0.248391 0)
(0.01505 0.290994 0)
(0.0267324 0.285179 0)
(0.0291061 0.294171 0)
(0.0270366 0.300356 0)
(0.0236391 0.306856 0)
(0.0179808 0.316804 0)
(0.00946277 0.319227 0)
(0.00580215 0.315378 0)
(0.0190279 0.314666 0)
(0.00588859 0.307225 0)
(-0.0215009 0.288575 0)
(-0.03414 0.26981 0)
(-0.0421571 0.260267 0)
(-0.0417045 0.241657 0)
(-0.0399834 0.224083 0)
(-0.038889 0.217608 0)
(-0.0478724 0.221085 0)
(-0.0489753 0.228249 0)
(-0.0338911 0.237643 0)
(-0.0232266 0.24235 0)
(-0.017799 0.244942 0)
(-0.0143219 0.244535 0)
(-0.00637272 0.247855 0)
(0.000230518 0.254084 0)
(0.00237913 0.254223 0)
(0.0135679 0.23943 0)
(0.0325722 0.237407 0)
(0.0465407 0.242237 0)
(0.0548144 0.247771 0)
(0.0612513 0.255068 0)
(0.0628575 0.260028 0)
(0.0476341 0.270947 0)
(0.0280813 0.266803 0)
(-0.00532025 0.262161 0)
(-0.0596397 0.264082 0)
(-0.0811445 0.24885 0)
(-0.0646055 0.246973 0)
(-0.0460665 0.246849 0)
(-0.0468882 0.240425 0)
(-0.0368288 0.242782 0)
(-0.0214284 0.241777 0)
(-0.0127378 0.237101 0)
(-0.00952028 0.238589 0)
(-0.0101284 0.243531 0)
(-0.0110568 0.24711 0)
(-0.0126794 0.248763 0)
(-0.0087323 0.251122 0)
(-0.00102109 0.255452 0)
(-0.000534251 0.261359 0)
(0.00177354 0.262202 0)
(0.0140447 0.208403 0)
(0.0416301 0.195494 0)
(0.0425614 0.188301 0)
(0.0468609 0.187048 0)
(0.0547689 0.179345 0)
(0.0559659 0.167074 0)
(0.0337492 0.167631 0)
(-0.0362518 0.185041 0)
(-0.0860814 0.199929 0)
(-0.103611 0.215414 0)
(-0.0996166 0.227509 0)
(-0.0735887 0.252637 0)
(-0.0508615 0.257098 0)
(-0.0333002 0.271905 0)
(-0.00889215 0.269622 0)
(0.00902707 0.25386 0)
(0.0122668 0.248151 0)
(0.00463749 0.250224 0)
(-0.00115606 0.254488 0)
(-0.00531668 0.254758 0)
(-0.00844927 0.255003 0)
(-0.00354853 0.258412 0)
(0.00114477 0.261533 0)
(0.00139818 0.266577 0)
(0.00255706 0.266497 0)
(0.00265344 0.191172 0)
(0.00100949 0.189051 0)
(0.00142564 0.185825 0)
(-4.995e-05 0.17911 0)
(-0.00770499 0.171258 0)
(-0.0188808 0.171491 0)
(-0.0512034 0.193776 0)
(-0.0718144 0.209966 0)
(-0.0859394 0.214126 0)
(-0.0912757 0.226817 0)
(-0.075888 0.266496 0)
(-0.0372374 0.274033 0)
(-0.0125911 0.283304 0)
(0.0126965 0.280561 0)
(0.0248621 0.269746 0)
(0.0210082 0.261666 0)
(0.00790273 0.263485 0)
(0.00268374 0.264125 0)
(0.000958911 0.260511 0)
(-0.00372235 0.258139 0)
(-0.0040376 0.259018 0)
(0.000442956 0.264946 0)
(-0.00187433 0.268435 0)
(-5.11187e-05 0.271481 0)
(0.00206321 0.268567 0)
(-0.00878734 0.222652 0)
(-0.0122797 0.218551 0)
(-0.0143001 0.214401 0)
(-0.0206142 0.210757 0)
(-0.0253237 0.21027 0)
(-0.025688 0.216536 0)
(-0.0333077 0.220689 0)
(-0.0516857 0.224447 0)
(-0.0658013 0.238151 0)
(-0.0631419 0.268138 0)
(-0.0363775 0.278707 0)
(-0.0137617 0.289536 0)
(0.00130119 0.292282 0)
(0.0162131 0.288105 0)
(0.0163183 0.281433 0)
(0.00483586 0.272577 0)
(0.00202429 0.269875 0)
(0.00294254 0.265783 0)
(0.00321327 0.261889 0)
(0.00135474 0.262572 0)
(-0.000858756 0.267829 0)
(0.00134582 0.270049 0)
(-0.00249061 0.27369 0)
(-0.00220344 0.270369 0)
(-0.00195027 0.268094 0)
(-0.00424727 0.246443 0)
(-0.00953523 0.243543 0)
(-0.0104974 0.241411 0)
(-0.0125312 0.241015 0)
(-0.0153774 0.243186 0)
(-0.00244776 0.250841 0)
(0.00346719 0.249311 0)
(-0.0123798 0.238927 0)
(-0.0295662 0.241776 0)
(-0.0444668 0.263266 0)
(-0.0370237 0.274506 0)
(-0.0139636 0.277871 0)
(-0.00297571 0.283459 0)
(0.00525258 0.280169 0)
(0.00562763 0.274605 0)
(0.00112758 0.270619 0)
(0.00235757 0.26694 0)
(0.00350115 0.263922 0)
(0.0025052 0.264227 0)
(-0.000700681 0.267763 0)
(-0.000283937 0.27394 0)
(-0.00134303 0.274535 0)
(-0.00414258 0.268772 0)
(-0.00506512 0.26405 0)
(-0.00241111 0.264565 0)
(-0.00123632 0.258779 0)
(-0.00171198 0.253803 0)
(-0.000894565 0.252751 0)
(0.000217856 0.25427 0)
(-0.0020471 0.257984 0)
(0.00954545 0.261715 0)
(0.0214664 0.262179 0)
(0.0157082 0.25186 0)
(-0.00272801 0.245276 0)
(-0.0285826 0.247551 0)
(-0.0337528 0.26435 0)
(-0.0222791 0.265099 0)
(-0.0118582 0.267395 0)
(-0.00577803 0.268706 0)
(-0.00490413 0.265659 0)
(-0.00610012 0.264515 0)
(-0.0041856 0.263978 0)
(-0.00264379 0.264715 0)
(-0.00308704 0.265656 0)
(-0.00635613 0.269626 0)
(-0.0060668 0.272096 0)
(-0.00426964 0.266848 0)
(-0.00397312 0.26216 0)
(-0.00566182 0.257911 0)
(-0.00292738 0.258337 0)
(5.00359e-05 0.260186 0)
(0.00145449 0.25756 0)
(0.00451046 0.255834 0)
(0.00936666 0.256991 0)
(0.00975032 0.262487 0)
(0.0142856 0.265772 0)
(0.0253546 0.265959 0)
(0.0265295 0.258512 0)
(0.015022 0.246272 0)
(-0.0215616 0.234903 0)
(-0.0393447 0.251202 0)
(-0.0287382 0.259251 0)
(-0.0218318 0.258818 0)
(-0.0167762 0.260526 0)
(-0.0147633 0.262259 0)
(-0.0148261 0.259902 0)
(-0.0117415 0.260217 0)
(-0.00827188 0.261238 0)
(-0.0100149 0.262866 0)
(-0.0113625 0.267005 0)
(-0.00741159 0.2635 0)
(-0.00596624 0.261202 0)
(-0.00527467 0.256555 0)
(-0.00743844 0.251743 0)
(-0.00409227 0.248462 0)
(0.00218053 0.257325 0)
(0.0026163 0.255072 0)
(0.00551901 0.252956 0)
(0.0114727 0.253878 0)
(0.0133248 0.263948 0)
(0.0150558 0.266172 0)
(0.0224696 0.268925 0)
(0.0277108 0.262214 0)
(0.020794 0.248646 0)
(-0.00709177 0.231759 0)
(-0.0478449 0.222099 0)
(-0.0427527 0.248814 0)
(-0.0358133 0.254125 0)
(-0.0317831 0.25711 0)
(-0.0221328 0.266411 0)
(-0.0186606 0.261208 0)
(-0.0150842 0.25752 0)
(-0.0124952 0.256901 0)
(-0.0142232 0.258984 0)
(-0.0119979 0.257517 0)
(-0.0110121 0.255914 0)
(-0.00999589 0.252339 0)
(-0.00815293 0.248882 0)
(-0.00882726 0.245132 0)
(-0.00422543 0.244297 0)
(0.00593815 0.246975 0)
(0.00377127 0.243961 0)
(0.00341846 0.244678 0)
(0.00708268 0.245345 0)
(0.0139823 0.256169 0)
(0.0119195 0.262438 0)
(0.0178828 0.263042 0)
(0.0253928 0.264149 0)
(0.0240345 0.247589 0)
(0.00808612 0.237508 0)
(-0.0303444 0.219627 0)
(-0.0700099 0.203096 0)
(-0.058287 0.233855 0)
(-0.0469059 0.25448 0)
(-0.0418371 0.258843 0)
(-0.0312014 0.269196 0)
(-0.0206764 0.264739 0)
(-0.0137834 0.259725 0)
(-0.0108209 0.255051 0)
(-0.0101975 0.248504 0)
(-0.0106724 0.243676 0)
(-0.00835735 0.243317 0)
(-0.00919368 0.240131 0)
(-0.00806981 0.237046 0)
(-0.00377327 0.237093 0)
(0.00771616 0.228371 0)
(0.00298261 0.231587 0)
(-5.77854e-05 0.236925 0)
(0.00113673 0.237048 0)
(0.00563407 0.242342 0)
(0.00603647 0.253288 0)
(0.00800583 0.259863 0)
(0.015809 0.259965 0)
(0.0221305 0.248649 0)
(0.0220601 0.239435 0)
(0.00234541 0.229897 0)
(-0.0246876 0.220798 0)
(-0.0627488 0.207697 0)
(-0.0957025 0.199426 0)
(-0.0774386 0.23653 0)
(-0.0452021 0.256111 0)
(-0.0334008 0.262742 0)
(-0.0201603 0.261272 0)
(-0.0104285 0.255013 0)
(-0.00892382 0.248224 0)
(-0.0101595 0.242736 0)
(-0.0099618 0.236234 0)
(-0.00665938 0.236966 0)
(-0.00271634 0.236193 0)
(-0.00139871 0.237111 0)
(0.00454317 0.224298 0)
(0.00264244 0.227719 0)
(-0.00192699 0.234186 0)
(-0.00412734 0.233274 0)
(-0.00244494 0.240321 0)
(-0.000654306 0.2472 0)
(-0.000786085 0.253201 0)
(0.0078708 0.258037 0)
(0.016638 0.253709 0)
(0.0240598 0.249231 0)
(0.0190851 0.236573 0)
(0.00886353 0.234406 0)
(-0.00550192 0.229896 0)
(-0.0266088 0.226122 0)
(-0.0528421 0.219416 0)
(-0.0716569 0.224178 0)
(-0.0459404 0.240574 0)
(-0.024535 0.251325 0)
(-0.0130387 0.252862 0)
(-0.00784695 0.249259 0)
(-0.00501689 0.244244 0)
(-0.00433809 0.240071 0)
(-0.00131637 0.243529 0)
(0.00318084 0.242445 0)
(0.000356567 0.243448 0)
(-0.000915375 0.23087 0)
(0.00437165 0.234157 0)
(-0.00155723 0.23971 0)
(-0.0063617 0.240545 0)
(-0.00826154 0.240789 0)
(-0.00365498 0.249469 0)
(-0.00399232 0.254592 0)
(0.000845617 0.261086 0)
(0.0109932 0.263522 0)
(0.0202373 0.262061 0)
(0.0283124 0.261874 0)
(0.0191638 0.252027 0)
(0.0106 0.245637 0)
(0.00283249 0.2439 0)
(-0.00871715 0.240806 0)
(-0.023963 0.234058 0)
(-0.0291399 0.236204 0)
(-0.0243978 0.242043 0)
(-0.0137384 0.246854 0)
(-0.00739483 0.244262 0)
(-0.00353936 0.24184 0)
(-0.0039957 0.249334 0)
(0.00281226 0.251099 0)
(0.00397698 0.249902 0)
(0.000533836 0.248742 0)
(-0.00136088 0.245679 0)
(0.00438114 0.244323 0)
(0.00203162 0.248979 0)
(-0.0024143 0.252984 0)
(-0.0061517 0.252106 0)
(-0.0101272 0.254286 0)
(-0.00840766 0.258874 0)
(-0.00504902 0.261069 0)
(0.00280853 0.265825 0)
(0.00593488 0.267665 0)
(0.00636117 0.268008 0)
(0.0133651 0.267934 0)
(0.0146236 0.266368 0)
(0.0129149 0.260122 0)
(0.00383584 0.255301 0)
(-0.00170648 0.250857 0)
(-0.00955827 0.244904 0)
(-0.00898292 0.24278 0)
(-0.00495804 0.242764 0)
(0.0013606 0.241574 0)
(-0.00365074 0.252934 0)
(0.00126338 0.261596 0)
(0.00649228 0.257482 0)
(0.00329344 0.257301 0)
(0.00153231 0.254882 0)
(0.00151652 0.257838 0)
(0.00144929 0.24952 0)
(0.00445635 0.252564 0)
(0.00360169 0.26033 0)
(0.000605045 0.260944 0)
(-0.00297932 0.260667 0)
(-0.00574118 0.26038 0)
(-0.00906871 0.262391 0)
(-0.0129003 0.266192 0)
(-0.0146444 0.268551 0)
(-0.0126379 0.263849 0)
(-0.00725796 0.263574 0)
(-0.00498943 0.263518 0)
(-0.00200156 0.262527 0)
(0.00141102 0.255886 0)
(0.00176236 0.253294 0)
(0.00232434 0.251687 0)
(0.00781531 0.244024 0)
(0.00676607 0.244446 0)
(-0.00244387 0.259141 0)
(-0.00285855 0.266781 0)
(0.00293161 0.26447 0)
(0.00781569 0.263001 0)
(0.00648345 0.268063 0)
(0.00587999 0.265231 0)
(-0.000104385 0.268981 0)
(-0.00130992 0.261369 0)
(-0.003871 0.257497 0)
(-0.00268482 0.267258 0)
(-0.00652413 0.274367 0)
(-0.00749208 0.276774 0)
(-0.0052913 0.278197 0)
(-0.00372317 0.277619 0)
(-0.00554541 0.273837 0)
(-0.00863896 0.270099 0)
(-0.012655 0.268544 0)
(-0.0180191 0.269623 0)
(-0.0148883 0.266042 0)
(-0.00268104 0.262355 0)
(0.00444689 0.255496 0)
(0.0121064 0.245503 0)
(0.0229818 0.246717 0)
(0.0145548 0.25497 0)
(-0.00145111 0.266324 0)
(-0.00433748 0.273814 0)
(-0.00152686 0.275616 0)
(0.0116441 0.270348 0)
(0.00772163 0.27726 0)
(0.00876291 0.281055 0)
(0.00917918 0.275434 0)
(-0.000284666 0.273163 0)
(-0.000343475 0.273179 0)
(-0.00346544 0.269715 0)
(-0.0156272 0.271189 0)