/*--------------------------------*- C++ -*----------------------------------*\
| =========                 |                                                 |
| \\      /  F ield         | OpenFOAM: The Open Source CFD Toolbox           |
|  \\    /   O peration     | Version:  2312                                  |
|   \\  /    A nd           | Website:  www.openfoam.com                      |
|    \\/     M anipulation  |                                                 |
\*---------------------------------------------------------------------------*/
FoamFile
{
    version     2.0;
    format      ascii;
    arch        "LSB;label=32;scalar=64";
    class       volScalarField;
    location    "0.27/water";
    object      alpha.gas_0;
}
// * * * * * * * * * * * * * * * * * * * * * * * * * * * * * * * * * * * * * //

dimensions      [0 0 0 0 0 0 0];

internalField   nonuniform List<scalar> 
750
(
0.391770111963
0.483102725726
0.596832677264
0.685998852394
0.704451365263
0.757595840346
0.866759893204
0.918517851206
0.918574061785
0.874612607187
0.940258383421
0.855053229175
0.71894670343
0.615260904612
0.5692447887
0.570117934046
0.655762752644
0.785220329806
0.841206697186
0.863957839945
0.863923792098
0.371389494213
0.00927618140041
0.000790866780885
0.000790927904001
0.000790046867517
0.000791105154793
0.000789625082194
0.000791634140554
0.0361543136827
0.940163314024
0.715403282257
0.502608469505
0.498909689368
0.553914890711
0.665436370109
0.760163073208
0.813330538849
0.837901635958
0.875542078247
0.808870269003
0.135311479769
0.0014560491231
0.000790921370617
0.000789845348983
0.0007905446024
0.000789544719559
0.000791148072718
0.000788513292822
0.0555337552224
0.882583751354
0.427185871458
0.260084282132
0.297091482553
0.427504425635
0.589997323264
0.714093249676
0.788935509418
0.833414907373
0.879041677941
0.4571115336
0.00788423907985
0.000790926081366
0.000789842280219
0.000790009336908
0.000789544719559
0.000790775679755
0.000788707381347
0.000791172048253
0.0849065359784
0.640055740505
0.143427693716
0.0886353575309
0.108525913846
0.187155303088
0.357376225615
0.574696356912
0.73733475697
0.838823233697
0.878790605873
0.251997725233
0.000791042959293
0.000789946540828
0.000790161952085
0.000789742551948
0.000790185067545
0.000788860958104
0.000790988753821
0.000788730025803
0.136415915381
0.292179715529
0.0348411971386
0.0316637594633
0.0350536829475
0.0461205658186
0.141123806971
0.491315345936
0.758531023284
0.868441279397
0.879041522141
0.619284846202
0.0214750001429
0.000791052902343
0.000789976016399
0.000790101263088
0.000962655857092
0.00123938101869
0.00176673660949
0.0030397475969
0.267879117643
0.080023319874
0.0276779303915
0.0261717300376
0.0261812622416
0.0377236557688
0.296215535526
0.696084276808
0.851805806916
0.879057230901
0.878790605873
0.847687014446
0.650849890944
0.236087108906
0.0259401317933
0.0102221741054
0.0114317543878
0.0176308722905
0.0320076494476
0.0468874111814
0.467697414794
0.0250403305432
0.0241383916385
0.0241504003792
0.0512034818854
0.508143900699
0.793530892193
0.872545423786
0.879000547962
0.878790605873
0.879000413338
0.878776311981
0.860202493547
0.758101533164
0.532373916009
0.282068399999
0.19103875406
0.211062442988
0.264069809106
0.244538028489
0.467733478614
0.0241115603767
0.0241365303609
0.0997381634298
0.573393521554
0.795958627587
0.873654021677
0.878997833942
0.878790605873
0.879057705065
0.878790605873
0.878993126451
0.878790605873
0.874666862512
0.830260932583
0.725343647052
0.631702430082
0.618903446224
0.642826463485
0.544166793936
0.39449991159
0.0241228076573
0.215090794049
0.560983786444
0.61218001899
0.702014196418
0.850912846802
0.878790605873
0.878975804867
0.878790605873
0.879035852488
0.878790605873
0.878939063805
0.878790605873
0.870342708049
0.846380104373
0.828239850319
0.82523630275
0.802140696149
0.604586647183
0.281279698672
0.180113514923
0.578527853362
0.606087004822
0.585045695879
0.605896759885
0.791952899362
0.873482365351
0.878790605873
0.878923093818
0.878790605873
0.878938054498
0.878790605873
0.878814931494
0.870061011173
0.855593259935
0.857610079407
0.86033953296
0.806692659542
0.49639220378
0.276072937265
0.494033105353
0.671138108909
0.618709814059
0.584952969085
0.596698045028
0.723695782456
0.822948353292
0.861082485483
0.878790605873
0.878848977584
0.878790605873
0.878830660114
0.872672517466
0.854857081978
0.850695168546
0.859631699578
0.860366490377
0.760956051664
0.3029030049
0.276084593595
0.538884624471
0.761819594368
0.72020740848
0.650964608984
0.632225052845
0.672093015263
0.738553357863
0.791414762395
0.837269932502
0.86702004258
0.876325292826
0.866764090619
0.84370802689
0.826022122277
0.839613027466
0.860644075019
0.858620211725
0.688286757473
0.276047680537
0.276028310131
0.469484442142
0.794275434243
0.840078413349
0.798906507043
0.735666203769
0.68979629658
0.68972468646
0.698266975549
0.73959820357
0.798429013367
0.82960808962
0.821494173613
0.802408895102
0.803762105022
0.832854886477
0.861312576941
0.85693183202
0.580140903284
0.275990366702
0.276039936382
0.444569411899
0.737216033919
0.87319350434
0.87606723821
0.850216331798
0.79062136109
0.716807587611
0.665003162007
0.655186564869
0.686489586711
0.738253195526
0.756006055296
0.771518589122
0.795994201631
0.835429155803
0.863735116478
0.860026677445
0.482294825773
0.276027956315
0.276013242756
0.444534137879
0.607900711878
0.866850712997
0.887363935551
0.887397297279
0.871168194712
0.82206825353
0.727900043285
0.655294946659
0.655186564869
0.677848136238
0.71406314938
0.762799076822
0.805737734359
0.849241261367
0.87082656634
0.87822591135
0.459840977672
0.27598933344
0.276039221229
0.44449882195
0.482129263549
0.793424930323
0.876956757425
0.892455412704
0.901079652229
0.899555969768
0.855835696342
0.779930754002
0.736223673783
0.732346166883
0.751227544818
0.794376493836
0.841643500079
0.874727276076
0.882474080228
0.897718652496
0.531752096193
0.276027468049
0.276007929891
0.44446351336
0.39821603613
0.625126221797
0.804065785598
0.873810483559
0.916319146849
0.916546241085
0.91634409169
0.903894987788
0.874478132685
0.852380341198
0.847920743442
0.864235287893
0.887320440213
0.897880804943
0.893375870858
0.903476452665
0.630710297991
0.292245991039
0.276069297565
0.561192787319
0.394377258287
0.414912663233
0.569619350105
0.734454467196
0.884318848436
0.91634409169
0.916672916993
0.9163622423
0.91650157006
0.916340042791
0.912922464444
0.911517357681
0.911894905305
0.909379395443
0.901563016009
0.903487991383
0.667537402615
0.345248973073
0.276056320043
0.784964821536
0.394171230695
0.38227062144
0.36651568593
0.410507384279
0.635926090504
0.906198457852
0.9163622423
0.91665945209
0.9163622423
0.916522684742
0.91634409169
0.916397209952
0.916319146849
0.913853634998
0.907829174316
0.902056624137
0.690926743899
0.36420668929
0.281574288226
0.881717788947
0.540931625785
0.418237402647
0.338596135721
0.23859045641
0.267430224377
0.677619957813
0.916658155097
0.91638622251
0.916621674945
0.9163622423
0.916488099658
0.91634409169
0.916380003404
0.916178198001
0.912833111889
0.901130894386
0.726680708005
0.383757024051
0.320033491551
0.872076193891
0.682336522079
0.483703902093
0.353444565376
0.223218021361
0.106622654877
0.34465650766
0.916150442989
0.916646847117
0.9163622423
0.916539980606
0.91634409169
0.916437218864
0.916319146849
0.916322918516
0.915789270609
0.901530071677
0.757441862871
0.40464525465
0.404389316473
0.866038317165
0.70146944525
0.507323742683
0.35341612079
0.211645679836
0.0761893864474
0.229128860095
0.909127483605
0.9163622423
0.916588777733
0.91634409169
0.91648382618
0.916319146849
0.91637373222
0.91630073322
0.916289625795
0.894053189664
0.777116355372
0.449207474566
0.54760481853
0.85264636266
0.69096967011
0.498779216545
0.327881707127
0.181085108447
0.056055325783
0.244483399566
0.91634409169
0.916588540439
0.91634409169
0.916522722094
0.916319146849
0.916423621185
0.91630073322
0.916295727981
0.912714871404
0.87442946655
0.785752957761
0.560508718903
0.723601817627
0.789665119025
0.659856403114
0.468804977738
0.277172310441
0.128246886674
0.0560080175557
0.356153875356
0.916468104528
0.91634409169
0.916548247195
0.916319146849
0.916471733825
0.91630073322
0.916352416841
0.916278408101
0.897570778492
0.849313319298
0.792578587784
0.740331862184
0.820188605601
0.672982320445
0.600361425822
0.423605622513
0.22456499105
0.0674521953629
0.0566958831406
0.625422247791
0.916319146849
0.916501127658
0.916319146849
0.916478990603
0.91630073322
0.916397391268
0.916278408101
0.913994984867
0.877040911789
0.835769379056
0.815789087556
0.817010014322
0.821947352789
0.600976986074
0.529320396082
0.361221493318
0.179255609904
0.0413772853843
0.0693534995676
0.816171303746
0.916350439596
0.916319146849
0.916469213119
0.91630073322
0.916414774043
0.916278408101
0.916313699261
0.907439641269
0.863883988287
0.832817417994
0.822358893938
0.822025858244
0.821986620205
0.62104496194
0.455385018326
0.270650806097
0.121559169939
0.0246465233129
0.113712482991
0.889206890143
0.91630073322
0.916445600349
0.91630073322
0.91642723878
0.916278408101
0.916341412823
0.916256760415
0.89965702104
0.86032788727
0.831207886993
0.815056862315
0.806440322352
0.821947352789
0.642063005922
0.360299094079
0.155255226023
0.0512670339822
0.00986200984397
0.241193577053
0.911055080754
0.916329842301
0.91630073322
0.916408159117
0.916278408101
0.916344359064
0.916256760415
0.916257051758
0.892663415383
0.859831529834
0.828837105338
0.799680255443
0.77103821879
0.820832023669
0.631307423604
0.214833703657
0.0494108503276
0.00724989767641
0.00327008372223
0.43184497866
0.906996670016
0.911107730247
0.915382508211
0.916278408101
0.916315685807
0.916256760415
0.915377109161
0.907230011292
0.882585583517
0.855113445139
0.821789155194
0.784445341865
0.753316984214
0.815659579308
0.537474116976
0.0601850675684
0.00417175159397
0.000810884650098
0.00191133865772
0.527635113734
0.879619448982
0.881464670988
0.890455432398
0.895601721868
0.897367320846
0.897295494322
0.891956558269
0.877910515045
0.858022270725
0.833892449457
0.799823771561
0.765753890237
0.7478733074
0.815578023155
0.342886099021
0.00743025494427
0.000809144620625
0.000809103692512
0.00675191242969
0.520029821007
0.819621025925
0.808623429445
0.817810375479
0.82989110546
0.836534882981
0.837515997757
0.831766361508
0.818630727122
0.802983517382
0.78258652147
0.755670821682
0.735066564379
0.719634463743
0.798560708467
0.18704061939
0.00116341864004
0.000809101495012
0.000809140209901
0.0175094689433
0.493374301898
0.735957889683
0.700011434596
0.695257757406
0.711884482304
0.728286678859
0.733360076627
0.729212693616
0.717878857693
0.706852962687
0.699331658776
0.694594478978
0.69744141302
0.691270514771
0.751158197513
0.0784957966098
0.000809094509131
0.000809137894595
0.000809096851358
0.0437507998186
0.498851815852
0.648792559684
0.590188339289
0.559883777503
0.565853027464
0.584884729305
0.595868936985
0.590651903999
0.574551619363
0.563333890326
0.567283347944
0.589379136647
0.633426451566
0.676538645831
0.750205104417
0.0740628083538
0.000809131765416
0.000809094568483
0.0032871864053
0.140351545523
0.534045204449
0.574177757666
0.509926234182
0.457162060102
0.445558310995
0.451594722401
0.454132017477
0.438579787647
0.405243721876
0.378039289053
0.379566939818
0.423332779196
0.517890817062
0.615952776598
0.750023195229
0.242268767605
0.00288187915662
0.00495377319419
0.0503790904518
0.357393747772
0.551289999062
0.524665550234
0.456572937786
0.39998681834
0.377244551364
0.364155113544
0.343805438387
0.308213067385
0.260685422312
0.213880913057
0.189820932026
0.222698932679
0.353610294504
0.526489016937
0.749841297016
0.667821185929
0.120578186807
0.0690256088213
0.281503591075
0.525590028389
0.551422534154
0.516774151994
0.453191586504
0.386703729522
0.345511613827
0.312025524522
0.270304210297
0.220162144455
0.168561348224
0.122016034167
0.0857867247004
0.075311073236
0.166781128737
0.411422819312
0.74965986445
0.806078409743
0.564194996377
0.474568234622
0.617433391572
0.601423443925
0.553445987562
0.526100524659
0.473358370566
0.397300079243
0.323471948926
0.252595908066
0.183298574785
0.124707994927
0.0805735881621
0.0498160026363
0.0290672967506
0.015318933021
0.0291247664363
0.252698006302
0.682629790273
)
;

boundaryField
{
    emptyPatch
    {
        type            empty;
    }
    minY
    {
        type            fixedValue;
        value           nonuniform List<scalar> 0();
    }
    maxY
    {
        type            inletOutlet;
        phi             phi.gas;
        inletValue      uniform 1;
        value           nonuniform List<scalar> 
20
(
0.806078409743
0.564194996377
0.474568234622
0.617433391572
0.601423443925
0.553445987562
0.526100524659
0.473358370566
0.397300079243
0.323471948926
0.252595908066
0.183298574785
0.124707994927
0.0805735881621
0.0498160026363
0.0290672967506
0.015318933021
0.0291247664363
0.252698006302
0.682629790273
)
;
    }
    maxX
    {
        type            zeroGradient;
    }
    water_to_heater
    {
        type            zeroGradient;
    }
    procBoundary2to1
    {
        type            processor;
        value           nonuniform List<scalar> 
20
(
0.940195398619
0.907163133047
0.820116369755
0.660859041436
0.394526656237
0.239939654321
0.305921314213
0.607541157847
0.834720346199
0.863923792098
0.86388974425
0.450052459787
0.0168670772051
0.000791182784899
0.00079088260064
0.000791105154793
0.000790293153798
0.000791634140554
0.000789591854294
0.0256945897271
)
;
    }
    procBoundary2to3
    {
        type            processor;
        value           nonuniform List<scalar> 
39
(
0.940163314024
0.940285944655
0.94012380254
0.940160969617
0.842677714182
0.471433500132
0.102663307589
0.0241380305566
0.0241052024749
0.0241331368294
0.190320117398
0.190320117398
0.431367899442
0.6327765845
0.756216801505
0.820017545891
0.845513159637
0.864964597681
0.898633873089
0.905159221297
0.887611284357
0.831175243238
0.884781888467
0.884781888467
0.884804501297
0.815494158027
0.731056538193
0.718108244098
0.778747327033
0.833463940249
0.857308501937
0.8559430224
0.882509519623
0.834656724479
0.672173605732
0.623588126903
0.791025860465
0.791758548206
0.715326244684
)
;
    }
}


// ************************************************************************* //
