/*--------------------------------*- C++ -*----------------------------------*\
| =========                 |                                                 |
| \\      /  F ield         | OpenFOAM: The Open Source CFD Toolbox           |
|  \\    /   O peration     | Version:  2312                                  |
|   \\  /    A nd           | Website:  www.openfoam.com                      |
|    \\/     M anipulation  |                                                 |
\*---------------------------------------------------------------------------*/
FoamFile
{
    version     2.0;
    format      ascii;
    arch        "LSB;label=32;scalar=64";
    class       volScalarField;
    location    "40";
    object      alpha.air;
}
// * * * * * * * * * * * * * * * * * * * * * * * * * * * * * * * * * * * * * //

dimensions      [0 0 0 0 0 0 0];

internalField   nonuniform List<scalar> 
1875
(
0.168367
0.164877
0.169653
0.17582
0.18403
0.193919
0.20439
0.215583
0.227625
0.240722
0.25392
0.266304
0.277372
0.285914
0.287886
0.286718
0.275139
0.257525
0.258961
0.267116
0.284276
0.301178
0.264311
0.217546
0.217537
0.078041
0.0774929
0.078041
0.0838005
0.0984691
0.117241
0.135912
0.15179
0.165542
0.180203
0.199239
0.22137
0.245427
0.268719
0.295013
0.322006
0.311821
0.257905
0.200524
0.176068
0.192357
0.218177
0.244737
0.229185
0.214387
0.0773848
0.078041
0.0935863
0.134666
0.189159
0.228774
0.249889
0.252018
0.25739
0.263976
0.27243
0.27402
0.285257
0.308894
0.322006
0.322022
0.291274
0.21663
0.166554
0.167346
0.174997
0.216505
0.247508
0.224264
0.199879
0.078041
0.0953097
0.195797
0.270547
0.299209
0.313322
0.313923
0.317438
0.313924
0.317549
0.313924
0.316145
0.313923
0.316153
0.313608
0.274631
0.214931
0.169305
0.167346
0.166306
0.190827
0.23472
0.247826
0.221373
0.199794
0.0754454
0.152755
0.271381
0.30492
0.306191
0.308362
0.3095
0.30958
0.306961
0.304172
0.298447
0.291457
0.279112
0.259746
0.226054
0.185318
0.167013
0.167346
0.166892
0.193381
0.22194
0.232748
0.234959
0.210624
0.199705
0.078041
0.196459
0.287275
0.301756
0.302652
0.297555
0.292096
0.282991
0.273004
0.259892
0.24459
0.225434
0.204209
0.184676
0.173026
0.170123
0.170217
0.181281
0.196434
0.209568
0.213239
0.213492
0.206553
0.196866
0.199289
0.0768976
0.19906
0.277391
0.29213
0.282797
0.266239
0.253343
0.239828
0.224187
0.20669
0.190873
0.179185
0.173811
0.172859
0.172895
0.174129
0.182848
0.187295
0.188934
0.189008
0.180234
0.174015
0.169774
0.172523
0.19706
0.078041
0.192769
0.267396
0.290027
0.264728
0.245461
0.225371
0.205083
0.189561
0.179986
0.176817
0.17578
0.175226
0.175277
0.17849
0.18112
0.182433
0.17869
0.170749
0.163083
0.15616
0.152032
0.150815
0.150933
0.175786
0.0909782
0.184922
0.242019
0.282065
0.272069
0.25253
0.228926
0.202139
0.185084
0.179587
0.176331
0.17585
0.176949
0.18132
0.186121
0.188356
0.188155
0.182408
0.17334
0.167272
0.16364
0.160944
0.157484
0.155579
0.155755
0.152437
0.17299
0.20245
0.242173
0.25968
0.255144
0.243486
0.222062
0.198844
0.181732
0.176292
0.176702
0.183051
0.195346
0.205875
0.217277
0.226901
0.227682
0.203802
0.185642
0.178619
0.17752
0.185393
0.190291
0.155762
0.152941
0.148301
0.157514
0.180241
0.208935
0.229939
0.235817
0.232096
0.222516
0.203833
0.188405
0.181675
0.184763
0.193346
0.209812
0.238094
0.258339
0.258151
0.249021
0.207536
0.186683
0.183053
0.203039
0.227177
0.17261
0.138937
0.117896
0.12136
0.131394
0.148494
0.17166
0.199209
0.219331
0.222082
0.218121
0.207875
0.195678
0.190518
0.19384
0.204348
0.226442
0.250238
0.255804
0.247639
0.222129
0.196707
0.193117
0.211448
0.236176
0.198003
0.103582
0.10845
0.132743
0.16156
0.166318
0.171646
0.177165
0.192793
0.212302
0.22312
0.221575
0.212454
0.200659
0.196607
0.200053
0.211969
0.231075
0.236064
0.226766
0.207521
0.195416
0.202062
0.222835
0.236339
0.212657
0.0905949
0.150562
0.232371
0.296622
0.28369
0.223484
0.18781
0.193678
0.21072
0.227873
0.248503
0.236181
0.220622
0.205856
0.197159
0.197935
0.205993
0.204262
0.19112
0.190525
0.195399
0.212784
0.229923
0.235204
0.215625
0.0909194
0.225773
0.304786
0.309503
0.304786
0.293858
0.23251
0.22071
0.234559
0.248205
0.249403
0.244539
0.217965
0.201092
0.189587
0.186341
0.187044
0.186314
0.187065
0.190293
0.207456
0.219673
0.220271
0.2199
0.206036
0.117943
0.245537
0.299149
0.304786
0.309067
0.304786
0.287448
0.271122
0.265396
0.257116
0.244414
0.229305
0.204603
0.190305
0.186184
0.187044
0.185759
0.187044
0.188811
0.203837
0.207646
0.20579
0.196899
0.193594
0.18369
0.138167
0.242799
0.287223
0.306164
0.304786
0.304165
0.285252
0.270196
0.259002
0.24395
0.224916
0.205037
0.190158
0.186399
0.187044
0.185488
0.187044
0.186345
0.199708
0.203983
0.197603
0.184846
0.177964
0.169306
0.156977
0.151055
0.244675
0.281007
0.304786
0.307949
0.2979
0.277506
0.262445
0.24313
0.221181
0.202999
0.19163
0.187289
0.187044
0.185432
0.186821
0.185587
0.194354
0.199697
0.194422
0.181458
0.174504
0.171539
0.155255
0.141892
0.162726
0.250667
0.280144
0.303135
0.304786
0.299008
0.270467
0.24684
0.22314
0.204829
0.193989
0.189154
0.187214
0.18588
0.186821
0.185004
0.187273
0.194367
0.1926
0.17993
0.174819
0.174808
0.174508
0.151576
0.139596
0.170818
0.257542
0.280085
0.302642
0.306691
0.301116
0.265337
0.236499
0.214606
0.200716
0.193797
0.190541
0.1888
0.186821
0.185524
0.186821
0.190244
0.190442
0.180628
0.174823
0.174952
0.182207
0.185375
0.157633
0.139647
0.173415
0.264101
0.280447
0.301605
0.304786
0.304265
0.264431
0.233795
0.213014
0.20053
0.194596
0.192346
0.191264
0.188904
0.186821
0.18587
0.188689
0.183132
0.175645
0.175273
0.184034
0.196124
0.19815
0.174686
0.140155
0.172322
0.268229
0.281618
0.300846
0.305522
0.304786
0.264979
0.232891
0.211772
0.199953
0.194952
0.193336
0.192697
0.19133
0.188298
0.186867
0.18481
0.182938
0.182927
0.190057
0.200285
0.204328
0.203284
0.193099
0.143478
0.168199
0.267152
0.281522
0.299875
0.304786
0.30469
0.265323
0.231459
0.209258
0.198146
0.19415
0.192581
0.191517
0.189118
0.186508
0.186477
0.186602
0.19157
0.204929
0.211564
0.21053
0.205074
0.202767
0.202427
0.144239
0.16788
0.261953
0.280417
0.297516
0.304848
0.302614
0.269258
0.233181
0.209345
0.197705
0.192929
0.190206
0.187621
0.184292
0.182986
0.186502
0.197645
0.213851
0.229002
0.228239
0.216526
0.204304
0.200257
0.204751
0.144167
0.167878
0.247555
0.275175
0.29232
0.302952
0.299877
0.277637
0.242576
0.215246
0.201197
0.195038
0.19123
0.187086
0.183053
0.182955
0.189722
0.20984
0.229641
0.235255
0.235232
0.224159
0.205814
0.199621
0.205338
0.143882
0.168207
0.222375
0.260118
0.280658
0.294956
0.294008
0.284301
0.261259
0.233577
0.213577
0.202769
0.196518
0.190982
0.185539
0.183048
0.18905
0.206003
0.225035
0.234331
0.234984
0.228741
0.212002
0.199644
0.205772
0.144167
0.169199
0.193141
0.230956
0.258104
0.275865
0.281434
0.279216
0.271085
0.255599
0.235853
0.219345
0.208266
0.200394
0.192957
0.186033
0.187652
0.195555
0.209464
0.222941
0.228598
0.227126
0.217641
0.20201
0.206983
0.143845
0.173705
0.167294
0.192503
0.222788
0.245057
0.257931
0.265647
0.264962
0.259897
0.250591
0.237741
0.224884
0.214341
0.205105
0.196064
0.190032
0.19006
0.194118
0.203529
0.213086
0.220622
0.218367
0.206099
0.209507
0.144167
0.180774
0.158003
0.163607
0.183549
0.206028
0.225521
0.24099
0.250981
0.255428
0.252476
0.245878
0.236743
0.227073
0.217681
0.208174
0.198029
0.190656
0.190749
0.192467
0.200091
0.214145
0.217415
0.208728
0.212035
0.152427
0.19215
0.157638
0.158003
0.160991
0.172802
0.192504
0.213779
0.23158
0.243478
0.24935
0.248208
0.244198
0.236303
0.22679
0.217191
0.206686
0.195464
0.190732
0.191784
0.198698
0.214221
0.218117
0.20978
0.213869
0.159265
0.191968
0.158003
0.157614
0.159369
0.167936
0.182161
0.200284
0.218765
0.233456
0.243757
0.246733
0.246411
0.241887
0.232712
0.223004
0.213626
0.202452
0.192797
0.194968
0.203202
0.217525
0.218465
0.210006
0.215813
0.16357
0.182691
0.163979
0.15915
0.164982
0.174114
0.187893
0.205308
0.22262
0.2357
0.243769
0.245416
0.246208
0.243602
0.235543
0.227166
0.219577
0.209469
0.201597
0.204806
0.214259
0.220611
0.21857
0.210144
0.220775
0.168208
0.158438
0.182301
0.175748
0.178452
0.188485
0.203107
0.219324
0.233081
0.24231
0.246795
0.245851
0.245605
0.242299
0.234342
0.226949
0.22132
0.215349
0.214004
0.21743
0.220561
0.220656
0.216708
0.210275
0.225235
0.174337
0.139036
0.194628
0.189946
0.192943
0.208764
0.224504
0.237449
0.245296
0.248059
0.248075
0.246829
0.243723
0.238767
0.231405
0.22545
0.220824
0.218362
0.218635
0.218898
0.219258
0.217863
0.212835
0.210317
0.224937
0.181759
0.138381
0.197947
0.196799
0.209945
0.231256
0.245255
0.252331
0.253801
0.251145
0.247886
0.244848
0.238981
0.232506
0.226103
0.221355
0.217927
0.215972
0.215145
0.213886
0.212165
0.210817
0.210933
0.211136
0.225233
0.193806
0.139036
0.2011
0.207081
0.229098
0.250684
0.258999
0.259366
0.254618
0.250422
0.245025
0.237702
0.229395
0.221988
0.216028
0.211556
0.208328
0.206029
0.204171
0.202993
0.203014
0.206547
0.212818
0.220766
0.224937
0.218176
0.137169
0.206984
0.221942
0.245749
0.261418
0.264442
0.259544
0.253651
0.245418
0.234877
0.223793
0.213863
0.206031
0.200199
0.196146
0.193707
0.192772
0.193185
0.195889
0.200605
0.207105
0.215308
0.222687
0.224898
0.225092
0.139036
0.215483
0.237306
0.256044
0.264636
0.264719
0.258544
0.247713
0.233066
0.218068
0.205179
0.195454
0.188834
0.184781
0.182705
0.182103
0.183619
0.186555
0.191212
0.196857
0.203156
0.209963
0.216286
0.221173
0.225296
0.136446
0.22564
0.24967
0.261843
0.267396
0.264689
0.253773
0.235675
0.216097
0.199804
0.188131
0.180693
0.176345
0.174145
0.173435
0.174224
0.176524
0.179073
0.182584
0.186069
0.189527
0.193606
0.198825
0.210708
0.225092
0.139036
0.234916
0.258824
0.266126
0.270076
0.263182
0.24482
0.220902
0.200329
0.186099
0.176968
0.171196
0.167691
0.166001
0.165628
0.167612
0.170655
0.172957
0.17467
0.176083
0.177502
0.179866
0.183657
0.196049
0.225215
0.136541
0.243301
0.265613
0.269749
0.272693
0.259321
0.234445
0.207846
0.18941
0.178211
0.17025
0.164806
0.161692
0.160581
0.16067
0.163909
0.168703
0.173034
0.176007
0.178525
0.180684
0.182677
0.183811
0.185372
0.207798
0.139036
0.25092
0.271205
0.273421
0.275959
0.259379
0.230123
0.205246
0.18837
0.175476
0.166298
0.161285
0.159723
0.159671
0.160652
0.166105
0.172616
0.179541
0.186311
0.192115
0.196845
0.199922
0.199234
0.185167
0.176336
0.136391
0.250044
0.276167
0.276886
0.280415
0.263027
0.233511
0.20825
0.191088
0.177464
0.166846
0.160903
0.159701
0.16065
0.169027
0.177808
0.185809
0.193569
0.200864
0.207472
0.213483
0.22038
0.224544
0.203609
0.157854
0.139036
0.24366
0.279479
0.280432
0.284638
0.272268
0.2447
0.217473
0.198874
0.184015
0.170526
0.162039
0.159813
0.169461
0.18774
0.198645
0.2041
0.207245
0.209045
0.212051
0.2167
0.225235
0.233946
0.233048
0.154904
0.136978
0.225532
0.275675
0.283202
0.288686
0.283835
0.265108
0.237751
0.214817
0.197324
0.180781
0.167514
0.162315
0.177718
0.20031
0.212693
0.216515
0.216361
0.213302
0.211994
0.212735
0.218412
0.23406
0.243921
0.154693
0.139036
0.196961
0.259721
0.280401
0.289843
0.292271
0.287906
0.269595
0.245067
0.22258
0.201818
0.182283
0.170608
0.1784
0.196438
0.212109
0.218724
0.218769
0.21662
0.211944
0.209968
0.209924
0.22814
0.243964
0.154904
0.14806
0.168524
0.226993
0.2667
0.285406
0.292392
0.292635
0.29138
0.281895
0.262864
0.239923
0.214632
0.191313
0.184219
0.190174
0.203308
0.212452
0.216899
0.216843
0.213514
0.209938
0.207355
0.220846
0.244081
0.154041
0.186687
0.151455
0.186536
0.23485
0.268017
0.286109
0.292269
0.296986
0.297279
0.293394
0.284433
0.265167
0.237554
0.209954
0.196273
0.196332
0.20122
0.208135
0.212374
0.212653
0.210743
0.207288
0.217392
0.243798
0.154904
0.184242
0.141953
0.154747
0.192822
0.233975
0.264958
0.28402
0.293131
0.298521
0.302883
0.303121
0.303462
0.293656
0.264333
0.229939
0.205648
0.199829
0.199635
0.202398
0.206908
0.209287
0.207231
0.216256
0.244217
0.153273
0.186845
0.13917
0.139096
0.158186
0.193084
0.229588
0.260304
0.280078
0.293103
0.302489
0.303941
0.303121
0.304483
0.300055
0.277785
0.242696
0.211906
0.19768
0.196842
0.19898
0.204614
0.205933
0.215701
0.243482
0.154904
0.184242
0.13927
0.138323
0.142866
0.16191
0.192143
0.225572
0.254841
0.277393
0.295062
0.303121
0.304041
0.303121
0.304164
0.29922
0.279587
0.243452
0.208063
0.196632
0.196842
0.199221
0.203031
0.215206
0.244488
0.152894
0.185557
0.138673
0.139096
0.138955
0.145189
0.163213
0.190661
0.221955
0.25155
0.276776
0.295531
0.303121
0.304103
0.303121
0.301555
0.292994
0.268983
0.228901
0.198271
0.196283
0.196842
0.200168
0.214589
0.243699
0.154904
0.184242
0.13911
0.1374
0.139096
0.13976
0.146369
0.162887
0.18899
0.220087
0.251012
0.27832
0.297698
0.303121
0.303324
0.301436
0.292121
0.273207
0.241983
0.204784
0.196842
0.196514
0.198937
0.214844
0.244781
0.152891
0.184322
0.138722
0.139096
0.138483
0.139096
0.140679
0.147424
0.163807
0.190248
0.222418
0.254915
0.283421
0.30038
0.302382
0.298995
0.288429
0.269528
0.239883
0.206389
0.196024
0.196842
0.199497
0.217021
0.24391
0.154904
0.17555
0.143702
0.137293
0.139096
0.138925
0.140366
0.143738
0.151538
0.168809
0.197052
0.23148
0.265555
0.293176
0.297021
0.292567
0.280429
0.260869
0.233092
0.203963
0.196842
0.196408
0.200633
0.221722
0.244556
0.153077
0.157997
0.15376
0.139096
0.138181
0.139096
0.141287
0.145138
0.152838
0.169801
0.198261
0.232919
0.264698
0.286136
0.287873
0.281662
0.267826
0.247536
0.221448
0.199885
0.196054
0.196842
0.203484
0.229967
0.244007
0.154904
0.149935
0.161991
0.137689
0.139096
0.13893
0.143569
0.149204
0.158647
0.178105
0.20862
0.242048
0.267183
0.277766
0.276003
0.267077
0.251414
0.230877
0.207563
0.196979
0.196842
0.197938
0.209161
0.241446
0.244052
0.153274
0.148595
0.167438
0.139096
0.138275
0.140619
0.149509
0.158693
0.173705
0.199053
0.229659
0.254107
0.265692
0.268547
0.261981
0.249806
0.232874
0.213736
0.198197
0.196842
0.196005
0.203855
0.218461
0.241387
0.240085
0.154904
0.149935
0.172046
0.138902
0.139096
0.15069
0.164558
0.179462
0.201526
0.22763
0.248398
0.258193
0.261043
0.257107
0.246139
0.231799
0.215528
0.202043
0.196842
0.196721
0.196842
0.212924
0.228527
0.241277
0.229688
0.153967
0.146145
0.182769
0.150472
0.146909
0.175184
0.19217
0.211234
0.231265
0.246324
0.253934
0.255906
0.253396
0.243728
0.230934
0.216803
0.204145
0.197484
0.196793
0.196975
0.204062
0.222434
0.23483
0.239748
0.217325
0.156696
0.149935
0.206512
0.179033
0.175576
0.208265
0.2243
0.240052
0.250726
0.2538
0.253245
0.250859
0.243621
0.232107
0.220227
0.209291
0.201479
0.197541
0.196842
0.202929
0.216535
0.227936
0.236766
0.238014
0.211501
0.163559
0.145157
0.236521
0.218556
0.209521
0.23482
0.246209
0.253753
0.255013
0.254925
0.250968
0.245443
0.238097
0.228805
0.218954
0.209403
0.202532
0.199937
0.202692
0.214266
0.222259
0.229181
0.237445
0.240066
0.214638
0.162367
0.149935
0.242161
0.242915
0.232608
0.247666
0.253009
0.25495
0.255057
0.254929
0.251038
0.245656
0.238942
0.230382
0.220877
0.212009
0.20723
0.207937
0.21856
0.230098
0.226284
0.230252
0.237249
0.242681
0.224805
0.157055
0.145059
0.242775
0.242682
0.24215
0.251932
0.254859
0.254961
0.254905
0.254946
0.253157
0.248474
0.242981
0.235872
0.227189
0.219514
0.216735
0.22158
0.232773
0.232953
0.232563
0.23295
0.23712
0.242695
0.237387
0.154904
0.149935
0.241426
0.24105
0.237745
0.246205
0.250304
0.251729
0.252031
0.25223
0.251239
0.247389
0.242077
0.234431
0.225499
0.218696
0.21646
0.220475
0.22996
0.231357
0.230837
0.231302
0.233563
0.239089
0.233953
0.154462
0.14513
0.232321
0.233385
0.229816
0.229862
0.234834
0.237799
0.238831
0.239289
0.239717
0.237918
0.232692
0.216414
0.208145
0.207831
0.208145
0.207833
0.20861
0.216732
0.222533
0.226101
0.226192
0.230425
0.225089
0.154904
0.180118
0.301858
0.285724
0.272748
0.271379
0.267781
0.264856
0.262278
0.261172
0.263237
0.265609
0.259514
0.208145
0.20783
0.208144
0.207831
0.210112
0.241885
0.275606
0.293091
0.3005
0.300675
0.302888
0.301513
0.228461
0.686158
0.682396
0.664613
0.653713
0.643299
0.626184
0.612946
0.603953
0.600334
0.605929
0.626047
0.640565
0.499504
0.497082
0.497913
0.502034
0.607392
0.688963
0.717728
0.719026
0.715701
0.711772
0.707262
0.708102
0.728537
0.979519
0.969301
0.965593
0.964972
0.964027
0.962655
0.961672
0.961285
0.961723
0.963411
0.966516
0.968861
0.961078
0.962394
0.965992
0.96977
0.977869
0.981424
0.981156
0.979115
0.97694
0.975202
0.974192
0.976937
0.985299
0.999889
0.999511
0.999121
0.999103
0.999169
0.999252
0.999342
0.999448
0.999565
0.999675
0.999737
0.999729
0.999679
0.999616
0.99962
0.999673
0.999752
0.99978
0.999767
0.99971
0.999616
0.99952
0.999516
0.999818
0.999984
1
0.999999
0.999995
0.999996
0.999997
0.999998
0.999999
1
1
1
1
1
1
1
1
1
0.999999
0.999999
0.999999
0.999999
0.999999
0.999999
0.999999
1
1
1
1
1
1
1
1
1
1
1
1
1
1
1
1
1
1
1
1
1
1
1
1
1
1
1
1
1
1
1
1
1
1
1
1
1
1
1
1
1
1
1
1
1
1
1
1
1
1
1
1
1
1
1
1
1
1
1
1
1
1
1
1
1
1
1
1
1
1
1
1
1
1
1
1
1
1
1
1
1
1
1
1
1
1
1
1
1
1
1
1
1
1
1
1
1
1
1
1
1
1
)
;

boundaryField
{
    inlet
    {
        type            fixedValue;
        value           uniform 0.5;
    }
    outlet
    {
        type            inletOutlet;
        phi             phi.air;
        inletValue      uniform 1;
        value           nonuniform List<scalar> 
25
(
1
1
1
1
1
1
1
1
1
1
1
1
1
1
1
1
1
1
1
1
1
1
1
1
1
)
;
    }
    walls
    {
        type            zeroGradient;
    }
    defaultFaces
    {
        type            empty;
    }
}


// ************************************************************************* //
