/*--------------------------------*- C++ -*----------------------------------*\
| =========                 |                                                 |
| \\      /  F ield         | OpenFOAM: The Open Source CFD Toolbox           |
|  \\    /   O peration     | Version:  2312                                  |
|   \\  /    A nd           | Website:  www.openfoam.com                      |
|    \\/     M anipulation  |                                                 |
\*---------------------------------------------------------------------------*/
FoamFile
{
    version     2.0;
    format      ascii;
    arch        "LSB;label=32;scalar=64";
    class       volScalarField;
    location    "40";
    object      nut.air;
}
// * * * * * * * * * * * * * * * * * * * * * * * * * * * * * * * * * * * * * //

dimensions      [0 2 -1 0 0 0 0];

internalField   nonuniform List<scalar> 
1875
(
1.76052e-06
1.71785e-06
1.6277e-06
1.52396e-06
1.45566e-06
1.4009e-06
1.38771e-06
1.37282e-06
1.37884e-06
1.39546e-06
1.40809e-06
1.43611e-06
1.45547e-06
1.45855e-06
1.47103e-06
1.44404e-06
1.4168e-06
1.33823e-06
1.10701e-06
7.61012e-07
4.96687e-07
7.65463e-08
2.15499e-09
2.72282e-09
7.09113e-07
1.97211e-06
1.50836e-06
1.0129e-06
9.62591e-07
8.49529e-07
8.03867e-07
7.77148e-07
7.86043e-07
7.93405e-07
8.02829e-07
8.58765e-07
9.22087e-07
9.89648e-07
1.07829e-06
1.15063e-06
1.31321e-06
1.2776e-06
1.20533e-06
9.41946e-07
5.25076e-07
3.49192e-07
2.19998e-07
8.10987e-08
4.7703e-08
9.89323e-08
2.07678e-06
1.17535e-06
8.33553e-07
8.11423e-07
6.40301e-07
6.24878e-07
6.3886e-07
6.64876e-07
7.18869e-07
7.86855e-07
8.45216e-07
9.03457e-07
9.52366e-07
9.92158e-07
1.03793e-06
1.16127e-06
1.14106e-06
9.50036e-07
5.8336e-07
3.76516e-07
3.07749e-07
2.17248e-07
9.28752e-08
6.53109e-08
2.71132e-07
2.12633e-06
1.00245e-06
8.8106e-07
7.82369e-07
6.61878e-07
6.17692e-07
5.97598e-07
6.08614e-07
6.17423e-07
6.28707e-07
6.64778e-07
6.81543e-07
7.01707e-07
7.12866e-07
7.10951e-07
7.06076e-07
6.23323e-07
4.61986e-07
3.78345e-07
3.24225e-07
2.60351e-07
1.74631e-07
1.17735e-07
1.31409e-07
4.03798e-07
3.04081e-06
1.31653e-06
1.00925e-06
8.507e-07
8.23231e-07
7.35657e-07
7.14752e-07
6.92179e-07
6.88539e-07
6.87946e-07
7.15168e-07
7.29823e-07
7.72998e-07
8.25548e-07
8.55324e-07
9.7192e-07
9.36206e-07
9.162e-07
8.0463e-07
6.63141e-07
5.36478e-07
4.71475e-07
5.49794e-07
8.62084e-07
1.24745e-06
4.17033e-06
2.88547e-06
2.75206e-06
2.79035e-06
2.88599e-06
2.86031e-06
2.86021e-06
2.8521e-06
2.88369e-06
2.98451e-06
3.18301e-06
3.49287e-06
3.95586e-06
4.51939e-06
5.21396e-06
5.83369e-06
6.24375e-06
6.45178e-06
6.38368e-06
6.22686e-06
6.31247e-06
6.51552e-06
7.01686e-06
7.51775e-06
7.56514e-06
4.72722e-06
3.02828e-06
3.94697e-06
5.37597e-06
6.08539e-06
6.46379e-06
6.85056e-06
7.31532e-06
7.79166e-06
8.29417e-06
8.82271e-06
9.39957e-06
1.00249e-05
1.06257e-05
1.11721e-05
1.16103e-05
1.19645e-05
1.23397e-05
1.26053e-05
1.27608e-05
1.2851e-05
1.27831e-05
1.25388e-05
1.20113e-05
1.13047e-05
7.75498e-06
4.00424e-06
3.32893e-06
4.59633e-06
6.18117e-06
7.77091e-06
8.80368e-06
9.51611e-06
9.95503e-06
1.03932e-05
1.09299e-05
1.13943e-05
1.1788e-05
1.21003e-05
1.23727e-05
1.26173e-05
1.28722e-05
1.31058e-05
1.32992e-05
1.35315e-05
1.37409e-05
1.38383e-05
1.37192e-05
1.31898e-05
1.22243e-05
1.15115e-05
7.45766e-06
4.35705e-06
4.1171e-06
4.80667e-06
6.10933e-06
7.50668e-06
9.11804e-06
1.04055e-05
1.12252e-05
1.15694e-05
1.16193e-05
1.15784e-05
1.15857e-05
1.15588e-05
1.14911e-05
1.14992e-05
1.15656e-05
1.17777e-05
1.22053e-05
1.27984e-05
1.33254e-05
1.3652e-05
1.35627e-05
1.29084e-05
1.33945e-05
1.19608e-05
1.01774e-05
7.91276e-06
6.27237e-06
5.75339e-06
6.37521e-06
7.38364e-06
8.64975e-06
9.99892e-06
1.10653e-05
1.13922e-05
1.13389e-05
1.10156e-05
1.0461e-05
9.92017e-06
9.54253e-06
9.35093e-06
9.7056e-06
1.02876e-05
1.13968e-05
1.25378e-05
1.32805e-05
1.35121e-05
1.3151e-05
1.39181e-05
1.43461e-05
1.46077e-05
1.39529e-05
1.28573e-05
1.12974e-05
9.51654e-06
8.04605e-06
7.79788e-06
8.53791e-06
9.36599e-06
9.971e-06
1.04245e-05
1.0519e-05
1.02837e-05
9.82341e-06
9.26246e-06
8.7169e-06
8.6698e-06
9.33174e-06
1.07696e-05
1.24358e-05
1.3524e-05
1.38894e-05
1.35403e-05
1.3665e-05
1.51537e-05
1.62245e-05
1.66248e-05
1.63266e-05
1.55847e-05
1.43445e-05
1.30907e-05
1.12549e-05
9.52873e-06
8.94602e-06
9.31006e-06
9.54124e-06
9.53972e-06
9.45691e-06
9.25089e-06
8.93174e-06
8.53925e-06
8.50171e-06
9.10196e-06
1.06549e-05
1.25527e-05
1.37484e-05
1.41412e-05
1.39365e-05
1.49637e-05
1.61787e-05
1.67656e-05
1.68865e-05
1.69302e-05
1.67167e-05
1.60693e-05
1.5113e-05
1.38991e-05
1.26167e-05
1.10133e-05
9.78939e-06
9.36971e-06
9.32544e-06
9.24831e-06
9.05712e-06
8.72412e-06
8.47893e-06
8.70506e-06
9.95647e-06
1.21897e-05
1.40278e-05
1.49959e-05
1.51474e-05
1.47304e-05
1.59358e-05
1.54084e-05
1.47906e-05
1.47196e-05
1.51066e-05
1.56148e-05
1.58226e-05
1.5375e-05
1.43868e-05
1.30267e-05
1.1685e-05
1.04212e-05
9.53533e-06
9.07515e-06
8.94335e-06
8.75822e-06
8.63946e-06
8.82173e-06
1.0186e-05
1.25553e-05
1.46742e-05
1.59318e-05
1.6271e-05
1.5866e-05
1.49566e-05
1.59547e-05
1.39919e-05
1.22987e-05
1.2132e-05
1.30177e-05
1.40282e-05
1.4742e-05
1.47982e-05
1.4081e-05
1.2829e-05
1.14287e-05
1.00041e-05
8.94576e-06
8.58435e-06
8.4711e-06
8.41975e-06
9.24119e-06
1.12345e-05
1.36507e-05
1.56676e-05
1.68737e-05
1.73152e-05
1.71558e-05
1.6415e-05
1.51631e-05
1.65224e-05
1.34001e-05
1.08687e-05
1.03126e-05
1.06368e-05
1.11021e-05
1.11509e-05
1.08455e-05
1.02576e-05
9.60553e-06
8.85434e-06
8.50086e-06
8.42842e-06
8.34377e-06
9.04924e-06
1.07118e-05
1.28213e-05
1.48349e-05
1.65034e-05
1.75584e-05
1.8197e-05
1.8431e-05
1.82123e-05
1.74436e-05
1.60798e-05
1.64198e-05
1.25573e-05
9.44768e-06
8.55685e-06
8.39532e-06
8.39186e-06
8.51124e-06
8.51807e-06
8.40105e-06
8.36465e-06
8.44284e-06
8.7158e-06
9.41309e-06
1.08366e-05
1.24951e-05
1.42267e-05
1.58754e-05
1.72205e-05
1.8093e-05
1.8737e-05
1.92018e-05
1.93636e-05
1.91817e-05
1.86331e-05
1.74911e-05
1.55088e-05
1.16669e-05
8.51503e-06
7.59184e-06
7.37753e-06
7.3232e-06
7.56037e-06
7.85709e-06
8.32025e-06
9.13102e-06
9.97526e-06
1.11804e-05
1.25409e-05
1.39985e-05
1.54102e-05
1.66477e-05
1.76564e-05
1.84037e-05
1.89874e-05
1.94979e-05
1.98168e-05
1.99324e-05
1.98893e-05
1.95585e-05
1.87491e-05
1.40215e-05
1.11107e-05
8.09026e-06
7.09551e-06
6.96427e-06
7.39272e-06
8.17877e-06
9.09574e-06
1.01993e-05
1.14084e-05
1.26764e-05
1.39756e-05
1.51121e-05
1.61398e-05
1.70411e-05
1.78113e-05
1.84467e-05
1.89493e-05
1.94135e-05
1.97839e-05
2.00158e-05
2.01391e-05
2.01211e-05
1.99158e-05
1.9242e-05
1.33934e-05
1.13545e-05
8.4978e-06
7.39299e-06
7.3859e-06
8.31346e-06
9.6175e-06
1.09034e-05
1.23131e-05
1.35762e-05
1.46726e-05
1.56214e-05
1.64332e-05
1.71357e-05
1.77467e-05
1.82814e-05
1.87584e-05
1.91951e-05
1.95681e-05
1.98644e-05
2.00369e-05
2.00824e-05
2.00264e-05
1.9895e-05
1.93628e-05
1.35283e-05
1.1948e-05
9.56232e-06
8.36771e-06
8.3814e-06
9.47353e-06
1.10146e-05
1.24638e-05
1.37673e-05
1.48303e-05
1.56771e-05
1.63794e-05
1.69843e-05
1.75109e-05
1.7989e-05
1.84343e-05
1.8858e-05
1.92339e-05
1.95891e-05
1.98376e-05
1.99478e-05
1.99824e-05
1.99263e-05
1.96994e-05
1.92399e-05
1.41808e-05
1.27404e-05
1.08506e-05
9.71359e-06
9.67914e-06
1.06787e-05
1.21261e-05
1.34792e-05
1.46021e-05
1.54528e-05
1.61065e-05
1.66511e-05
1.71199e-05
1.75474e-05
1.7958e-05
1.83578e-05
1.87408e-05
1.91254e-05
1.94412e-05
1.96725e-05
1.98574e-05
1.99007e-05
1.97914e-05
1.94828e-05
1.88532e-05
1.47902e-05
1.35303e-05
1.19611e-05
1.08727e-05
1.07925e-05
1.16192e-05
1.28638e-05
1.40321e-05
1.49782e-05
1.56831e-05
1.6211e-05
1.66253e-05
1.6995e-05
1.73532e-05
1.77144e-05
1.80719e-05
1.84318e-05
1.87835e-05
1.9145e-05
1.94786e-05
1.97098e-05
1.98087e-05
1.97018e-05
1.92966e-05
1.85725e-05
1.53224e-05
1.42472e-05
1.30031e-05
1.19679e-05
1.1671e-05
1.21483e-05
1.31355e-05
1.41493e-05
1.49774e-05
1.55824e-05
1.6011e-05
1.6352e-05
1.66583e-05
1.69616e-05
1.72733e-05
1.75924e-05
1.79315e-05
1.83074e-05
1.87022e-05
1.91203e-05
1.95211e-05
1.9776e-05
1.97625e-05
1.93918e-05
1.86211e-05
1.60003e-05
1.48575e-05
1.38816e-05
1.29223e-05
1.24812e-05
1.2613e-05
1.32717e-05
1.4017e-05
1.46856e-05
1.52102e-05
1.5595e-05
1.58908e-05
1.61541e-05
1.64115e-05
1.66755e-05
1.69541e-05
1.72392e-05
1.76199e-05
1.81152e-05
1.8668e-05
1.91994e-05
1.96294e-05
1.97949e-05
1.95515e-05
1.88426e-05
1.67187e-05
1.57803e-05
1.50487e-05
1.42577e-05
1.34538e-05
1.30911e-05
1.33296e-05
1.38191e-05
1.43149e-05
1.47181e-05
1.50456e-05
1.53428e-05
1.56289e-05
1.5908e-05
1.61362e-05
1.6391e-05
1.67113e-05
1.7115e-05
1.7643e-05
1.82801e-05
1.89467e-05
1.95093e-05
1.98257e-05
1.97831e-05
1.92817e-05
1.71817e-05
1.65758e-05
1.61749e-05
1.55961e-05
1.50955e-05
1.43354e-05
1.38459e-05
1.38633e-05
1.41187e-05
1.44469e-05
1.47699e-05
1.50645e-05
1.53317e-05
1.55912e-05
1.58778e-05
1.61163e-05
1.64413e-05
1.68866e-05
1.74807e-05
1.81737e-05
1.88702e-05
1.94662e-05
1.98314e-05
1.98905e-05
1.96716e-05
1.72474e-05
1.72344e-05
1.70758e-05
1.6568e-05
1.61995e-05
1.58902e-05
1.53246e-05
1.46963e-05
1.43861e-05
1.43531e-05
1.45537e-05
1.47879e-05
1.50292e-05
1.52867e-05
1.55789e-05
1.58985e-05
1.62678e-05
1.67931e-05
1.74951e-05
1.82052e-05
1.88876e-05
1.94578e-05
1.9811e-05
1.9893e-05
1.9837e-05
1.71683e-05
1.76828e-05
1.7866e-05
1.77745e-05
1.73111e-05
1.6807e-05
1.64794e-05
1.60601e-05
1.55013e-05
1.50695e-05
1.47875e-05
1.47267e-05
1.48077e-05
1.5005e-05
1.53193e-05
1.57289e-05
1.62672e-05
1.69553e-05
1.7755e-05
1.85215e-05
1.9092e-05
1.94978e-05
1.96848e-05
1.96419e-05
1.94914e-05
1.71896e-05
1.82576e-05
1.88411e-05
1.89554e-05
1.87769e-05
1.82411e-05
1.75342e-05
1.69694e-05
1.64926e-05
1.60342e-05
1.56472e-05
1.53525e-05
1.52694e-05
1.53548e-05
1.56516e-05
1.61097e-05
1.67856e-05
1.75849e-05
1.83324e-05
1.89543e-05
1.93071e-05
1.94608e-05
1.94543e-05
1.92826e-05
1.90874e-05
1.86944e-05
2.00911e-05
2.0786e-05
2.08462e-05
2.04894e-05
1.98006e-05
1.8985e-05
1.81863e-05
1.74483e-05
1.68378e-05
1.6373e-05
1.60876e-05
1.59684e-05
1.61123e-05
1.64792e-05
1.70634e-05
1.78055e-05
1.85206e-05
1.90543e-05
1.93392e-05
1.93717e-05
1.92712e-05
1.90642e-05
1.87486e-05
1.85237e-05
2.19288e-05
2.31647e-05
2.34487e-05
2.30145e-05
2.22043e-05
2.11768e-05
2.01034e-05
1.90988e-05
1.82482e-05
1.7571e-05
1.70781e-05
1.68525e-05
1.69416e-05
1.72988e-05
1.78262e-05
1.84205e-05
1.8991e-05
1.94089e-05
1.95739e-05
1.94922e-05
1.92518e-05
1.89091e-05
1.8495e-05
1.80689e-05
1.78285e-05
2.65985e-05
2.66649e-05
2.58664e-05
2.46281e-05
2.31833e-05
2.17441e-05
2.04747e-05
1.9455e-05
1.8682e-05
1.82221e-05
1.81119e-05
1.82226e-05
1.85136e-05
1.89461e-05
1.9362e-05
1.97195e-05
1.99316e-05
1.99394e-05
1.9744e-05
1.93891e-05
1.89162e-05
1.83934e-05
1.7862e-05
1.73634e-05
1.7139e-05
3.17501e-05
2.98062e-05
2.77073e-05
2.5619e-05
2.36851e-05
2.19963e-05
2.07487e-05
1.9874e-05
1.94433e-05
1.9352e-05
1.94669e-05
1.97635e-05
2.00768e-05
2.03432e-05
2.05209e-05
2.05475e-05
2.04218e-05
2.01424e-05
1.9729e-05
1.92207e-05
1.86528e-05
1.80273e-05
1.73779e-05
1.6802e-05
1.65047e-05
3.50701e-05
3.17353e-05
2.86586e-05
2.5974e-05
2.37073e-05
2.20228e-05
2.10135e-05
2.047e-05
2.03236e-05
2.0437e-05
2.07331e-05
2.09291e-05
2.11018e-05
2.11862e-05
2.11898e-05
2.10794e-05
2.08402e-05
2.04809e-05
2.00067e-05
1.94098e-05
1.86928e-05
1.79198e-05
1.71393e-05
1.64061e-05
1.5929e-05
3.65598e-05
3.25316e-05
2.89786e-05
2.60396e-05
2.36652e-05
2.216e-05
2.14321e-05
2.10865e-05
2.11747e-05
2.14211e-05
2.15901e-05
2.18208e-05
2.20423e-05
2.21628e-05
2.21572e-05
2.2032e-05
2.1767e-05
2.13538e-05
2.07848e-05
2.00911e-05
1.92719e-05
1.83527e-05
1.73846e-05
1.64162e-05
1.54528e-05
3.51761e-05
3.20024e-05
2.87801e-05
2.59669e-05
2.37003e-05
2.24573e-05
2.19227e-05
2.189e-05
2.20697e-05
2.23881e-05
2.27935e-05
2.31655e-05
2.34164e-05
2.35566e-05
2.35604e-05
2.34203e-05
2.31203e-05
2.26898e-05
2.21089e-05
2.1381e-05
2.05156e-05
1.95219e-05
1.84279e-05
1.72978e-05
1.61732e-05
3.29607e-05
3.09242e-05
2.83251e-05
2.58506e-05
2.38882e-05
2.28666e-05
2.25417e-05
2.27171e-05
2.31644e-05
2.37486e-05
2.42605e-05
2.46674e-05
2.4948e-05
2.50945e-05
2.51045e-05
2.4972e-05
2.47309e-05
2.43375e-05
2.37955e-05
2.30946e-05
2.22279e-05
2.11936e-05
2.00099e-05
1.87198e-05
1.73732e-05
3.133e-05
3.00186e-05
2.79545e-05
2.58576e-05
2.42526e-05
2.34745e-05
2.34454e-05
2.38875e-05
2.45186e-05
2.51615e-05
2.57092e-05
2.61231e-05
2.64012e-05
2.65344e-05
2.65404e-05
2.64499e-05
2.62318e-05
2.59211e-05
2.54804e-05
2.48824e-05
2.40985e-05
2.3099e-05
2.18667e-05
2.03797e-05
1.88201e-05
2.96831e-05
2.90937e-05
2.75999e-05
2.59419e-05
2.47098e-05
2.42339e-05
2.44509e-05
2.50623e-05
2.5781e-05
2.64409e-05
2.69757e-05
2.73719e-05
2.76303e-05
2.77537e-05
2.77928e-05
2.77581e-05
2.76483e-05
2.74435e-05
2.71269e-05
2.66631e-05
2.60045e-05
2.50878e-05
2.38359e-05
2.21789e-05
2.01727e-05
2.88062e-05
2.84594e-05
2.73572e-05
2.60969e-05
2.5208e-05
2.50013e-05
2.53883e-05
2.60834e-05
2.68259e-05
2.74716e-05
2.79776e-05
2.83454e-05
2.85751e-05
2.86918e-05
2.87668e-05
2.87695e-05
2.87106e-05
2.85947e-05
2.84045e-05
2.81101e-05
2.766e-05
2.69835e-05
2.59827e-05
2.44625e-05
2.23234e-05
2.83224e-05
2.80708e-05
2.72335e-05
2.6309e-05
2.57042e-05
2.56841e-05
2.61792e-05
2.69004e-05
2.76073e-05
2.82093e-05
2.86872e-05
2.90267e-05
2.92247e-05
2.93456e-05
2.94183e-05
2.94416e-05
2.94445e-05
2.94263e-05
2.93404e-05
2.91569e-05
2.8852e-05
2.83918e-05
2.77027e-05
2.66676e-05
2.50643e-05
2.83413e-05
2.80187e-05
2.72889e-05
2.65448e-05
2.61034e-05
2.61924e-05
2.66835e-05
2.73675e-05
2.80515e-05
2.86426e-05
2.9103e-05
2.94291e-05
2.95996e-05
2.97105e-05
2.97536e-05
2.97933e-05
2.98243e-05
2.98169e-05
2.97815e-05
2.9677e-05
2.94603e-05
2.9094e-05
2.85604e-05
2.78339e-05
2.67536e-05
2.86496e-05
2.8242e-05
2.75368e-05
2.68408e-05
2.64146e-05
2.64187e-05
2.68648e-05
2.75118e-05
2.81699e-05
2.87558e-05
2.92344e-05
2.95824e-05
2.97707e-05
2.98478e-05
2.98699e-05
2.99435e-05
3.00829e-05
3.02519e-05
3.03777e-05
3.04022e-05
3.02737e-05
2.99458e-05
2.93949e-05
2.85755e-05
2.74472e-05
2.98154e-05
2.89045e-05
2.81195e-05
2.73993e-05
2.68261e-05
2.66782e-05
2.69225e-05
2.74323e-05
2.80458e-05
2.86359e-05
2.91481e-05
2.95465e-05
2.98027e-05
2.99043e-05
2.99535e-05
3.00614e-05
3.02506e-05
3.04994e-05
3.07364e-05
3.08794e-05
3.08585e-05
3.06004e-05
3.00444e-05
2.91848e-05
2.79856e-05
3.17306e-05
3.04844e-05
2.9457e-05
2.85649e-05
2.76832e-05
2.71572e-05
2.70618e-05
2.73387e-05
2.77939e-05
2.83527e-05
2.89008e-05
2.937e-05
2.97137e-05
2.99093e-05
3.00195e-05
3.0158e-05
3.04053e-05
3.07177e-05
3.10465e-05
3.13456e-05
3.15011e-05
3.13804e-05
3.08485e-05
2.98984e-05
2.85149e-05
3.30045e-05
3.20972e-05
3.12681e-05
3.02309e-05
2.94119e-05
2.8348e-05
2.77104e-05
2.75054e-05
2.76771e-05
2.80286e-05
2.85262e-05
2.90543e-05
2.95087e-05
2.98352e-05
3.00674e-05
3.02778e-05
3.05269e-05
3.08722e-05
3.1299e-05
3.17023e-05
3.19783e-05
3.2016e-05
3.1658e-05
3.0799e-05
2.94903e-05
3.19096e-05
3.2317e-05
3.21397e-05
3.14302e-05
3.06814e-05
3.00163e-05
2.90148e-05
2.82829e-05
2.78698e-05
2.79138e-05
2.81904e-05
2.86297e-05
2.91432e-05
2.96264e-05
3.00131e-05
3.03578e-05
3.07185e-05
3.11274e-05
3.15529e-05
3.20379e-05
3.2461e-05
3.26836e-05
3.25533e-05
3.18921e-05
3.07158e-05
3.10751e-05
3.15642e-05
3.18559e-05
3.15942e-05
3.1063e-05
3.05281e-05
3.00313e-05
2.92658e-05
2.86311e-05
2.81728e-05
2.80591e-05
2.82746e-05
2.86886e-05
2.92024e-05
2.98004e-05
3.03124e-05
3.08166e-05
3.13602e-05
3.19538e-05
3.25205e-05
3.30973e-05
3.3513e-05
3.35754e-05
3.31797e-05
3.23255e-05
2.67099e-05
2.82601e-05
2.92821e-05
3.00132e-05
3.02394e-05
3.01131e-05
2.98229e-05
2.94541e-05
2.89932e-05
2.84663e-05
2.81079e-05
2.80057e-05
2.82462e-05
2.87316e-05
2.93144e-05
3.00473e-05
3.0785e-05
3.14839e-05
3.22209e-05
3.2966e-05
3.36312e-05
3.42382e-05
3.45567e-05
3.44423e-05
3.39117e-05
2.23138e-05
2.42767e-05
2.58447e-05
2.71362e-05
2.80801e-05
2.85928e-05
2.88082e-05
2.8806e-05
2.85942e-05
2.83467e-05
2.79696e-05
2.77603e-05
2.77976e-05
2.81859e-05
2.87839e-05
2.95754e-05
3.05032e-05
3.14756e-05
3.23913e-05
3.33152e-05
3.41557e-05
3.49097e-05
3.54983e-05
3.57578e-05
3.57673e-05
1.93077e-05
2.13848e-05
2.31631e-05
2.46299e-05
2.59043e-05
2.68197e-05
2.73865e-05
2.76715e-05
2.77573e-05
2.77537e-05
2.76315e-05
2.75159e-05
2.74915e-05
2.77528e-05
2.83293e-05
2.91615e-05
3.0179e-05
3.13669e-05
3.25063e-05
3.361e-05
3.46375e-05
3.5564e-05
3.63599e-05
3.6948e-05
3.73667e-05
1.82945e-05
2.04142e-05
2.23543e-05
2.39421e-05
2.51865e-05
2.61842e-05
2.6789e-05
2.71063e-05
2.72053e-05
2.71541e-05
2.70869e-05
2.70616e-05
2.72035e-05
2.7517e-05
2.80926e-05
2.89903e-05
3.00993e-05
3.13544e-05
3.27196e-05
3.39773e-05
3.51577e-05
3.62571e-05
3.72666e-05
3.82194e-05
3.92281e-05
1.85287e-05
2.08778e-05
2.29153e-05
2.45025e-05
2.57654e-05
2.67029e-05
2.73189e-05
2.75104e-05
2.74537e-05
2.72659e-05
2.70609e-05
2.69422e-05
2.70373e-05
2.74337e-05
2.81546e-05
2.91491e-05
3.0324e-05
3.16811e-05
3.31477e-05
3.45207e-05
3.58006e-05
3.70254e-05
3.81925e-05
3.9392e-05
4.07312e-05
2.03966e-05
2.29469e-05
2.5042e-05
2.65303e-05
2.75072e-05
2.80924e-05
2.84131e-05
2.84579e-05
2.82962e-05
2.79896e-05
2.76573e-05
2.74385e-05
2.74725e-05
2.78475e-05
2.8612e-05
2.97307e-05
3.09937e-05
3.24352e-05
3.39338e-05
3.53406e-05
3.66766e-05
3.79888e-05
3.92998e-05
4.07748e-05
4.25895e-05
2.36131e-05
2.6082e-05
2.78922e-05
2.90222e-05
2.96601e-05
2.994e-05
2.99268e-05
2.96588e-05
2.91881e-05
2.86311e-05
2.81577e-05
2.79138e-05
2.80094e-05
2.85315e-05
2.94582e-05
3.06494e-05
3.19971e-05
3.34914e-05
3.49992e-05
3.64293e-05
3.77973e-05
3.91377e-05
4.05153e-05
4.21229e-05
4.40614e-05
2.67985e-05
2.89151e-05
3.05042e-05
3.1411e-05
3.17509e-05
3.16848e-05
3.13552e-05
3.08465e-05
3.02227e-05
2.95595e-05
2.90067e-05
2.87689e-05
2.90019e-05
2.97262e-05
3.0772e-05
3.20421e-05
3.34694e-05
3.49608e-05
3.64142e-05
3.77999e-05
3.91462e-05
4.04922e-05
4.19458e-05
4.37848e-05
4.61806e-05
2.93839e-05
3.14682e-05
3.28498e-05
3.34229e-05
3.343e-05
3.30624e-05
3.24867e-05
3.17919e-05
3.10548e-05
3.04004e-05
2.99984e-05
2.99942e-05
3.04543e-05
3.1311e-05
3.24376e-05
3.37632e-05
3.51913e-05
3.66306e-05
3.80079e-05
3.93223e-05
4.05956e-05
4.1874e-05
4.32519e-05
4.49115e-05
4.6887e-05
3.23873e-05
3.40821e-05
3.50249e-05
3.51896e-05
3.48206e-05
3.41692e-05
3.33981e-05
3.25954e-05
3.18652e-05
3.13345e-05
3.11402e-05
3.13671e-05
3.20277e-05
3.30148e-05
3.42292e-05
3.55811e-05
3.69822e-05
3.83593e-05
3.96719e-05
4.09288e-05
4.21315e-05
4.33428e-05
4.46251e-05
4.60691e-05
4.76772e-05
3.57736e-05
3.67401e-05
3.70993e-05
3.67943e-05
3.60206e-05
3.50923e-05
3.4183e-05
3.33583e-05
3.27261e-05
3.23934e-05
3.24105e-05
3.2848e-05
3.36502e-05
3.47236e-05
3.59815e-05
3.73381e-05
3.87158e-05
4.00531e-05
4.13463e-05
4.25893e-05
4.37979e-05
4.50136e-05
4.62799e-05
4.76514e-05
4.90831e-05
3.8924e-05
3.93437e-05
3.90656e-05
3.82686e-05
3.71239e-05
3.59585e-05
3.49211e-05
3.41231e-05
3.36284e-05
3.34917e-05
3.37e-05
3.42636e-05
3.51402e-05
3.62569e-05
3.75352e-05
3.89013e-05
4.0283e-05
4.1653e-05
4.29988e-05
4.4299e-05
4.55867e-05
4.68532e-05
4.80933e-05
4.92559e-05
5.01217e-05
4.29214e-05
4.22399e-05
4.11821e-05
3.98374e-05
3.83285e-05
3.6925e-05
3.57971e-05
3.49788e-05
3.45229e-05
3.44839e-05
3.47731e-05
3.54203e-05
3.63462e-05
3.74915e-05
3.87935e-05
4.01832e-05
4.16243e-05
4.30995e-05
4.45709e-05
4.60554e-05
4.75555e-05
4.90471e-05
5.05166e-05
5.18744e-05
5.28527e-05
4.65656e-05
4.52366e-05
4.35117e-05
4.16769e-05
3.98356e-05
3.82069e-05
3.6926e-05
3.6017e-05
3.55298e-05
3.54697e-05
3.57561e-05
3.63805e-05
3.72956e-05
3.84464e-05
3.97698e-05
4.12019e-05
4.27123e-05
4.42732e-05
4.5921e-05
4.76827e-05
4.95238e-05
5.1454e-05
5.34829e-05
5.55722e-05
5.75168e-05
5.21396e-05
4.92497e-05
4.65037e-05
4.40541e-05
4.18632e-05
4.00193e-05
3.85813e-05
3.75535e-05
3.69524e-05
3.67767e-05
3.69605e-05
3.74792e-05
3.82758e-05
3.92933e-05
4.04862e-05
4.182e-05
4.3288e-05
4.49091e-05
4.67281e-05
4.87457e-05
5.09596e-05
5.34e-05
5.61361e-05
5.92364e-05
6.25649e-05
5.70533e-05
5.23635e-05
4.88196e-05
4.61401e-05
4.39926e-05
4.22352e-05
4.08225e-05
3.97524e-05
3.90355e-05
3.86521e-05
3.8551e-05
3.86901e-05
3.90387e-05
3.96391e-05
4.04821e-05
4.15944e-05
4.30195e-05
4.47095e-05
4.66501e-05
4.88198e-05
5.12384e-05
5.39946e-05
5.73195e-05
6.16321e-05
6.73933e-05
5.75258e-05
5.16742e-05
4.8762e-05
4.6984e-05
4.55934e-05
4.43641e-05
4.32677e-05
4.23293e-05
4.15618e-05
4.09309e-05
4.03804e-05
3.9834e-05
3.93474e-05
3.94978e-05
4.00197e-05
4.09862e-05
4.26702e-05
4.4586e-05
4.65796e-05
4.86566e-05
5.08062e-05
5.30341e-05
5.5497e-05
5.88456e-05
6.48787e-05
3.89939e-05
4.40867e-05
4.66415e-05
4.74847e-05
4.7412e-05
4.68803e-05
4.6184e-05
4.54901e-05
4.48758e-05
4.43492e-05
4.3846e-05
4.32365e-05
4.25689e-05
4.34102e-05
4.40379e-05
4.45159e-05
4.62983e-05
4.79096e-05
4.93283e-05
5.07866e-05
5.21661e-05
5.30706e-05
5.27384e-05
4.99723e-05
4.32587e-05
6.01044e-05
5.87907e-05
5.7621e-05
5.63793e-05
5.51292e-05
5.39425e-05
5.28442e-05
5.18945e-05
5.11442e-05
5.05934e-05
5.02335e-05
5.01125e-05
5.01557e-05
5.11786e-05
5.24096e-05
5.34253e-05
5.48086e-05
5.61243e-05
5.73556e-05
5.88072e-05
6.08566e-05
6.36874e-05
6.73305e-05
7.1937e-05
7.91327e-05
0.000144655
9.54752e-05
7.80071e-05
6.97673e-05
6.54845e-05
6.28777e-05
6.08986e-05
5.90892e-05
5.77826e-05
5.68597e-05
5.57843e-05
5.45903e-05
5.70077e-05
6.06879e-05
6.41138e-05
6.60495e-05
6.61996e-05
6.5752e-05
6.51282e-05
6.73135e-05
7.19809e-05
8.02464e-05
9.48565e-05
0.00012301
0.000202075
0.000332841
0.000124006
8.26202e-05
6.97191e-05
6.59175e-05
6.23353e-05
5.30073e-05
4.32933e-05
3.80413e-05
3.87713e-05
4.27579e-05
4.64633e-05
4.54199e-05
4.23954e-05
4.19662e-05
4.69492e-05
5.44111e-05
6.26608e-05
7.11025e-05
7.5994e-05
8.14386e-05
9.07488e-05
0.000117535
0.000228968
0.000763527
0.000232972
9.59448e-05
3.55987e-05
2.17069e-05
1.54386e-05
1.02588e-05
3.66665e-06
1.07528e-06
8.77496e-07
1.27507e-06
4.80019e-06
9.76357e-06
1.35409e-05
1.13894e-05
1.15591e-05
1.25654e-05
1.53126e-05
2.12786e-05
3.04431e-05
4.22388e-05
4.9413e-05
5.39373e-05
7.19225e-05
0.000213448
0.00072136
0.000143327
6.10013e-05
1.46974e-05
1.59955e-06
8.54215e-08
3.90519e-08
2.10162e-08
1.72721e-08
1.69508e-08
1.69354e-08
2.14055e-08
3.64759e-08
3.41291e-07
2.36758e-07
1.76102e-07
4.30056e-07
1.0548e-06
2.9165e-06
6.72713e-06
1.31455e-05
2.03263e-05
2.714e-05
3.56733e-05
0.000100569
0.000298478
9.44481e-05
4.92789e-05
1.19016e-05
2.91888e-07
1.63172e-08
1.64737e-08
1.59158e-08
1.74288e-08
1.73997e-08
1.73975e-08
1.61274e-08
1.59369e-08
1.58794e-08
1.8005e-08
7.62524e-08
1.07721e-07
1.26875e-07
2.82765e-07
1.05897e-06
3.18803e-06
8.1883e-06
1.42118e-05
2.07553e-05
4.77239e-05
0.000123096
7.92065e-05
4.48403e-05
9.69811e-06
1.27816e-07
1.81324e-08
1.83151e-08
1.81597e-08
1.75033e-08
1.72787e-08
1.72992e-08
1.78177e-08
1.83637e-08
1.85028e-08
2.46155e-08
2.76581e-07
9.55302e-07
8.8055e-07
6.50622e-07
6.3214e-07
9.80518e-07
2.74637e-06
6.25386e-06
1.14476e-05
2.58449e-05
7.24399e-05
5.9634e-05
2.90357e-05
4.51397e-06
3.47003e-08
1.72779e-08
1.78321e-08
1.83579e-08
1.86041e-08
1.86614e-08
1.85921e-08
1.8602e-08
1.87594e-08
1.87972e-08
2.24896e-08
6.45239e-07
3.13043e-06
2.64041e-06
1.67102e-06
1.30651e-06
1.32422e-06
1.85045e-06
3.37423e-06
6.70345e-06
1.62384e-05
4.56964e-05
)
;

boundaryField
{
    inlet
    {
        type            calculated;
        value           nonuniform List<scalar> 
25
(
2.02067e-08
2.02054e-08
2.02017e-08
2.01977e-08
2.01927e-08
2.01879e-08
2.01837e-08
2.01801e-08
2.01775e-08
2.01757e-08
2.0175e-08
2.01754e-08
2.01767e-08
2.0179e-08
2.01818e-08
2.01852e-08
2.01887e-08
2.01914e-08
2.01933e-08
2.01945e-08
2.01952e-08
2.01957e-08
2.01965e-08
2.01971e-08
2.01972e-08
)
;
    }
    outlet
    {
        type            calculated;
        value           nonuniform List<scalar> 
25
(
5.96348e-05
2.90362e-05
1.84743e-08
1.88549e-08
1.88549e-08
1.88549e-08
1.88549e-08
1.88549e-08
1.88549e-08
1.88549e-08
1.88549e-08
1.88549e-08
1.88549e-08
1.88549e-08
1.88549e-08
1.88549e-08
1.79893e-08
1.81917e-08
1.83774e-08
1.84415e-08
1.83734e-08
3.37426e-06
6.70387e-06
1.62391e-05
4.56973e-05
)
;
    }
    walls
    {
        type            nutkWallFunction;
        blending        stepwise;
        value           uniform 1e-08;
    }
    defaultFaces
    {
        type            empty;
    }
}


// ************************************************************************* //
