/*--------------------------------*- C++ -*----------------------------------*\
| =========                 |                                                 |
| \\      /  F ield         | OpenFOAM: The Open Source CFD Toolbox           |
|  \\    /   O peration     | Version:  2312                                  |
|   \\  /    A nd           | Website:  www.openfoam.com                      |
|    \\/     M anipulation  |                                                 |
\*---------------------------------------------------------------------------*/
FoamFile
{
    version     2.0;
    format      ascii;
    arch        "LSB;label=32;scalar=64";
    class       volScalarField;
    location    "0.315/water";
    object      alphat.gas;
}
// * * * * * * * * * * * * * * * * * * * * * * * * * * * * * * * * * * * * * //

dimensions      [1 -1 -1 0 0 0 0];

internalField   nonuniform List<scalar> 
1503
(
1.98710069289e-07
8.26342871855e-08
3.5415180883e-08
2.42829801156e-08
9.30386591139e-08
6.84024443909e-07
2.92275814185e-06
6.64692824321e-06
1.00862675417e-05
1.22774355687e-05
1.3425294586e-05
1.3958803427e-05
1.4181657559e-05
1.42615057645e-05
1.42811080953e-05
1.42783202956e-05
1.42692286869e-05
1.42600248914e-05
1.4252693127e-05
1.42475885879e-05
9.04054671839e-07
6.46960129625e-07
3.32334296196e-07
1.7586038305e-07
7.36325483367e-08
5.67007821571e-08
1.20116245621e-07
6.97890308087e-07
3.03962044743e-06
6.97643061423e-06
1.04003266743e-05
1.2489052792e-05
1.35509883242e-05
1.40288220371e-05
1.42177377308e-05
1.42770086585e-05
1.42839484658e-05
1.42732830734e-05
1.4259399125e-05
1.424761431e-05
1.24307664557e-06
1.078995437e-06
7.1710347586e-07
3.94169193274e-07
2.19313051843e-07
1.04945334e-07
7.61409371444e-08
1.78514542461e-07
9.57451660429e-07
3.43886390634e-06
7.1079321312e-06
1.03044778402e-05
1.23695752201e-05
1.34893276992e-05
1.40225823864e-05
1.42439177938e-05
1.43169221569e-05
1.43271372523e-05
1.43153155818e-05
1.42992519098e-05
1.47313770263e-06
1.33641000421e-06
9.83154625687e-07
6.1874680593e-07
4.02109915677e-07
1.9203861412e-07
1.02800895755e-07
9.87263808317e-08
3.68029449338e-07
1.70327367628e-06
4.63612118434e-06
8.09373716505e-06
1.08690492078e-05
1.26459406905e-05
1.36241622249e-05
1.40982378406e-05
1.42965204142e-05
1.43603450724e-05
1.43664851887e-05
1.43527543088e-05
1.64129381638e-06
1.52581682777e-06
1.1765182651e-06
8.05659198292e-07
4.88791705309e-07
3.25932542645e-07
1.40485329659e-07
9.1279356686e-08
1.77885094303e-07
8.72051930866e-07
2.99521763685e-06
6.2183703767e-06
9.33198544513e-06
1.16301664578e-05
1.30581993941e-05
1.38360483103e-05
1.42093765482e-05
1.43613834663e-05
1.44055910136e-05
1.44043255861e-05
1.75268917705e-06
1.66425861637e-06
1.32329810363e-06
9.50343901765e-07
6.26240418541e-07
3.60188453522e-07
2.20725467555e-07
9.40810593496e-08
1.07362058938e-07
4.5141435045e-07
1.91237517033e-06
4.71669892134e-06
7.90293089066e-06
1.05559688233e-05
1.23793675217e-05
1.34708718678e-05
1.40500160598e-05
1.43191685198e-05
1.44215623725e-05
1.44443699586e-05
1.8266736094e-06
1.75454470624e-06
1.41697236725e-06
1.04817193755e-06
7.28549597388e-07
4.61741274379e-07
2.44381209393e-07
1.28499360013e-07
7.27050253023e-08
2.25662635711e-07
1.173903228e-06
3.51522557718e-06
6.62114967736e-06
9.49406872391e-06
1.16408587765e-05
1.30290112254e-05
1.38261230554e-05
1.42325365641e-05
1.44104171159e-05
1.44686605134e-05
1.84704489309e-06
1.78285648833e-06
1.46178656631e-06
1.10917812033e-06
8.01931818769e-07
5.42755080031e-07
3.21014998822e-07
1.60501407822e-07
7.06903929908e-08
1.01381593991e-07
6.46421482728e-07
2.5216717167e-06
5.46853661446e-06
8.47372467469e-06
1.08806490796e-05
1.25371015963e-05
1.35506325089e-05
1.41053508178e-05
1.43716996458e-05
1.44752563914e-05
1.84815072828e-06
1.7894812828e-06
1.48524496332e-06
1.14844817724e-06
8.54387167556e-07
6.06152768677e-07
3.89913017801e-07
2.04485170859e-07
9.99445353362e-08
5.24037516814e-08
2.73039710083e-07
1.6413799766e-06
4.38685378889e-06
7.48767948492e-06
1.01174834941e-05
1.20160907437e-05
1.32373362221e-05
1.39440582456e-05
1.43072991331e-05
1.44635507802e-05
1.85953494863e-06
1.80276861892e-06
1.50557455951e-06
1.17695285216e-06
8.92477732129e-07
6.55225887612e-07
4.48432257845e-07
2.63039250304e-07
1.1339448894e-07
5.28426594679e-08
8.53735347201e-08
8.40953720665e-07
3.29755007138e-06
6.49746229551e-06
9.34918269297e-06
1.14769419677e-05
1.28969632051e-05
1.37552723947e-05
1.42194819766e-05
1.44334619282e-05
1.8592710395e-06
1.81113265758e-06
1.5207677558e-06
1.1971629721e-06
9.19837078319e-07
6.93020878663e-07
4.9760116561e-07
3.17537501767e-07
1.55898284929e-07
5.38866094705e-08
4.00466944136e-08
2.69956271383e-07
2.14109828233e-06
5.43633776956e-06
8.54603898395e-06
1.09133875241e-05
1.25319630951e-05
1.35421893142e-05
1.41093182164e-05
1.43846641991e-05
1.85141315093e-06
1.81360751681e-06
1.5284197101e-06
1.2092285943e-06
9.38682648147e-07
7.22029987674e-07
5.38263762418e-07
3.6576449012e-07
1.9812235214e-07
6.95885811637e-08
3.41548689562e-08
7.16026877789e-08
1.02371092757e-06
4.24344590263e-06
7.65381552438e-06
1.0297088484e-05
1.21323130294e-05
1.33002176563e-05
1.39754576121e-05
1.43163225647e-05
1.83337979708e-06
1.8110740382e-06
1.52979254471e-06
1.21362198344e-06
9.49959932709e-07
7.44103467189e-07
5.71602746137e-07
4.06182092796e-07
2.35120952938e-07
8.70035817768e-08
2.82442446055e-08
3.7828355579e-08
3.17847083755e-07
2.94529326318e-06
6.62347334129e-06
9.58097652637e-06
1.16685906904e-05
1.30179362385e-05
1.3814241552e-05
1.42272013866e-05
1.82415412134e-06
1.80604116155e-06
1.52456102567e-06
1.21199170955e-06
9.56872223184e-07
7.62112880806e-07
5.99208680247e-07
4.38913896932e-07
2.64779741271e-07
1.02160396863e-07
3.03214328435e-08
2.54343454826e-08
1.01661742852e-07
1.70369533676e-06
5.41376746731e-06
8.68879821768e-06
1.10981129323e-05
1.26785410746e-05
1.36199292371e-05
1.41156893952e-05
1.82167457592e-06
1.80467437071e-06
1.52172255121e-06
1.21198984139e-06
9.65389677687e-07
7.80239321226e-07
6.23938388079e-07
4.65704459745e-07
2.87892585344e-07
1.15683216204e-07
3.31391768737e-08
1.89976937382e-08
4.73660216895e-08
7.39957748145e-07
3.98414107364e-06
7.55303588485e-06
1.03779174293e-05
1.22605073027e-05
1.33841561767e-05
1.39795000772e-05
1.8319031467e-06
1.80991399024e-06
1.52697399425e-06
1.22209525999e-06
9.82723426106e-07
8.02679797763e-07
6.48239631493e-07
4.8902831561e-07
3.07720263568e-07
1.30387739297e-07
3.81390733689e-08
1.82786313882e-08
2.94048289078e-08
2.5396390765e-07
2.51649322117e-06
6.17209334255e-06
9.46919921742e-06
1.17387851407e-05
1.30958265057e-05
1.38152285888e-05
1.84782224953e-06
1.82264343859e-06
1.54793111958e-06
1.25276999297e-06
1.01557034026e-06
8.31638878616e-07
6.7299466828e-07
5.10714947873e-07
3.28174040008e-07
1.50811094962e-07
4.7019032989e-08
1.91456989932e-08
2.08349117932e-08
8.31638474823e-08
1.30736350084e-06
4.62495177044e-06
8.35002675711e-06
1.10887421871e-05
1.27417423431e-05
1.36178923607e-05
1.87680528412e-06
1.86295777537e-06
1.60828781007e-06
1.31521997839e-06
1.06348548337e-06
8.63610896776e-07
6.95742607467e-07
5.30436338824e-07
3.53644409235e-07
1.8028709921e-07
6.03490412167e-08
2.12970193053e-08
1.65133045424e-08
3.69381175419e-08
5.49340377391e-07
3.09857188944e-06
7.03548899245e-06
1.02933288082e-05
1.230866594e-05
1.3380960831e-05
1.9794423166e-06
1.98963441338e-06
1.72908067958e-06
1.40116705405e-06
1.11238220778e-06
8.90257990892e-07
7.1225502635e-07
5.49314864083e-07
3.85484624602e-07
2.17689901882e-07
7.91323467077e-08
2.46326427461e-08
1.68071632243e-08
2.73328783079e-08
1.59253274457e-07
1.77314709293e-06
5.58047269612e-06
9.34686674015e-06
1.17851821043e-05
1.30967756619e-05
2.15585433468e-06
2.17308452187e-06
1.85910455124e-06
1.46933984031e-06
1.14445879953e-06
9.05592118641e-07
7.23461469323e-07
5.68161539546e-07
4.19470379103e-07
2.60042929506e-07
1.03612311064e-07
2.90272415977e-08
1.72580708773e-08
1.96060090358e-08
5.22215365201e-08
7.70446065119e-07
4.09185223764e-06
8.25371187969e-06
1.11603662766e-05
1.27565074436e-05
2.28446071445e-06
2.26451191644e-06
1.90568167127e-06
1.49392410292e-06
1.15816848382e-06
9.13091065187e-07
7.31337855181e-07
5.85686548423e-07
4.52326838999e-07
3.02604385758e-07
1.31701247944e-07
3.42878939453e-08
1.75284333868e-08
1.92239981835e-08
3.23555728744e-08
2.04941696875e-07
2.67917174452e-06
7.05886494885e-06
1.04328200726e-05
1.23523915874e-05
2.26200986564e-06
2.25195232398e-06
1.91277787583e-06
1.50704766667e-06
1.16713099882e-06
9.16438869995e-07
7.35664857546e-07
5.99406607687e-07
4.8018963442e-07
3.40525131071e-07
1.59826002168e-07
4.02825876736e-08
1.76372653097e-08
1.84613226878e-08
2.63456739816e-08
8.28168387994e-08
1.34942959243e-06
5.80614660095e-06
9.60409808448e-06
1.18767400925e-05
2.2687048854e-06
2.26141200041e-06
1.92427249332e-06
1.52085401503e-06
1.17714716101e-06
9.20887243777e-07
7.39198827824e-07
6.09613382682e-07
5.02502379366e-07
3.71607269119e-07
1.83376708798e-07
4.57079635469e-08
1.78049503621e-08
1.75978937829e-08
2.35244029538e-08
5.37708682265e-08
4.67822643321e-07
4.48068913891e-06
8.67057167155e-06
1.13203246542e-05
2.26926841552e-06
2.26503005591e-06
1.93047415711e-06
1.52930551801e-06
1.18378292822e-06
9.2456213198e-07
7.42569389503e-07
6.18882009107e-07
5.22515436506e-07
3.9694209611e-07
2.01587031306e-07
5.03018939586e-08
1.80435131837e-08
1.69882160775e-08
2.11083614872e-08
3.3952357811e-08
1.81430049392e-07
3.12046158496e-06
7.63473360712e-06
1.0674169065e-05
2.27631426734e-06
2.27236146436e-06
1.93665185968e-06
1.53328225762e-06
1.18601871622e-06
9.26301907947e-07
7.46488098912e-07
6.30026683573e-07
5.42050630893e-07
4.17030001859e-07
2.15630693191e-07
5.48081427954e-08
1.84812482299e-08
1.67614133689e-08
1.95202774195e-08
2.67818417837e-08
1.00652777754e-07
1.9175907045e-06
6.49396238446e-06
9.92603226666e-06
2.27603225839e-06
2.28128618225e-06
1.94475108571e-06
1.53548756385e-06
1.18607426644e-06
9.27567726591e-07
7.52594804238e-07
6.44301063388e-07
5.60593963884e-07
4.3221775529e-07
2.26366592666e-07
5.9491908414e-08
1.92347700588e-08
1.688608652e-08
1.87799823567e-08
2.27290191173e-08
6.43437219569e-08
1.038526627e-06
5.26300446007e-06
9.06489557302e-06
2.28145673128e-06
2.29277325763e-06
1.95370992331e-06
1.53854418326e-06
1.18687717825e-06
9.30326284523e-07
7.61581026881e-07
6.60348274482e-07
5.76634700329e-07
4.42653573012e-07
2.33399206713e-07
6.3747682353e-08
2.01625284059e-08
1.72019028372e-08
1.86431313985e-08
2.08837708148e-08
4.45220262479e-08
5.00159205336e-07
4.01864188504e-06
8.09481032979e-06
2.27813482594e-06
2.30003416994e-06
1.95988629731e-06
1.54128700641e-06
1.18858527117e-06
9.34747843987e-07
7.72584681988e-07
6.75863196499e-07
5.88832176299e-07
4.4720139063e-07
2.35164069771e-07
6.62773262522e-08
2.08587981749e-08
1.74851143938e-08
1.89052963351e-08
2.03697625334e-08
3.03824075247e-08
2.15466681597e-07
2.83849753639e-06
7.02654914234e-06
2.28496661046e-06
2.30201301208e-06
1.95740296246e-06
1.53832465008e-06
1.1880380508e-06
9.39026101757e-07
7.83582029498e-07
6.88967858927e-07
5.96068688096e-07
4.44061542671e-07
2.3038229123e-07
6.63449211637e-08
2.10356060747e-08
1.76648344781e-08
1.9234430398e-08
2.03989775435e-08
2.33505572413e-08
9.42965809134e-08
1.79461772166e-06
5.87842676509e-06
2.28439892563e-06
2.29483598447e-06
1.94541080222e-06
1.52828722184e-06
1.18417741106e-06
9.42512864226e-07
7.93480083689e-07
6.98738680513e-07
5.96532856751e-07
4.3165925438e-07
2.19395728905e-07
6.43756355237e-08
2.08987330933e-08
1.77936795141e-08
1.93833516079e-08
2.05204487782e-08
2.21587982664e-08
5.36401552066e-08
9.97104686216e-07
4.7080145879e-06
2.27063671728e-06
2.26647357534e-06
1.91681244829e-06
1.5108804266e-06
1.17932344973e-06
9.46782679862e-07
8.02314677839e-07
7.04087041913e-07
5.87494309879e-07
4.10093950764e-07
2.04664481322e-07
6.18427877739e-08
2.10632727847e-08
1.79107978301e-08
1.93563650067e-08
2.05036829349e-08
2.15202392079e-08
3.98967448991e-08
4.91640343539e-07
3.58023771761e-06
2.21883494418e-06
2.19967374106e-06
1.87525542111e-06
1.50090061274e-06
1.18457650424e-06
9.55551969311e-07
8.10210418032e-07
7.02104953152e-07
5.66473437827e-07
3.82208565926e-07
1.89404437461e-07
6.09626485769e-08
2.20737142086e-08
1.80487005087e-08
1.9249891324e-08
2.03231495536e-08
2.10141179252e-08
2.81590184247e-08
2.18254618469e-07
2.52419515905e-06
2.13672289171e-06
2.14374791903e-06
1.88737249222e-06
1.54206723696e-06
1.21525118287e-06
9.70761749922e-07
8.14213726094e-07
6.87475927478e-07
5.34919823364e-07
3.54151817249e-07
1.79572738422e-07
6.40204398143e-08
2.3877980381e-08
1.82688562127e-08
1.91327912712e-08
2.01009764421e-08
2.05741599914e-08
2.24131970118e-08
9.4680610992e-08
1.61154093664e-06
2.18518677098e-06
2.2704240059e-06
2.05199247663e-06
1.66594751833e-06
1.27075475112e-06
9.8506391749e-07
8.05764213488e-07
6.60710390342e-07
5.05565478477e-07
3.38981759811e-07
1.81582577554e-07
7.13710717026e-08
2.67555951346e-08
1.8673523608e-08
1.90568881148e-08
1.99177790408e-08
2.02407974402e-08
2.12505817296e-08
5.04693953584e-08
9.3082971328e-07
2.48538042111e-06
2.64715031142e-06
2.36131676717e-06
1.82885176648e-06
1.32347703636e-06
9.89646828656e-07
7.90824919579e-07
6.39991999483e-07
4.95149775015e-07
3.46115640684e-07
1.99486679089e-07
8.55500884849e-08
3.15777179799e-08
1.94520928184e-08
1.90689991069e-08
1.9803789783e-08
1.99861193563e-08
2.061154989e-08
3.73913006192e-08
4.55408895975e-07
2.89210679596e-06
3.10088468845e-06
2.67889614826e-06
1.98733228261e-06
1.39035178077e-06
1.01453256508e-06
7.94615732939e-07
6.42673410842e-07
5.1169237275e-07
3.79140978246e-07
2.37916295507e-07
1.1149590835e-07
4.01296217176e-08
2.09539575613e-08
1.92403194745e-08
1.97611429546e-08
1.96696751152e-08
2.00704730113e-08
2.4323358946e-08
1.63131834283e-07
3.30476213345e-06
3.44769560239e-06
2.89469350517e-06
2.14152155081e-06
1.50602392302e-06
1.08919321061e-06
8.34915058092e-07
6.71588472631e-07
5.48632793409e-07
4.31291067036e-07
2.9669281682e-07
1.54447650721e-07
5.53541989203e-08
2.37477036423e-08
1.96657624774e-08
1.97470747253e-08
1.92849186471e-08
1.94650538976e-08
2.24341840018e-08
6.70080513859e-08
3.28109254276e-06
3.41549493805e-06
2.955234244e-06
2.28443675022e-06
1.65834029742e-06
1.20570438002e-06
9.08596467799e-07
7.18435973834e-07
5.91443585823e-07
4.86114521463e-07
3.64173738097e-07
2.12859506156e-07
8.02393338309e-08
2.86590604929e-08
2.04439912778e-08
1.9837229343e-08
1.90164188909e-08
1.87956228966e-08
2.09281071349e-08
4.49300653217e-08
1.42446114492e-05
1.42434164939e-05
1.42435596102e-05
1.42447220985e-05
1.42466192988e-05
1.42487341347e-05
1.4249779134e-05
1.42465028253e-05
1.42310301296e-05
1.41850749267e-05
1.40678197553e-05
1.37919975949e-05
1.31817162728e-05
1.19173677408e-05
9.54426782946e-06
5.86510580199e-06
2.10110416815e-06
3.4873831276e-07
1.09169683445e-07
4.96514764595e-07
1.42396833554e-05
1.423564492e-05
1.42346370401e-05
1.42356213978e-05
1.42371338747e-05
1.42362543592e-05
1.42264855172e-05
1.41935113504e-05
1.41071305235e-05
1.39070948524e-05
1.34813922059e-05
1.26415950894e-05
1.11207080618e-05
8.66921978391e-06
5.38774624494e-06
2.23521047518e-06
5.34983062554e-07
1.40401564204e-07
2.56567864931e-07
9.86514240105e-07
1.42862326234e-05
1.42783400343e-05
1.42746629627e-05
1.42729246962e-05
1.42690729697e-05
1.42550156835e-05
1.4214213333e-05
1.41140230957e-05
1.38938524583e-05
1.34500840508e-05
1.2624678582e-05
1.12174796346e-05
9.06255466178e-06
6.21834270646e-06
3.23760588914e-06
1.10949694589e-06
2.75108183724e-07
1.73212981698e-07
5.16702321808e-07
1.44099748197e-06
1.43364843176e-05
1.43242121891e-05
1.43157799127e-05
1.43071901682e-05
1.42901996363e-05
1.42487506027e-05
1.41525809187e-05
1.39479150739e-05
1.35467782496e-05
1.2820661606e-05
1.16116344467e-05
9.78252868968e-06
7.32838131448e-06
4.53942964601e-06
2.08412551531e-06
6.53246986266e-07
2.1166437811e-07
2.84936508634e-07
8.54307493592e-07
1.81250413005e-06
1.43888175988e-05
1.43726002629e-05
1.43572953543e-05
1.433681808e-05
1.42973224372e-05
1.42128293327e-05
1.40381272039e-05
1.37006638764e-05
1.30957297756e-05
1.20934961044e-05
1.05706648638e-05
8.47897622073e-06
5.94919356284e-06
3.38702987126e-06
1.41601419099e-06
4.41152697625e-07
2.23656922527e-07
4.70645041315e-07
1.19690825902e-06
2.08174877373e-06
1.44348928042e-05
1.44157491778e-05
1.43913910068e-05
1.43534543825e-05
1.42815870014e-05
1.41392410443e-05
1.38675851989e-05
1.33811611836e-05
1.25712521222e-05
1.13252898906e-05
9.57030035782e-06
7.34173438179e-06
4.86183031646e-06
2.57437889445e-06
1.00566345311e-06
3.42468279545e-07
2.89818725879e-07
7.09770993193e-07
1.48864133553e-06
2.26422122732e-06
1.447083816e-05
1.44499205822e-05
1.44141430364e-05
1.43528788927e-05
1.42390460264e-05
1.40262133082e-05
1.36451060929e-05
1.3004495235e-05
1.20025799474e-05
1.05548164528e-05
8.64056242782e-06
6.3624056709e-06
3.99695962739e-06
1.98484198988e-06
7.45773278418e-07
3.09492579173e-07
4.06328609441e-07
9.65207073224e-07
1.71274494817e-06
2.38421201954e-06
1.44942729213e-05
1.44725624464e-05
1.44227893229e-05
1.43323254012e-05
1.41678236525e-05
1.38747093353e-05
1.33773539307e-05
1.25854737776e-05
1.14118272872e-05
9.80410628127e-06
7.78901458486e-06
5.51889406747e-06
3.29942368502e-06
1.54826132001e-06
5.8214986211e-07
3.23864041406e-07
5.65530709568e-07
1.20340724923e-06
1.87718795579e-06
2.46088628349e-06
1.45037286994e-05
1.44818614528e-05
1.44153931801e-05
1.42901652596e-05
1.40676064353e-05
1.36873922348e-05
1.30717503582e-05
1.21367736267e-05
1.08142175776e-05
9.08398175705e-06
7.01271850396e-06
4.78823102949e-06
2.72961695995e-06
1.22218328824e-06
4.85426451499e-07
3.78578829013e-07
7.5160030093e-07
1.40679986593e-06
1.99589564326e-06
2.50755726189e-06
1.44980684399e-05
1.44763092508e-05
1.43904584248e-05
1.42254731789e-05
1.39390030074e-05
1.34676379336e-05
1.27352783041e-05
1.16683089746e-05
1.02194320789e-05
8.39847792061e-06
6.30467085214e-06
4.15080450367e-06
2.26020471822e-06
9.80130375191e-07
4.3887346469e-07
4.69545330586e-07
9.45270256771e-07
1.57248615087e-06
2.08086662166e-06
2.53333741972e-06
1.44762342322e-05
1.44545965617e-05
1.43468414961e-05
1.41378571009e-05
1.3783193057e-05
1.32189940198e-05
1.23740043563e-05
1.11874314364e-05
9.63319807405e-06
7.74789243436e-06
5.65701739769e-06
3.59125740141e-06
1.87262300086e-06
8.04694064821e-07
4.32786672289e-07
5.90943239315e-07
1.13048929409e-06
1.70506792698e-06
2.1410991454e-06
2.54452421312e-06
1.44372526827e-05
1.44157048488e-05
1.42838317442e-05
1.40274485306e-05
1.36017829596e-05
1.29449636698e-05
1.19930432367e-05
1.06994748798e-05
9.05868434278e-06
7.13075909887e-06
5.06260531381e-06
3.09827526873e-06
1.55429861045e-06
6.8368632356e-07
4.6142758762e-07
7.33914656283e-07
1.29793763802e-06
1.8109335821e-06
2.1832235139e-06
2.54553062494e-06
1.43804173085e-05
1.4359133554e-05
1.42013465829e-05
1.3895011153e-05
1.33968233043e-05
1.26490219121e-05
1.15967738434e-05
1.02083956494e-05
8.4976106516e-06
6.54510337051e-06
4.51571294854e-06
2.66404162736e-06
1.29653404719e-06
6.08134208068e-07
5.20768939068e-07
8.87938326667e-07
1.44461889506e-06
1.89577524233e-06
2.21211567682e-06
2.53950477853e-06
1.43054421358e-05
1.42850981539e-05
1.41000949268e-05
1.37420332677e-05
1.31708463962e-05
1.23346848204e-05
1.11890808129e-05
9.71729593115e-06
7.95100634281e-06
5.98916376665e-06
4.01229222378e-06
2.28351845123e-06
1.09285515047e-06
5.71263190065e-07
6.06705066884e-07
1.04324108155e-06
1.57147041358e-06
1.96410996674e-06
2.23133153778e-06
2.52872267427e-06
1.4212356868e-05
1.41944903516e-05
1.39815272918e-05
1.35706366535e-05
1.29267515755e-05
1.20054407376e-05
1.07734240514e-05
9.22867932666e-06
7.41958366199e-06
5.46167698313e-06
3.54985285306e-06
1.95356838781e-06
9.37798395548e-07
5.67907076546e-07
7.1406477375e-07
1.19264020512e-06
1.68103475087e-06
2.01945412839e-06
2.24343229586e-06
2.51482385556e-06
1.41010757231e-05
1.4088504693e-05
1.3847480398e-05
1.33832118268e-05
1.26674457086e-05
1.16644503085e-05
1.03526611544e-05
8.74441582432e-06
6.90378074574e-06
4.96184045137e-06
3.12709051073e-06
1.67200375034e-06
8.26231460156e-07
5.93994272024e-07
8.36641366575e-07
1.33210744613e-06
1.77607761949e-06
2.06454990986e-06
2.25022935435e-06
2.49894305884e-06
1.39707415373e-05
1.39680118344e-05
1.36995845961e-05
1.31818462551e-05
1.23953090428e-05
1.13140942146e-05
9.92871997381e-06
8.26554261859e-06
6.403629085e-06
4.48911186643e-06
2.74339395427e-06
1.43674668001e-06
7.53211208787e-07
6.45985209465e-07
9.67977525666e-07
1.46026090646e-06
1.85906470664e-06
2.10153361347e-06
2.25296928208e-06
2.4817820908e-06
1.38191824258e-05
1.3832930121e-05
1.35386591266e-05
1.29677667731e-05
1.21117069103e-05
1.09555854016e-05
9.50233236713e-06
7.79210518537e-06
5.91863966659e-06
4.04302050822e-06
2.39839247706e-06
1.24531157887e-06
7.14192708159e-07
7.20353585376e-07
1.10234794763e-06
1.57739819927e-06
1.93208145728e-06
2.1320698593e-06
2.25248560817e-06
2.46366324455e-06
1.3642726231e-05
1.36818846271e-05
1.33643795926e-05
1.27410630884e-05
1.18167889786e-05
1.05888590145e-05
9.07301632422e-06
7.32320740339e-06
5.44786623746e-06
3.62313928361e-06
2.09169224717e-06
1.09472329452e-06
7.0528969974e-07
8.13279523573e-07
1.23544776983e-06
1.68459696483e-06
1.99687600033e-06
2.15746651101e-06
2.24933715546e-06
2.44459987928e-06
1.34363396731e-05
1.35123027467e-05
1.31753686606e-05
1.25008076532e-05
1.15096574093e-05
1.02128004447e-05
8.63936271004e-06
6.85733852467e-06
4.99022990357e-06
3.22929944772e-06
1.82286295476e-06
9.81788717972e-07
7.23337563091e-07
9.20635976622e-07
1.36457689437e-06
1.78311988009e-06
2.05489621049e-06
2.17876710645e-06
2.24393622273e-06
2.42440421382e-06
1.31944500379e-05
1.33208966171e-05
1.29695786439e-05
1.2245427219e-05
1.11887750889e-05
9.82571546673e-06
8.19957223022e-06
6.39296162275e-06
4.54510436963e-06
2.86201065079e-06
1.59158299316e-06
9.03472598684e-07
7.65677118685e-07
1.03821631524e-06
1.48839290662e-06
1.8741225805e-06
2.10731040946e-06
2.19681761893e-06
2.23665581898e-06
2.4028278668e-06
1.29110961143e-05
1.31039416266e-05
1.27445867186e-05
1.19730632408e-05
1.08524357183e-05
9.42592394607e-06
7.75215885687e-06
5.92928415134e-06
4.11304218904e-06
2.52288437599e-06
1.39772606614e-06
8.57119001998e-07
8.29755097323e-07
1.16207039896e-06
1.60645705613e-06
1.9585620303e-06
2.1550337485e-06
2.21231080348e-06
2.22790041207e-06
2.37970628646e-06
1.25795755015e-05
1.28572145923e-05
1.249769764e-05
1.16818568486e-05
1.04992359913e-05
9.01239066959e-06
7.2966860972e-06
5.46701343844e-06
3.69636303489e-06
2.21473596146e-06
1.24119920255e-06
8.40409673311e-07
9.12742795472e-07
1.28880952395e-06
1.71879875351e-06
2.03720516938e-06
2.19877148156e-06
2.22581451339e-06
2.21813085625e-06
2.35506737832e-06
1.21925131233e-05
1.25760182697e-05
1.22261137008e-05
1.13702712635e-05
1.01285188762e-05
8.58523961915e-06
6.83429067298e-06
5.00878744687e-06
3.29925882293e-06
1.94112041993e-06
1.12154895753e-06
8.511318893e-07
1.01136613447e-06
1.41578708134e-06
1.82562738182e-06
2.11067503567e-06
2.23907275185e-06
2.23778947501e-06
2.20784739093e-06
2.32917540455e-06
1.17414297368e-05
1.22554770646e-05
1.19273370019e-05
1.10374459357e-05
9.74064107104e-06
8.14592714751e-06
6.36774780746e-06
4.55904935896e-06
2.92724700081e-06
1.70538235113e-06
1.03757970737e-06
8.86913865343e-07
1.12202278417e-06
1.54112951179e-06
1.92720462271e-06
2.17950148809e-06
2.2763804524e-06
2.24860021738e-06
2.19754737821e-06
2.30250832098e-06
1.12182629746e-05
1.18914966029e-05
1.15997670888e-05
1.06834402156e-05
9.3369231421e-06
7.69698462831e-06
5.90105830751e-06
4.12341366543e-06
2.58613853648e-06
1.50964409826e-06
9.87243902701e-07
9.45058360156e-07
1.24110688768e-06
1.66364793757e-06
2.0238178271e-06
2.24415913704e-06
2.31106581894e-06
2.25852208912e-06
2.1876795676e-06
2.27569373767e-06
1.06187319186e-05
1.14820656642e-05
1.12432486076e-05
1.03092720156e-05
8.91934329002e-06
7.24151474048e-06
5.43881714072e-06
3.70782721948e-06
2.28093338091e-06
1.3542232015e-06
9.67846927964e-07
1.0225263357e-06
1.36536884993e-06
1.78268376162e-06
2.11578296777e-06
2.30508462552e-06
2.34344524245e-06
2.26774713283e-06
2.17861167384e-06
2.24944070948e-06
9.94091344293e-06
1.10272211441e-05
1.08590847468e-05
9.91673762885e-06
8.49020386432e-06
6.78278164056e-06
4.98572762222e-06
3.31788516209e-06
2.01506096683e-06
1.23769751404e-06
9.76385176951e-07
1.11604487951e-06
1.49215309053e-06
1.89793550124e-06
2.2034341918e-06
2.36267529469e-06
2.37378539554e-06
2.27639111247e-06
2.17061559808e-06
2.22449588078e-06
9.1836361682e-06
1.05280602914e-05
1.0449566925e-05
9.50818997433e-06
8.05203903414e-06
6.32417795638e-06
4.54650523711e-06
2.95850757717e-06
1.79015483812e-06
1.1574440452e-06
1.00979590938e-06
1.2222693226e-06
1.61944954298e-06
2.00930039655e-06
2.28709515658e-06
2.41728071065e-06
2.40230727427e-06
2.28450300262e-06
2.16386130261e-06
2.20162793977e-06
8.35075349958e-06
9.98600868819e-06
1.00173071135e-05
9.08636981827e-06
7.60779391595e-06
5.86954720328e-06
4.12609136036e-06
2.63387742229e-06
1.60622723328e-06
1.1102639316e-06
1.06502048052e-06
1.33793876326e-06
1.74579800994e-06
2.11675634153e-06
2.36705174351e-06
2.46920140117e-06
2.42919753409e-06
2.29207657362e-06
2.15840349484e-06
2.18161684486e-06
7.44381243677e-06
9.39973472263e-06
9.56394742199e-06
8.65409679861e-06
7.16105645314e-06
5.42357700038e-06
3.72983851701e-06
2.3473507042e-06
1.46196735392e-06
1.09279930528e-06
1.13893890227e-06
1.46000821853e-06
1.87014090856e-06
2.22030133157e-06
2.44354646609e-06
2.51870190842e-06
2.45462793053e-06
2.29906287151e-06
2.15415000541e-06
2.16520947185e-06
6.45029733146e-06
8.76110557459e-06
9.08881827459e-06
8.21397704294e-06
6.71619426275e-06
4.99192209453e-06
3.36329125276e-06
2.10112862429e-06
1.35499477431e-06
1.1016912297e-06
1.22831634372e-06
1.58577292044e-06
1.99171157397e-06
2.31995071475e-06
2.51679773725e-06
2.56603212356e-06
2.47877543734e-06
2.30538340456e-06
2.15081560282e-06
2.15300968647e-06
5.37308602229e-06
8.05913473893e-06
8.58951493681e-06
7.76853912566e-06
6.27827132157e-06
4.58076339782e-06
3.03139569591e-06
1.89577384834e-06
1.28209183436e-06
1.13360778744e-06
1.32987644807e-06
1.71299276809e-06
2.10999113696e-06
2.41576948676e-06
2.58702698607e-06
2.6114409336e-06
2.50183204875e-06
2.31094655976e-06
2.14788358251e-06
2.14529637475e-06
4.26234888299e-06
7.28868618851e-06
8.06401925575e-06
7.32053276254e-06
5.85254788847e-06
4.19580041314e-06
2.73743840297e-06
1.72993934741e-06
1.2395234213e-06
1.18529416815e-06
1.4405107308e-06
1.83999060305e-06
2.22470691074e-06
2.50790139655e-06
2.65446867794e-06
2.65516730999e-06
2.52399666715e-06
2.31567123059e-06
2.14460952082e-06
2.14179760586e-06
3.17790480855e-06
6.44917497004e-06
7.51124753509e-06
6.87270661693e-06
5.44359021828e-06
3.84108738194e-06
2.48230920613e-06
1.60060861326e-06
1.22346098046e-06
1.25369828832e-06
1.55752914093e-06
1.96567849225e-06
2.33581912508e-06
2.59656251751e-06
2.71934861312e-06
2.69740606027e-06
2.54544914497e-06
2.31951813191e-06
2.1400978075e-06
2.14148427066e-06
2.17505847178e-06
5.54475264302e-06
6.93038390009e-06
6.42725634391e-06
5.05438700949e-06
3.51824016684e-06
2.2644755546e-06
1.50378934386e-06
1.23040243898e-06
1.33611669929e-06
1.67882548914e-06
2.08948066428e-06
2.44345666085e-06
2.68198827191e-06
2.78183360777e-06
2.73825834469e-06
2.56631212677e-06
2.32251866455e-06
2.13345468572e-06
2.14247456874e-06
1.28610806736e-06
4.59952301827e-06
6.3234836741e-06
5.98614017098e-06
4.68594938718e-06
3.22634248798e-06
2.08065276966e-06
1.43535932429e-06
1.25744610619e-06
1.43025690072e-06
1.80286941187e-06
2.21115162215e-06
2.54779297937e-06
2.76434387069e-06
2.84196762572e-06
2.77768118373e-06
2.58660195514e-06
2.32476040284e-06
2.12391617465e-06
2.14202499817e-06
5.44547518298e-07
3.65110810105e-06
5.69784909888e-06
)
;

boundaryField
{
    emptyPatch
    {
        type            empty;
    }
    minY
    {
        type            zeroGradient;
    }
    maxY
    {
        type            calculated;
        value           nonuniform List<scalar> 0();
    }
    maxX
    {
        type            compressible::alphatPhaseChangeJayatillekeWallFunction;
        Prt             0.85;
        Cmu             0.09;
        kappa           0.41;
        E               9.8;
        dmdt            uniform 0;
        value           uniform 0;
    }
    water_to_heater
    {
        type            compressible::alphatWallBoilingWallFunction;
        phaseType       vapor;
        relax           constant 1;
        partitioningModel
        {
            type            Lavieville;
            alphaCrit       0.2;
        }
        otherPhase      liquid;
        dmdt            uniform 0;
        dDep            uniform 1e-05;
        qQuenching      uniform 0;
        alphatConv      uniform 0;
        value           nonuniform List<scalar> 
61
(
5.70879270181e-11
1.04304972392e-07
1.04304972392e-07
1.04302973465e-07
1.04302973465e-07
1.04304972392e-07
1.04304972392e-07
7.84412803105e-08
4.63054421481e-08
3.39358914931e-08
3.39358914931e-08
3.94621756079e-08
3.94621756079e-08
4.92103803e-08
4.92103803e-08
5.10264610625e-08
4.96467316595e-08
5.32894865819e-08
5.32894865819e-08
4.98947406619e-08
4.98947406619e-08
5.29195876611e-08
5.29195876611e-08
4.96467316595e-08
5.13586099726e-08
4.92103803e-08
4.92103803e-08
4.94790142855e-08
4.94790142855e-08
3.86466076157e-08
3.86466076157e-08
3.52212080179e-08
5.94001996067e-08
1.51006607145e-07
1.51006607145e-07
1.68470528585e-07
1.68470528585e-07
1.58961758185e-07
1.58961758185e-07
1.73021957133e-07
1.60381878067e-07
1.73650644402e-07
1.73650644402e-07
1.60381878067e-07
1.60381878067e-07
1.72998657423e-07
1.72998657423e-07
1.58961758185e-07
1.66103917241e-07
1.58107262331e-07
1.58107262331e-07
1.51165150964e-07
1.51165150964e-07
5.82545874629e-08
5.82545874629e-08
1.41409587125e-08
1.06335885529e-08
1.77989900794e-08
1.77989900794e-08
1.08611304581e-07
1.08611304581e-07
)
;
    }
    procBoundary2to3
    {