/*--------------------------------*- C++ -*----------------------------------*\
| =========                 |                                                 |
| \\      /  F ield         | OpenFOAM: The Open Source CFD Toolbox           |
|  \\    /   O peration     | Version:  2312                                  |
|   \\  /    A nd           | Website:  www.openfoam.com                      |
|    \\/     M anipulation  |                                                 |
\*---------------------------------------------------------------------------*/
FoamFile
{
    version     2.0;
    format      ascii;
    arch        "LSB;label=32;scalar=64";
    class       volScalarField;
    location    "0.255/heater";
    object      T;
}
// * * * * * * * * * * * * * * * * * * * * * * * * * * * * * * * * * * * * * //

dimensions      [0 0 0 1 0 0 0];

internalField   nonuniform List<scalar> 
150
(
796.90642892
796.768585447
796.493064808
796.07995042
795.528977822
796.902219469
796.765363029
796.492094958
796.082451938
795.534767341
796.900579633
796.76618721
796.499362612
796.101119271
795.565120485
796.901047539
796.769979875
796.512756898
796.133421316
795.618533645
796.90395651
796.775457126
796.525673012
796.162172403
795.667331717
796.91500354
796.791234514
796.552057603
796.207390899
795.736078938
796.933020905
796.815984682
796.590638728
796.268821952
795.82859978
796.947869068
796.835178417
796.618782962
796.312955627
795.899281521
796.966171709
796.85739303
796.648770185
796.357107745
795.970441227
796.983314109
796.877905135
796.675739614
796.395895848
796.041209767
797.000523696
796.898155642
796.701524625
796.430429861
796.112335173
797.020249846
796.920418106
796.72805368
796.46163616
796.152829593
797.04486195
796.947551952
796.759216072
796.496405602
796.190308322
797.070824309
796.975999342
796.791580539
796.531979767
796.226261121
797.095474177
797.002894908
796.82190493
796.564720122
796.257258711
797.118671504
797.0276799
796.84890025
796.592619739
796.282152582
797.144096316
797.054299217
796.876915377
796.620123926
796.304413592
797.172675246
797.083855792
796.907455676
796.649179111
796.324592252
797.20402433
797.116011323
796.940270434
796.679849227
796.345198822
797.235535938
797.147899352
796.972308734
796.710150079
796.372732388
797.263342495
797.175009732
796.997697851
796.7316535
796.391049768
797.28345764
797.192964666
797.011201901
796.737534525
796.389384492
797.29395798
797.200082536
797.011575169
796.726609456
796.362961711
797.298628259
797.202956068
797.01083987
796.71888442
796.335118621
797.300605169
797.204692243
797.012111633
796.718329359
796.308687099
797.306586707
797.211922507
797.022411302
796.735320013
796.316143761
797.324782437
797.232198108
797.047869383
796.774138433
796.379990915
797.348904719
797.257601046
797.076566762
796.813127138
796.451471265
797.364423146
797.272982084
797.092362964
796.834086064
796.510253619
797.370683037
797.277701354
797.094789361
796.835656031
796.531534453
)
;

boundaryField
{
    emptyPatch
    {
        type            empty;
    }
    minY
    {
        type            zeroGradient;
    }
    maxY
    {
        type            zeroGradient;
    }
    minX
    {
        type            zeroGradient;
    }
    heater_to_water
    {
        type            compressible::turbulentTemperatureTwoPhaseRadCoupledMixed;
        refValue        nonuniform List<scalar> 
60
(
335.721805639
336.477694653
336.47768774
336.400696429
337.604978493
337.198123178
337.197503536
338.440282564
338.439707317
338.259021769
338.258181889
337.663910513
327.342013553
317.153614469
317.153201897
312.527126526
312.526821354
313.963098962
313.962760323
327.646752648
418.940478483
503.138069832
503.137618146
524.246522324
524.246064737
531.648650909
531.648188044
533.963858999
528.80208734
521.08487173
521.084575117
510.860584738
510.860314277
495.300177853
495.299888731
474.537729718
446.793042963
438.377683374
438.377078801
440.927709723
440.927347411
446.906887525
446.907015644
457.078997897
478.828336983
511.532637318
511.533222133
519.897658292
519.898211404
471.61448514
471.614322985
353.041284118
329.114829634
324.571209069
324.570614985
333.011728391
333.011111321
408.655897068
408.65551671
525.298946594
)
;
        refGradient     uniform 0;
        valueFraction   nonuniform List<scalar> 
60
(
0.0007484536691
0.000748240472076
0.000748240615985
0.000748409756187
0.000747906099637
0.000748369534245
0.000748382180553
0.000747950061543
0.000747961408858
0.000748338708763
0.000748355360944
0.000748237907092
0.000741021543572
0.000697975684802
0.000697992990577
0.000671239580374
0.000671256661073
0.000682939964166
0.000682957240395
0.000740118197213
0.000648521489101
0.000597510605577
0.000597511938774
0.000596864696927
0.000596865918672
0.00059728739537
0.000597288592361
0.000596917672566
0.000597282800749
0.000597211178284
0.000597211981758
0.000598988730842
0.00059898950132
0.000606452682976
0.000606453583462
0.000624102004174
0.000648665100284
0.000654894868797
0.000654897741652
0.000650987885974
0.000650989566123
0.000646158746281
0.000646158180702
0.000640186786883
0.000626788415585
0.000608309377648
0.000608307692075
0.000607547436308
0.000607545904858
0.000635069878022
0.000635070479846
0.000748248658064
0.000726332351971
0.000725032477963
0.000725050511882
0.000745416310049
0.000745430575335
0.000683862430615
0.000683864842708
0.000600131132403
)
;
        source          uniform 0;
        value           nonuniform List<scalar> 
60
(
795.186249817
795.186913434
795.192719567
795.192584301
795.224148844
795.223632131
795.27723558
795.27836321
795.327303747
795.32699602
795.395936489
795.395545565
795.484044819
795.497100084
795.567689857
795.577392811
795.648716228
795.644048869
795.715423325
795.697994833
795.869241217
795.938790118
795.978075323
795.990864135
796.028134103
796.032440956
796.068317616
796.069798018
796.097660363
796.093070712
796.11804779
796.111434777
796.133854561
796.12228775
796.142760741
796.124490412
796.119721496
796.112032684
796.139630652
796.142690799
796.160861029
796.166441948
796.164512597
796.173111468
796.164186442
796.189948513
796.161438433
796.166736746
796.140444752
796.102173306
796.111920971
795.986449468
796.043570593
796.04088371
796.112727356
796.1094092
796.167589126
796.247856711
796.266948017
796.369427725
)
;
        kappaMethod     solidThermo;
        Tnbr            T.liquid;
        region          solid;
        otherPhase      gas;
    }
    procBoundary3to0
    {
        type            processor;
        value           nonuniform List<scalar> 5(797.375154781 797.27956133 797.092186895 796.827742681 796.521914352);
    }
    procBoundary3to2
    {
        type            processor;
        value           nonuniform List<scalar> 5(796.910331573 796.772144225 796.495889057 796.081691435 795.529592598);
    }
}


// ************************************************************************* //
