/*--------------------------------*- C++ -*----------------------------------*\
| =========                 |                                                 |
| \\      /  F ield         | OpenFOAM: The Open Source CFD Toolbox           |
|  \\    /   O peration     | Version:  2312                                  |
|   \\  /    A nd           | Website:  www.openfoam.com                      |
|    \\/     M anipulation  |                                                 |
\*---------------------------------------------------------------------------*/
FoamFile
{
    version     2.0;
    format      ascii;
    arch        "LSB;label=32;scalar=64";
    class       volScalarField;
    location    "0.415/water";
    object      epsilon.gas;
}
// * * * * * * * * * * * * * * * * * * * * * * * * * * * * * * * * * * * * * //

dimensions      [0 2 -3 0 0 0 0];

internalField   nonuniform List<scalar> 
6000
(
17.4123535905
2.78089776265
0.5201481912
0.123527312215
0.0385441667741
0.00744845597212
0.0019728229152
0.000904518441946
0.000605899104462
0.000499168921223
0.000454501550893
0.000433764092348
0.000423304703564
0.000417575570493
0.000414173508837
0.000412014871031
0.0004105861862
0.000409624752425
0.000408983345306
0.000408573643939
553.798748433
107.014386582
18.2634721987
3.82730038717
0.715768055757
0.197004197625
0.0432217132525
0.00790097760859
0.00198520756601
0.000888654625497
0.000597975118275
0.000495195278619
0.000452207312307
0.000432274227502
0.000422182790268
0.000416577634366
0.000413173895816
0.000410968103395
0.000409499627017
0.000408540587422
784.18245735
183.707607538
41.288967272
8.90327597157
2.10812960708
0.476244150682
0.131898044847
0.0297276805443
0.00615620139596
0.0018208454292
0.000889158204096
0.000611733795214
0.00050599370185
0.000459563683696
0.000437327201939
0.000425830529696
0.000419350911081
0.00041536798988
0.000412765417743
0.000411041204288
1002.45004505
249.232321495
62.2054253064
15.2318056159
4.17758397965
0.914622848027
0.241692314433
0.0688817486919
0.0154251936634
0.00367639333584
0.0013761569417
0.000787804418894
0.000584092619746
0.000498440010263
0.000458333846238
0.000438190754892
0.000427351965646
0.000421027486048
0.000417038733856
0.000414410124526
1092.3580634
287.566055395
76.9570095871
20.8012985049
5.37706608225
1.63246019933
0.35237970325
0.109152269952
0.0314891750473
0.00708022281675
0.00213972495123
0.00103127728877
0.000686173187587
0.000548346745316
0.000484992866508
0.00045349729399
0.00043689774687
0.000427555330585
0.000421884014802
0.000418224065481
1076.51240736
300.180334152
85.8531380415
25.0760372997
7.22379835195
1.92120026911
0.588732192812
0.134422241059
0.0493125549577
0.0130260080019
0.0033432681221
0.00136009338213
0.000813129890865
0.000608513259686
0.000516741972969
0.000471403503034
0.000447663049867
0.000434552395438
0.000426832018535
0.000421985963371
1026.09387251
296.457001204
89.1977458637
27.7631295775
8.68137783583
2.5936341768
0.684365280225
0.199957622804
0.0545915559565
0.0209289934557
0.0052561400428
0.001806342657
0.00096759433833
0.000678319853977
0.000552882018694
0.000491479173372
0.000459386459093
0.000441803376783
0.000431658404447
0.000425462203315
996.742999233
290.220269456
89.8993845298
29.3077638795
9.71221057101
3.13056840029
0.928656390267
0.253754512281
0.0691707949468
0.0249443535485
0.00807345173802
0.00242647843425
0.00115543140534
0.000757644718046
0.00059270527741
0.000513206389197
0.000471782032412
0.000449160657657
0.000436271964526
0.000428586791007
960.53688584
283.335448423
89.8118562856
30.216413191
10.3692627125
3.50576472439
1.13179779759
0.335325593125
0.112580468934
0.0289175552455
0.0112243976043
0.00335327386721
0.00139743274915
0.000849666092429
0.000636491258858
0.000536433814958
0.000484750422596
0.000456632551767
0.000440758372748
0.000431474361486
917.160250764
277.819152984
90.0444510752
30.7723645801
10.6993321068
3.70923315733
1.27930251225
0.43490339385
0.139156028918
0.0509505394666
0.0140746226335
0.00490150607909
0.00177455955651
0.000970389048055
0.000688155335434
0.000562385118554
0.000498869248384
0.000464623428143
0.000445427121597
0.000434360894488
912.249387136
283.012298497
92.34742241
31.3211704072
10.8352699303
3.82443191041
1.40465965183
0.536206321653
0.207699599141
0.0869803261227
0.0244216154803
0.00815565533519
0.00258891129191
0.00116818786769
0.000758018953439
0.00059403290201
0.000515288911739
0.00047374079265
0.000450697508003
0.000437568941289
1010.0274574
309.648140308
98.10519838
32.2382199659
11.0870458964
4.02735984795
1.56695597528
0.656754542999
0.292353318712
0.132341115737
0.0590183113087
0.0143285116485
0.00456490982817
0.00155216813597
0.00086482262517
0.000636125344741
0.000535723164538
0.000484825394709
0.000457076242132
0.000441433319906
1262.75384528
356.932399141
106.551493141
34.1789298492
11.850321732
4.4377126812
1.80090587125
0.804925906782
0.392697874653
0.20727034999
0.0973411377462
0.0301674968128
0.00848171973041
0.00242596101419
0.00104947307488
0.000696657393027
0.000562524073772
0.000498816293566
0.000465018378172
0.000446199862059
1406.88366801
387.38916944
114.538122438
36.7672536286
12.8812527621
4.93083237395
2.06379899123
0.957295795551
0.498656153271
0.289590150346
0.170683941314
0.0758094118628
0.0132104729252
0.00424792163001
0.00139304894883
0.000787625246936
0.000598524833655
0.000516620996346
0.000474845950216
0.000451981941387
1439.3001395
399.347890207
118.830513445
38.4023718704
13.6093441894
5.31262375603
2.28568699839
1.09470349328
0.594759433797
0.368560120051
0.250840870223
0.127421599855
0.0328419790788
0.00644464312288
0.00205611379312
0.000928302308991
0.000647361700974
0.000539247251518
0.000486834746797
0.000458831213715
1441.21599378
402.832901896
120.638590717
39.2918708779
14.0657292941
5.57008708681
2.44637579389
1.20480989696
0.675887256717
0.439602632806
0.324192513835
0.205359890931
0.0640781558776
0.00859673533652
0.00310286269938
0.00114763850147
0.00071409600602
0.000568130481316
0.000501409895563
0.000466871236941
1439.86675301
403.750067426
121.678134372
39.8484583022
14.3411686196
5.72772278992
2.5563751271
1.29054237671
0.74528150166
0.499548040495
0.388262520051
0.277206576607
0.117195096403
0.0177753940261
0.00391085152016
0.00148755479072
0.000808075201919
0.000605761235134
0.00051933866721
0.000476396710949
1450.12925677
406.78393944
122.709955079
40.2078807414
14.4896645016
5.81716985706
2.62991118371
1.35801559618
0.805771150042
0.554252191774
0.44595374674
0.33948535994
0.175875482067
0.0369056007334
0.00428684438429
0.00197869249312
0.000946418661542
0.000656189332836
0.000541829849452
0.000487901491975
1495.42005658
416.304985034
124.717776238
40.7210108634
14.6651777872
5.9041975546
2.69374303084
1.41534906549
0.858065899099
0.608458983623
0.501386873998
0.397805845129
0.231950760982
0.0598428911876
0.00619525477631
0.00284279021104
0.00116852761852
0.000726331343628
0.00057067944401
0.000502066181408
1554.43032816
430.809110346
128.190928011
41.7100532548
15.0033930241
6.03813046974
2.76283978987
1.4610581497
0.904591770204
0.666432892392
0.560827397955
0.460320904566
0.289701293281
0.0991639643198
0.0141634096365
0.00470933392534
0.00155662675143
0.000828000496935
0.000608472814182
0.000519724990103
1619.05812946
446.223314833
132.500198403
43.1888668894
15.5503221509
6.23267739931
2.82900104465
1.49671561083
0.951884848527
0.724236304504
0.619528592165
0.53015606561
0.359877660286
0.155636819169
0.0354078269913
0.0086374885096
0.00230113004516
0.000983360225516
0.000659083967348
0.000541869180663
1661.56743923
456.381259634
136.361787436
44.9290038618
16.2390250303
6.44192393454
2.87519691306
1.52021607342
0.985819645278
0.760055487711
0.658415516238
0.585376063033
0.45457408972
0.238847776822
0.0821163376711
0.0158804261435
0.00390490819953
0.00123850880243
0.000728749094654
0.000569769312457
1656.64884312
459.393872972
140.491527931
47.0727893295
16.9420775896
6.53882507968
2.83832046707
1.49588183777
0.978469400763
0.756343333181
0.658630478672
0.607821375838
0.52278168596
0.346327391974
0.128006439961
0.0265050760688
0.00720369384611
0.0016832270354
0.000827172950215
0.000605154655778
1573.70003915
460.23060354
146.252069953
49.4382132901
17.2749803979
6.3527039734
2.70072388504
1.43840504402
0.94090049115
0.717687957943
0.619566631672
0.58541112976
0.532416984202
0.423397343615
0.219806784955
0.0595885920688
0.0109690284848
0.00249408159289
0.000970176967875
0.000650466418256
1546.98874279
479.39819817
155.543874565
51.3520376401
16.9601869955
6.13366178785
2.63899047747
1.39826832266
0.893713271873
0.662617779722
0.561085029815
0.531738661704
0.506472837877
0.432190121648
0.297796911673
0.0952776675028
0.0123176850194
0.0038601047058
0.00118412852709
0.000709163748699
1669.39355138
525.716626256
166.852284634
52.812113298
17.0622037237
6.26074056579
2.70722541989
1.40357776562
0.862177399378
0.616665544229
0.510408626101
0.474516206474
0.463163045971
0.418072787246
0.325352704532
0.155811136621
0.0239070050431
0.00504395902679
0.00150940582479
0.000786416820125
1982.82272345
594.00332358
178.585264041
55.3778208287
18.3343955782
6.82187319202
2.93980062213
1.47627362435
0.866605689501
0.599619381627
0.484254791994
0.433586102285
0.421834588924
0.398526524169
0.332595510072
0.206616152745
0.0420046002453
0.00493885594671
0.00198306945257
0.000890148416413
2470.26132154
671.039324614
191.874191092
59.5167405102
20.4172611767
7.79090601276
3.33344641804
1.62033470116
0.91424257762
0.615825161664
0.48383410459
0.416214709389
0.395188447751
0.385095237584
0.34311574401
0.24970376191
0.076678718268
0.00626422061103
0.00256741113949
0.00103364753486
2774.73293146
731.980216852
207.443651832
64.8404986072
22.6704864427
8.81663400872
3.79146223753
1.81502287692
0.99924347566
0.658468348492
0.502864239086
0.420759682968
0.389078036655
0.385257713659
0.365888067527
0.294483611653
0.123606838037
0.0127535868898
0.00314171433832
0.0012416088579
2883.2383839
764.473321803
218.026835385
68.870996535
24.409776397
9.64232575082
4.19095473594
2.00561347888
1.09817462221
0.714198177085
0.533553459847
0.440731030498
0.402362242023
0.402760447964
0.404290054422
0.34586144785
0.180044386439
0.0281400126102
0.00364772880358
0.00155244820081
2909.50515778
777.271101435
223.6221777
71.2132180779
25.4817801778
10.2046828438
4.4944906596
2.17233117596
1.1988523549
0.774705149578
0.571130408887
0.470866257049
0.430298827644
0.436192544567
0.456325559174
0.401437749006
0.245914438869
0.0496967725023
0.00438962067351
0.0020084393828
2927.73196755
781.266644484
225.871285284
72.203504037
26.0258701783
10.5558682461
4.71501678577
2.31374107003
1.29319095204
0.833018174236
0.611773043671
0.508487771656
0.469506213674
0.482318782816
0.516547416089
0.462899730978
0.317263461124
0.0929247819925
0.00673590328643
0.00263482223154
2958.56912673
784.03411062
225.696434668
72.2094618716
26.2309154489
10.7602451851
4.86523099287
2.42384259493
1.37049855626
0.882123954947
0.652202718099
0.552234731288
0.518473830669
0.538985264717
0.581233212693
0.525813996003
0.384296088507
0.147343005928
0.0140593654725
0.00340259363448
3055.56187844
797.815816389
227.818610691
72.7082392108
26.4822964654
10.9132846604
4.96364921688
2.50025362542
1.42209346881
0.917435252582
0.690997450025
0.601923167869
0.577318047432
0.606003461053
0.64674484624
0.587799582772
0.437753272306
0.204756584306
0.0308751459506
0.00430513833572
3143.86944431
816.169497512
231.679831595
73.7528585918
26.8380035835
11.0404394609
5.02022663532
2.53968512542
1.44140901341
0.938157672473
0.728561768061
0.657476640403
0.64619148574
0.682008206122
0.708243867399
0.64978418383
0.492394924517
0.263161655595
0.0540559370248
0.00566564421396
3240.62187581
833.92205657
236.264627065
75.2549983534
27.3300028586
11.1710538072
5.04965848172
2.53441163068
1.42688472877
0.94763768062
0.765397091725
0.716552051817
0.722476318368
0.759785116976
0.764082640093
0.714748843546
0.561963621134
0.329263539425
0.0828731678612
0.00854087874554
3289.98434221
844.524867127
239.642511252
76.6317443632
27.800672832
11.2693916169
5.02617013181
2.46781172624
1.38502591798
0.950318473741
0.798878091856
0.771813753066
0.795192196758
0.822966637365
0.81451970722
0.785682117634
0.657815534612
0.415914533374
0.130956838544
0.015356548699
3323.22555984
844.683440254
240.447785047
77.2426919181
27.9857851922
11.2062413601
4.87042678717
2.33056164675
1.3263993169
0.947033254959
0.820567385496
0.808969881676
0.842014879414
0.856822561638
0.854773735722
0.859144516904
0.771653102632
0.541438571341
0.201364703329
0.0304412353965
3264.02582678
830.024336153
237.459036369
76.8214176989
27.7088458383
10.8387865065
4.55011985641
2.15416771169
1.26665078889
0.934515204229
0.818468817392
0.809626966932
0.840712163198
0.854248089243
0.87073314769
0.9187308122
0.871957515323
0.66641456342
0.296003864779
0.06195247115
2994.74548554
774.98278817
227.645784043
74.6957893758
26.590266186
10.0715138637
4.1432404472
2.00461745188
1.22326852346
0.907326562037
0.783222632791
0.764196988467
0.788339549044
0.809629728925
0.844055995539
0.937830426511
0.930512762082
0.753892641088
0.398722490587
0.102488658455
2483.57496098
704.630058247
219.151399035
72.1533316332
24.9501387275
9.429828303
3.96750890162
1.97713581538
1.20040475139
0.856470853534
0.71175359199
0.677081667481
0.692573224721
0.718857232497
0.761230757859
0.887801154893
0.924115612699
0.790198818785
0.474950457954
0.146042874191
2295.15002893
722.308588301
227.229462087
73.5661089895
25.5403735206
9.75040729117
4.17003941904
2.06171972218
1.18946736231
0.792180591817
0.62065209707
0.563701393774
0.561590148185
0.585463796029
0.629293690004
0.756578105186
0.84256834565
0.761869546954
0.497795531958
0.206805554818
2826.47647881
866.364537019
253.748323853
79.7071818641
28.263219728
11.2793450798
4.91668093004
2.34931047715
1.24986792084
0.756289396915
0.541931623006
0.458253446658
0.434345579455
0.441424466187
0.478949458288
0.580395548996
0.694526473058
0.678548286098
0.49349993152
0.253966637952
4035.59346561
1059.76145496
287.687256256
90.6669109328
34.1409127528
14.5467121215
6.5012466119
2.99593727423
1.45786876761
0.789548355749
0.507169201997
0.391440101978
0.34436834636
0.330614457736
0.346896950389
0.4192711604
0.52814166072
0.572893414239
0.472420024748
0.286926926884
4458.62129644
1177.56779069
340.043273034
114.321783445
45.7201017275
20.2086213961
9.10134420171
4.06523288266
1.8407887261
0.906909291209
0.5266631711
0.371487134295
0.301834034196
0.267398925549
0.263772643572
0.303299487352
0.395200705844
0.475498882446
0.447411348619
0.302889647906
4424.84953418
1212.33776071
368.764769811
131.803702225
56.7162663626
27.5072729247
12.8705883865
5.54006776969
2.37367932727
1.09591636566
0.592421530878
0.390514174772
0.298013461641
0.245199443639
0.224605013851
0.240678619303
0.311234709204
0.404667386295
0.429549580699
0.322654417732
4221.4065098
1190.70896624
374.550424113
139.246033341
63.0093672097
32.8346212391
16.4838906393
7.20137635812
3.01923988502
1.33990267612
0.691084496901
0.435372245944
0.318451370495
0.249467027932
0.214519425983
0.215173688207
0.262316358709
0.363063715855
0.420975601153
0.346713694085
4050.871462
1146.72991016
364.793570147
138.298161548
64.5721151123
35.3525055366
18.8972051002
8.41109478602
3.55557118378
1.57727623397
0.801997989949
0.493248425647
0.351444843401
0.268149647762
0.221690598426
0.211035532217
0.244247758591
0.342807590386
0.420625568668
0.373057143985
3885.22855664
1108.96670728
354.297717548
134.750161056
63.6138136114
35.7686835629
19.8781516987
8.96673730243
3.84946290249
1.73689417675
0.893499332849
0.549694982682
0.387912527516
0.292800495968
0.23786111976
0.219256444905
0.242780949562
0.336135126373
0.427689017794
0.404190925842
3764.00537126
1075.34501912
343.685316265
130.278926035
61.4361256893
34.8619215534
19.4857616661
8.85820004788
3.88946353483
1.80957736077
0.959569190103
0.600375877578
0.424165225692
0.319854595504
0.25889587552
0.234603593395
0.251181149269
0.337399059507
0.441387768514
0.440722446861
3636.59085574
1046.19735225
334.300417816
125.917474975
58.8721675276
33.1866296662
18.0363954985
8.28327227626
3.75737163909
1.82277768567
1.00740964849
0.645599604087
0.458961244507
0.348339012452
0.283473459438
0.255072351776
0.2662168578
0.345441643579
0.460878419772
0.484024813215
3559.20049736
1025.14822924
327.107642287
122.200724944
56.2594504829
31.0055092384
16.0662919325
7.51372345597
3.5515087057
1.80761039954
1.04441881732
0.685877198463
0.492472487547
0.37863954753
0.311709419072
0.28026185914
0.286982373157
0.360195487329
0.486423868525
0.536609468516
3526.14685765
1014.22198123
320.676505044
118.017029933
53.0897804357
28.0618658159
13.9823917087
6.71898442007
3.32571785659
1.78040034716
1.07332883776
0.721382685162
0.525699467288
0.411702372692
0.344282152578
0.310555737331
0.313335491084
0.382098485865
0.518948089848
0.60012049024
3602.49760267
1027.73952512
319.91740174
114.465503391
49.4104899545
24.4567263615
12.0368881977
5.98935056214
3.10707646165
1.74929684111
1.09640224397
0.752697528832
0.559652452222
0.4483938915
0.381774234628
0.34621265307
0.345394851309
0.411345754263
0.558627231462
0.673294137226
3792.56885898
1065.58329678
324.13103256
111.515438748
45.4437035201
21.1801957471
10.4657728701
5.38541812518
2.91544560671
1.71932704186
1.11326336405
0.780613878214
0.595194666737
0.489037969126
0.423924127148
0.386720928601
0.382403399428
0.447108524566
0.60295779769
0.751748938817
4106.62546782
1129.31196446
334.105686101
110.153614695
42.4547231629
19.0170731939
9.40454188729
4.94000117563
2.76859471116
1.69312890011
1.12363603917
0.807392468961
0.633178057282
0.532983660444
0.4692323381
0.430077349764
0.422336530744
0.486306092231
0.647366151781
0.829530653685
4453.10468135
1207.06551969
350.445067847
111.969826929
41.4869391172
18.0366708989
8.80612980396
4.64956812603
2.67087299324
1.67120851345
1.13158687197
0.837170417205
0.674163474467
0.578333535104
0.514567513474
0.47298288286
0.461373422418
0.523218304241
0.685641975488
0.900871134258
4770.45308992
1280.28035671
368.396283229
116.370729042
42.3115381684
17.899786599
8.52273456306
4.48572646002
2.60451888519
1.6507714769
1.14842056515
0.875604433627
0.717672827343
0.6214527419
0.555564365504
0.510769160474
0.494911545062
0.550691657434
0.711565188663
0.963892941305
4970.61084879
1339.32770146
388.302315028
123.386064953
44.4224294118
18.2451912165
8.44025291212
4.40183239377
2.55725867561
1.65102435626
1.19186448798
0.928906379229
0.761360485267
0.657284316998
0.586517586653
0.538071303499
0.517627772941
0.563878282441
0.717908861476
1.00960111807
4894.82049601
1338.91334217
397.017800025
128.486163662
46.1597852691
18.5344160571
8.3985382515
4.34126614646
2.5391439795
1.70520420063
1.28161504589
1.00125238837
0.799980300701
0.678534530348
0.601401659836
0.549041964271
0.524184264462
0.555607085933
0.700643769239
1.02375398612
4512.73232956
1262.60163629
385.545581631
127.622215347
46.0854977605
18.3418101856
8.25089333696
4.28634266565
2.59591122411
1.85001815974
1.43721604125
1.09314460684
0.823222271329
0.67527438469
0.593270052394
0.54128169388
0.510427683618
0.523462073228
0.661378622673
0.989604324497
3996.91111646
1147.67001513
359.467032539
121.764845934
44.5379912927
17.7989411586
8.06701090069
4.31681247685
2.78818790848
2.12887468157
1.67883417499
1.19727972139
0.814319270577
0.630254345561
0.556233067545
0.514914088151
0.478586685265
0.472388696773
0.58991483855
0.900685860269
3580.87693095
1050.34136058
336.943666733
117.293785715
43.6396124377
17.5857420034
8.10759083898
4.55845438013
3.18456906531
2.58863497184
2.01748836337
1.28699145948
0.765271485447
0.563798094025
0.498964058811
0.470014110188
0.434444974838
0.412519050423
0.489335009597
0.772856814001
3288.47776646
1001.57501033
332.62684214
118.574284944
44.797312008
18.297341077
8.6538905431
5.10744260525
3.81731339115
3.20398828148
2.36610528316
1.35041241559
0.72977730739
0.500661567314
0.432008380018
0.409952133381
0.381034293962
0.35339804658
0.395486241813
0.632498683674
3168.55120711
998.519834739
337.132645076
120.992568268
46.573221389
19.6412730902
9.61767960535
5.83720574845
4.45216635516
3.71625268423
2.68180544744
1.47686639467
0.744650986731
0.461557212538
0.37302093567
0.348976504807
0.326865926111
0.300231573469
0.324658990653
0.486487171953
3241.93130766
1016.34686814
335.401642755
120.097105379
47.4233731283
20.7698793406
10.4848399451
6.43561311751
4.87633807063
4.12188586266
3.06067886188
1.69822639279
0.821974159276
0.461914427752
0.340342518287
0.303546226308
0.283297846683
0.259431485681
0.273526148843
0.37704285373
3626.97284889
1062.11647242
335.345884899
119.471894919
47.9174536807
21.4823335277
11.0725390446
6.85877393371
5.21460236206
4.48714889755
3.46514792801
1.99058935887
0.957687121628
0.504293267115
0.340339708412
0.282467971984
0.256951576335
0.235326357539
0.241815659852
0.318729474842
4018.11183114
1116.80649227
343.646549586
121.171863164
48.5215896907
21.9238825282
11.4361274209
7.14128901287
5.45473190764
4.73074889996
3.75584236769
2.26821324675
1.13006120252
0.582224839334
0.367960953425
0.285857488535
0.249958193819
0.227656293322
0.227337015474
0.288663603139
4087.98216139
1158.14640394
357.141583391
124.248989405
48.9795993451
22.0356303207
11.5242428783
7.21237132765
5.51245133622
4.78932179459
3.87319975797
2.43189089389
1.26634473395
0.663159659995
0.409688939015
0.306530981317
0.259634084159
0.233925370386
0.22806957955
0.276512628998
4122.41465331
1180.9402051
365.866336719
125.527212007
48.5739542817
21.6453869602
11.2700188938
7.02572265863
5.34849994805
4.62912793252
3.76839193356
2.43424460731
1.3264521874
0.721596706657
0.451675946353
0.335739463656
0.280430963101
0.250323484946
0.240265558555
0.279504191953
4139.28535109
1197.23468686
371.602176849
125.608196645
47.75032537
20.9649455367
10.7688504867
6.63263194776
4.99184240682
4.26328981749
3.45048028459
2.27787481867
1.30231122326
0.746765980933
0.48534875818
0.366626115975
0.306880495894
0.273032051684
0.259664739529
0.290465582019
4181.72639072
1213.12812063
376.281480975
125.93917592
47.2185762596
20.3479691812
10.2234952756
6.15945537694
4.53178201513
3.77421127712
3.00662266481
2.02376659063
1.21657813
0.741321911399
0.507056460151
0.394035134718
0.333952067996
0.29766616438
0.281441714935
0.304025096951
4257.56978597
1228.37586234
379.518001754
126.535202841
47.0692279126
19.9631241628
9.79361931218
5.72938822527
4.07339509258
3.27268922838
2.55335905726
1.74889346118
1.10397859561
0.715859202412
0.516187315329
0.414163864378
0.356872158972
0.319451363577
0.301229482188
0.314932888584
4362.69458964
1248.55151036
384.95035149
128.12835955
47.4404164294
19.8915143982
9.55248537511
5.41111095599
3.68845403423
2.83806575678
2.16171295426
1.50063817548
0.990800712643
0.680438398369
0.512663192152
0.424951896142
0.372139083228
0.33474783456
0.314685987704
0.318780338484
4407.7085224
1250.8017628
386.077531113
128.827733451
47.6904685982
19.8631094073
9.39112761624
5.17736913007
3.38784774903
2.4929450893
1.84926914715
1.29596020325
0.890420031339
0.639788720352
0.500499335716
0.426130556864
0.378081324485
0.341630335753
0.318437528216
0.31280199408
4287.01433721
1215.86120331
377.740009239
126.940991252
47.0503792373
19.4988394011
9.14210958664
4.96409316828
3.15203048461
2.23009257243
1.61119914997
1.13676836112
0.805287699881
0.596454793826
0.481511476767
0.416913549277
0.373085379324
0.337650596355
0.310375995369
0.296887204855
3962.95289971
1148.20642541
361.1443365
122.528367263
45.3536718296
18.706762362
8.7842660486
4.77498323011
2.98744173761
2.04763514796
1.44148702658
1.01751295676
0.73062437883
0.554352501057
0.453767612757
0.394913649444
0.354251696692
0.320324371646
0.291366888902
0.273511349042
3665.64736355
1090.84584976
348.693387431
118.824728296
43.5650035535
17.9299162107
8.56068001391
4.73599993512
2.94784888261
1.96152229929
1.3401841935
0.932278963305
0.671214355797
0.513473943182
0.419111834682
0.361795146287
0.32292297665
0.291755347452
0.264907309634
0.246587778126
3626.20429623
1110.01302517
357.796219861
120.741177577
43.7704836023
18.3806415047
9.0325931408
5.06376715805
3.1022515592
1.99130915167
1.3136858132
0.891666994597
0.634279484673
0.481103844835
0.386965034952
0.326774827692
0.287276306723
0.258764978522
0.236234352646
0.220649116412
3928.3163882
1207.07193597
386.394596022
131.100071846
48.8732173849
20.8281142885
10.3673766222
5.79135848717
3.45512492794
2.13195240229
1.35503843552
0.89670238364
0.627727130664
0.468182966527
0.36843650933
0.301736927314
0.258382422739
0.230601519202
0.212151760374
0.20035676868
4111.54617937
1286.5419345
420.024202765
147.808195014
57.5436390881
25.1305188136
12.4441806539
6.77312939887
3.92309785754
2.34717408348
1.44981934177
0.940530112128
0.649063546239
0.478576063885
0.370308469986
0.29482053906
0.245022017769
0.215196590694
0.198666070934
0.189740909095
3645.57952283
1120.11596689
379.515745372
141.508687344
58.6851619647
27.2248968207
13.957419437
7.53884092786
4.31050643143
2.55014852981
1.55903770234
1.00396629841
0.692460625081
0.509856629253
0.391770898291
0.30680775179
0.249792459344
0.216219754473
0.199331042473
0.191507350003
3222.24422003
995.407739024
323.881925387
117.298271664
49.7413123648
24.671811277
13.6021737924
7.57272034625
4.3921918696
2.63248407604
1.62877873651
1.06078311561
0.741769523557
0.552373419725
0.426459872992
0.333150540305
0.269980711702
0.232810162208
0.214501318933
0.206024201392
3954.50267082
1062.8725698
294.836086103
93.0958842894
38.3442064825
20.0404103316
11.8301809938
6.96126645552
4.18241642953
2.57448189041
1.63466454533
1.09392054702
0.786367637465
0.599316546084
0.468631422897
0.368912986503
0.301540469989
0.26190890774
0.242118744119
0.230344470957
5700.44382128
1420.39257972
364.020085593
93.3340819984
31.6306875649
16.0770833545
9.74957198198
6.0250617025
3.77474161376
2.41039039488
1.59095290684
1.11075455287
0.830697257038
0.651683509348
0.516325735902
0.411132060005
0.341044139897
0.299692390766
0.276937740683
0.257776990461
6808.37403141
1845.58039347
488.572780642
120.426136436
34.458098862
14.7390601091
8.36705334885
5.21335945653
3.36483656494
2.23479668979
1.5487677764
1.14052681812
0.8904012224
0.714632002091
0.56965771549
0.458073102554
0.384693724395
0.339521164268
0.308647260774
0.281293235316
6470.64125534
1986.7172031
583.787639486
157.749441522
44.1546853119
16.1404727113
8.06661203636
4.81858025735
3.13074905752
2.15145939983
1.56781245699
1.21312284828
0.977743727467
0.789797412869
0.629796137293
0.507968886601
0.425812019023
0.368819895526
0.328024305044
0.297619620123
5511.98349399
1819.42364378
580.775005746
173.497070451
51.9814942027
18.3462109782
8.44392000333
4.81038318583
3.11738716954
2.20091520574
1.66944510722
1.33652472105
1.09130323135
0.881682587967
0.700552852108
0.557093027662
0.452279170409
0.378792272708
0.333799677391
0.30455262274
4908.98870172
1624.21106692
535.932051893
169.400471493
54.1573023908
19.7783358162
9.01475223619
5.05409038416
3.29079307601
2.37234060261
1.84648946951
1.50662926162
1.24327543301
1.00538974966
0.783990558057
0.594777519655
0.457403230695
0.373874869796
0.327133540356
0.300578268588
4744.24942105
1513.59753623
500.002313934
162.156169192
54.3905900845
20.9389386305
9.81208907423
5.55076170938
3.63857341156
2.65466423303
2.10290349906
1.74524463076
1.45170126326
1.1550347285
0.855536757194
0.607871698348
0.450437170624
0.362298275728
0.313106900545
0.28858897792
4611.39013464
1498.64488459
507.180429302
169.188756628
59.302055395
23.7793417769
11.3590243541
6.41804731922
4.17821942195
3.04947297107
2.42685855985
2.00980570541
1.63150555651
1.23234202578
0.866917247935
0.602210918969
0.441953109244
0.35231208461
0.301252367561
0.276575434054
4520.05308308
1576.76723887
553.820977318
195.099719811
71.5940753555
29.0895946132
13.704891885
7.53833933562
4.75973100067
3.37326884662
2.60884265787
2.07878647176
1.61532176956
1.18525695791
0.830157471299
0.584570562574
0.435240373126
0.349913375569
0.299706456997
0.273867164628
5158.51277949
1761.43792726
598.487441493
212.909508033
80.5627723919
33.0460280549
15.2998118209
8.14894261215
4.94302772552
3.3564440219
2.50999738791
1.94192351554
1.48051975748
1.0846286157
0.777256459147
0.567168625549
0.435857337599
0.357979552886
0.311411357885
0.286029281971
5233.1266433
1501.08242673
492.773133834
179.602309126
71.3710705557
30.9805450115
14.9538481771
8.12548273842
4.8957447003
3.18233386841
2.306891261
1.74732257913
1.32143343656
0.981356516318
0.726589443555
0.552495671036
0.44178389041
0.375230842224
0.335109272846
0.313417065509
4541.79958305
1232.00201489
394.188319666
142.254906958
57.8893733146
26.6821859578
13.8919806195
8.04170174867
4.95623917377
3.07292707092
2.13336951338
1.56946532546
1.17511048161
0.885276990679
0.678820563905
0.540469557911
0.453038821523
0.400215618604
0.368588518812
0.353341515721
4011.33943646
1065.35415803
329.07710186
115.979913486
47.7880558933
23.1963054839
12.931992662
7.89747611513
4.91098661376
2.98926938131
1.99585342488
1.42353892222
1.05554270284
0.808096561637
0.643540594881
0.53786265122
0.47184093912
0.431090427342
0.408396794184
0.401084490072
3808.25398566
973.885267315
284.486668051
96.5433542812
39.9476936456
20.1824142617
11.8147790722
7.42607407453
4.58146623517
2.82591716266
1.85924666879
1.30295239338
0.96526390105
0.75624448185
0.627183949727
0.546538036649
0.495657841281
0.463588585529
0.447803084243
0.454335209471
4051.77493907
944.363329209
251.591733681
79.4966002055
32.7794195785
17.1484996155
10.3746503655
6.58243293269
4.0999117019
2.58302593504
1.70296650758
1.19315019031
0.897471473997
0.726632608554
0.625277096979
0.560915613883
0.516662737234
0.490016910077
0.488011990371
0.52276135688
5335.03353836
1045.61752033
246.446722736
72.4875027683
28.3211671173
14.7193492777
8.96698985604
5.67598605762
3.5792924464
2.28793614231
1.52496855934
1.08870208105
0.846694988358
0.711324587976
0.627969956043
0.5687021751
0.529063042961