/*--------------------------------*- C++ -*----------------------------------*\
| =========                 |                                                 |
| \\      /  F ield         | OpenFOAM: The Open Source CFD Toolbox           |
|  \\    /   O peration     | Version:  2312                                  |
|   \\  /    A nd           | Website:  www.openfoam.com                      |
|    \\/     M anipulation  |                                                 |
\*---------------------------------------------------------------------------*/
FoamFile
{
    version     2.0;
    format      ascii;
    arch        "LSB;label=32;scalar=64";
    class       volScalarField;
    location    "0.115/water";
    object      alphat.gas;
}
// * * * * * * * * * * * * * * * * * * * * * * * * * * * * * * * * * * * * * //

dimensions      [1 -1 -1 0 0 0 0];

internalField   nonuniform List<scalar> 
1496
(
2.67162060388e-06
2.79230767627e-06
2.55724331705e-06
2.32283784944e-06
1.66759783377e-06
1.19221901955e-06
1.11297564052e-06
8.7551512219e-07
5.28109271606e-07
3.55476912293e-07
3.7742231669e-07
5.1057053208e-07
6.34733083056e-07
6.57098483368e-07
5.41530253768e-07
2.85383586098e-07
9.71901130805e-08
3.67901779868e-08
1.5533309438e-08
6.26905044532e-09
2.73566984006e-06
2.84441724169e-06
2.55839656635e-06
2.30869684049e-06
1.70741956177e-06
1.18867174941e-06
1.10999266885e-06
8.6390901551e-07
5.08247718635e-07
3.5337838638e-07
3.75797045127e-07
5.03404456424e-07
6.32370960193e-07
6.59210139023e-07
5.34595297982e-07
2.7181291435e-07
9.56566273517e-08
3.76182017903e-08
1.60650569015e-08
6.50752972301e-09
2.81952733951e-06
2.91341521268e-06
2.56790889266e-06
2.27697202943e-06
1.68774774664e-06
1.19581028105e-06
1.07214326815e-06
8.0963760041e-07
4.80187720013e-07
3.62178043804e-07
3.98497708878e-07
5.23780687611e-07
6.44409370881e-07
6.59896491625e-07
5.19442109434e-07
2.55465722381e-07
9.27031593077e-08
3.76696863429e-08
1.62894807769e-08
6.64913761973e-09
2.93552529461e-06
2.99547621536e-06
2.58580073217e-06
2.23860867007e-06
1.60425004618e-06
1.1628707561e-06
1.00901321004e-06
7.47361478531e-07
4.63329551225e-07
3.88348570774e-07
4.44296289925e-07
5.66039992104e-07
6.65881619727e-07
6.55408309836e-07
4.94928415085e-07
2.36886671429e-07
8.87365210952e-08
3.71271297767e-08
1.62808781319e-08
6.73266612911e-09
3.03670393904e-06
3.06557483183e-06
2.62707857811e-06
2.23656068789e-06
1.55404560625e-06
1.11885254558e-06
9.44208651373e-07
6.89285597819e-07
4.67739757614e-07
4.37503255642e-07
5.08721467002e-07
6.17067905033e-07
6.85119095628e-07
6.41012057177e-07
4.62748945949e-07
2.190031097e-07
8.4884690439e-08
3.64698125258e-08
1.61851069474e-08
6.81518575547e-09
3.15578761782e-06
3.14787115561e-06
2.72100069375e-06
2.31083725562e-06
1.59024550308e-06
1.10961178097e-06
8.92422121346e-07
6.47022527931e-07
4.86320443144e-07
4.96933350324e-07
5.68057324894e-07
6.52820277775e-07
6.89548716056e-07
6.170001372e-07
4.29287337132e-07
2.05845213409e-07
8.25599803612e-08
3.62891806013e-08
1.61885014796e-08
6.95761170072e-09
3.2213066588e-06
3.24365965931e-06
2.87818085783e-06
2.45291263531e-06
1.70894547692e-06
1.13676002815e-06
8.68818210037e-07
6.32010496643e-07
5.21104108327e-07
5.41623912027e-07
5.92068411197e-07
6.54674521062e-07
6.75820055317e-07
5.91600177407e-07
4.04251034643e-07
2.00477643144e-07
8.28680922392e-08
3.69684180543e-08
1.65053478006e-08
7.20549440233e-09
3.30442964111e-06
3.40340443112e-06
3.06451776205e-06
2.58551269052e-06
1.82787486765e-06
1.18320231449e-06
8.64257927026e-07
6.50477762131e-07
5.7392270312e-07
5.77695802902e-07
5.92934814377e-07
6.33967576833e-07
6.55156584364e-07
5.79479436088e-07
4.0022010565e-07
2.04791941651e-07
8.62849231611e-08
3.83505012609e-08
1.7198986251e-08
7.57047418637e-09
3.42783649064e-06
3.55460089144e-06
3.18280877851e-06
2.6601104927e-06
1.82233589553e-06
1.16340590957e-06
8.58365009015e-07
6.91045998013e-07
6.37720253437e-07
6.19676415826e-07
5.94187303938e-07
6.07123076023e-07
6.32502528499e-07
5.81256873623e-07
4.18419754849e-07
2.20575649394e-07
9.36883743626e-08
4.06252765101e-08
1.81588001173e-08
8.03026643976e-09
3.04303603064e-06
3.47202229826e-06
3.25495170952e-06
2.72479047956e-06
1.75366347584e-06
1.10593596509e-06
8.19425771439e-07
7.38488593387e-07
6.93095621125e-07
6.75640112126e-07
6.17096555345e-07
5.89843533828e-07
6.07304368723e-07
5.8512893855e-07
4.48935943593e-07
2.48653288346e-07
1.05458512464e-07
4.39385677152e-08
1.9364335277e-08
8.54566703476e-09
2.79149943182e-06
3.38854219156e-06
3.26473447675e-06
2.83940754262e-06
1.95370340806e-06
1.12928580139e-06
8.25931386815e-07
8.171616489e-07
8.037379815e-07
7.55644544687e-07
6.70451625294e-07
5.9595488416e-07
5.84495492667e-07
5.80393414516e-07
4.79037901542e-07
2.85133611311e-07
1.2149827967e-07
4.85271545286e-08
2.08336666447e-08
9.0767152989e-09
2.7028962159e-06
3.31128188873e-06
3.23636897169e-06
2.90232822814e-06
2.21059251599e-06
1.32640682886e-06
9.5593262531e-07
9.51213139019e-07
9.48153263603e-07
8.73538393973e-07
7.51618203584e-07
6.28560223567e-07
5.72038521267e-07
5.659641721e-07
5.00183137364e-07
3.23922051979e-07
1.41935853816e-07
5.47512260818e-08
2.25528508094e-08
9.60092758223e-09
2.62638275758e-06
3.21255750789e-06
3.17250611381e-06
2.9187245204e-06
2.42610106535e-06
1.64431939712e-06
1.20742735052e-06
1.14113992581e-06
1.11121169816e-06
1.02156755441e-06
8.59988123767e-07
6.89404947969e-07
5.79589458438e-07
5.50361154158e-07
5.08369247757e-07
3.58636718813e-07
1.67177835562e-07
6.27589604744e-08
2.45203154303e-08
1.01291256189e-08
2.53551833805e-06
3.09876830981e-06
3.08042382179e-06
2.88722909442e-06
2.55078497924e-06
1.95458629816e-06
1.50978052838e-06
1.36199380964e-06
1.28401343793e-06
1.17249249555e-06
9.80177067244e-07
7.69774811561e-07
6.09841345257e-07
5.44441083453e-07
5.09130306211e-07
3.85471820604e-07
1.95318134776e-07
7.20894338711e-08
2.67622150271e-08
1.06644863591e-08
2.43758411831e-06
2.97528607215e-06
2.96704721733e-06
2.81494234517e-06
2.5906072049e-06
2.17803642327e-06
1.7852421507e-06
1.57882244533e-06
1.44954721229e-06
1.31165776516e-06
1.10755177566e-06
8.56638317964e-07
6.52353699885e-07
5.49371581726e-07
5.08955172362e-07
4.06658269002e-07
2.2210932013e-07
8.26838829586e-08
2.92469377573e-08
1.12037397641e-08
2.32905099723e-06
2.84460700341e-06
2.84006313264e-06
2.71323230419e-06
2.56434052051e-06
2.29416156166e-06
1.98077667339e-06
1.75436947536e-06
1.58724984972e-06
1.42384009126e-06
1.20925938576e-06
9.36105955284e-07
6.97604844632e-07
5.62667751626e-07
5.11072482356e-07
4.23287880168e-07
2.45146839341e-07
9.39222000981e-08
3.18489830368e-08
1.17596245977e-08
2.22312486299e-06
2.71212091437e-06
2.7044795401e-06
2.59262611507e-06
2.49421064931e-06
2.32469101529e-06
2.09044819535e-06
1.87404684127e-06
1.6879152864e-06
1.50485637852e-06
1.28121116325e-06
9.95812022688e-07
7.36360053605e-07
5.79420706161e-07
5.16865482326e-07
4.37136471989e-07
2.6407405886e-07
1.04553153306e-07
3.44410337535e-08
1.23258766846e-08
2.11779327208e-06
2.57841578363e-06
2.5637333578e-06
2.46239074301e-06
2.39991931424e-06
2.3006163524e-06
2.13317617793e-06
1.94118496495e-06
1.75048952321e-06
1.55417714982e-06
1.32259080464e-06
1.03446156755e-06
7.6289246613e-07
5.95639022658e-07
5.2644533454e-07
4.49782189772e-07
2.79545488346e-07
1.14026090404e-07
3.71407703858e-08
1.29559309032e-08
2.01009821636e-06
2.44032684414e-06
2.42508633523e-06
2.33752624691e-06
2.30043386593e-06
2.24777778648e-06
2.1309962311e-06
1.96562736021e-06
1.77738476227e-06
1.57178181697e-06
1.33237299455e-06
1.04519806345e-06
7.75998681995e-07
6.10050692115e-07
5.39381838999e-07
4.62246403281e-07
2.92005780441e-07
1.22059166762e-07
4.01829813076e-08
1.377821414e-08
1.88611899922e-06
2.30101034281e-06
2.31365274796e-06
2.24190857743e-06
2.21066857013e-06
2.18115430135e-06
2.09868054195e-06
1.95604977774e-06
1.77227217633e-06
1.55962178112e-06
1.3135664136e-06
1.03212522672e-06
7.77530834258e-07
6.23366799575e-07
5.55328825639e-07
4.74537705985e-07
3.0103785026e-07
1.28378946558e-07
4.36052514912e-08
1.48761237337e-08
1.79011188747e-06
2.2414303473e-06
2.28426570992e-06
2.19167137288e-06
2.13396270348e-06
2.1045946247e-06
2.0401277505e-06
1.913040057e-06
1.73278317424e-06
1.51460444837e-06
1.26548600693e-06
9.97589476569e-07
7.71265486371e-07
6.37199467542e-07
5.73666989478e-07
4.8532418796e-07
3.05671103034e-07
1.32624007631e-07
4.70220005863e-08
1.62434388074e-08
1.83332200468e-06
2.41335603184e-06
2.416133075e-06
2.19238683904e-06
2.06751150972e-06
2.01839800141e-06
1.95457961141e-06
1.83278084757e-06
1.65395124748e-06
1.43392335463e-06
1.190669046e-06
9.49722055902e-07
7.6267857916e-07
6.52908128279e-07
5.92628103079e-07
4.91532579673e-07
3.03881750805e-07
1.33610224144e-07
4.97053956723e-08
1.7673415215e-08
1.97827031277e-06
2.70794876616e-06
2.53164165929e-06
2.14998368315e-06
1.97924130274e-06
1.91629049363e-06
1.8439945756e-06
1.71941064259e-06
1.54175098708e-06
1.32790003926e-06
1.10406536941e-06
9.04536768955e-07
7.57583583518e-07
6.70656738732e-07
6.08466228296e-07
4.88399417225e-07
2.93470841297e-07
1.30762203717e-07
5.13040385221e-08
1.88677613355e-08
2.0626139166e-06
2.78029145935e-06
2.48862807408e-06
2.04468508049e-06
1.87233505863e-06
1.80669102451e-06
1.72161040229e-06
1.59069111059e-06
1.41760856177e-06
1.22060240528e-06
1.02896491039e-06
8.71237391891e-07
7.59051666383e-07
6.88267459942e-07
6.14752239965e-07
4.70247898588e-07
2.7352984245e-07
1.24757856068e-07
5.19508769336e-08
1.95667767971e-08
2.11123316017e-06
2.64931801223e-06
2.37166363277e-06
1.94595322126e-06
1.77097215558e-06
1.7084522834e-06
1.61359756274e-06
1.47441244095e-06
1.30762601084e-06
1.13280989925e-06
9.75212345515e-07
8.52106190785e-07
7.6588349291e-07
6.99574359488e-07
6.01777666493e-07
4.32633889759e-07
2.45856587421e-07
1.17281135261e-07
5.15959256669e-08
1.95866815001e-08
2.26085706869e-06
2.55031755129e-06
2.30503668103e-06
1.92649989668e-06
1.72940443413e-06
1.65001800304e-06
1.5450701414e-06
1.39577571818e-06
1.23114050077e-06
1.07455753504e-06
9.43605169257e-07
8.45114464555e-07
7.71757899531e-07
6.92364124676e-07
5.58740894383e-07
3.76966227894e-07
2.14678304341e-07
1.0790886398e-07
4.86646047136e-08
1.93676294873e-08
2.46880780119e-06
2.6537221572e-06
2.40676868627e-06
2.03961092189e-06
1.7929542482e-06
1.66064887345e-06
1.52917306192e-06
1.36596375143e-06
1.19673444654e-06
1.04711484205e-06
9.29304416296e-07
8.412497538e-07
7.62041489378e-07
6.50261531265e-07
4.84958154684e-07
3.14470130018e-07
1.82357591118e-07
9.36731726913e-08
4.39381609369e-08
1.98372246617e-08
2.79801772202e-06
2.99359794006e-06
2.70032332355e-06
2.26198036851e-06
1.92635007029e-06
1.7244100765e-06
1.55933344694e-06
1.37896753219e-06
1.19654079873e-06
1.03918359259e-06
9.179453343e-07
8.21996778044e-07
7.17299461018e-07
5.70580591974e-07
3.99622962373e-07
2.55493686822e-07
1.48726278055e-07
7.93385134792e-08
4.12524802103e-08
2.08993819431e-08
3.23945342061e-06
3.47359223912e-06
3.11237868648e-06
2.5351328489e-06
2.09883838483e-06
1.82974354351e-06
1.61999125848e-06
1.4145782795e-06
1.21341274597e-06
1.0363634833e-06
8.94334094596e-07
7.7221112571e-07
6.34545997008e-07
4.72809282973e-07
3.21080631863e-07
2.05000237035e-07
1.23273270886e-07
7.21584875212e-08
4.09884520296e-08
2.20151385873e-08
3.812404539e-06
4.03910542171e-06
3.55873434013e-06
2.83933231045e-06
2.33690066878e-06
2.00475402453e-06
1.7316225727e-06
1.47296414016e-06
1.2329442154e-06
1.02849488189e-06
8.59542598625e-07
7.01827331587e-07
5.36541096426e-07
3.81353244281e-07
2.61692871908e-07
1.74536303865e-07
1.12443992356e-07
7.0095831219e-08
4.14485063816e-08
2.29554868019e-08
3.862901735e-06
4.27295614576e-06
3.83417797262e-06
3.17222134242e-06
2.6458208307e-06
2.25591513248e-06
1.9159752752e-06
1.58693660626e-06
1.28297102005e-06
1.03441909292e-06
8.37008956999e-07
6.50600321772e-07
4.67814603647e-07
3.22993459316e-07
2.28815189319e-07
1.61935486882e-07
1.09374240977e-07
7.01562029461e-08
4.21955183123e-08
2.36536623579e-08
3.18910765367e-06
4.14405872329e-06
3.9312497112e-06
3.3944178369e-06
2.90732661265e-06
2.50794739115e-06
2.13852035211e-06
1.75899480951e-06
1.38864738385e-06
1.08133454148e-06
8.55066383172e-07
6.57989762308e-07
4.61625088441e-07
3.06891574105e-07
2.15083476153e-07
1.57742198902e-07
1.09973324333e-07
7.13482637246e-08
4.32460389096e-08
2.40316256758e-08
2.80716713287e-06
3.98356770024e-06
3.9530893662e-06
3.49969781336e-06
3.04089790916e-06
2.66099457324e-06
2.31865186538e-06
1.95023220207e-06
1.53607390435e-06
1.1686584451e-06
9.10560305102e-07
7.13401321431e-07
5.17231961261e-07
3.36912991262e-07
2.21062846481e-07
1.58179230865e-07
1.12615451617e-07
7.32021086028e-08
4.43661196553e-08
2.39159637324e-08
2.60867999574e-06
3.85145910199e-06
3.93171821811e-06
3.51723285115e-06
3.07295181847e-06
2.70736138102e-06
2.38708949688e-06
2.05226720663e-06
1.67105933878e-06
1.27059412548e-06
9.75981330657e-07
7.76142079461e-07
6.00126434093e-07
4.0989669975e-07
2.54655829049e-07
1.65561928554e-07
1.1613903806e-07
7.53320791869e-08
4.47028308637e-08
2.30786836009e-08
2.48266645699e-06
3.77661293638e-06
3.89199346394e-06
3.46631964928e-06
3.0166990861e-06
2.66045788205e-06
2.3576912764e-06
2.04715228088e-06
1.69938269401e-06
1.33442378989e-06
1.02593252177e-06
8.18703714894e-07
6.64452120572e-07
4.9543151875e-07
3.15080516477e-07
1.84439513927e-07
1.20305195258e-07
7.63079332977e-08
4.35520301055e-08
2.1385037954e-08
2.4053057777e-06
3.74455420069e-06
3.83868419486e-06
3.35825622332e-06
2.88869349999e-06
2.53888559917e-06
2.2479706174e-06
1.95581636627e-06
1.63978946469e-06
1.32002160261e-06
1.03817198022e-06
8.36623996542e-07
6.9515870421e-07
5.54500707729e-07
3.789180256e-07
2.13991395831e-07
1.2444827987e-07
7.48977642743e-08
4.05780034686e-08
1.88500067791e-08
2.39414654634e-06
3.67485382084e-06
3.7696543004e-06
3.264389439e-06
2.77767681442e-06
2.42593405101e-06
2.14004067079e-06
1.85577191411e-06
1.56175848557e-06
1.27743205296e-06
1.02572611297e-06
8.37832021074e-07
7.02698887767e-07
5.7787708906e-07
4.17825152395e-07
2.41182872348e-07
1.26754165083e-07
7.05478243857e-08
3.61630686409e-08
1.57932243648e-08
5.13648622399e-10
1.48005833506e-09
3.19112984027e-09
5.51859130528e-09
8.14610464275e-09
8.76922163457e-09
7.65680274413e-09
1.28888648055e-08
2.28707218161e-07
1.20041317074e-06
2.22332101868e-06
2.98307951885e-06
3.48875823599e-06
3.7948836185e-06
3.98065090977e-06
4.15353479119e-06
2.21378674373e-09
6.99748999168e-10
3.05520433767e-10
2.29016477388e-10
4.81666999011e-10
1.39485972892e-09
3.0638006115e-09
5.31335506783e-09
7.90770614516e-09
8.7386257431e-09
7.66704340025e-09
1.28516205654e-08
2.3326875468e-07
1.20889954086e-06
2.23147036157e-06
2.9912173477e-06
3.4959348615e-06
3.80006576025e-06
3.98220384221e-06
4.14746430727e-06
2.31315925775e-09
7.37339156694e-10
3.13959521163e-10
2.28914798251e-10
4.57691269409e-10
1.32377172303e-09
2.95647294402e-09
5.13983572373e-09
7.68317491431e-09
8.68972219596e-09
7.6806983544e-09
1.28625182705e-08
2.38212658498e-07
1.21805102359e-06
2.24011261828e-06
2.99953902036e-06
3.50309021317e-06
3.80552563883e-06
3.98558664646e-06
4.14535614802e-06
2.38439249993e-09
7.66810107718e-10
3.20956102704e-10
2.29411142026e-10
4.39828477109e-10
1.26479814569e-09
2.86525396536e-09
4.99165134327e-09
7.47425943964e-09
8.62625659274e-09
7.69660044508e-09
1.29176798059e-08
2.43488618773e-07
1.22766167865e-06
2.24902108896e-06
3.00782503119e-06
3.509915824e-06
3.81059796122e-06
3.98929876672e-06
4.14616385472e-06
2.44263427448e-09
7.92571883315e-10
3.27635906843e-10
2.30338958454e-10
4.25932477582e-10
1.21400317103e-09
2.78384399983e-09
4.85996557975e-09
7.27807585167e-09
8.55130082439e-09
7.7145541628e-09
1.30082851152e-08
2.48953248147e-07
1.23725581658e-06
2.25774267372e-06
3.01570602941e-06
3.51605887325e-06
3.81493255479e-06
3.99331806096e-06
4.15006355197e-06
2.50708342878e-09
8.20218900993e-10
3.3462316142e-10
2.31757248578e-10
4.13928252235e-10
1.16647033365e-09
2.70514210531e-09
4.73504896479e-09
7.08594009005e-09
8.46327699263e-09
7.73442066163e-09
1.31228784831e-08
2.54415387495e-07
1.24624351867e-06
2.26575196857e-06
3.02280018271e-06
3.52121369502e-06
3.8182251011e-06
3.99734780001e-06
4.1571061748e-06
2.59635555824e-09
8.55326645215e-10
3.41927016533e-10
2.33885722097e-10
4.02163430131e-10
1.11743143146e-09
2.62216975449e-09
4.60735408122e-09
6.88518562101e-09
8.35431476716e-09
7.75381641126e-09
1.32502408608e-08
2.59690202616e-07
1.25409669808e-06
2.27261454756e-06
3.02882963451e-06
3.52517673843e-06
3.82020496663e-06
4.00091179732e-06
4.16691340206e-06
2.72256139148e-09
9.0199163929e-10
3.48529273452e-10
2.37041395224e-10
3.8974963964e-10
1.06369660502e-09
2.5296588033e-09
4.47040076817e-09
6.66550733385e-09
8.21271825794e-09
7.76848991385e-09
1.33820624215e-08
2.64653800152e-07
1.26051138719e-06
2.27812443156e-06
3.03370637322e-06
3.52789263892e-06
3.82067944363e-06
4.00343873942e-06
4.17863370259e-06
2.88620675526e-09
9.6117036414e-10
3.52936006599e-10
2.41532364824e-10
3.76725321895e-10
1.0049341338e-09
2.42554847607e-09
4.32299227019e-09
6.42539554599e-09
8.02849568528e-09
7.77253995483e-09
1.35147892689e-08
2.69284130029e-07
1.26551340976e-06
2.28238322535e-06
3.03757456369e-06
3.52947932627e-06
3.81957707779e-06
4.00435891244e-06
4.19103697518e-06
3.07647530221e-09
1.03026016053e-09
3.56789172547e-10
2.47524678033e-10
3.63921972004e-10
9.43920918775e-10
2.31160807161e-09
4.16887842744e-09
6.17452145361e-09
7.8004057497e-09
7.75885591701e-09
1.36502328138e-08
2.73675082726e-07
1.26947600548e-06
2.285800754e-06
3.0407999831e-06
3.53022193417e-06
3.8169711487e-06
4.00319912676e-06
4.2027019193e-06
3.27889492665e-09
1.10497486098e-09
3.67867607695e-10
2.54982468376e-10
3.52431640431e-10
8.85398267839e-10
2.19324023411e-09
4.01455176535e-09
5.92993201011e-09
7.54155436232e-09
7.72171189365e-09
1.37946669232e-08
2.78020249865e-07
1.2730499569e-06
2.28902319095e-06
3.04391254783e-06
3.53053691046e-06
3.81307836749e-06
3.99965481294e-06
4.21223819322e-06
3.48146579195e-09
1.18128794616e-09
3.90262103004e-10
2.63644238044e-10
3.43178440236e-10
8.34304616708e-10
2.07888428014e-09
3.86776196654e-09
5.70915982573e-09
7.27891901791e-09
7.66173469477e-09
1.39576608004e-08
2.82576781862e-07
1.27704372462e-06
2.29282191911e-06
3.04752424945e-06
3.5309192303e-06
3.80823858283e-06
3.99362884967e-06
4.21848420846e-06
3.67532791245e-09
1.25615479771e-09
4.17700925887e-10
2.73024201171e-10
3.36770767195e-10
7.94505635612e-10
1.97903999418e-09
3.73784450733e-09
5.5263349326e-09
7.0459127421e-09
7.59063418233e-09
1.41516348542e-08
2.87624882758e-07
1.28229911852e-06
2.29797981354e-06
3.05224582994e-06
3.53188676826e-06
3.80288494922e-06
3.98523961861e-06
4.22064141668e-06
3.86108380818e-09
1.32929804851e-09
4.45932115397e-10
2.82711522161e-10
3.33575543378e-10
7.68332622634e-10
1.90449946375e-09
3.63614341963e-09
5.39297619671e-09
6.87396886821e-09
7.53144534707e-09
1.43914802254e-08
2.93432290118e-07
1.28958663863e-06
2.30519372362e-06
3.05861398584e-06
3.53392914564e-06
3.79751112613e-06
3.97480683215e-06
4.21833203701e-06
4.04091480212e-09
1.40149081325e-09
4.74415870575e-10
2.9285336682e-10
3.3392805337e-10
7.56914844047e-10
1.86478183867e-09
3.57499462503e-09
5.32059985377e-09
6.78961037022e-09
7.51396561033e-09
1.4693642284e-08
3.00226733756e-07
1.29952908833e-06
2.31500045572e-06
3.06703417269e-06
3.5374644263e-06
3.79263945401e-06
3.96282559044e-06
4.2115910839e-06
4.21869394664e-09
1.4741818284e-09
5.03185490709e-10
3.0438245614e-10
3.37842839797e-10
7.58165996086e-10
1.86038870186e-09
3.56102996728e-09
5.31142527988e-09
6.80195331494e-09
7.56335318319e-09
1.50739006619e-08
3.08174194962e-07
1.31255203749e-06
2.32772621943e-06
3.07773948523e-06
3.54280383294e-06
3.7887908195e-06
3.94993761357e-06
4.20081983983e-06
4.40424447768e-09
1.5497261181e-09
5.32282252568e-10
3.18143527588e-10
3.45655398448e-10
7.769793364e-10
1.8924996869e-09
3.59193101233e-09
5.36291073113e-09
6.90403577425e-09
7.67797593116e-09
1.5527681742e-08
3.17359353416e-07
1.32884997158e-06
2.34345098107e-06
3.09076051801e-06
3.55012129002e-06
3.78645316363e-06
3.93690274855e-06
4.18673180459e-06
4.59577856398e-09
1.62642556607e-09
5.60626300201e-10
3.34116459242e-10
3.59898401216e-10
8.22649282909e-10
1.98105453825e-09
3.69811330843e-09
5.52895936354e-09
7.18179909383e-09
7.90775409047e-09
1.60512314268e-08
3.2776825363e-07
1.34834310754e-06
2.36196952858e-06
3.10589712371e-06
3.55942415061e-06
3.78604478331e-06
3.92456559646e-06
4.17030718038e-06
4.7975860585e-09
1.70288287167e-09
5.87133749072e-10
3.52298244541e-10
3.83544618605e-10
8.97258064399e-10
2.11676381384e-09
3.877327105e-09
5.82566553222e-09
7.65146958567e-09
8.22802001901e-09
1.66016049387e-08
3.39247776941e-07
1.37060632893e-06
2.38274383235e-06
3.12269569217e-06
3.57053183989e-06
3.78787609911e-06
3.91380990148e-06
4.15274219203e-06
5.03707154719e-09
1.78376733427e-09
6.12585738304e-10
3.70404431445e-10
4.20123649456e-10
9.95877278955e-10
2.27800898268e-09
4.11439468143e-09
6.25722083153e-09
8.27919683721e-09
8.55826718004e-09
1.71158822293e-08
3.51478839393e-07
1.39482162313e-06
2.40489694498e-06
3.1404673823e-06
3.58308507382e-06
3.79212392142e-06
3.90550379019e-06
4.13537669099e-06
5.35136148133e-09
1.87956151749e-09
6.40133727133e-10
3.89512321401e-10
4.7048561793e-10
1.10222275868e-09
2.44312210214e-09
4.39997875492e-09
6.82006280666e-09
8.98828306532e-09
8.83182199873e-09
1.75531894661e-08
3.64006962164e-07
1.41983132531e-06
2.42730419743e-06
3.15837485919e-06
3.59659716946e-06
3.79882576256e-06
3.90044621357e-06
4.11961541264e-06
5.7712970096e-09
2.00466343359e-09
6.74958087698e-10
4.15465942498e-10
5.26518761141e-10
1.19389693224e-09
2.59451440897e-09
4.71647441907e-09
7.45643360394e-09
9.64321976184e-09
9.02271286004e-09
1.78936711783e-08
3.76294090679e-07
1.44429402518e-06
2.44876299468e-06
3.17556282021e-06
3.61052787572e-06
3.80788456224e-06
3.89931662971e-06
4.10687308029e-06
6.27064247548e-09
2.16551202966e-09
7.2791141848e-10
4.52644326612e-10
5.73021723346e-10
1.25752291049e-09
2.71640809985e-09
5.01394461106e-09
8.02786195212e-09
1.01197629161e-08
9.14676615161e-09
1.81301829435e-08
3.87810150859e-07
1.46686598955e-06
2.46816110641e-06
3.19127503681e-06
3.62434751749e-06
3.81906895989e-06
3.90261544746e-06
4.09854126081e-06
6.7723306012e-09
2.35857482531e-09
8.89954114629e-10
4.94622163112e-10
6.00606458952e-10
1.2901015696e-09
2.78476660641e-09
5.20628028014e-09
8.37952865313e-09
1.03848540956e-08
9.23776678949e-09
1.82666802282e-08
3.98099131134e-07
1.48631497884e-06
2.48457171896e-06
3.20491871494e-06
3.63757684949e-06
3.83200729087e-06
3.91057911126e-06
4.09592051534e-06
7.20560475819e-09
2.58879257014e-09
1.11838591146e-09
5.28289216429e-10
6.14343863893e-10
1.29065736961e-09
2.77501196807e-09
5.2325782011e-09
8.47274313473e-09
1.05042194509e-08
9.32136982319e-09
1.83160597969e-08
4.06817026849e-07
1.50158177346e-06
2.49730309904e-06
3.21610502591e-06
3.64982727637e-06
3.84619859784e-06
3.92307747922e-06
4.10004806833e-06
7.65884587809e-09
2.89380413556e-09
1.27342678444e-09
5.55923194721e-10
6.10509761007e-10
1.25481345607e-09
2.69537647514e-09
5.12173459835e-09
8.35012182832e-09
1.04447771661e-08
9.36989896592e-09
1.83010602653e-08
4.13803071642e-07
1.5119541779e-06
2.50603553409e-06
3.2247502397e-06
3.66088917926e-06
3.86107832142e-06
3.93954577576e-06
4.11142384686e-06
8.35411458028e-09
3.30932404852e-09
1.42688824832e-09
5.79440848841e-10
5.73120455035e-10
1.14336470808e-09
2.48695320342e-09
4.76529283935e-09
7.79980738384e-09
1.0038088456e-08
9.34576730607e-09
1.82575567555e-08
4.19242787263e-07
1.5174906939e-06
2.51112839026e-06
3.23127183408e-06
3.67087503037e-06
3.87614888082e-06
3.95902338612e-06
4.12975620235e-06
9.28954201508e-09
3.81138487185e-09
1.5189517262e-09
6.15246699542e-10
5.24097436711e-10
9.77692109957e-10
2.15470682132e-09
4.19670007829e-09
6.92601422603e-09
9.29787679633e-09
9.19423493946e-09
1.82308094501e-08
4.23834301812e-07
1.51950104936e-06
2.51393079831e-06
3.23675562269e-06
3.68033014891e-06
3.89112044068e-06
3.98032232186e-06
4.15389997915e-06
1.02392718356e-08
4.31879490776e-09
1.49881412544e-09
6.73974418986e-10
4.93204860283e-10
8.25153165857e-10
1.80093895743e-09
3.60335315329e-09
6.01966904826e-09
8.33902094609e-09
8.83975779591e-09
1.82585034992e-08
4.2872750744e-07
1.52059093202e-06
2.51675462966e-06
3.24288856505e-06
3.69019049801e-06
3.90597408556e-06
4.00225818221e-06
4.18206368982e-06
1.10278707506e-08
4.74922324222e-09
1.61293179118e-09
7.35653847871e-10
4.84543815176e-10
7.2254731997e-10
1.50495640876e-09
3.07998413259e-09
5.23424410548e-09
7.33361688471e-09
8.25193658729e-09
1.83520963447e-08
4.35147042644e-07
1.52405350885e-06
2.52240387161e-06
3.25162310574e-06
3.70157927115e-06
3.92091691406e-06
4.0238409164e-06
4.21218922339e-06
1.15832509587e-08
5.04536279399e-09
1.75015612379e-09
7.75289068928e-10
4.87914650373e-10
6.66943978771e-10
1.29753031526e-09
2.65202795029e-09
4.60373484889e-09
6.45229474358e-09
7.51452700607e-09
1.85255669492e-08
4.44000409217e-07
1.53299551295e-06
2.53356784538e-06
3.2647815193e-06
3.71557001219e-06
3.93628296835e-06
4.04437382457e-06
4.24232682185e-06
1.18623473962e-08
5.15866049548e-09
1.8161901724e-09
7.83639089889e-10
4.93528133076e-10
6.42023680359e-10
1.17539537397e-09
2.33424039789e-09
4.12112144506e-09
5.77574387822e-09
6.78700517095e-09
1.88794346351e-08
4.55939012195e-07
1.54966331192e-06
2.55241706844e-06
3.28380132331e-06
3.73302966266e-06
3.95244270254e-06
4.06347120045e-06
4.2708915637e-06
1.18173473829e-08
5.0583792299e-09
1.78882953339e-09
7.63459994809e-10
4.95483624396e-10
6.34980943801e-10
1.11758847671e-09
2.13005822441e-09
3.77482440279e-09
5.29740260715e-09
6.18997366114e-09
1.96655703231e-08
4.71939446836e-07
1.57527358828e-06
2.58045687098e-06
3.30964211473e-06
3.75455065541e-06
3.96973809277e-06
4.08102258773e-06
4.29678418477e-06
1.13866233768e-08
4.74112036128e-09
1.66746073569e-09
7.20573128139e-10
4.91308358551e-10
6.39248236592e-10
1.10330483945e-09
2.02633317734e-09
3.55715897075e-09
4.98309076067e-09
5.75919578343e-09
2.12672055135e-08
4.94001622146e-07
1.61104857767e-06
2.61853469492e-06
3.3427782902e-06
3.78043005971e-06
3.98843303102e-06
4.09712269719e-06
4.31939770137e-06
1.05367933106e-08
4.23431377405e-09
1.47037587366e-09
6.57799064011e-10
4.81780423436e-10
6.52473383055e-10
1.11954568255e-09
2.0031719422e-09
3.45981234048e-09
4.80346730682e-09
5.47949284669e-09
2.41558964584e-08
5.2521664406e-07
1.65928393157e-06
2.6668812621e-06
3.38321410646e-06
3.81065741908e-06
4.00866114773e-06
4.1119710714e-06
4.3385257085e-06
9.31311878373e-09
3.5975312899e-09
1.22906490348e-09
5.90236701574e-10
4.70940174565e-10
6.74377885093e-10
1.15971168745e-09
2.04355539449e-09
3.4689973589e-09
4.73653562972e-09
5.32530976968e-09
2.89175179714e-08
5.69121299168e-07
1.72173789656e-06
2.72519361377e-06
3.43048070019e-06
3.84485786819e-06
4.03031393109e-06
4.12569683059e-06
4.35413981222e-06
7.81654333356e-09
2.90111092388e-09
9.76923242485e-10
5.21103172715e-10
4.64230972129e-10
7.0712305494e-10
1.21914514818e-09
2.12456636101e-09
3.54000649533e-09
4.72619258079e-09
5.23499911028e-09
3.61531343856e-08
6.25773653108e-07
1.79706536526e-06
2.79251589485e-06
3.48351341697e-06
3.88202516815e-06
4.0525206496e-06
4.13775806562e-06
4.36586372476e-06
6.20989590656e-09
2.21473434566e-09
7.58534730263e-10
4.60243501669e-10
4.68490899847e-10
7.59933077139e-10
1.32795532692e-09
2.33902565126e-09
3.81832753593e-09
4.89924865559e-09
5.33277357874e-09
4.78314736472e-08
7.02795637157e-07
1.88537421846e-06
2.86520449356e-06
3.538861319e-06
3.91897721572e-06
4.07166177079e-06
4.14186003589e-06
4.36517727471e-06
)
;

boundaryField
{
    emptyPatch
    {
        type            empty;
    }
    minY
    {
        type            zeroGradient;
    }
    maxY
    {
        type            calculated;
        value           nonuniform List<scalar> 
40
(
2.39412468725e-06
3.67481811394e-06
3.76961779946e-06
3.26435781087e-06
2.77764987442e-06
2.42591054078e-06
2.14001996168e-06
1.85575397574e-06
1.56174340138e-06
1.27741971566e-06
1.02571561873e-06
8.37822024116e-07
7.02687056695e-07
5.77860703119e-07
4.17809797148e-07
2.41171981532e-07
1.26747979383e-07
7.05438768157e-08
3.61607145005e-08
1.57920170904e-08
6.20937434995e-09
2.21454210072e-09
7.58466471693e-10
4.60200654136e-10
4.68445984693e-10
7.59858569239e-10
1.32782304301e-09
2.33879004235e-09
3.8179399438e-09
4.89874873576e-09
5.33222767348e-09
4.78265745842e-08
7.02723864582e-07
1.88518274446e-06
2.86491513617e-06
3.5385055911e-06
3.91858480448e-06
4.0712554063e-06
4.14144812088e-06
4.3647408821e-06
)
;
    }
    water_to_cooler
    {
        type            compressible::alphatWallBoilingWallFunction;
        phaseType       vapor;
        relax           constant 1;
        partitioningModel
        {
            type            Lavieville;
            alphaCrit       0.2;
        }
        otherPhase      liquid;
        dmdt            uniform 0;
        dDep            uniform 1e-05;
        qQuenching      uniform 0;
        alphatConv      uniform 0;
        value           uniform 3.01273722487e-05;
    }
    water_to_heater
    {
        type            compressible::alphatWallBoilingWallFunction;
        phaseType       vapor;
        relax           constant 1;
        partitioningModel
        {
            type            Lavieville;
            alphaCrit       0.2;
        }
        otherPhase      liquid;
        dmdt            uniform 0;
        dDep            uniform 1e-05;
        qQuenching      uniform 0;
        alphatConv      uniform 0;
        value           nonuniform List<scalar> 
59
(
2.07752967498e-07
2.07752967498e-07
2.25193164154e-07
2.03432322752e-07
2.25164054922e-07
2.25164054922e-07
1.93099248651e-07
1.93099248651e-07
2.22659474563e-07
2.22659474563e-07
1.77890802486e-07
2.22659474563e-07
1.88926284277e-07
1.88926284277e-07
1.10363128873e-06
1.10363128873e-06
2.66084277449e-06
2.66084277449e-06
2.61380300812e-06