/*--------------------------------*- C++ -*----------------------------------*\
| =========                 |                                                 |
| \\      /  F ield         | OpenFOAM: The Open Source CFD Toolbox           |
|  \\    /   O peration     | Version:  2312                                  |
|   \\  /    A nd           | Website:  www.openfoam.com                      |
|    \\/     M anipulation  |                                                 |
\*---------------------------------------------------------------------------*/
FoamFile
{
    version     2.0;
    format      ascii;
    arch        "LSB;label=32;scalar=64";
    class       volVectorField;
    location    "0.635/water";
    object      U.gas;
}
// * * * * * * * * * * * * * * * * * * * * * * * * * * * * * * * * * * * * * //

dimensions      [0 1 -1 0 0 0 0];

internalField   nonuniform List<vector> 
1497
(
(0.101729160355 1.19198374948 0)
(0.104527652391 1.08752502101 0)
(0.109852645458 1.01073816008 0)
(0.117039312056 0.959760065689 0)
(0.124346657511 0.927750952884 0)
(0.130251656552 0.901132065478 0)
(0.134749472892 0.874790619286 0)
(0.138001245441 0.847937985307 0)
(0.139755113726 0.82136109898 0)
(0.14048489901 0.796027906471 0)
(0.141276254061 0.771691017238 0)
(0.143077872008 0.746889410166 0)
(0.146290717992 0.719816468415 0)
(0.0150050366606 1.37077339302 0)
(0.0337179471438 1.49928173935 0)
(0.0482325052556 1.58795134372 0)
(0.064754078957 1.65006696547 0)
(0.0771558838868 1.63742267518 0)
(0.0967900759218 1.50005899676 0)
(0.113757178039 1.3179385386 0)
(0.121374381271 1.1924146298 0)
(0.12894903932 1.09293870493 0)
(0.137703077574 1.01743439444 0)
(0.147608276504 0.965675264128 0)
(0.156232624605 0.932371835933 0)
(0.161184890611 0.90434104147 0)
(0.163357682215 0.876924453249 0)
(0.163969721425 0.849336325861 0)
(0.162887726416 0.821957422654 0)
(0.16042869866 0.795605578806 0)
(0.157534018736 0.770313921845 0)
(0.155196332204 0.744968073919 0)
(0.1538394246 0.717950367553 0)
(0.0046779274138 1.71181271417 0)
(0.00680459332975 1.49631698304 0)
(0.0128849549571 1.47361903648 0)
(0.0386116021819 1.52650666187 0)
(0.0732844056312 1.51706725893 0)
(0.100910538557 1.40462276736 0)
(0.118315123716 1.29093714938 0)
(0.131894039741 1.18665474614 0)
(0.144286027183 1.09842851289 0)
(0.157315210081 1.02931711277 0)
(0.170865418819 0.981331747752 0)
(0.180829091766 0.948000809161 0)
(0.184554175254 0.918230711299 0)
(0.184681682811 0.889221595877 0)
(0.183099365429 0.860236504239 0)
(0.179654627778 0.831410114071 0)
(0.174681188821 0.803470956046 0)
(0.169029332595 0.776641696177 0)
(0.163631311742 0.750149726862 0)
(0.158773947703 0.722517624281 0)
(0.0262946145833 1.9902802093 0)
(0.0445763471848 1.55501920757 0)
(0.0386641610841 1.41484985513 0)
(0.0502691398846 1.40365548701 0)
(0.0716714163343 1.39577724504 0)
(0.0949830949691 1.33912236449 0)
(0.116428775807 1.25998625562 0)
(0.135588168388 1.17842654791 0)
(0.153891785982 1.10554435571 0)
(0.172603046858 1.04746934917 0)
(0.188767463547 1.00569953164 0)
(0.196923797477 0.971945981023 0)
(0.19806618407 0.940065499393 0)
(0.196457074131 0.908926008472 0)
(0.193082986597 0.877777486747 0)
(0.187927460154 0.846778068267 0)
(0.181412075908 0.816613985801 0)
(0.174404611677 0.787646245778 0)
(0.167467844581 0.759118531323 0)
(0.160848664519 0.72992508563 0)
(0.0406345284192 2.09592200507 0)
(0.0741503200889 1.63863866372 0)
(0.0623334826711 1.41898912528 0)
(0.0621893828394 1.3565290659 0)
(0.0760802910955 1.33800673194 0)
(0.0964575147888 1.29706036238 0)
(0.118752526474 1.23914158174 0)
(0.141380187296 1.17719461371 0)
(0.164468208651 1.1208018816 0)
(0.185197566599 1.07457807107 0)
(0.197296610907 1.0364635614 0)
(0.200310418955 1.00112933311 0)
(0.199272589 0.96680197554 0)
(0.196444201432 0.9326129159 0)
(0.191869382999 0.898246156456 0)
(0.185848833102 0.864135273322 0)
(0.179068970574 0.830810798523 0)
(0.171877747517 0.798368418559 0)
(0.164901479227 0.76634321687 0)
(0.159605713274 0.734617372145 0)
(0.0490592692663 2.13243603268 0)
(0.095511930352 1.71709284908 0)
(0.0842234195643 1.46541891313 0)
(0.0752946064216 1.35844059543 0)
(0.0814940745667 1.3207296081 0)
(0.0984388082026 1.28199496342 0)
(0.121041053314 1.2362408561 0)
(0.145695429427 1.18977196944 0)
(0.16799798626 1.14680893296 0)
(0.181777703537 1.1075302796 0)
(0.186654884401 1.06999397034 0)
(0.18728824269 1.03282558657 0)
(0.185818938263 0.995044472722 0)
(0.182367335779 0.956230174965 0)
(0.177187192775 0.916960463101 0)
(0.170855589755 0.878133492863 0)
(0.163945421069 0.839948637797 0)
(0.15762048156 0.802569887493 0)
(0.15411665898 0.766292723376 0)
(0.154606805249 0.731255343458 0)
(0.055278357588 2.14924760201 0)
(0.109453481944 1.7859138124 0)
(0.0978531518604 1.53079086667 0)
(0.0832385515326 1.39363430784 0)
(0.0822660539898 1.33332727689 0)
(0.0940592427532 1.28757689652 0)
(0.113707588722 1.24851714417 0)
(0.133536688812 1.21290385808 0)
(0.147183953935 1.17803638769 0)
(0.15443813554 1.14227715402 0)
(0.15807609577 1.10476780204 0)
(0.158836869859 1.06443115267 0)
(0.156425902953 1.02025014313 0)
(0.151103430207 0.97299939231 0)
(0.14397283346 0.925767574319 0)
(0.137002432871 0.880893561965 0)
(0.132386672988 0.837655417389 0)
(0.131899163068 0.795709837894 0)
(0.136055603927 0.755296424213 0)
(0.144575872437 0.71622968499 0)
(0.0565438329372 2.16803905079 0)
(0.106821101845 1.8558199343 0)
(0.0899509749651 1.60400151546 0)
(0.0733055635859 1.44823575409 0)
(0.0678294971982 1.36600757337 0)
(0.0740638521495 1.30885895135 0)
(0.0873556761693 1.27015266581 0)
(0.100348831682 1.24066349742 0)
(0.109066944149 1.21113427472 0)
(0.11421121193 1.17676576476 0)
(0.115281376373 1.13543500793 0)
(0.11111094288 1.08745342079 0)
(0.102849275863 1.03206215209 0)
(0.0939973172558 0.972128685539 0)
(0.0883058735034 0.914996422675 0)
(0.0877024779482 0.866216236454 0)
(0.0920298295089 0.820238912309 0)
(0.100560023816 0.775335705416 0)
(0.113012449245 0.731403682218 0)
(0.129039530143 0.688411142914 0)
(0.0613726038652 2.161616092 0)
(0.110923719333 1.90434439387 0)
(0.0870902686419 1.6637278788 0)
(0.0672490890596 1.49708802167 0)
(0.0570847744019 1.39782927131 0)
(0.0563747566778 1.33131290826 0)
(0.0604524793328 1.28942249611 0)
(0.0628081236214 1.26324267403 0)
(0.0605824428972 1.23661650969 0)
(0.0550406505538 1.19683593008 0)
(0.0467831080374 1.14534352106 0)
(0.036887797498 1.08658127253 0)
(0.0289065770261 1.0185552957 0)
(0.0265132994052 0.946710575577 0)
(0.0309816327528 0.880894961814 0)
(0.0411587367416 0.832352239802 0)
(0.0549735266672 0.786468637544 0)
(0.071309931422 0.740677537607 0)
(0.0900629048451 0.695068117272 0)
(0.111010589948 0.649777221584 0)
(0.0683825247 2.01482238002 0)
(0.126583860487 1.86233867116 0)
(0.107060378744 1.67333164968 0)
(0.0892627951554 1.51065359625 0)
(0.0741089584068 1.40565279175 0)
(0.060804966021 1.33769927677 0)
(0.0457959400635 1.29684235462 0)
(0.0259926920029 1.27571434479 0)
(0.0032833409571 1.24856554225 0)
(-0.0148654418004 1.19318663334 0)
(-0.0249015323426 1.12688622173 0)
(-0.0279720797206 1.05675272999 0)
(-0.0245024451155 0.978948920898 0)
(-0.0153052847853 0.90041120883 0)
(-0.00206969049332 0.830286271385 0)
(0.0139497330151 0.783945792148 0)
(0.032407535203 0.740665677084 0)
(0.0524065321016 0.696322592979 0)
(0.0734696328612 0.651436268713 0)
(0.0960179532246 0.606259645484 0)
(0.06996808324 1.63920465416 0)
(0.132427229966 1.75173348762 0)
(0.11832279234 1.64555246915 0)
(0.102176620553 1.51192873643 0)
(0.0812593673895 1.41545091662 0)
(0.0558055443116 1.35696484899 0)
(0.0248261389807 1.32600732316 0)
(-0.0103006793622 1.31172012745 0)
(-0.0423154876582 1.26989853155 0)
(-0.0585058256226 1.17344242733 0)
(-0.0576725377123 1.08834367205 0)
(-0.0482337923426 1.00814368201 0)
(-0.0346206196758 0.92579223404 0)
(-0.019412163445 0.846945414306 0)
(-0.00408680895503 0.778684527651 0)
(0.0115956092058 0.734896508932 0)
(0.0288920792865 0.694830471082 0)
(0.0475020622717 0.653072190563 0)
(0.0669479559535 0.610308980846 0)
(0.0874210886017 0.566768336933 0)
(0.0288905520231 1.30400309459 0)
(0.0592798659607 1.64718524363 0)
(0.0606127695144 1.60663583992 0)
(0.057282756047 1.51761179531 0)
(0.0458751923058 1.45381656204 0)
(0.0256541401373 1.41796729438 0)
(0.00010768646273 1.39904827865 0)
(-0.0261320065653 1.38278967606 0)
(-0.0511735927467 1.32469249075 0)
(-0.0584593024267 1.1387157563 0)
(-0.0459916183928 1.04078982423 0)
(-0.0305860424723 0.957343800213 0)
(-0.0149868507927 0.877218505908 0)
(-0.00054877646238 0.803252801776 0)
(0.0124115110731 0.740561521022 0)
(0.0250497513793 0.699112328926 0)
(0.0386595415418 0.661256906359 0)
(0.0530444380432 0.621716569516 0)
(0.0678647053312 0.581016514914 0)
(0.0830954997028 0.539270970564 0)
(0.0122176265921 1.2304741926 0)
(0.0157524463059 1.63067788672 0)
(-0.00192482582445 1.61783539267 0)
(-0.0201891521373 1.5558760773 0)
(-0.0370365023914 1.5123193685 0)
(-0.0500097494424 1.48388322852 0)
(-0.0583336983447 1.46046674513 0)
(-0.0612938917562 1.42775191406 0)
(-0.0472365324046 1.31351859692 0)
(-0.0260301004816 1.09617933832 0)
(-0.0122063347105 0.999590312766 0)
(0.000843096229246 0.9197505894 0)
(0.0128547807217 0.845616573314 0)
(0.023697930798 0.778228778282 0)
(0.0337707556275 0.721722846075 0)
(0.0436564810093 0.682283564604 0)
(0.0531815667022 0.645653173211 0)
(0.0620731625821 0.607399140081 0)
(0.0705957412688 0.568249707057 0)
(0.0787490648463 0.528164599009 0)
(-4.83515950502e-05 1.33220173981 0)
(-0.0168169229677 1.75050600601 0)
(-0.0514656163225 1.73851250156 0)
(-0.0890789814823 1.68105748251 0)
(-0.125264649134 1.61690780741 0)
(-0.146037732628 1.53234582383 0)
(-0.124884442937 1.38153580895 0)
(-0.0713165301185 1.33513280982 0)
(-0.025499449365 1.21108312427 0)
(0.000278680482503 1.05716117705 0)
(0.0145419405149 0.972051823487 0)
(0.0259434289416 0.899432884577 0)
(0.035912588978 0.83228474126 0)
(0.0452191089522 0.771509703045 0)
(0.0542989633295 0.721402681532 0)
(0.0619838828357 0.683847092703 0)
(0.0668997461849 0.647507871767 0)
(0.069877600326 0.610038576044 0)
(0.0716954872836 0.572414802701 0)
(0.0715665021885 0.534255017965 0)
(0.000801066364728 1.49821869806 0)
(-0.0118839849023 1.9152293713 0)
(-0.0415740536917 1.90565511041 0)
(-0.07715594486 1.85121492066 0)
(-0.11525543289 1.76009973934 0)
(-0.110329260674 1.44929781302 0)
(-0.0721860241434 1.23594657551 0)
(-0.04123233812 1.19233115653 0)
(-0.00993529534967 1.12237468634 0)
(0.0142488854976 1.02364693693 0)
(0.0305862403628 0.954610065285 0)
(0.0433697840166 0.892077661025 0)
(0.0544825413648 0.833162352504 0)
(0.0649179045558 0.779953727303 0)
(0.0736147404362 0.736381055112 0)
(0.0778694004397 0.699767463915 0)
(0.0778517139967 0.663277046846 0)
(0.0755615922767 0.626807955723 0)
(0.0705894849707 0.591190563293 0)
(0.0563447378559 0.553821093367 0)
(0.00988167495543 1.59174169984 0)
(0.0172157767684 2.00721730625 0)
(0.0089065931012 2.01491967418 0)
(-0.00562935908133 1.96968790633 0)
(-0.0254708808905 1.86921618909 0)
(-0.0392420298989 1.34164029337 0)
(-0.0362005971725 1.16401706017 0)
(-0.0183969103555 1.1192188998 0)
(0.00608961815214 1.06660069473 0)
(0.0279706775328 0.999839830309 0)
(0.0452845096625 0.945995660164 0)
(0.0601592344054 0.894728581231 0)
(0.0736834814957 0.84541952733 0)
(0.0851142978397 0.800580257913 0)
(0.0912004378791 0.761472589959 0)
(0.0908697190576 0.724713266128 0)
(0.086856625518 0.688495102994 0)
(0.0801651646414 0.653578690085 0)
(0.0651294250648 0.619097601037 0)
(0.0332863715698 0.581095736258 0)
(0.0169607674519 1.57460633678 0)
(0.0385180410637 1.99131749423 0)
(0.0451036998572 2.02963749092 0)
(0.045927302582 2.00410780664 0)
(0.0405461265533 1.91505446192 0)
(0.0254050948385 1.37140292131 0)
(0.0113970598622 1.14647292433 0)
(0.0136904061507 1.08076458861 0)
(0.0281398638585 1.03536089659 0)
(0.046273867899 0.987889859482 0)
(0.0641159485145 0.946856904075 0)
(0.0811226280335 0.906636912472 0)
(0.0956513011011 0.866743265751 0)
(0.104229075634 0.827998688014 0)
(0.105429448217 0.790748537241 0)
(0.101971377018 0.754165184807 0)
(0.0957657122215 0.718775923151 0)
(0.0829470831471 0.685080511902 0)
(0.0558829746137 0.649493622445 0)
(0.0159729979278 0.613771033441 0)
(0.024027892673 1.48926581039 0)
(0.0556083306087 1.90398222839 0)
(0.0698897419029 1.97280052574 0)
(0.0814866746214 1.97319017857 0)
(0.0895639859926 1.90346738197 0)
(0.0801555120036 1.45016175968 0)
(0.0613605893758 1.17090370409 0)
(0.0555291521596 1.07564822816 0)
(0.0612596455963 1.02592229649 0)
(0.0746779445884 0.988121868309 0)
(0.0914961097004 0.957295178381 0)
(0.106938125798 0.925922802247 0)
(0.116635643225 0.892209691177 0)
(0.119856837083 0.856817287582 0)
(0.118610616162 0.821334822832 0)
(0.114097514351 0.785568820901 0)
(0.104768055082 0.750994701023 0)
(0.0837056274523 0.716551557199 0)
(0.0497716858169 0.67990165485 0)
(0.0120581130044 0.648980220001 0)
(0.00356121765452 1.56824050663 0)
(0.0236931217559 1.76805640654 0)
(0.0545799929427 1.85543106764 0)
(0.0779305420325 1.8965441 0)
(0.0943661153344 1.84720732467 0)
(0.103809760742 1.4865991433 0)
(0.101656418163 1.21246079378 0)
(0.09702195947 1.09527884658 0)
(0.100421679803 1.0362197985 0)
(0.110975874975 1.00191736162 0)
(0.123181893236 0.976998386021 0)
(0.131404270488 0.950392020715 0)
(0.135351423079 0.920297702435 0)
(0.136309680516 0.887816761017 0)
(0.134056369602 0.854229198267 0)
(0.127805398857 0.819026530247 0)
(0.113095298623 0.78416917809 0)
(0.0845980074997 0.746718483599 0)
(0.0496046157072 0.710220226145 0)
(0.0169851350226 0.681434378891 0)
(0.00880351573493 1.84372631354 0)
(0.0233713444571 1.66999541562 0)
(0.0431427359131 1.71158014159 0)
(0.073448953119 1.77771711877 0)
(0.106478818829 1.74211966841 0)
(0.126109658584 1.47260228308 0)
(0.128361496805 1.25352485202 0)
(0.129161190768 1.12941272371 0)
(0.135076065977 1.06300528382 0)
(0.144145103148 1.02973815513 0)
(0.150457831602 1.00675266327 0)
(0.153102406177 0.98234223836 0)
(0.154290160212 0.95495083037 0)
(0.15352493643 0.924517383704 0)
(0.149439154021 0.891685565678 0)
(0.140060743584 0.856235784033 0)
(0.11859983914 0.81876280337 0)
(0.0847927947753 0.776785309835 0)
(0.0514029090871 0.739241449788 0)
(0.0233719197231 0.708744209406 0)
(0.0301419310323 2.03317285854 0)
(0.0651886971115 1.64596839201 0)
(0.0739822804187 1.61959897373 0)
(0.0882490791546 1.66885277259 0)
(0.110143403418 1.63794003387 0)
(0.128303276301 1.46339083768 0)
(0.138910193934 1.28720401316 0)
(0.147566117073 1.16903769998 0)
(0.158053586694 1.10235243548 0)
(0.16668005264 1.07053452107 0)
(0.169304966722 1.04762374707 0)
(0.168953766504 1.02430124679 0)
(0.168301803959 0.998122603571 0)
(0.165932600893 0.968438045438 0)
(0.159879546157 0.935432092885 0)
(0.146009311855 0.898749055519 0)
(0.117208722887 0.855457708664 0)
(0.0806288586037 0.807493308464 0)
(0.0502279252412 0.766127698987 0)
(0.0261816755154 0.731249345114 0)
(0.0395531062379 2.08068181006 0)
(0.0843000812465 1.64963750949 0)
(0.0886233902985 1.5988326441 0)
(0.0934667445659 1.62700964488 0)
(0.107478163217 1.59551993358 0)
(0.124106026651 1.46075603449 0)
(0.140037685162 1.31535926414 0)
(0.155311820077 1.21064374233 0)
(0.16881774174 1.15153346751 0)
(0.175353472273 1.12122910373 0)
(0.175003300762 1.09775444454 0)
(0.173526016604 1.07461074077 0)
(0.172315886682 1.04892335453 0)
(0.169346394409 1.01991768331 0)
(0.161988553127 0.987173894024 0)
(0.141686733646 0.947507852705 0)
(0.105140526825 0.894137299409 0)
(0.0688586415418 0.837753654989 0)
(0.0430547028807 0.789359232586 0)
(0.0232960646892 0.748672999978 0)
(0.042213022563 2.08478606701 0)
(0.0888497153891 1.6883295076 0)
(0.0885862533247 1.62271868145 0)
(0.0856706230787 1.6372589729 0)
(0.0938577278145 1.59663847604 0)
(0.109977462481 1.47189690192 0)
(0.129747572803 1.34225202563 0)
(0.148281877312 1.25342313044 0)
(0.160261964177 1.20415503125 0)
(0.163385665586 1.17468470108 0)
(0.16325271289 1.1513153187 0)
(0.16430759506 1.12892192473 0)
(0.165617125139 1.10505303194 0)
(0.164682959862 1.07888182843 0)
(0.15319765434 1.04625501636 0)
(0.12029821278 0.997532546603 0)
(0.0781293771169 0.930249243358 0)
(0.0481708532029 0.86198129529 0)
(0.0298573215356 0.803096326807 0)
(0.0162652588739 0.756241361423 0)
(0.0484644065218 2.09591192735 0)
(0.100418225706 1.75835789126 0)
(0.0930400874126 1.68661728498 0)
(0.0777120784677 1.68849510449 0)
(0.0761149215447 1.62694413919 0)
(0.0872004598376 1.49232607082 0)
(0.104387638261 1.36615902293 0)
(0.119732779664 1.29018310863 0)
(0.128644065469 1.24800278883 0)
(0.133641247228 1.22025299291 0)
(0.139785204434 1.19870017936 0)
(0.147378385775 1.17877262257 0)
(0.152837630881 1.1582100255 0)
(0.1453365009 1.13361689857 0)
(0.114256734365 1.09449570637 0)
(0.0709649674409 1.0316618253 0)
(0.0401352699359 0.948615763297 0)
(0.025600684241 0.867379669075 0)
(0.0177846202883 0.797492227309 0)
(0.0131888037358 0.74546793384 0)
(0.0577499953671 2.10432285389 0)
(0.110316841381 1.83481703146 0)
(0.0885321577177 1.77303625158 0)
(0.0620367345682 1.76127911492 0)
(0.0507295909642 1.66881271878 0)
(0.0532468220525 1.51494062337 0)
(0.0627926181718 1.38341363705 0)
(0.0733504343724 1.30956994595 0)
(0.0828340716252 1.26865305976 0)
(0.0930069220658 1.241621271 0)
(0.103520061195 1.22164154382 0)
(0.108423672532 1.20321944205 0)
(0.098810937929 1.18288978481 0)
(0.0713775225024 1.15539455833 0)
(0.0385033222146 1.10600559929 0)
(0.0193892735612 1.0265109685 0)
(0.0163707997036 0.931314357585 0)
(0.0194247784971 0.842812624066 0)
(0.0241796539978 0.767676481355 0)
(0.0297577281656 0.713818662215 0)
(0.0633992746074 2.03499837661 0)
(0.109036250698 1.87258730085 0)
(0.0752794854737 1.83454014171 0)
(0.0489288514734 1.80722662997 0)
(0.0333768899176 1.68947490188 0)
(0.0245650004651 1.52446124772 0)
(0.0183684197667 1.38742321609 0)
(0.0147639888428 1.3057229252 0)
(0.0151992090563 1.25654108877 0)
(0.0182469707126 1.2269446334 0)
(0.0182057597952 1.20753020591 0)
(0.0107340193339 1.18955536291 0)
(-0.00192431833423 1.16669648193 0)
(-0.0111713127552 1.13160574255 0)
(-0.00860747598355 1.06890815421 0)
(0.00581475639079 0.976310706895 0)
(0.0243190561327 0.879724396376 0)
(0.0418266616887 0.793321877177 0)
(0.0579601463978 0.721012381376 0)
(0.0725634913291 0.670002829593 0)
(0.0705772383108 1.76780417676 0)
(0.116523072222 1.89147921548 0)
(0.0747602442715 1.8789754785 0)
(0.046483462365 1.82092971943 0)
(0.0230471218927 1.69672697324 0)
(-0.00489586753087 1.5371949889 0)
(-0.0362042901086 1.39748623573 0)
(-0.0625709401848 1.29897533445 0)
(-0.0760449747512 1.22744219444 0)
(-0.0784422016916 1.19158715017 0)
(-0.0760416143534 1.16882890285 0)
(-0.0697130044484 1.14631932971 0)
(-0.0571789912567 1.11565628572 0)
(-0.0359784253933 1.06727240822 0)
(-0.00706588114308 0.991040206856 0)
(0.0242745305183 0.899202113257 0)
(0.0536654474618 0.811794891554 0)
(0.0805190931118 0.734927155351 0)
(0.10498912916 0.671637942355 0)
(0.127845642632 0.626178253879 0)
(0.0300837468448 1.49548710206 0)
(0.0597670902377 1.86758015508 0)
(0.0581497674892 1.88490348396 0)
(0.0497223212074 1.831937243 0)
(0.0256851159504 1.74483394092 0)
(-0.0185592777578 1.62961800101 0)
(-0.077425296457 1.49757416117 0)
(-0.124743243997 1.32801432169 0)
(-0.138642368133 1.18895965593 0)
(-0.129108986443 1.14114848985 0)
(-0.110302024172 1.1097493949 0)
(-0.0849589469636 1.07690419556 0)
(-0.054044226208 1.03350067385 0)
(-0.0183059908952 0.973597117542 0)
(0.0194333751819 0.897697273854 0)
(0.0555439172428 0.819082965106 0)
(0.0888770467932 0.746807251831 0)
(0.119926702131 0.683811618796 0)
(0.149576687509 0.630770607898 0)
(0.178665538841 0.589311984995 0)
(0.0181789260863 1.40133147929 0)
(0.0359934354011 1.81968701523 0)
(0.0332825914007 1.86868024049 0)
(0.025407211464 1.85686923362 0)
(0.00923896891222 1.82269849291 0)
(-0.0164744864112 1.7587825742 0)
(-0.050176038109 1.64580460886 0)
(-0.096263437387 1.44762133202 0)
(-0.119247932984 1.13924970206 0)
(-0.104845783781 1.07529658017 0)
(-0.0810492793471 1.03343574452 0)
(-0.0507429035747 0.990920460282 0)
(-0.0164594166161 0.940472836449 0)
(0.0195688837671 0.881246590978 0)
(0.0553118164782 0.817847726456 0)
(0.0896161283131 0.756528980251 0)
(0.122591017996 0.699310442709 0)
(0.154677255021 0.64725407472 0)
(0.185001489654 0.600018023413 0)
(0.213947915074 0.559180917422 0)
(0.0148215727906 1.36928556837 0)
(0.0297912467608 1.8048942646 0)
(0.0275488520479 1.88677683966 0)
(0.018974140313 1.90478429081 0)
(0.00298714390247 1.90231397605 0)
(-0.0206255123213 1.86321660701 0)
(-0.0489715486146 1.75854162429 0)
(-0.0623100743143 1.52677814897 0)
(-0.0575781381006 1.09688304269 0)
(-0.0455831378377 1.01441611606 0)
(-0.0251229440901 0.962317019007 0)
(0.000901239834918 0.914557682414 0)
(0.029909367267 0.865662862377 0)
(0.0603162754348 0.815760633389 0)
(0.0912596070144 0.76598909849 0)
(0.122396452491 0.716774021958 0)
(0.15256340192 0.668017506462 0)
(0.179410753919 0.620074084441 0)
(0.203894023808 0.574787925535 0)
(0.235801551211 0.536557905738 0)
(0.0269082497839 1.34324231572 0)
(0.0514396420684 1.79323820182 0)
(0.0466104832101 1.90961800305 0)
(0.0369944028462 1.96581330888 0)
(0.019365454072 1.98965862035 0)
(-0.00360154945872 1.96705778718 0)
(-0.0277358073622 1.85410381446 0)
(-0.0218414165755 1.44405638809 0)
(-0.00160094755861 1.07441698001 0)
(0.00798478594379 0.972795957974 0)
(0.024498448095 0.91224745763 0)
(0.0455219499275 0.863615122438 0)
(0.0694723821262 0.819817892189 0)
(0.095565353933 0.777826221297 0)
(0.122565981644 0.735398614572 0)
(0.147629705499 0.69062678287 0)
(0.168928609599 0.644207288752 0)
(0.188407734599 0.598106386591 0)
(0.214655374808 0.556338051255 0)
(0.252763504826 0.527118377042 0)
(0.0361429392997 1.32803568074 0)
(0.0720116368177 1.76599229443 0)
(0.0699595856886 1.91861311582 0)
(0.0624516471575 2.01995452296 0)
(0.0484604221986 2.06778300875 0)
(0.0329206409273 2.04771228816 0)
(0.0246027180617 1.90684782865 0)
(0.0289111138297 1.36068798177 0)
(0.0372483340378 1.06999544062 0)
(0.0461529169348 0.952250462595 0)
(0.0602713087852 0.884492852172 0)
(0.078382731375 0.835997464235 0)
(0.0996586704806 0.795911950201 0)
(0.121804351407 0.75724865135 0)
(0.141100012683 0.716266305854 0)
(0.157081357966 0.672561118564 0)
(0.172559653669 0.627528676514 0)
(0.192301176946 0.58454486631 0)
(0.226520821261 0.552325262277 0)
(0.214324566575 0.520485628973 0)
(0.0126167406917 1.48255723184 0)
(0.0448475386652 1.62391923296 0)
(0.0655061375447 1.89920458648 0)
(0.0635183547795 2.05042178061 0)
(0.0540832519154 2.12958155608 0)
(0.0425225939818 2.1051167242 0)
(0.0461996569195 1.89124453391 0)
(0.0587510798286 1.34600844412 0)
(0.0652881850599 1.07708282405 0)
(0.0731617704475 0.947331059084 0)
(0.0855164719248 0.873420991463 0)
(0.101993644472 0.825307371954 0)
(0.119591804551 0.786282361943 0)
(0.134087895287 0.74754497667 0)
(0.145613480819 0.706715704307 0)
(0.157275970141 0.664054212332 0)
(0.171798573808 0.621483226869 0)
(0.198134933099 0.584727962279 0)
(0.201822913331 0.559302645045 0)
(0.113846565266 0.545657125827 0)
(0.0168204700946 1.76947515549 0)
(0.038097533284 1.4669815886 0)
(0.0631896849312 1.76158838311 0)
(0.0783759671785 2.07463101591 0)
(0.0659359243094 2.19047270942 0)
(0.0538017264168 2.16182597016 0)
(0.0633997415968 1.81834369156 0)
(0.0809293024453 1.34826241591 0)
(0.0861721773296 1.09184654731 0)
(0.0930948044975 0.953803846995 0)
(0.104221066848 0.875609836744 0)
(0.117569909382 0.827106367883 0)
(0.128502855478 0.787192990256 0)
(0.136327680061 0.747991462399 0)
(0.144029139721 0.70792621144 0)
(0.15392906976 0.667034252044 0)
(0.17087443133 0.628248910672 0)
(0.190359222405 0.600750098293 0)
(0.14456722864 0.56674740583 0)
(0.00552322345601 0.681503297167 0)
(0.0249007632739 1.99772768172 0)
(0.050328284535 1.41101929949 0)
(0.0628238022467 1.56388694462 0)
(0.0743320145751 2.08155376986 0)
(0.0744157150803 2.22334289896 0)
(0.0776606921206 2.19126317608 0)
(0.0876656155304 1.75376842319 0)
(0.0974284741 1.35863368558 0)
(0.102242952845 1.11252366743 0)
(0.108688879791 0.969527858596 0)
(0.117856333005 0.888911031984 0)
(0.126211632204 0.839070836721 0)
(0.131167963656 0.798206588019 0)
(0.134805198892 0.759555976341 0)
(0.139636519356 0.72104444358 0)
(0.148902335129 0.682788535247 0)
(0.167851811003 0.649961715654 0)
(0.152348187035 0.626188239328 0)
(0.0646120420914 0.596332370354 0)
(-0.0224579223427 0.819405115992 0)
(0.0305823233134 2.18044703228 0)
(0.0564841526429 1.39607045867 0)
(0.056994726259 1.44348592366 0)
(0.0672030798511 2.04043694411 0)
(0.0759406803338 2.21061113306 0)
(0.0874388044416 2.16867676663 0)
(0.101618946828 1.7246220108 0)
(0.110475761861 1.37328212044 0)
(0.115290364964 1.13788131242 0)
(0.12117278018 0.993006617363 0)
(0.127773803114 0.911409440539 0)
(0.131725980059 0.86052802068 0)
(0.132581582527 0.819928045431 0)
(0.132862485075 0.78281615073 0)
(0.135183352763 0.746738599475 0)
(0.143756325604 0.712253048624 0)
(0.149499611743 0.68702566387 0)
(0.100574124841 0.660508677755 0)
(0.00404726481592 0.667774035931 0)
(-0.0479825919902 0.853363524555 0)
(0.0357514756368 2.35295014387 0)
(0.0578009884366 1.42984753128 0)
(0.045564911825 1.38216298585 0)
(0.0668433887287 1.91086677573 0)
(0.0812655514832 2.22861044967 0)
(0.0924289694115 2.08735614382 0)
(0.114367776482 1.70449949963 0)
(0.122145330097 1.39127656443 0)
(0.126780392527 1.16718939106 0)
(0.13193876548 1.02294432263 0)
(0.136521449501 0.941596864268 0)
(0.137604343013 0.890935371097 0)
(0.135570528221 0.851696095388 0)
(0.133126282843 0.81698091366 0)
(0.133030685484 0.783836663065 0)
(0.137671377307 0.754110735448 0)
(0.118607676248 0.733598547875 0)
(0.0481498458115 0.716336494146 0)
(-0.0282819843769 0.752065398499 0)
(-0.0593099158418 0.862550901801 0)
(0.0410859563799 2.51385097505 0)
(0.0586800363331 1.51454484528 0)
(0.0337652516357 1.36177054333 0)
(0.0424316506096 1.7695856051 0)
(0.0764423201272 2.16083899127 0)
(0.110500536734 1.99687251412 0)
(0.125122424861 1.69379973001 0)
(0.132009375876 1.41198939658 0)
(0.136676275011 1.19913036026 0)
(0.14159631771 1.05732792249 0)
(0.145331656471 0.977453752042 0)
(0.145058104341 0.928152283809 0)
(0.141434097946 0.891020956498 0)
(0.137124522405 0.859178587282 0)
(0.134138423936 0.828983285765 0)
(0.124865321836 0.802586552301 0)
(0.0851110289324 0.786054067386 0)
(0.0187110966954 0.793826998433 0)
(-0.0348056532302 0.826073183864 0)
(-0.0553647649491 0.883191992177 0)
(0.150889359869 0.689975491209 0)
(0.155548184928 0.659390014698 0)
(0.158158421094 0.630751281658 0)
(0.159056918785 0.604877506548 0)
(0.159219018299 0.576780291159 0)
(0.157908793963 0.542593341905 0)
(0.153892226855 0.503464807081 0)
(0.14653339471 0.462016617509 0)
(0.136045813972 0.419554227146 0)
(0.122160863091 0.376794098482 0)
(0.104477532382 0.33461265689 0)
(0.084404471701 0.293380529349 0)
(0.0686340976246 0.252240129577 0)
(0.0784494451339 0.211838628132 0)
(0.122107952523 0.16948118583 0)
(0.138833723532 0.110738667868 0)
(0.0945836368758 0.0538434302654 0)
(0.0458491508206 -0.00729253470605 0)
(0.0423663321168 -0.039238623685 0)
(0.0274963228785 -0.150732623558 0)
(0.153601146137 0.688723961726 0)
(0.153946574178 0.658324928172 0)
(0.153288165945 0.628081215374 0)
(0.151414515074 0.599365384994 0)
(0.149332256258 0.571873402408 0)
(0.146499696417 0.542237928964 0)
(0.141626186321 0.509149954861 0)
(0.133976776223 0.474151459099 0)
(0.122744361599 0.438185923011 0)
(0.107308859293 0.401721368064 0)
(0.0880459453199 0.365141934091 0)
(0.0680323821469 0.328441118646 0)
(0.0529080342415 0.291996940202 0)
(0.0648228996992 0.267223942189 0)
(0.107393411127 0.248466179976 0)
(0.122037074771 0.162836138696 0)
(0.0852054785419 0.0858363297871 0)
(0.0427378432181 0.0349149236301 0)
(0.0402203942097 0.00666467903497 0)
(0.0268852838055 -0.14478272911 0)
(0.154682796567 0.693470005778 0)
(0.151441077597 0.663739422454 0)
(0.148072491372 0.633856603501 0)
(0.143943655276 0.60458738114 0)
(0.139708766537 0.576486148393 0)
(0.135665166415 0.54865221717 0)
(0.130791497117 0.520039813294 0)
(0.123580083923 0.490699226233 0)
(0.112625455112 0.461422073245 0)
(0.0973966959234 0.431612626821 0)
(0.0792664212428 0.400881658664 0)
(0.0612784442581 0.369074144717 0)
(0.0451373817789 0.341161450644 0)
(0.0531275917922 0.343212228648 0)
(0.0857897475557 0.352809500539 0)
(0.102505968025 0.211238161395 0)
(0.0830333245354 0.126034217631 0)
(0.0470373666333 0.0924591802791 0)
(0.0370353763712 0.0315404345485 0)
(0.0219424407683 -0.0677637111407 0)
(0.155361431088 0.700534669663 0)
(0.15144683246 0.671676976585 0)
(0.14802680154 0.643311607074 0)
(0.144041176328 0.61577123077 0)
(0.139575767933 0.589239642731 0)
(0.134990959558 0.563680982764 0)
(0.129993420783 0.538778250368 0)
(0.123461627679 0.514599869802 0)
(0.1139921988 0.492248330232 0)
(0.101145413115 0.470224640629 0)
(0.085870540636 0.447216696616 0)
(0.0688142288733 0.425495965203 0)
(0.0476173759787 0.420258290547 0)
(0.0470372587626 0.46929620292 0)
(0.0677406632331 0.489087219739 0)
(0.089791468812 0.257786657806 0)
(0.0865527503982 0.184123666352 0)
(0.0544287042222 0.165928842008 0)
(0.0295634604563 0.0992621301064 0)
(0.0103026442884 0.0531475598669 0)
(0.157034355924 0.704133405374 0)
(0.156915568469 0.675486189052 0)
(0.157718942599 0.648179699419 0)
(0.158230743941 0.622426225154 0)
(0.158121324688 0.598591560522 0)
(0.157217739724 0.576769291255 0)
(0.155067908573 0.557093546661 0)
(0.150750816362 0.540083498998 0)
(0.143762897364 0.526448551519 0)
(0.13440594327 0.514820160933 0)
(0.122698913292 0.506377362413 0)
(0.105962147902 0.512544982915 0)
(0.0769332742937 0.562818694019 0)
(0.0505773514503 0.710594563147 0)
(0.0395668669109 0.673553360064 0)
(0.0594874778126 0.305562346188 0)
(0.0642417964081 0.246460622254 0)
(0.0164359887112 0.235316769896 0)
(0.00700871315586 0.249787653539 0)
(0.0133873996922 0.207861063419 0)
(0.158912683893 0.698326535611 0)