/*--------------------------------*- C++ -*----------------------------------*\
| =========                 |                                                 |
| \\      /  F ield         | OpenFOAM: The Open Source CFD Toolbox           |
|  \\    /   O peration     | Version:  2312                                  |
|   \\  /    A nd           | Website:  www.openfoam.com                      |
|    \\/     M anipulation  |                                                 |
\*---------------------------------------------------------------------------*/
FoamFile
{
    version     2.0;
    format      ascii;
    arch        "LSB;label=32;scalar=64";
    class       volScalarField;
    location    "0.73/water";
    object      nut.gas;
}
// * * * * * * * * * * * * * * * * * * * * * * * * * * * * * * * * * * * * * //

dimensions      [0 2 -1 0 0 0 0];

internalField   nonuniform List<scalar> 
1497
(
1.75464787744e-06
1.59375470235e-06
1.48546872869e-06
1.36551450482e-06
1.17658948292e-06
9.26877773924e-07
6.71709745959e-07
4.41966209767e-07
2.56084539202e-07
1.37806697717e-07
7.6738851527e-08
4.71113592212e-08
3.35842765303e-08
5.16133835337e-06
4.54595055507e-06
3.82494699186e-06
3.21716206e-06
2.77810522652e-06
2.44002494897e-06
2.14204162287e-06
1.88550407739e-06
1.69991874784e-06
1.57497959792e-06
1.44789163538e-06
1.25944688763e-06
1.01307457226e-06
7.50045347909e-07
5.10143474256e-07
3.23514828582e-07
1.96847607541e-07
1.15839950276e-07
6.83753432896e-08
4.34837812112e-08
5.33090996909e-06
4.69771371623e-06
3.9597253601e-06
3.36158824031e-06
2.93336604188e-06
2.6001162815e-06
2.29469746428e-06
2.01167103898e-06
1.7903164738e-06
1.64457119052e-06
1.52168737715e-06
1.3469769162e-06
1.09592545748e-06
8.17153226541e-07
5.83670687348e-07
4.08846743746e-07
2.74444728183e-07
1.70897055049e-07
9.9901716395e-08
5.88114520943e-08
5.29968113843e-06
4.61989349995e-06
3.875841555e-06
3.32717652507e-06
2.96793290307e-06
2.68591103275e-06
2.39863363875e-06
2.10088541377e-06
1.84748285693e-06
1.67942687115e-06
1.55930783872e-06
1.39679198122e-06
1.14830018262e-06
8.80309764498e-07
6.64237158878e-07
4.93914987226e-07
3.4926803114e-07
2.26731105854e-07
1.34039479317e-07
7.58279605268e-08
4.77039332394e-06
4.30729657677e-06
3.70059764176e-06
3.25144522651e-06
2.9604209093e-06
2.71749485168e-06
2.43897566508e-06
2.12725285773e-06
1.85308264799e-06
1.6691875354e-06
1.54827054645e-06
1.40299448296e-06
1.18286325003e-06
9.41151329138e-07
7.34152999111e-07
5.57819005218e-07
4.01826433755e-07
2.65823209638e-07
1.58246211908e-07
8.77502661786e-08
4.24775934693e-06
3.9977404646e-06
3.54540741762e-06
3.18589001982e-06
2.93859369363e-06
2.70527830556e-06
2.41613486742e-06
2.09183957851e-06
1.81197057429e-06
1.62599263722e-06
1.50978750325e-06
1.38528386035e-06
1.19671161053e-06
9.76396563047e-07
7.72366507649e-07
5.89127455779e-07
4.24724197871e-07
2.80550653359e-07
1.65613993055e-07
9.03781554434e-08
3.98225907177e-06
3.81617853901e-06
3.45966876008e-06
3.15384065152e-06
2.9136810778e-06
2.6585129233e-06
2.3441446141e-06
2.01353722626e-06
1.74174001185e-06
1.56661761362e-06
1.4608951477e-06
1.3521905669e-06
1.18364316324e-06
9.7619575269e-07
7.73639905845e-07
5.87165637785e-07
4.19149133266e-07
2.71922564321e-07
1.56848538297e-07
8.43290652497e-08
3.87610597196e-06
3.78377873493e-06
3.47365962237e-06
3.14728630305e-06
2.86349076325e-06
2.56498144441e-06
2.22716720713e-06
1.90423755241e-06
1.65481040872e-06
1.50095954192e-06
1.40837301876e-06
1.30803641211e-06
1.14737551119e-06
9.4561048052e-07
7.44945047621e-07
5.5973545722e-07
3.91979832325e-07
2.46077066556e-07
1.37240889506e-07
7.30990674316e-08
4.03963301894e-06
3.97274025015e-06
3.56541870031e-06
3.12097862914e-06
2.76312739324e-06
2.42423997732e-06
2.08303968657e-06
1.78400438632e-06
1.56837033055e-06
1.44099526096e-06
1.35986269419e-06
1.25905270082e-06
1.09565438121e-06
8.95452204237e-07
6.99343412399e-07
5.18364432008e-07
3.52112318402e-07
2.10853096617e-07
1.13071880089e-07
6.05257562018e-08
4.33474589575e-06
4.25779804441e-06
3.63826383755e-06
3.04019987994e-06
2.60600574423e-06
2.24836474736e-06
1.93124613474e-06
1.67344735303e-06
1.49851141418e-06
1.39709789447e-06
1.32127162681e-06
1.21038296196e-06
1.03773547092e-06
8.39486614413e-07
6.50120023002e-07
4.72566980155e-07
3.06889142458e-07
1.72875563146e-07
8.94165576519e-08
4.95794499129e-08
4.57723480985e-06
4.36561130763e-06
3.58867624705e-06
2.87794552058e-06
2.40133437291e-06
2.06043021198e-06
1.7906555576e-06
1.58598725888e-06
1.45427108073e-06
1.37387841929e-06
1.29444206946e-06
1.1661199694e-06
9.83852156359e-07
7.89767405389e-07
6.05918732982e-07
4.27758600232e-07
2.61057166684e-07
1.37087693563e-07
7.00828354865e-08
4.18855520274e-08
4.78814073983e-06
4.37953095761e-06
3.51541757824e-06
2.72568181686e-06
2.21910623315e-06
1.89923345612e-06
1.68042583527e-06
1.53109107367e-06
1.43888193064e-06
1.36998431903e-06
1.27738919506e-06
1.12960835582e-06
9.41997608409e-07
7.5255762543e-07
5.69770641666e-07
3.85835530457e-07
2.18298066626e-07
1.08331006635e-07
5.7209022081e-08
3.77886252582e-08
4.86341486405e-06
4.29329061978e-06
3.42532873437e-06
2.63021168341e-06
2.10886438827e-06
1.79937070064e-06
1.61920464121e-06
1.51488849536e-06
1.44840089047e-06
1.37709412235e-06
1.26453931159e-06
1.10220251391e-06
9.15074257394e-07
7.2839843904e-07
5.40587542528e-07
3.48062900603e-07
1.8449520344e-07
9.03533743348e-08
5.10636461141e-08
3.69900267656e-08
4.87879133778e-06
4.19022322579e-06
3.36507146813e-06
2.6060761768e-06
2.0817544168e-06
1.77536365481e-06
1.61571542883e-06
1.53255155373e-06
1.4689401835e-06
1.38338541223e-06
1.25405129302e-06
1.08548440812e-06
9.00170677391e-07
7.12145417186e-07
5.16655993422e-07
3.20026153546e-07
1.65865580594e-07
8.37695168016e-08
5.05868854e-08
3.87768302689e-08
4.90582538032e-06
4.24239751402e-06
3.44772324163e-06
2.69734744142e-06
2.15077846776e-06
1.82729302235e-06
1.65597599856e-06
1.56145834757e-06
1.48479334122e-06
1.38590754072e-06
1.24798876621e-06
1.07927467897e-06
8.96564984038e-07
7.06183941774e-07
5.05046489983e-07
3.09159688301e-07
1.62529201633e-07
8.57144625131e-08
5.40332912583e-08
4.22846071231e-08
5.14236278101e-06
4.57679982586e-06
3.74287808001e-06
2.90835896207e-06
2.29346186464e-06
1.9202805538e-06
1.71008194572e-06
1.58735920324e-06
1.49407977601e-06
1.38709892918e-06
1.24904093717e-06
1.08583067567e-06
9.0837851223e-07
7.18337197318e-07
5.1527300027e-07
3.19905828003e-07
1.73823781666e-07
9.51476430115e-08
6.10420498263e-08
4.73501799211e-08
5.67319278571e-06
5.09693018979e-06
4.13993322619e-06
3.18811762121e-06
2.49654947507e-06
2.05786343403e-06
1.78599883465e-06
1.61942571294e-06
1.5058890513e-06
1.39515545126e-06
1.26307074996e-06
1.1105762782e-06
9.42712274893e-07
7.56929653372e-07
5.53898679716e-07
3.5489502349e-07
2.00497486682e-07
1.12666652826e-07
7.21447762595e-08
5.42865399523e-08
6.32297630026e-06
5.59737969594e-06
4.51755910471e-06
3.51035582694e-06
2.76598134428e-06
2.24947816442e-06
1.89784174372e-06
1.67262147186e-06
1.53135512644e-06
1.41671342929e-06
1.29436220544e-06
1.15755493408e-06
1.00364899542e-06
8.25636639248e-07
6.23195354903e-07
4.15527095049e-07
2.44207204432e-07
1.39878833108e-07
8.84528546185e-08
6.38210273025e-08
6.45654804393e-06
5.64950479467e-06
4.63309536493e-06
3.73876371802e-06
3.01944915164e-06
2.45358690279e-06
2.03008403069e-06
1.74255755739e-06
1.56843403251e-06
1.44801424675e-06
1.33783781232e-06
1.22116987079e-06
1.08562653449e-06
9.19091617155e-07
7.18461291196e-07
4.99367986887e-07
3.0525706643e-07
1.7818971376e-07
1.1123863623e-07
7.68804776669e-08
5.87629270916e-06
5.45403828499e-06
4.63250285045e-06
3.840983689e-06
3.16955078596e-06
2.61063568047e-06
2.15230029391e-06
1.80747104888e-06
1.59946681632e-06
1.47295836068e-06
1.37747935631e-06
1.28525060309e-06
1.17287660785e-06
1.02210362186e-06
8.26440171463e-07
5.97352577963e-07
3.79923140404e-07
2.27119074359e-07
1.41092585697e-07
9.43225897634e-08
5.50343558211e-06
5.31458122156e-06
4.61173582567e-06
3.8727044941e-06
3.22751139204e-06
2.67933116066e-06
2.21793599969e-06
1.85177618926e-06
1.61290699357e-06
1.48056916492e-06
1.40184976944e-06
1.33693681961e-06
1.25065174021e-06
1.11829323423e-06
9.30925245465e-07
6.9634702288e-07
4.6081156836e-07
2.83726027086e-07
1.77242230485e-07
1.16286639466e-07
5.27389662631e-06
5.25006707614e-06
4.63310338666e-06
3.90450820729e-06
3.24623573804e-06
2.68539221209e-06
2.21858124437e-06
1.85295529251e-06
1.60611221163e-06
1.4738996397e-06
1.41354914679e-06
1.37588798858e-06
1.31448896226e-06
1.19945018432e-06
1.02100883443e-06
7.85498505497e-07
5.40382160651e-07
3.43896719871e-07
2.179547404e-07
1.42063408657e-07
5.25935761027e-06
5.34117118946e-06
4.72434125386e-06
3.93808547955e-06
3.23303041216e-06
2.64408317254e-06
2.17100706257e-06
1.81773410255e-06
1.58515798079e-06
1.46675951602e-06
1.42730847693e-06
1.41293300144e-06
1.36933834964e-06
1.26504027466e-06
1.09141109624e-06
8.5874623453e-07
6.13694953492e-07
4.03919204011e-07
2.61311525043e-07
1.70608181807e-07
5.45245478854e-06
5.57507508751e-06
4.82212879924e-06
3.92792758914e-06
3.17440566583e-06
2.56371114739e-06
2.09380314131e-06
1.76169529432e-06
1.55689425515e-06
1.46701238929e-06
1.45426121941e-06
1.45924321578e-06
1.42473622243e-06
1.32048596776e-06
1.14245003016e-06
9.13018966047e-07
6.76221436109e-07
4.6092555328e-07
3.05752182178e-07
2.01029145213e-07
5.67286139463e-06
5.68957148201e-06
4.7906082738e-06
3.83309907636e-06
3.05844214287e-06
2.45196707941e-06
2.00226532104e-06
1.70037324257e-06
1.53523798177e-06
1.48497060057e-06
1.50222807985e-06
1.52038985218e-06
1.48227511309e-06
1.36358907749e-06
1.17608233667e-06
9.53968577672e-07
7.27163897779e-07
5.11499251118e-07
3.50639671795e-07
2.32777280241e-07
5.73230579255e-06
5.59168951145e-06
4.62054410213e-06
3.63284735765e-06
2.87939309247e-06
2.3153841105e-06
1.90897143485e-06
1.65294168038e-06
1.53768982548e-06
1.53202612389e-06
1.57482624164e-06
1.59131811479e-06
1.53005048856e-06
1.38805700423e-06
1.19624288507e-06
9.86430821391e-07
7.66222083366e-07
5.57014422328e-07
3.96331203592e-07
2.65415154718e-07
5.6523171685e-06
5.36154042345e-06
4.35443941738e-06
3.39423654421e-06
2.70482818696e-06
2.2021280323e-06
1.84923504646e-06
1.64624458459e-06
1.58336629956e-06
1.61544452073e-06
1.66387828957e-06
1.65241398015e-06
1.55479273629e-06
1.39540133128e-06
1.20852637812e-06
1.00807454825e-06
7.93405998658e-07
6.03040058245e-07
4.43044856288e-07
2.98153514348e-07
5.43280748927e-06
4.92323771356e-06
4.02990476947e-06
3.2000385551e-06
2.60492424588e-06
2.16477636772e-06
1.86210776386e-06
1.70811037147e-06
1.68490584468e-06
1.72679145301e-06
1.7443362545e-06
1.6845169394e-06
1.55549596244e-06
1.39123933269e-06
1.2096371769e-06
1.01109537888e-06
8.19325950695e-07
6.52609265821e-07
4.89995006886e-07
3.29615133238e-07
5.26290524237e-06
4.59395275314e-06
3.83875949809e-06
3.16235393244e-06
2.64487802966e-06
2.24680264094e-06
1.97772568612e-06
1.85050085644e-06
1.82868469858e-06
1.83143727348e-06
1.78840631578e-06
1.68292100197e-06
1.53692170821e-06
1.37057609353e-06
1.1869043464e-06
1.0078682155e-06
8.54279460209e-07
7.04890300506e-07
5.35430687946e-07
3.58186526692e-07
5.30155015237e-06
4.70131957229e-06
4.03641413065e-06
3.40524251247e-06
2.8756138952e-06
2.46318309435e-06
2.1889967711e-06
2.04341641179e-06
1.96696990561e-06
1.89333260805e-06
1.79049550139e-06
1.65525561449e-06
1.49693107448e-06
1.32356975299e-06
1.15650523518e-06
1.01881987308e-06
8.98547954023e-07
7.57354209192e-07
5.77397518573e-07
3.82822579207e-07
5.83885607098e-06
5.32810939868e-06
4.63289186921e-06
3.89014101766e-06
3.25240172858e-06
2.77931572062e-06
2.46570820574e-06
2.25825786538e-06
2.08832490211e-06
1.92629617493e-06
1.77015659659e-06
1.60898220685e-06
1.43932917222e-06
1.27833164989e-06
1.14771657408e-06
1.04723150451e-06
9.47740085341e-07
8.06975118152e-07
6.15115165341e-07
4.03669642634e-07
6.81498984531e-06
6.28272619074e-06
5.42100118524e-06
4.47219190669e-06
3.71168236882e-06
3.17381513885e-06
2.7992286417e-06
2.50207498964e-06
2.22018742093e-06
1.96333191504e-06
1.7519877589e-06
1.56922236599e-06
1.40155808722e-06
1.26363729334e-06
1.16342411948e-06
1.08694760369e-06
9.95705330377e-07
8.51245114535e-07
6.49097115654e-07
4.21753364818e-07
7.77457195231e-06
7.05898563099e-06
5.92301323716e-06
4.88116191661e-06
4.09776003445e-06
3.53045240648e-06
3.09993723316e-06
2.71892022126e-06
2.34203990948e-06
2.00943885091e-06
1.75482877073e-06
1.56167422348e-06
1.39746722088e-06
1.27190143549e-06
1.18737842009e-06
1.12215959637e-06
1.03389529459e-06
8.87655265024e-07
6.78591994865e-07
4.36640973704e-07
7.77796323522e-06
7.44896199224e-06
6.29050135805e-06
5.17907319192e-06
4.33219545417e-06
3.71982775127e-06
3.25394001053e-06
2.8327391164e-06
2.41336564758e-06
2.04749655056e-06
1.76875140277e-06
1.56674690063e-06
1.40104633129e-06
1.2775770079e-06
1.19672514008e-06
1.13566452294e-06
1.05238790682e-06
9.10473167938e-07
6.98913840932e-07
4.44914405937e-07
7.95457692933e-06
7.85151742183e-06
6.63270861071e-06
5.38685170953e-06
4.44379854699e-06
3.77791822366e-06
3.27850172707e-06
2.83698621648e-06
2.41900889958e-06
2.05793274973e-06
1.77524523945e-06
1.55949526309e-06
1.38927831881e-06
1.26467928423e-06
1.18329806425e-06
1.12544637485e-06
1.05080064556e-06
9.16478721134e-07
7.02727847195e-07
4.37187305178e-07
7.99232998429e-06
8.07376120117e-06
6.83648699152e-06
5.50579273567e-06
4.49844674904e-06
3.78913137502e-06
3.25010815364e-06
2.78680170252e-06
2.37665434999e-06
2.03270370706e-06
1.75922813142e-06
1.54221038972e-06
1.36982079006e-06
1.24314617826e-06
1.16060563512e-06
1.1041127247e-06
1.0338680524e-06
9.01007570692e-07
6.78528774534e-07
4.01967351783e-07
8.05732504074e-06
8.17757443909e-06
6.92578140665e-06
5.57935218601e-06
4.55524941512e-06
3.81421020162e-06
3.23322109441e-06
2.74990724933e-06
2.34596551922e-06
2.01455704713e-06
1.74643558495e-06
1.52635224266e-06
1.34953851696e-06
1.22115882672e-06
1.1383688008e-06
1.08054863529e-06
1.00526137243e-06
8.59255599674e-07
6.15920415872e-07
3.33051908866e-07
8.14779599632e-06
8.25410405704e-06
7.01411876338e-06
5.68957889091e-06
4.65972564831e-06
3.89197859059e-06
3.28476607297e-06
2.79084714424e-06
2.38506314173e-06
2.04323659733e-06
1.75234241038e-06
1.51302526098e-06
1.32770274923e-06
1.19884734443e-06
1.11757060345e-06
1.05528799517e-06
9.61771548059e-07
7.80955381775e-07
5.05575995582e-07
2.3534447395e-07
3.14135100995e-08
4.1261685216e-08
6.57709573303e-08
9.94044372913e-08
1.31513277138e-07
1.55716296496e-07
1.7185028441e-07
1.82693510824e-07
1.91055361049e-07
2.01035674397e-07
2.22112427599e-07
2.71821402996e-07
3.48448301953e-07
3.84150862076e-07
3.29428943588e-07
2.61415997693e-07
2.24639250103e-07
2.96012909828e-07
3.31897428976e-07
1.70171957712e-06
3.4496880167e-08
3.81556613629e-08
5.40635885282e-08
7.8856059241e-08
1.0607105976e-07
1.29788591775e-07
1.47399709543e-07
1.59871038543e-07
1.70268966197e-07
1.84278007632e-07
2.1465177173e-07
2.73431688538e-07
3.29005640362e-07
3.14205356634e-07
2.70852624108e-07
2.41441410373e-07
2.00023686496e-07
2.95715703927e-07
3.43522254491e-07
2.33674917432e-06
4.04448008032e-08
3.74995679078e-08
4.62116849373e-08
6.34480646991e-08
8.49194339904e-08
1.06534394102e-07
1.25420220511e-07
1.40174868936e-07
1.52705029931e-07
1.71151163937e-07
2.10172453629e-07
2.66918359135e-07
2.83836851482e-07
2.50933603696e-07
2.40165590422e-07
2.28651020302e-07
2.02370644295e-07
3.15218588886e-07
3.68078454371e-07
2.92452562388e-06
4.73876082751e-08
3.82822837758e-08
4.142915183e-08
5.29810840768e-08
6.96600395452e-08
8.8386503031e-08
1.07012202477e-07
1.24118392337e-07
1.40035083725e-07
1.63800112535e-07
2.07556528108e-07
2.47155018996e-07
2.30331105783e-07
2.15446878639e-07
2.15501160917e-07
1.95884401044e-07
2.09143562215e-07
3.39580562193e-07
5.35740119944e-07
3.21731518272e-06
5.20723523397e-08
3.88338954293e-08
3.84798496094e-08
4.63607224382e-08
5.9700502721e-08
7.61723820936e-08
9.40223082651e-08
1.12378082472e-07
1.3265835606e-07
1.63407870002e-07
2.06930413323e-07
2.18684351376e-07
1.91885133234e-07
2.03484014489e-07
1.99622710639e-07
1.39186160859e-07
2.0290751001e-07
3.46030586762e-07
1.17494109908e-06
3.32153716012e-06
5.2536512619e-08
3.81396605553e-08
3.64444896107e-08
4.25557410203e-08
5.4110200473e-08
6.93786156293e-08
8.69753751235e-08
1.06765160362e-07
1.3276805526e-07
1.71817263614e-07
2.05751075036e-07
1.90984060233e-07
1.80758204632e-07
2.04952442377e-07
2.00424184213e-07
8.97351119149e-08
1.77120557295e-07
4.62274141588e-07
2.78391037536e-06
3.39066442163e-06
4.92278490897e-08
3.63324593025e-08
3.50288073812e-08
4.09034780252e-08
5.21279167279e-08
6.74766914023e-08
8.60985965469e-08
1.09420851142e-07
1.43095304104e-07
1.82565736261e-07
1.926265631e-07
1.74434490637e-07
1.91363179291e-07
2.10900042752e-07
2.03095421586e-07
6.31243004207e-08
1.49599492759e-07
5.00651536367e-07
3.23437159768e-06
3.47337814272e-06
4.39794276438e-08
3.42027564165e-08
3.43864120418e-08
4.11690209879e-08
5.33929956641e-08
7.03136800044e-08
9.18644344978e-08
1.20997260984e-07
1.57618700211e-07
1.75853617112e-07
1.70848734853e-07
1.79336475358e-07
2.03942742181e-07
2.09427236925e-07
1.92088608736e-07
5.46472974717e-08
1.47600990943e-07
6.33654997201e-07
3.36571483317e-06
3.64467087272e-06
3.87282070988e-08
3.25874848599e-08
3.48326735009e-08
4.3444212044e-08
5.79215750102e-08
7.7849469682e-08
1.03892947985e-07
1.36596069256e-07
1.53145461042e-07
1.52186413493e-07
1.65253649342e-07
1.92665857231e-07
2.04222058715e-07
1.93608298386e-07
1.56841984747e-07
5.11111697892e-08
1.70801746899e-07
1.07724257449e-06
3.19723519184e-06
3.9739228532e-06
3.47777789689e-08
3.20601453805e-08
3.66999477532e-08
4.7964617789e-08
6.56719096261e-08
8.94017157004e-08
1.18667273443e-07
1.35517486364e-07
1.25041185166e-07
1.46910024175e-07
1.76003368286e-07
1.95171339655e-07
1.93974045399e-07
1.70784578247e-07
1.04643973288e-07
5.41816102523e-08
2.63449425843e-07
1.71434898565e-06
2.51613005714e-06
4.20970502506e-06
3.26860712169e-08
3.29296804969e-08
4.0233590487e-08
5.46636973241e-08
7.57896133297e-08
1.02145732869e-07
1.19226098886e-07
1.04569292334e-07
1.17712165596e-07
1.53588260355e-07
1.77330678808e-07
1.84650444407e-07
1.73958260652e-07
1.44494027404e-07
6.67061609002e-08
6.62639031701e-08
3.11523460254e-07
2.13667282858e-06
1.55603199382e-06
3.74952558473e-06
3.2529239746e-08
3.53073264318e-08
4.52961739744e-08
6.26162581935e-08
8.57674928785e-08
1.03900598408e-07
9.44930023693e-08
9.00461119625e-08
1.20154891128e-07
1.51108495107e-07
1.64936339005e-07
1.62515069384e-07
1.44264588676e-07
1.05355850245e-07
5.40870411336e-08
8.21565714799e-08
3.47832801553e-07
2.60057976726e-06
9.5409470367e-07
2.45241022378e-06
3.42150189358e-08
3.90048876618e-08
5.10445591821e-08
6.96950806115e-08
8.82295115353e-08
9.0204616076e-08
8.12184888999e-08
8.95785568262e-08
1.15785269926e-07
1.36728473328e-07
1.41648207039e-07
1.32442685351e-07
1.1127628144e-07
7.0805698082e-08
5.26699316899e-08
1.01399274552e-07
5.1911657742e-07
2.98916499207e-06
7.68318325674e-07
1.53195959108e-06
3.71180623628e-08
4.29009943258e-08
5.54921224847e-08
7.20340113236e-08
8.3259039844e-08
8.25055785124e-08
8.02704116918e-08
8.84234317605e-08
1.04714600468e-07
1.15539037277e-07
1.14046545511e-07
1.02217977083e-07
8.32818157301e-08
5.80374027002e-08
5.72720263932e-08
1.74288766382e-07
1.34676013166e-06
3.00236225361e-06
6.12386507875e-07
1.2181435002e-06
4.04310900667e-08
4.58253337416e-08
5.68969416689e-08
6.98568926847e-08
7.86057786644e-08
8.11379697071e-08
8.23553747943e-08
8.69060909959e-08
9.36877478935e-08
9.65336501302e-08
9.171683678e-08
8.17058440186e-08
6.68433306626e-08
5.34464838632e-08
7.9375759812e-08
4.96876476381e-07
2.01368564817e-06
2.81622279722e-06
4.66455671998e-07
1.08987788869e-06
4.38805166091e-08
4.74261895534e-08
5.57439653409e-08
6.59786365445e-08
7.48288986688e-08
8.05167052549e-08
8.40618644669e-08
8.69035093825e-08
8.83627361975e-08
8.62360696875e-08
7.97210909108e-08
6.94009683374e-08
5.54941661596e-08
5.53953650929e-08
2.35864145221e-07
1.29318171915e-06
2.01979105043e-06
2.61716021102e-06
4.12277627591e-07
9.21893380403e-07
4.77556638281e-08
4.84655304488e-08
5.38434696132e-08
6.18896615663e-08
7.05657566608e-08
7.79986892722e-08
8.34328766693e-08
8.68469058699e-08
8.72705401922e-08
8.28004248946e-08
7.21590708794e-08
5.81164945708e-08
5.18496070163e-08
1.74183867662e-07
8.48760585365e-07
1.34662199916e-06
1.98271736845e-06
2.45921607268e-06
3.62433079915e-07
7.01739037757e-07
5.27980203361e-08
5.00608502665e-08
5.25255842769e-08
5.83924848147e-08
6.60750676065e-08
7.38160578643e-08
8.01746417748e-08
8.45399943666e-08
8.59574247285e-08
8.08876375601e-08
6.74441298769e-08
7.78093527351e-08
1.72684917553e-07
6.79386027688e-07
8.77319562939e-07
1.32281825539e-06
1.96445506552e-06
2.4400067111e-06
3.34884743863e-07
4.48048619307e-07
5.9850217215e-08
5.30343179814e-08
5.24855088783e-08
5.61093083026e-08
6.23412593283e-08
6.94387461682e-08
7.56614432392e-08
8.00172091038e-08
8.21422545335e-08
7.88706587793e-08
1.0126134708e-07
3.31015057667e-07
5.99212113056e-07
6.79342133079e-07
8.32751737727e-07
1.27178182068e-06
1.96298165939e-06
7.85139777871e-07
3.53944391496e-07
3.95198096351e-07
6.95593913161e-08
5.77618361952e-08
5.39023566343e-08
5.52389358865e-08
5.98487863323e-08
6.57823999007e-08
7.10343825563e-08
7.4272715064e-08
7.56266757336e-08
7.36254697244e-08
1.47541360786e-07
5.45031353971e-07
5.81279102964e-07
6.19895934988e-07
7.6513123746e-07
1.20604199842e-06
1.97459635617e-06
4.41962497828e-07
4.15510585547e-07
6.44015764469e-07
8.19627259232e-08
6.41674065034e-08
5.66197876153e-08
5.55731753475e-08
5.84244059683e-08
6.27960476913e-08
6.63772565767e-08
6.77052496112e-08
6.73285698179e-08
6.52951820552e-08
1.33696364701e-07
4.95133389749e-07
5.2265618737e-07
5.54458028821e-07
6.96027945884e-07
1.22989273126e-06
2.06724076903e-06
3.18284094705e-07
4.63698332053e-07
1.75532137561e-06
9.66444219148e-08
7.19319245041e-08
6.03089319847e-08
5.67053622874e-08
5.75623549999e-08
5.99130878706e-08
6.12537110496e-08
6.04140916076e-08
5.84093867826e-08
5.64083098155e-08
1.06754442377e-07
4.23069158433e-07
4.5902307699e-07
4.92623715766e-07
6.92664543666e-07
1.36801366423e-06
1.18849285293e-06
3.31468485671e-07
4.78350998381e-07
5.55616585602e-06
1.13042009915e-07
8.06592840253e-08
6.45908265099e-08
5.8165252401e-08
5.66531925731e-08
5.64981983238e-08
5.53687596968e-08
5.27680125353e-08
4.99781606404e-08
4.84477953479e-08
7.41495595855e-08
3.01019975235e-07
3.77040454049e-07
4.45525687611e-07
7.99191170661e-07
1.53706032127e-06
2.71584124769e-07
3.31504401907e-07
4.89040694434e-07
5.80202587946e-06
1.30646547373e-07
8.99590084398e-08
6.90598210609e-08
5.94387981884e-08
5.50906809429e-08
5.2143961284e-08
4.88696988334e-08
4.53877645487e-08
4.2736282294e-08
4.17986671388e-08
5.66987455898e-08
1.35225045901e-07
2.60523882488e-07
4.48996199937e-07
9.70693175866e-07
3.36605407507e-07
2.83085409307e-07
3.40022373773e-07
5.10383166958e-07
5.9766880126e-06
1.49000516296e-07
9.94195926074e-08
7.32531888268e-08
5.99551621598e-08
5.23920599138e-08
4.68355588629e-08
4.22373181206e-08
3.8858098867e-08
3.69922024998e-08
3.62733261196e-08
3.79704801493e-08
5.76170660614e-08
1.66909147514e-07
4.74108580985e-07
3.74975191568e-07
2.41977675583e-07
2.86685829989e-07
3.66410378079e-07
5.30491854655e-07
6.08722053807e-06
1.67555763067e-07
1.0852445854e-07
7.65730278681e-08
5.91120761979e-08
4.83243105885e-08
4.09041700439e-08
3.60551536067e-08
3.36525633589e-08
3.25110292831e-08
3.14242789247e-08
3.10401877484e-08
4.42332378625e-08
1.21368350592e-07
2.011362003e-07
1.89477486526e-07
2.44269469729e-07
3.10971415341e-07
4.0226473846e-07
7.44713136034e-07
5.96404957002e-06
1.85483151031e-07
1.16481649202e-07
7.81759846445e-08
5.63286402628e-08
4.29167500045e-08
3.48123228881e-08
3.09211550146e-08
2.97655854667e-08
2.85560390622e-08
2.76902856984e-08
2.97356347099e-08
4.69690916494e-08
8.69176556193e-08
1.28672747432e-07
1.90374414117e-07
2.6153898146e-07
3.42380727192e-07
4.36844039778e-07
8.31398997171e-07
5.59683030465e-06
2.0158627584e-07
1.22082132523e-07
7.70197249178e-08
5.12008062195e-08
3.64799950638e-08
2.91621384307e-08
2.71487626834e-08
2.62984579315e-08
2.55715635951e-08
2.74357269279e-08
3.16572105574e-08
4.36245278535e-08
7.6270691903e-08
1.31536409099e-07
2.02566231534e-07
2.86108628778e-07
3.73863920618e-07
4.57929183578e-07
9.05518002474e-07
5.19579802452e-06
2.14444184934e-07
1.23964688932e-07
7.23160975328e-08
4.38998539351e-08
2.97760320721e-08
2.46507338617e-08
2.39471578115e-08
2.32491070567e-08
2.65128021579e-08
3.27558397964e-08
3.85788593164e-08
5.00465708584e-08
7.92470620121e-08
1.444462852e-07
2.23175966289e-07
3.08562743269e-07
3.93649528046e-07
4.6434567123e-07
9.34068681584e-07
4.87569326446e-06
2.23070793597e-07
1.21447608382e-07
6.43125680844e-08
3.55371692054e-08
2.38799441299e-08
2.12268624959e-08
2.08728701406e-08
2.31009294409e-08
3.25987287748e-08
3.91420947765e-08
4.44523763309e-08
5.7591519969e-08
9.08429256791e-08
1.6890767902e-07
2.43179016412e-07
3.21503102356e-07
3.98066098741e-07
4.62316076553e-07
9.86943438223e-07
4.67341031388e-06
2.27659829672e-07
1.15213406153e-07
5.45014081982e-08
2.77324393539e-08
1.94836874703e-08
1.85016295651e-08
1.92039195606e-08
2.68703848649e-08
3.80577775299e-08
4.54249415344e-08
5.7462895534e-08
7.69563327691e-08
1.18637873703e-07
1.96421648024e-07
2.54872881984e-07
3.21650381644e-07
3.92101344197e-07
4.54929588474e-07
1.22058482829e-06
4.55691835056e-06
2.29415802767e-07
1.07100528076e-07
4.50064768904e-08
2.16986597068e-08
1.65647670412e-08
1.62953928088e-08
1.87014938044e-08
2.92068511965e-08
4.22219016131e-08
5.77239141498e-08
8.12221014393e-08
1.11875561723e-07
1.5452099409e-07
2.16547865795e-07
2.5557949893e-07
3.06953582331e-07
3.79044685101e-07
4.44704451552e-07
1.94927040517e-06
4.43147798089e-06
2.28908148549e-07
9.88762947964e-08
3.7453566775e-08
1.76906400682e-08
1.46079548759e-08
1.41553946251e-08
1.80813891817e-08
2.88738738193e-08
4.54390125927e-08
7.14491210713e-08
1.07850864689e-07
1.46727310299e-07
1.83160797941e-07
2.25248023625e-07
2.49870984131e-07
2.83213603555e-07
3.6181018229e-07
5.94898807204e-07
2.86051980579e-06
4.23410639477e-06
2.24219763419e-07
8.99525681026e-08
3.20031179778e-08
1.53607827653e-08
1.2945364217e-08
1.21105639589e-08
1.68754978186e-08
2.76161239514e-08
4.57170898821e-08
7.5143030404e-08
1.15316804246e-07
1.5878041273e-07
1.94488938657e-07
2.23532223496e-07
2.4140710325e-07
2.64125705042e-07
3.43817410589e-07
6.25038716166e-07
3.03228449593e-06
4.01172135384e-06
2.08758017741e-07
7.75449040916e-08
2.67354613433e-08
1.37626111896e-08
1.11932525333e-08
1.05691122473e-08
1.58044649645e-08
2.67795475655e-08
4.35439993041e-08
6.80379296527e-08
1.03704043467e-07
1.49599306455e-07
1.893433283e-07
2.12854303378e-07
2.29759820999e-07
2.50754745277e-07
3.29980512633e-07
5.82371969563e-07
2.72472462362e-06
3.84361441404e-06
1.77180852471e-07
6.03951058144e-08
2.10522533899e-08
1.20316079566e-08
9.19991202445e-09
9.4457473714e-09
1.57883067745e-08
2.73813290496e-08
4.14799237286e-08
5.88070219082e-08
8.71510489343e-08
1.32188135143e-07
1.73346761555e-07
1.96445420347e-07
2.16004082237e-07
2.41000235804e-07
3.20088924483e-07
5.15475947728e-07
1.94573581342e-06
3.750415463e-06
1.30672467486e-07
4.12273811088e-08
1.56777306774e-08
1.000156804e-08
7.07530337292e-09
8.46436476415e-09
1.67572565227e-08
2.93908574822e-08
4.04989300866e-08
5.08989614983e-08
7.15489191202e-08
1.12780787775e-07
1.53512435698e-07
1.80579514139e-07
2.03881285854e-07
2.36291204016e-07
3.14762257355e-07
3.98518665629e-07
1.10600543931e-06
3.71482053601e-06
7.99382032575e-08
2.54614033642e-08
1.141249081e-08
7.24716047734e-09
)
;

boundaryField
{
    emptyPatch
    {
        type            empty;
    }
    minY
    {
        type            calculated;
        value           nonuniform List<scalar> 0();
    }
    maxY
    {
        type            calculated;
        value           nonuniform List<scalar> 0();
    }
    water_to_cooler
    {
        type            nutkWallFunction;
        blending        stepwise;
        value           uniform 0;
    }
    water_to_heater
    {
        type            nutkWallFunction;
        blending        stepwise;
        value           uniform 0;
    }
    procBoundary1to0
    {
        type            processor;
        value           nonuniform List<scalar> 
41
(
8.22401080475e-06
8.31396373016e-06
7.14567527728e-06
5.8589297437e-06
4.82019528798e-06
4.02731649207e-06
3.3997793382e-06
2.88793164252e-06
2.45282676883e-06
2.07367084314e-06
1.75102842702e-06
1.49120081231e-06
1.29989567792e-06
1.17473151349e-06
1.0960767434e-06
1.02146547165e-06
8.88594813612e-07
6.49320974309e-07
3.51747522137e-07
1.33062879282e-07
5.10011218075e-09
8.20473815029e-09
1.85143819666e-08
3.21837739324e-08
4.0440492498e-08
4.49744841331e-08
5.91279485381e-08
9.57364664612e-08
1.36771243136e-07
1.70350934553e-07
1.97108855109e-07
2.33644213549e-07
3.11688118262e-07
4.0181912081e-07
7.53399410034e-07
3.71506410525e-06
4.18528622104e-08
1.61305801099e-08
8.19806957653e-09
5.10011218075e-09
4.85080830803e-09
)
;
    }
    procBoundary1to3
    {
        type            processor;
        value           nonuniform List<scalar> 
41
(
1.65855749488e-06
1.49493507459e-06
1.38977179468e-06
1.28716071349e-06
1.11822847608e-06
8.75412950511e-07
6.16065182673e-07
3.86700726614e-07
2.09011849157e-07
1.02406069484e-07
5.47185232481e-08
3.54539138605e-08
2.85159656786e-08
5.09214170283e-06
4.40612286453e-06
3.63682056834e-06
3.01206777729e-06
2.57719699574e-06
2.25666290326e-06
1.98322217595e-06
1.98322217595e-06
3.09063807904e-08
4.66476694738e-08
8.06289524736e-08
1.22263435064e-07
1.58107300123e-07
1.82872311586e-07
1.97283074926e-07
2.04996983902e-07
2.10745822222e-07
2.18910238208e-07
2.35426012628e-07
2.73926714533e-07
3.4723480378e-07
4.30248578758e-07
4.36384380311e-07
3.34029770161e-07
2.63623052307e-07
3.12216341249e-07
3.31794147969e-07