/*--------------------------------*- C++ -*----------------------------------*\
| =========                 |                                                 |
| \\      /  F ield         | OpenFOAM: The Open Source CFD Toolbox           |
|  \\    /   O peration     | Version:  2312                                  |
|   \\  /    A nd           | Website:  www.openfoam.com                      |
|    \\/     M anipulation  |                                                 |
\*---------------------------------------------------------------------------*/
FoamFile
{
    version     2.0;
    format      ascii;
    arch        "LSB;label=32;scalar=64";
    class       surfaceScalarField;
    location    "0.11/water";
    object      phi;
}
// * * * * * * * * * * * * * * * * * * * * * * * * * * * * * * * * * * * * * //

dimensions      [0 3 -1 0 0 0 0];

oriented        oriented;

internalField   nonuniform List<scalar> 
11810
(
8.15429733577e-08
2.00622148824e-07
5.57227377425e-08
1.51149054562e-07
4.12241570108e-08
1.48177009273e-07
3.19120849314e-08
1.49944576218e-07
2.54116999611e-08
1.54125632587e-07
2.08349155362e-08
1.59500043598e-07
1.75808636019e-08
1.6583203394e-07
1.51659975314e-08
1.73025452441e-07
1.31735895918e-08
1.8103245245e-07
1.13771112197e-08
1.89682467744e-07
9.71409141381e-09
1.98832004138e-07
8.18622066416e-09
2.08438507049e-07
6.8045414755e-09
2.18515273404e-07
5.57405515948e-09
2.29092135795e-07
4.49085404699e-09
2.40202948462e-07
3.54345710066e-09
2.51881482611e-07
2.71542367763e-09
2.64160171431e-07
1.98788395069e-09
2.7707029212e-07
1.34113090771e-09
2.90642939745e-07
3.04911413798e-07
7.53924992458e-10
1.1898163882e-07
2.55460025177e-07
8.14613877385e-08
1.80508708455e-07
6.33033570643e-08
1.64700633184e-07
5.09794280645e-08
1.62026253603e-07
4.15847501588e-08
1.63487835229e-07
3.44357802059e-08
1.66645298846e-07
2.8932527733e-08
1.71334875203e-07
2.46795993525e-08
1.77278343361e-07
2.14191852297e-08
1.84292863941e-07
1.87838170225e-08
1.92317839429e-07
1.64733687685e-08
2.0114245282e-07
1.43356499533e-08
2.10576228743e-07
1.23189298004e-08
2.20531993966e-07
1.04177675696e-08
2.30993300392e-07
8.64152332779e-09
2.41979193045e-07
6.99863414485e-09
2.53524373755e-07
5.48988556123e-09
2.65668920362e-07
4.10669234986e-09
2.78453486967e-07
2.83138985373e-09
2.91918242598e-07
3.06105246863e-07
1.63755828238e-09
1.22702203072e-07
2.99964705404e-07
7.9467007014e-08
2.13358803225e-07
5.89077304279e-08
1.8306078121e-07
4.69713437518e-08
1.73585896592e-07
3.8715528423e-08
1.71687345863e-07
3.27757988681e-08
1.7257724542e-07
2.85731953653e-08
1.75536398383e-07
2.53330404599e-08
1.80518343367e-07
2.26368450269e-08
1.86989037473e-07
2.0329963939e-08
1.94624722972e-07
1.8255416884e-08
2.03216999894e-07
1.62940520225e-08
2.12537596683e-07
1.43804283721e-08
2.22445617815e-07
1.24914384423e-08
2.32882292832e-07
1.06301341764e-08
2.43840497604e-07
8.81109369522e-09
2.55343416283e-07
7.04934674785e-09
2.67430667659e-07
5.35330057385e-09
2.80149534823e-07
3.72104820416e-09
2.93550495315e-07
3.07686995279e-07
2.13930132676e-09
1.42781637996e-07
3.18989261178e-07
9.48084426573e-08
2.47101706248e-07
6.77162625286e-08
2.06620389345e-07
5.06358041213e-08
1.89973038579e-07
3.90225202432e-08
1.83187250598e-07
3.10068106278e-08
1.80576144184e-07
2.58912544105e-08
1.80649352582e-07
2.27717391164e-08
1.83637404838e-07
2.05918863075e-08
1.89168810172e-07
1.8809158643e-08
1.96407446328e-07
1.71850016388e-08
2.04841157219e-07
1.56074344527e-08
2.14115167391e-07
1.40210524627e-08
2.24032000276e-07
1.23995330457e-08
2.34503814979e-07
1.07365046447e-08
2.45503526387e-07
9.03914736268e-09
2.5704077574e-07
7.32112629627e-09
2.69148689094e-07
5.59574063505e-09
2.81874922218e-07
3.87065520184e-09
2.95275581094e-07
3.09412341511e-07
2.14531054891e-09
1.54701818358e-07
3.2288892319e-07
1.12868637843e-07
2.71929142028e-07
8.17456011077e-08
2.32601904224e-07
5.96868290978e-08
2.10802125066e-07
4.34974012033e-08
1.99136459316e-07
3.1968794471e-08
1.92064233572e-07
2.44839115123e-08
1.88127447223e-07
2.03221099855e-08
1.87797928667e-07
1.80405009138e-08
1.91450169855e-07
1.64861150124e-08
1.979618019e-07
1.51563128049e-08
2.06170957316e-07
1.38698289366e-08
2.15401654972e-07
1.25610150676e-08
2.25340814106e-07
1.1199845276e-08
2.35864987677e-07
9.77236118595e-09
2.46931010629e-07
8.2759031355e-09
2.58537236088e-07
6.71577997813e-09
2.7070881252e-07
5.10105106498e-09
2.83489652971e-07
3.44017962914e-09
2.96936452808e-07
3.11114275853e-07
1.73824695446e-09
1.6170412768e-07
3.18177525507e-07
1.29399981492e-07
2.86043964075e-07
9.92336246127e-08
2.56422248532e-07
7.44051853642e-08
2.33815629658e-07
5.38998256108e-08
2.19209775939e-07
3.76847992384e-08
2.08190771053e-07
2.61377152808e-08
1.99657212405e-07
1.93025556496e-08
1.94629471192e-07
1.5961599159e-08
1.9479037435e-07
1.42116652131e-08
1.99711623291e-07
1.29605908412e-08
2.07422023106e-07
1.1826531937e-08
2.16535718171e-07
1.06981809527e-08
2.26469165466e-07
9.53116618644e-09
2.37032005705e-07
8.30223265641e-09
2.4815994445e-07
6.99941952592e-09
2.59840051738e-07
5.6190092801e-09
2.7208922307e-07
4.16305996363e-09
2.84945604241e-07
2.63650391794e-09
2.98463009147e-07
3.12705876099e-07
1.04490542405e-09
1.59236580265e-07
3.16300900916e-07
1.33688064552e-07
2.93928761375e-07
1.09630639848e-07
2.73769158794e-07
8.58540929798e-08
2.55408078289e-07
6.43965492672e-08
2.40059793421e-07
4.53167448415e-08
2.27120583942e-07
2.98916644739e-08
2.15046282741e-07
1.94640498333e-08
2.05047933486e-07
1.40998920471e-08
2.00152316643e-07
1.17825735104e-08
2.02028554322e-07
1.0533674452e-08
2.08670884667e-07
9.53849792787e-09
2.17530898477e-07
8.58215886477e-09
2.27425504499e-07
7.59956963997e-09
2.38014598487e-07
6.56027222792e-09
2.49199241981e-07
5.44717304667e-09
2.6095315364e-07
4.25143266796e-09
2.73284963686e-07
2.97049012655e-09
2.86226548905e-07
1.60630683553e-09
2.99827192675e-07
3.14148419064e-07
1.63765759395e-10
1.52556897932e-07
3.22614684453e-07
1.28638958977e-07
3.01548593302e-07
1.09702675117e-07
2.86405127075e-07
8.99499548569e-08
2.72963414683e-07
7.02670901559e-08
2.59061604028e-07
5.13749734604e-08
2.45816860603e-07
3.40777055061e-08
2.32285805768e-07
2.04835000776e-08
2.18623475732e-07
1.23832931433e-08
2.08246792853e-07
9.01533321101e-09
2.05395263228e-07
7.75806296362e-09
2.09928005892e-07
6.99821924633e-09
2.18290741124e-07
6.28303406771e-09
2.28140690154e-07
5.52299146475e-09
2.38774645065e-07
4.69013602905e-09
2.50032097696e-07
3.77127806957e-09
2.6187201457e-07
2.75978353259e-09
2.74296458487e-07
1.6538598211e-09
2.87332474862e-07
4.55913473764e-10
3.01025139263e-07
3.15432296886e-07
-8.27962363998e-10
1.49309712356e-07
3.3251407184e-07
1.25853308907e-07
3.08791045744e-07
1.09126115694e-07
2.96967571566e-07
9.23941411102e-08
2.87514858235e-07
7.45544086826e-08
2.76187498183e-07
5.70243176686e-08
2.63121200119e-07
3.97251273052e-08
2.49507388313e-07
2.40391993986e-08
2.34278487613e-07
1.26837248752e-08
2.19590072528e-07
7.1273919315e-09
2.10948064898e-07
5.34050023123e-09
2.11714324852e-07
4.71005757284e-09
2.18921150852e-07
4.20076016697e-09
2.286499867e-07
3.62390582101e-09
2.39351503664e-07
2.95269942932e-09
2.50703303993e-07
2.18224265807e-09
2.62642474498e-07
1.3121989688e-09
2.7516650226e-07
3.44663844486e-10
2.88300012401e-07
-7.157088226e-10
3.02085512053e-07
3.16577017773e-07
-1.86042757546e-09
1.51466590779e-07
3.40235621127e-07
1.28842067213e-07
3.14307111437e-07
1.13608089245e-07
3.05755459408e-07
9.87220022623e-08
3.00125762082e-07
8.23988485212e-08
2.91750483099e-07
6.54743742567e-08
2.79793693294e-07
4.86398388567e-08
2.66247771394e-07
3.1871220919e-08
2.5100401529e-07
1.73269135198e-08
2.34113381756e-07
8.16025291709e-09
2.20106573066e-07
4.49653495771e-09
2.15376149041e-07
3.42626346789e-09
2.19991227857e-07
2.86506500582e-09
2.29211178585e-07
2.28457144876e-09
2.39932002028e-07
1.62332186221e-09
2.51364553681e-07
8.77040696269e-10
2.63388759148e-07
4.79165958852e-11
2.75995626473e-07
-8.60651118245e-10
2.89208582697e-07
-1.84292525649e-09
3.03067786319e-07
3.17625243205e-07
-2.89114842693e-09
1.56079406186e-07
3.43868670966e-07
1.35174099508e-07
3.17756240167e-07
1.21932331887e-07
3.12286902538e-07
1.09248440713e-07
3.10414426372e-07
9.43986437983e-08
3.05786315374e-07
7.78029516139e-08
2.96112986778e-07
6.08827658263e-08
2.83060728046e-07
4.35399436504e-08
2.68293578722e-07
2.6549245673e-08
2.51073709748e-07
1.3137426548e-08
2.33503127438e-07
5.93920964945e-09
2.22569271727e-07
3.38218873789e-09
2.22547406296e-07
2.35885907363e-09
2.30234456449e-07
1.53615812399e-09
2.40754707586e-07
7.03299785773e-10
2.52197411893e-07
-1.60563875586e-10
2.64252626563e-07
-1.05809352999e-09
2.76893156122e-07
-1.98907683116e-09
2.90139568798e-07
-2.95286748922e-09
3.04031577009e-07
3.18618588714e-07
-3.94621055321e-09
1.57873326162e-07
3.46385577953e-07
1.37860760941e-07
3.20339324896e-07
1.26766185428e-07
3.16588239457e-07
1.16976383462e-07
3.17731060465e-07
1.0490491968e-07
3.1699220056e-07
8.9798044194e-08
3.10911972228e-07
7.29369359065e-08
2.99797068085e-07
5.54709884114e-08
2.85694683829e-07
3.74412328754e-08
2.69063040965e-07
2.07774042918e-08
2.50142569571e-07
9.24132546985e-09
2.34094329962e-07
4.00842011789e-09
2.27777542067e-07
2.09287557557e-09
2.32149721526e-07
8.97389740168e-10
2.4195019198e-07
-1.87112852798e-10
2.53281914612e-07
-1.22628466553e-09
2.65291802502e-07
-2.23274790656e-09
2.77899619404e-07
-3.21404543464e-09
2.9112086931e-07
-4.17602736101e-09
3.04993558976e-07
3.19564361822e-07
-5.12179788561e-09
1.55250801538e-07
3.51694530166e-07
1.36243776287e-07
3.22948372773e-07
1.2661200824e-07
3.1993260852e-07
1.19052075249e-07
3.22996566367e-07
1.09575116201e-07
3.25652422095e-07
9.66207942918e-08
3.23567103094e-07
8.07291426385e-08
3.15561944814e-07
6.36462390899e-08
3.02707794738e-07
4.58166476954e-08
2.86845359412e-07
2.79366449983e-08
2.67989696406e-07
1.29958843468e-08
2.49016145355e-07
4.39487487928e-09
2.36371722497e-07
1.18300096114e-09
2.35360522702e-07
-3.41613606443e-10
2.43474765687e-07
-1.58825309816e-09
2.54528553703e-07
-2.72687984106e-09
2.6643043368e-07
-3.7798938988e-09
2.78952633365e-07
-4.75831996429e-09
2.92099298588e-07
-5.6723752303e-09
3.0590761417e-07
3.20421966883e-07
-6.52997751529e-09
1.5537909262e-07
3.57563927406e-07
1.36935149012e-07
3.25326726395e-07
1.27001813886e-07
3.23801671743e-07
1.1967849667e-07
3.28147412073e-07
1.10908979746e-07
3.33644606871e-07
9.9078786396e-08
3.35103220298e-07
8.42126639497e-08
3.30296524229e-07
6.76987112577e-08
3.19145394565e-07
5.04964853684e-08
3.03993107203e-07
3.2652614399e-08
2.85792353529e-07
1.59012148943e-08
2.65739517128e-07
4.09696945581e-09
2.48162619415e-07
-8.41379441634e-10
2.40295829267e-07
-2.60466470216e-09
2.45237849617e-07
-3.82919067825e-09
2.55753077261e-07
-4.90881208722e-09
2.67510059975e-07
-5.87812305526e-09
2.79921944298e-07
-6.74707785209e-09
2.92968256813e-07
-7.52573559314e-09
3.06686271848e-07
3.21119349184e-07
-8.22311495985e-09
1.55186415086e-07
3.63115557413e-07
1.36742070881e-07
3.27813351129e-07
1.26367951341e-07
3.28224358403e-07
1.18271920858e-07
3.34158915258e-07
1.09330539239e-07
3.41853690127e-07
9.80042320716e-08
3.46151241732e-07
8.41371670776e-08
3.44034689105e-07
6.8618288654e-08
3.34585081476e-07
5.24274265319e-08
3.20124181916e-07
3.51659614242e-08
3.03005345227e-07
1.76739870422e-08
2.83194197023e-07
3.34180091313e-09
2.62472863573e-07
-3.75980528184e-09
2.47390638153e-07
-5.82283891022e-09
2.47300206766e-07
-6.85805642398e-09
2.56788280743e-07
-7.722497153e-09
2.68374505959e-07
-8.47887269868e-09
2.80678319708e-07
-9.13259747328e-09
2.93621985277e-07
-9.6893673919e-09
3.07243041601e-07
3.21585592139e-07
-1.01556072035e-08
1.55944470935e-07
3.6840506108e-07
1.3671768723e-07
3.31000946127e-07
1.25734719991e-07
3.33227525969e-07
1.16581361013e-07
3.41226115184e-07
1.06673735336e-07
3.51034212037e-07
9.51680180918e-08
3.57379914355e-07
8.23480969548e-08
3.56722567951e-07
6.86570750026e-08
3.48191731335e-07
5.38868215393e-08
3.34828652513e-07
3.73014640566e-08
3.19534824061e-07
1.93673966875e-08
3.01081284699e-07
3.03755361473e-09
2.78770419583e-07
-6.67897147822e-09
2.57094366869e-07
-9.47182801509e-09
2.50091266418e-07
-1.02979853688e-08
2.5761438166e-07
-1.08763419803e-08
2.68952868114e-07
-1.13520576903e-08
2.81154035373e-07
-1.17310266203e-08
2.94000958138e-07
-1.20146309043e-08
3.07526645729e-07
3.21776880775e-07
-1.22059162254e-08
1.56212830151e-07
3.73175622219e-07
1.36213464025e-07
3.35008144066e-07
1.24537392846e-07
3.38925729368e-07
1.14190385679e-07
3.49485066604e-07
1.02904911702e-07
3.61598190909e-07
9.10807275191e-08
3.68931691877e-07
7.99059792464e-08
3.67766098813e-07
6.87502019336e-08
3.59261598006e-07
5.57571475831e-08
3.47752476145e-07
3.98492292668e-08
3.35380790408e-07
2.15737088843e-08
3.19300455092e-07
3.72804302461e-09
2.96572349712e-07
-8.72921214313e-09
2.69530458838e-07
-1.29980528912e-08
2.5435606486e-07
-1.37686244613e-08
2.58384757769e-07
-1.40624581816e-08
2.6924670623e-07
-1.42450881231e-08
2.81336665192e-07
-1.43358760502e-08
2.94091750278e-07
-1.43330098513e-08
3.07523779273e-07
3.21680374095e-07
-1.42364996418e-08
1.54987452159e-07
3.79842058931e-07
1.34281872065e-07
3.4033976347e-07
1.2106680781e-07
3.46462307387e-07
1.09096528729e-07
3.59468817581e-07
9.69073616012e-08
3.73094746876e-07
8.59845705104e-08
3.79588949232e-07
7.71553012384e-08
3.76465088254e-07
6.85305501213e-08
3.67799889369e-07
5.73167685148e-08
3.58894735952e-07
4.21302664663e-08
3.50499968249e-07
2.38470752571e-08
3.37518113501e-07
5.45252874555e-09
3.14910869427e-07
-9.17701403964e-09
2.8412832809e-07
-1.58231252532e-08
2.60994157757e-07
-1.69901379685e-08
2.59551158098e-07
-1.7058901049e-08
2.69315464322e-07
-1.69723092526e-08
2.81250073365e-07
-1.67939293311e-08
2.93913374843e-07
-1.65187638645e-08
3.0724861356e-07
3.21306009337e-07
-1.61443953928e-08
1.55882163248e-07
3.85213265349e-07
1.34272418648e-07
3.46502183729e-07
1.18173797009e-07
3.56922042381e-07
1.03917504246e-07
3.7180223767e-07
9.14166254904e-08
3.84934637603e-07
8.23062828203e-08
3.88444632371e-07
7.56422924014e-08
3.83002253531e-07
6.86241582219e-08
3.74732384696e-07
5.82118038587e-08
3.69233970098e-07
4.37433136699e-08
3.64896211413e-07
2.59200578676e-08
3.55267061942e-07
8.5596112011e-09
3.32203202229e-07
-7.10566971221e-09
2.99750322723e-07
-1.70583058134e-08
2.70932438612e-07
-1.96781985009e-08
2.62169250976e-07
-1.97388112039e-08
2.69376014156e-07
-1.94510110886e-08
2.80962272589e-07
-1.90459541763e-08
2.93508322726e-07
-1.85264514435e-08
3.06729110498e-07
3.20672229088e-07
-1.78926672656e-08
1.5591263711e-07
3.90335720574e-07
1.32575628437e-07
3.54158899001e-07
1.14726744152e-07
3.69079130935e-07
9.90367511353e-08
3.85588125512e-07
8.67194434063e-08
3.96612032778e-07
7.91106239798e-08
3.95809280638e-07
7.38519273924e-08
3.88138474957e-07
6.70841514985e-08
3.81415811975e-07
5.68952609339e-08
3.79347796805e-07
4.32453429227e-08
3.78469092251e-07
2.85618249979e-08
3.69867600911e-07
1.34994347001e-08
3.47188460324e-07
-2.29049528682e-09
3.15486340172e-07
-1.60429036402e-08
2.84661412096e-07
-2.17416672456e-08
2.67863151533e-07
-2.22566924266e-08
2.69890684495e-07
-2.18164497991e-08
2.80522023507e-07
-2.119233837e-08
2.92884216437e-07
-2.04257500178e-08
3.0596252187e-07
3.19773657782e-07
-1.95271745687e-08
1.55253950973e-07
3.96033768283e-07
1.30018574401e-07
3.63603017773e-07
1.11462857316e-07
3.81884772762e-07
9.5271151969e-08
3.99852373783e-07
8.31919576711e-08
4.08050061569e-07
7.60291278878e-08
4.02731085555e-07
7.07237724975e-08
3.93323613969e-07
6.33626640896e-08
3.886926412e-07
5.32675279854e-08
3.89366292025e-07
4.14055860514e-08
3.90249405249e-07
3.00285027751e-08
3.81161069976e-07
1.80958322561e-08
3.59041355187e-07
3.1696913246e-09
3.30350871892e-07
-1.35901670638e-08
3.01386470514e-07
-2.35700998573e-08
2.77831618047e-07
-2.51237249588e-08
2.71442833835e-07
-2.44152538443e-08
2.79813508207e-07
-2.34501137642e-08
2.91919081788e-07
-2.23508313875e-08
3.04863239241e-07
3.18553601948e-07
-2.11307711699e-08
1.53757438187e-07
4.03480700102e-07
1.26411227932e-07
3.75228978231e-07
1.07247761888e-07
3.95284805516e-07
9.12533246899e-08
4.13888531781e-07
7.9915257273e-08
4.18733331676e-07
7.28517938534e-08
4.0955083666e-07
6.67148660183e-08
3.99340534794e-07
5.91003892458e-08
3.96222475289e-07
4.95004444628e-08
3.98887578015e-07
4.00769187179e-08
3.99591285981e-07
3.07939131815e-08
3.90360289112e-07
2.15386787089e-08
3.68215671605e-07
7.64783235233e-09
3.4417422565e-07
-1.09665450198e-08
3.19952900846e-07
-2.51480496823e-08
2.91990055068e-07
-2.83254263067e-08
2.74615619647e-07
-2.72458511927e-08
2.7873373365e-07
-2.5805867858e-08
2.90479103444e-07
-2.4285286829e-08
3.03342658067e-07
3.16958794878e-07
-2.269047514e-08
1.49480730723e-07
4.15196484496e-07
1.19010668133e-07
3.90676892502e-07
9.87497701199e-08
4.10198081044e-07
8.36512516175e-08
4.2716785562e-07
7.3999107519e-08
4.27767612005e-07
6.7647508772e-08
4.15669569243e-07
6.14390189853e-08
4.05432783165e-07
5.38913792187e-08
4.03686173645e-07
4.57034094777e-08
4.06995643585e-07
3.82977807826e-08
4.06914517402e-07
3.21329908572e-08
3.96440735724e-07
2.45339666914e-08
3.757353134e-07
1.04397150946e-08
3.58196728319e-07
-9.42739133255e-09
3.39757781157e-07
-2.60947333735e-08
3.08618232396e-07
-3.09892087829e-08
2.79499642123e-07
-2.97445927749e-08
2.77488521618e-07
-2.78879216837e-08
2.88622434645e-07
-2.59879929753e-08
3.01442729264e-07
3.15025570254e-07
-2.4054763485e-08
1.47407055089e-07
4.28540054381e-07
1.14370609214e-07
4.08610034804e-07
9.19330072425e-08
4.27412426647e-07
7.67208104279e-08
4.40664221059e-07
6.78976704516e-08
4.360129084e-07
6.19336075009e-08
4.21412883666e-07
5.586660919e-08
4.11387089869e-07
4.87012477494e-08
4.10767864663e-07
4.23028472187e-08
4.13314483048e-07
3.78186071139e-08
4.11317329939e-07
3.50273048752e-08
3.99151278539e-07
2.74221826774e-08
3.83263839975e-07
1.14994374116e-08
3.74041851435e-07
-9.17840589665e-09
3.60357215543e-07
-2.57724497598e-08
3.2515562605e-07
-3.22802686376e-08
2.85989593068e-07
-3.14324007195e-08
2.76639350923e-07
-2.93705031565e-08
2.86560530532e-07
-2.72377245112e-08
2.99309950677e-07
3.12866814749e-07
-2.50789638503e-08
1.43566249249e-07
4.45439340739e-07
1.10615083695e-07
4.25771215265e-07
8.89278679455e-08
4.43608363274e-07
7.4298134501e-08
4.53517030494e-07
6.52329990883e-08
4.4449107403e-07
5.86771505541e-08
4.27746341256e-07
5.22779055106e-08
4.17672684296e-07
4.61363124123e-08
4.16824546825e-07
4.17481261858e-08
4.17622707493e-07
4.01128013405e-08
4.12873068885e-07
3.85300196296e-08
4.00658018721e-07
3.04143700597e-08
3.91301557467e-07
1.3160955838e-08
3.91206813265e-07
-6.44856145349e-09
3.79875218078e-07
-2.24192186894e-08
3.41056621173e-07
-3.16147373356e-08
2.95159481923e-07
-3.22271985215e-08
2.77249189536e-07
-3.02314917143e-08
2.8456478097e-07
-2.80120122365e-08
2.97090471275e-07
3.10597699433e-07
-2.57428914748e-08
1.46342831691e-07
4.59145576946e-07
1.16548749338e-07
4.38492203564e-07
9.82877967002e-08
4.55723085904e-07
8.40884218383e-08
4.65653067112e-07
7.23567510765e-08
4.55547624193e-07
6.29516132817e-08
4.3690675182e-07
5.50091248577e-08
4.25495142356e-07
4.91473719519e-08
4.22598902155e-07
4.60168419997e-08
4.20673112257e-07
4.50412665616e-08
4.13772096254e-07
4.07814630176e-08
4.04845588895e-07
3.06000048481e-08
4.01403223665e-07
1.69795614151e-08
4.04733461652e-07
2.24373667903e-09
3.94505322851e-07
-1.44644580917e-08
3.57679124222e-07
-2.8338208346e-08
3.08996421043e-07
-3.22400822981e-08
2.81145293859e-07
-3.06936258395e-08
2.83018096472e-07
-2.84506311834e-08
2.94847474859e-07
3.08273176242e-07
-2.61261021882e-08
1.55067486731e-07
4.6437259427e-07
1.288262849e-07
4.46646427601e-07
1.14494241151e-07
4.63154423795e-07
1.0122018244e-07
4.76476005761e-07
8.67892557928e-08
4.69147606412e-07
7.41103562702e-08
4.49289380902e-07
6.43461661867e-08
4.35121998786e-07
5.80871479123e-08
4.28764176501e-07
5.49197731376e-08
4.23759400205e-07
5.20785303348e-08
4.16539345774e-07
4.52065748322e-08
4.11642766639e-07
3.2975364941e-08
4.13551887747e-07
2.29759183955e-08
4.14628720839e-07
1.24786137287e-08
4.04893398348e-07
-4.14262148796e-09
3.74209770117e-07
-2.23333834506e-08
3.27136306727e-07
-3.1321624113e-08
2.90120448055e-07
-3.09228507753e-08
2.82618228144e-07
-2.863708988e-08
2.92561693204e-07
3.05892588951e-07
-2.62564964331e-08
1.5508224647e-07
4.69112177833e-07
1.31860293806e-07
4.52248303185e-07
1.21547096668e-07
4.66661924548e-07
1.11521264341e-07
4.84007116627e-07
9.84312981072e-08
4.81365498707e-07
8.56320723589e-08
4.61774686602e-07
7.57099324664e-08
4.44901874794e-07
6.93519949073e-08
4.35028031416e-07
6.53449834467e-08
4.27687002124e-07
5.95867438235e-08
4.22224037254e-07
5.17811149481e-08
4.19374484004e-07
4.12885776137e-08
4.23955221286e-07
3.17057149117e-08
4.24114770233e-07
2.20519646792e-08
4.14447071068e-07
6.55620174606e-09
3.89602042315e-07
-1.32633246481e-08
3.46884830048e-07
-2.78554564455e-08
3.04684714051e-07
-3.01935062353e-08
2.8495207746e-07
-2.82070041561e-08
2.90575046727e-07
3.03619238005e-07
-2.59336471745e-08
1.58712223835e-07
4.71112406823e-07
1.37687060156e-07
4.55497485638e-07
1.27757785102e-07
4.69721277694e-07
1.18846266029e-07
4.90369835847e-07
1.07717727198e-07
4.91571963738e-07
9.65953913574e-08
4.72548012435e-07
8.74984852927e-08
4.53837027208e-07
8.08106121012e-08
4.41613330446e-07
7.53444336385e-08
4.33071618732e-07
6.75293667045e-08
4.2996554385e-07
5.86250078442e-08
4.28203322696e-07
4.8781061516e-08
4.3371274839e-07
3.87459253039e-08
4.34048101897e-07
2.87797783137e-08
4.24299819812e-07
1.53455026306e-08
4.02928244945e-07
-3.56158968497e-09
3.65704116602e-07
-2.15836520984e-08
3.22658792116e-07
-2.79126069831e-08
2.91269445601e-07
-2.69617739406e-08
2.89623548703e-07
3.01764647345e-07
-2.51071815771e-08
1.58563326441e-07
4.7197700509e-07
1.39797118741e-07
4.5645717568e-07
1.30599818554e-07
4.72083497801e-07
1.23346940368e-07
4.95109050203e-07
1.14499175236e-07
4.99512065795e-07
1.05571564757e-07
4.81130925521e-07
9.7617956377e-08
4.61629838258e-07
9.06407002907e-08
4.4848851893e-07
8.36506948878e-08
4.39980918329e-07
7.48821844655e-08
4.38656411795e-07
6.49857689784e-08
4.3802082869e-07
5.4058752663e-08
4.44548914781e-07
4.38033176832e-08
4.44198461373e-07
3.36603250116e-08
4.3433715235e-07
2.11517984395e-08
4.1532641617e-07
2.75554114304e-09
3.84001871304e-07
-1.60509552227e-08
3.41398460956e-07
-2.54046723756e-08
3.00600441901e-07
-2.57629196143e-08
2.89979788343e-07
3.00361869951e-07
-2.4360160806e-08
1.60675926853e-07
4.72136729162e-07
1.43395283952e-07
4.5571958879e-07
1.34293127248e-07
4.74177774186e-07
1.27914381213e-07
4.9890153015e-07
1.20975073698e-07
5.05504008914e-07
1.13678725552e-07
4.88057868513e-07
1.06463385454e-07
4.68670334015e-07
9.92995719427e-08
4.55542638109e-07
9.11762954565e-08
4.48018811e-07
8.1884421021e-08
4.47870039749e-07
7.03324310571e-08
4.49494977203e-07
5.9203217119e-08
4.55584311731e-07
5.05646877304e-08
4.52733393003e-07
4.17037437074e-08
4.43088550972e-07
2.74413019047e-08
4.29478796514e-07
6.41045415688e-09
4.04927021744e-07
-1.36875960697e-08
3.61414990967e-07
-2.46403083239e-08
3.11519033067e-07
-2.58165833367e-08
2.91151872326e-07
2.98972661035e-07
-2.4427448423e-08
1.60771932471e-07
4.71014575896e-07
1.45481739145e-07
4.53004027228e-07
1.37108202505e-07
4.75466052902e-07
1.31976169666e-07
5.01426363354e-07
1.27284016101e-07
5.09249244351e-07
1.21664960332e-07
4.93313608897e-07
1.15282108598e-07
4.74883153724e-07
1.08097420447e-07
4.62620635164e-07
9.93568591158e-08
4.5667557662e-07
8.9095016481e-08
4.58051975524e-07
7.69625288061e-08
4.61541126174e-07
6.78294250983e-08
4.64621251236e-07
6.22251913035e-08
4.58235815185e-07
5.40169460974e-08
4.51192858133e-07
3.62401257304e-08
4.47144535056e-07
1.10898193979e-08
4.29959122371e-07
-1.13663986717e-08
3.83773915285e-07
-2.48007084954e-08
3.24907765558e-07
-2.68908446507e-08
2.93234778223e-07
2.9717705242e-07
-2.50954331647e-08
1.59182119965e-07
4.73501254105e-07
1.44009491676e-07
4.50968096456e-07
1.36873950867e-07
4.75866750532e-07
1.34182385666e-07
5.01589172295e-07
1.32480793898e-07
5.0999737119e-07
1.29016725585e-07
4.96396599456e-07
1.23745327457e-07
4.79972072358e-07
1.16698789042e-07
4.69552621715e-07
1.07375205438e-07
4.65908493853e-07
9.62954912565e-08
4.69044923073e-07
8.62876954665e-08
4.71459592903e-07
8.07648777426e-08
4.70049284794e-07
7.61940235378e-08
4.62712012635e-07
6.5194425996e-08
4.62091453275e-07
4.72532859614e-08
4.64953392233e-07
2.48165301086e-08
4.52260584686e-07
-1.66208784414e-09
4.10140100903e-07
-2.18126641139e-08
3.44998468159e-07
-2.69615991513e-08
2.98371141343e-07
2.95233258498e-07
-2.50183360763e-08
1.59048696002e-07
4.74712834298e-07
1.44523071582e-07
4.48656316434e-07
1.38392542163e-07
4.75564534961e-07
1.37268634276e-07
5.00322707158e-07
1.37593925425e-07
5.08769979407e-07
1.35709204037e-07
4.97917818017e-07
1.30993058552e-07
4.84511808063e-07
1.23641674301e-07
4.76790776178e-07
1.13739148155e-07
4.75718165068e-07
1.04051012416e-07
4.78642188287e-07
9.67354914211e-08
4.78683373338e-07
9.3157518993e-08
4.7353636562e-07
8.64261089227e-08
4.6935106344e-07
6.97827423884e-08
4.78613846968e-07
5.59344874772e-08
4.78680754808e-07
4.17140705217e-08
4.66348832288e-07
1.47558806449e-08
4.36963309282e-07
-1.24101773912e-08
3.72078145064e-07
-2.37632981209e-08
3.09699753749e-07
2.94336130898e-07
-2.28677497733e-08
1.59103373231e-07
4.77199137255e-07
1.44069598676e-07
4.46921002201e-07
1.38757318993e-07
4.74510108806e-07
1.38422040392e-07
4.9830569928e-07
1.39570021457e-07
5.0673061218e-07
1.38392729441e-07
4.98728542443e-07
1.33766536236e-07
4.88955403292e-07
1.2611168872e-07
4.8432580707e-07
1.16955458034e-07
4.8477390188e-07
1.09626288975e-07
4.85875425826e-07
1.04741891056e-07
4.83474262407e-07
9.98892528465e-08
4.78301245519e-07
8.97899682304e-08
4.7935422043e-07
7.45548844221e-08
4.93745253661e-07
6.37409625481e-08
4.89360093106e-07
5.18635887649e-08
4.78077004327e-07
3.15668684171e-08
4.57108845134e-07
2.74657991427e-09
4.00777257365e-07
-1.57901534485e-08
3.28190259525e-07
2.96511810366e-07
-1.79703208917e-08
1.57527732006e-07
4.80321201631e-07
1.41748926526e-07
4.45986301202e-07
1.36893211267e-07
4.73066021052e-07
1.3654041829e-07
4.96357892863e-07
1.3723556463e-07
5.05180972855e-07
1.3566932252e-07
4.99947382094e-07
1.3072193953e-07
4.93727118841e-07
1.23366569571e-07
4.91561680608e-07
1.15903722462e-07
4.92134676456e-07
1.10354723936e-07
4.91328712607e-07
1.06552142592e-07
4.87187632513e-07
9.96947083395e-08
4.85074196437e-07
8.47202254928e-08
4.94241966329e-07
7.42651076711e-08
5.04054200621e-07
6.3958197312e-08
4.99523811801e-07
5.27359451186e-08
4.89159148213e-07
3.90586392927e-08
4.7062695152e-07
1.4442750288e-08
4.25257252134e-07
-6.5597103952e-09
3.49121452744e-07
3.02118383258e-07
-1.21765404945e-08
1.55966052038e-07
4.86079672917e-07
1.3855756944e-07
4.4673861408e-07
1.32947814536e-07
4.72355894067e-07
1.31590014457e-07
4.95410382446e-07
1.30910462096e-07
5.05013091796e-07
1.2821941915e-07
5.02296699321e-07
1.22831692839e-07
4.9894023515e-07
1.16102232607e-07
4.98170389853e-07
1.10214667207e-07
4.97919194822e-07
1.06261812471e-07
4.95187464181e-07
1.00998756193e-07
4.92365694149e-07
9.38233565658e-08
4.92162695434e-07
7.78362690524e-08
5.10100538104e-07
6.84759050298e-08
5.13293478946e-07
5.91479809404e-08
5.08722450698e-07
4.91730038531e-08
4.98982508317e-07
3.76287656385e-08
4.82025981755e-07
1.83810153466e-08
4.44348191491e-07
-1.60715067327e-10
3.67567616186e-07
3.09772253494e-07
-7.83298811323e-09
1.51010950328e-07
4.96704187035e-07
1.31185045029e-07
4.50861319802e-07
1.23662411496e-07
4.7407229031e-07
1.20620780071e-07
4.96346737653e-07
1.183011205e-07
5.06557872422e-07
1.14617999553e-07
5.05665218312e-07
1.09363076005e-07
5.04030292635e-07
1.03854112943e-07
5.03561737002e-07
9.97807710449e-08
5.0189155753e-07
9.61960236556e-08
4.98681883101e-07
8.90906291455e-08
4.99384273416e-07
8.03866882721e-08
5.00776778571e-07
6.68667446863e-08
5.23514857493e-07
5.79466571273e-08
5.22074406795e-07
4.94340456482e-08
5.17085937318e-07
4.05770972521e-08
5.07696524323e-07
3.06067228473e-08
4.91829945807e-07
1.59032363791e-08
4.58893700626e-07
1.69970545443e-09
3.81661665149e-07
3.17704194431e-07
-6.25866441025e-09
1.51160822589e-07
5.07031536973e-07
1.28893163347e-07
4.57507130424e-07
1.17204113014e-07
4.80165486924e-07
1.0963814118e-07
5.01970604767e-07
1.03486074249e-07
5.12013074165e-07
9.78413318581e-08
5.1102713766e-07
9.26052725709e-08
5.09114254694e-07
8.85579815866e-08
5.07497763964e-07
8.5693616316e-08
5.04660989118e-07
8.01295130245e-08
5.04161011516e-07
7.26463478596e-08
5.06780888863e-07
6.10447830423e-08
5.12287402031e-07
5.07528940383e-08
5.33662824132e-07
4.28270507793e-08
5.29866657041e-07
3.55664203969e-08
5.24211803088e-07
2.81334372367e-08
5.14973454329e-07
1.99959593188e-08
4.99816915264e-07
9.51260977764e-09
4.69206650383e-07
-6.13020269091e-10
3.9166678643e-07
3.24836351242e-07
-7.77870050142e-09
1.53016885676e-07
5.14679504634e-07
1.28858230899e-07
4.65524635714e-07
1.13841667771e-07
4.89470658061e-07
1.01507376329e-07
5.12399938264e-07
9.07881651598e-08
5.22077276034e-07
8.24378589726e-08
5.19115458078e-07
7.64775606436e-08
5.14932018817e-07
7.25343937129e-08
5.11336316036e-07
6.87652834458e-08
5.08341584427e-07
6.15838736965e-08
5.11257615606e-07
5.380883503e-08
5.14469840011e-07
3.88172321852e-08
5.27174322198e-07
3.10710306129e-08
5.41289985246e-07
2.4761051533e-08
5.36045518202e-07
1.94284699869e-08
5.29396529347e-07
1.39564113624e-08
5.20299339191e-07
7.90065317275e-09
5.05702605076e-07
1.1887801952e-09
4.7575158878e-07
-5.84694200725e-09
3.98578165913e-07
3.3086236505e-07
-1.19123067468e-08
1.55322080166e-07
5.19762793421e-07
1.30261962112e-07
4.73939944055e-07
1.13059159711e-07
5.00704946171e-07
9.6477299393e-08
5.2701914221e-07
8.1237884384e-08
5.36670810241e-07
7.02860844052e-08
5.29816519719e-07
6.28543931876e-08
5.2222730087e-07
5.70973436078e-08