/*--------------------------------*- C++ -*----------------------------------*\
| =========                 |                                                 |
| \\      /  F ield         | OpenFOAM: The Open Source CFD Toolbox           |
|  \\    /   O peration     | Version:  2312                                  |
|   \\  /    A nd           | Website:  www.openfoam.com                      |
|    \\/     M anipulation  |                                                 |
\*---------------------------------------------------------------------------*/
FoamFile
{
    version     2.0;
    format      ascii;
    arch        "LSB;label=32;scalar=64";
    class       surfaceScalarField;
    location    "0.465/water";
    object      phi;
}
// * * * * * * * * * * * * * * * * * * * * * * * * * * * * * * * * * * * * * //

dimensions      [0 3 -1 0 0 0 0];

oriented        oriented;

internalField   nonuniform List<scalar> 
2929
(
1.34519680051e-07
7.27623110686e-07
1.01838854678e-07
8.58332558825e-07
9.17574441252e-08
6.54979188573e-07
1.08085733184e-07
5.59424829815e-07
1.22201755529e-07
4.98370860424e-07
1.30615246913e-07
4.64479200919e-07
1.33389087781e-07
4.50502009512e-07
1.31074032601e-07
4.49112465574e-07
1.25043918197e-07
4.56240689897e-07
1.17855701276e-07
4.64391833907e-07
1.10101108399e-07
4.68748613056e-07
1.01418288346e-07
4.68292958176e-07
9.08108763199e-08
4.64859201815e-07
7.78037632918e-08
4.66796742457e-07
6.41098845527e-08
4.77072560047e-07
4.85474461765e-08
4.76018733637e-07
3.14383513699e-08
4.61320144e-07
1.17549274587e-08
4.23961509789e-07
-6.0165422343e-09
3.71619716848e-07
3.28189417422e-07
-1.63805272768e-08
1.59136261635e-07
7.15151586819e-07
1.53845681568e-07
8.48533372246e-07
1.50230687352e-07
6.52629001521e-07
1.55919442992e-07
5.51025235285e-07
1.61970320819e-07
4.91099722648e-07
1.6486090787e-07
4.61016361738e-07
1.63504838153e-07
4.5154289949e-07
1.57686664845e-07
4.5471494629e-07
1.49099367995e-07
4.64637187934e-07
1.4001366129e-07
4.73282934616e-07
1.30474925982e-07
4.7808220358e-07
1.20127793712e-07
4.78421143395e-07
1.07931012242e-07
4.76820704906e-07
9.37615473655e-08
4.80698369625e-07
7.97167975869e-08
4.90799013813e-07
6.31492138056e-08
4.92238299802e-07
4.32134920202e-08
4.8089001354e-07
1.93823519201e-08
4.47444403048e-07
-1.9390121889e-09
3.92687581109e-07
3.40964065236e-07
-1.48188479697e-08
1.48274583498e-07
7.17155410008e-07
1.78355359391e-07
8.0355638242e-07
1.8796942526e-07
6.33940124339e-07
1.93262239343e-07
5.41580097674e-07
1.96217262167e-07
4.86434926638e-07
1.95690859793e-07
4.60835399314e-07
1.90992700587e-07
4.55899523569e-07
1.81981783864e-07
4.63506433386e-07
1.71238437307e-07
4.75186164428e-07
1.60280478414e-07
4.84044885585e-07
1.48858668177e-07
4.89296833616e-07
1.36687686356e-07
4.90370161611e-07
1.23068509637e-07
4.90199550788e-07
1.08392117141e-07
4.95104400283e-07
9.44027287843e-08
5.04478907052e-07
7.73814633986e-08
5.08920998958e-07
5.39642847203e-08
5.03943342549e-07
2.57665797048e-08
4.75279820583e-07
9.46790812377e-10
4.17224954078e-07
3.56343519565e-07
-1.45615210261e-08
1.13858049581e-07
7.53489541386e-07
1.89406864061e-07
7.05562150004e-07
2.09098585972e-07
6.02177025984e-07
2.19278613486e-07
5.26121350462e-07
2.22589918806e-07
4.810246586e-07
2.20035832837e-07
4.62572798319e-07
2.12169238166e-07
4.63403146025e-07
2.00316902185e-07
4.75131981493e-07
1.87860706597e-07
4.87444782732e-07
1.75125475619e-07
4.96582365142e-07
1.62006488715e-07
5.02204042109e-07
1.4848071958e-07
5.03668617026e-07
1.34142904553e-07
5.04292863268e-07
1.19549647694e-07
5.09430068113e-07
1.05713186476e-07
5.18022507397e-07
8.77313798692e-08
5.2658000169e-07
6.09866172256e-08
5.30322656634e-07
2.91515230877e-08
5.06736845758e-07
1.32955634588e-09
4.44737488511e-07
3.74188023315e-07
-1.66662717973e-08
1.59357396849e-07
7.42406161634e-07
1.91813880664e-07
6.49629095975e-07
2.17421994739e-07
5.64490834844e-07
2.3292330708e-07
5.05303498237e-07
2.37602271359e-07
4.7423405766e-07
2.33384024011e-07
4.65979456568e-07
2.22276427296e-07
4.74152530888e-07
2.08647031916e-07
4.88530180881e-07
1.95088718735e-07
5.00801920502e-07
1.81060725396e-07
5.10406311682e-07
1.6719724756e-07
5.15849968487e-07
1.53291715618e-07
5.17344518942e-07
1.39204530856e-07
5.18137785198e-07
1.25537351839e-07
5.2283980613e-07
1.11365529774e-07
5.31922551076e-07
9.1426961969e-08
5.46208819451e-07
6.2669674311e-08
5.5870841431e-07
2.88380339853e-08
5.40175353625e-07
-1.32501260882e-09
4.74568261838e-07
3.94527921274e-07
-2.18372011475e-08
1.69796257646e-07
7.17778763711e-07
2.00294348128e-07
5.95448435985e-07
2.2600691476e-07
5.27229764886e-07
2.41202790001e-07
4.85223001045e-07
2.43573390053e-07
4.69977780078e-07
2.34805084373e-07
4.74028438439e-07
2.20173797379e-07
4.88443809754e-07
2.05519558631e-07
5.02952703625e-07
1.91024686523e-07
5.15091414776e-07
1.76636717842e-07
5.2458516136e-07
1.62934755279e-07
5.29334392601e-07
1.49669714984e-07
5.30383990703e-07
1.36792773854e-07
5.30782032286e-07
1.24081437463e-07
5.35311777745e-07
1.0882871088e-07
5.46920576428e-07
8.68095930724e-08
5.67920644587e-07
5.83646131217e-08
5.86775772232e-07
2.47477303467e-08
5.73389590528e-07
-7.43760023999e-09
5.0640473454e-07
4.17546360271e-07
-3.06487739836e-08
1.69859390425e-07
6.95871250882e-07
2.02814022171e-07
5.39844493431e-07
2.2705687609e-07
4.9237482458e-07
2.37537826993e-07
4.70513456047e-07
2.32791020622e-07
4.73181119905e-07
2.18295695345e-07
4.87911354826e-07
2.02094967451e-07
5.04323216726e-07
1.87431588185e-07
5.17393079707e-07
1.7310120374e-07
5.29220534537e-07
1.59604820683e-07
5.37874814659e-07
1.47021072745e-07
5.41706664044e-07
1.35506681075e-07
5.41684786122e-07
1.24256621469e-07
5.4181830388e-07
1.12310964759e-07
5.47036597117e-07
9.66066621567e-08
5.6237614024e-07
7.43494602141e-08
5.89866466488e-07
4.88111641615e-08
6.11937257623e-07
1.74597151586e-08
6.0433597178e-07
-1.64815797566e-08
5.39985503378e-07
4.43668953748e-07
-4.28201242316e-08
1.72922514534e-07
6.6893980739e-07
2.010280946e-07
4.90400142459e-07
2.16662614225e-07
4.67522452687e-07
2.14593066193e-07
4.69245620999e-07
2.00222683597e-07
4.86320691649e-07
1.82430491214e-07
5.05170700232e-07
1.66373152819e-07
5.20096357034e-07
1.5243196367e-07
5.31130387562e-07
1.39314746886e-07
5.42145223968e-07
1.27531901226e-07
5.4946075906e-07
1.16969089279e-07
5.52073304732e-07
1.07302348323e-07
5.51160885405e-07
9.73791580354e-08
5.515486395e-07
8.66516868365e-08
5.57556317345e-07
7.2933975999e-08
5.75845538531e-07
5.47824593672e-08
6.07703829885e-07
3.43036633989e-08
6.32047267667e-07
8.93141874028e-09
6.29310885069e-07
-2.69065682255e-08
5.75452223658e-07
4.73012119601e-07
-5.64970567253e-08
1.81550905665e-07
6.31681931508e-07
1.92416209573e-07
4.60531637634e-07
1.87877067529e-07
4.64883872219e-07
1.70100042817e-07
4.84413928334e-07
1.4892945e-07
5.0649896953e-07
1.29507871305e-07
5.24175972118e-07
1.13375182363e-07
5.36000931435e-07
9.98818791535e-08
5.44442277931e-07
8.78688994825e-08
5.53982802273e-07
7.76791901979e-08
5.59474238231e-07
6.865398662e-08
5.60927278698e-07
5.9565623744e-08
5.60080791498e-07
5.09171407841e-08
5.60019747228e-07
4.28221689175e-08
5.65451373171e-07
3.45670956702e-08
5.83853721469e-07
2.48876449345e-08
6.17075046527e-07
1.20035926664e-08
6.44575538578e-07
-3.92717779844e-09
6.44845716946e-07
-3.55340809585e-08
6.06664318355e-07
5.05291685917e-07
-6.81050589294e-08
1.78510716291e-07
6.14377981561e-07
1.59182321101e-07
4.66594764957e-07
1.31560657103e-07
4.87176438712e-07
1.027329899e-07
5.11406421496e-07
7.6562911512e-08
5.32018867449e-07
5.45224207702e-08
5.45954871244e-07
3.67517364231e-08
5.53597163341e-07
2.23246259917e-08
5.58720485301e-07
1.13644452109e-08
5.64792722707e-07
2.51374796205e-09
5.68175154416e-07
-5.7547383855e-09
5.69047530098e-07
-1.38144319157e-08
5.67986903013e-07
-2.00556197793e-08
5.66095578024e-07
-2.32620238947e-08
5.684674677e-07
-2.25343238472e-08
5.82889570889e-07
-1.99662473259e-08
6.14210799699e-07
-2.14519619413e-08
6.4571002082e-07
-2.79861269588e-08
6.51003944365e-07
-4.41096923346e-08
6.22377716151e-07
5.3841887134e-07
-7.75812061705e-08
1.53972836055e-07
6.19295687887e-07
8.81502191216e-08
5.21267897825e-07
3.34291708325e-08
5.3788311147e-07
-1.03424906257e-08
5.54071665674e-07
-4.48798252454e-08
5.66294494185e-07
-7.04191291368e-08
5.7136321226e-07
-8.79421062997e-08
5.7100345254e-07
-9.91297337402e-08
5.69786844102e-07
-1.04727012488e-07
5.70267503891e-07
-1.08305621576e-07
5.71626514419e-07
-1.11474896144e-07
5.7208332703e-07
-1.13741421173e-07
5.70111013639e-07
-1.14021134167e-07
5.66220794192e-07
-1.09675316288e-07
5.63946523107e-07
-9.8156046665e-08
5.71155690497e-07
-8.02885281336e-08
5.96069816707e-07
-6.54423091513e-08
6.30536883201e-07
-6.07778426496e-08
6.45974943114e-07
-6.07239374072e-08
6.21933247117e-07
5.6383334823e-07
-8.65181130934e-08
1.11290757136e-07
6.6639711701e-07
-2.42929648098e-08
6.48554983599e-07
-1.30387822375e-07
6.4241770093e-07
-2.0721494058e-07
6.3110071805e-07
-2.5387820024e-07
6.12942963984e-07
-2.75551242981e-07
5.92974298385e-07
-2.78445497249e-07
5.73805790967e-07
-2.70937903552e-07
5.6217646608e-07
-2.58924180568e-07
5.58142791131e-07
-2.4615427097e-07
5.58737252153e-07
-2.34052112903e-07
5.59853387662e-07
-2.22777334752e-07
5.58699136277e-07
-2.1171630379e-07
5.55012112177e-07
-1.98413083125e-07
5.50483683243e-07
-1.7813710844e-07
5.50695718726e-07
-1.48399115479e-07
5.66092981661e-07
-1.16188724824e-07
5.98018816497e-07
-9.6532999567e-08
6.25964027574e-07
-8.65121035573e-08
6.11535096272e-07
5.70428168309e-07
-9.35080637967e-08
1.15901871695e-07
7.30487820034e-07
-8.55696240319e-08
8.46918831573e-07
-2.30061132931e-07
7.92756523344e-07
-3.41808215473e-07
7.45692494189e-07
-4.1666786129e-07
6.88418743684e-07
-4.51339384879e-07
6.2768854012e-07
-4.47840224539e-07
5.70239591755e-07
-4.21046627471e-07
5.35290778019e-07
-3.87689880771e-07
5.24683985985e-07
-3.54858068519e-07
5.25796128182e-07
-3.25114119211e-07
5.29991736326e-07
-2.99232405472e-07
5.32690292165e-07
-2.76525726958e-07
5.32168667435e-07
-2.55691841364e-07
5.29503299741e-07
-2.33101211482e-07
5.27949184292e-07
-2.00831249011e-07
5.33630934572e-07
-1.59632611522e-07
5.56551777808e-07
-1.24571923863e-07
5.90563995357e-07
-1.07731818605e-07
5.94324205049e-07
5.61053688254e-07
-9.87548599687e-08
1.60452299096e-07
7.12236674783e-07
5.25606387805e-08
9.43102914906e-07
-8.87379737165e-08
9.33591970355e-07
-2.33042669159e-07
8.90589899978e-07
-3.46490026687e-07
8.03236487911e-07
-4.19733732245e-07
7.01289035649e-07
-4.45480244267e-07
5.95972146089e-07
-4.32097207712e-07
5.21836293764e-07
-4.00784009252e-07
4.93296999709e-07
-3.65270633112e-07
4.90200679178e-07
-3.32140011708e-07
4.96767482748e-07
-3.03629820858e-07
5.04074344536e-07
-2.79042685134e-07
5.07462241957e-07
-2.57375648864e-07
5.07705781026e-07
-2.37389390777e-07
5.07820667888e-07
-2.13526020978e-07
5.09614802519e-07
-1.76202666572e-07
5.19021256167e-07
-1.34246214377e-07
5.48312658341e-07
-1.12346362608e-07
5.72080749734e-07
5.46998682194e-07
-9.86633672006e-08
8.11179129168e-08
6.64755345661e-07
1.00823402015e-07
9.13634042381e-07
8.60025312942e-08
9.42093387475e-07
4.15740558753e-08
9.32404987648e-07
-5.8764304168e-08
9.02942242894e-07
-1.97221918337e-07
8.39555263176e-07
-2.91284057273e-07
6.89975164114e-07
-3.07997972232e-07
5.38443450979e-07
-3.01368927646e-07
4.86573504234e-07
-2.83205174345e-07
4.71955985833e-07
-2.61808707485e-07
4.75287706472e-07
-2.42406398115e-07
4.84576554641e-07
-2.25590450481e-07
4.90540846026e-07
-2.10465548376e-07
4.92462153196e-07
-1.96395036782e-07
4.9362075775e-07
-1.82767508158e-07
4.9584609931e-07
-1.61183940349e-07
4.97281858761e-07
-1.26411459728e-07
5.13299602238e-07
-1.01515988629e-07
5.46862243457e-07
5.34215848635e-07
-8.90814744354e-08
6.00674633743e-08
6.20541322423e-07
7.93445054896e-08
8.84316445391e-07
7.91977738529e-08
9.35170159786e-07
6.87293496545e-08
9.39491458998e-07
4.04983103968e-08
9.29940961175e-07
-1.02923476258e-08
8.89887736737e-07
-1.11854182366e-07
7.91288962338e-07
-1.48514613721e-07
5.74911139342e-07
-1.63145517569e-07
5.01055554965e-07
-1.65407788838e-07
4.7410949388e-07
-1.60106109243e-07
4.69898536815e-07
-1.52688334348e-07
4.77066471427e-07
-1.46249043926e-07
4.83999235365e-07
-1.4027686207e-07
4.86378797441e-07
-1.34309981533e-07
4.8753152105e-07
-1.28750415726e-07
4.90155673636e-07
-1.22436308139e-07
4.90824573194e-07
-1.02474783351e-07
4.93150152455e-07
-8.02088399773e-08
5.24300286831e-07
5.26245975003e-07
-7.25748903643e-08
3.88300749207e-08
5.99118196583e-07
4.44926945195e-08
8.6895333603e-07
4.9834737499e-08
9.23214892814e-07
5.50310739867e-08
9.30836746367e-07
5.31971513937e-08
9.30261938536e-07
4.09375899943e-08
9.01501664408e-07
1.34827775683e-08
8.18405078603e-07
-1.80954729584e-08
6.06232537143e-07
-3.94231596606e-08
5.22185326952e-07
-5.33301347737e-08
4.87870264182e-07
-6.05218631058e-08
4.76985142455e-07
-6.31519244808e-08
4.79603309692e-07
-6.55376739222e-08
4.86285211206e-07
-6.75913887032e-08
4.88323196942e-07
-6.916868322e-08
4.88993540221e-07
-7.06892535366e-08
4.91549833709e-07
-7.31497171756e-08
4.93153042031e-07
-6.90531199514e-08
4.88905515787e-07
-5.50202532161e-08
5.10020217815e-07
5.24663158006e-07
-5.37514052399e-08
1.9572604176e-08
5.98639067547e-07
1.16539917231e-08
8.69364914923e-07
1.58696235886e-08
9.14440617052e-07
2.87932006387e-08
9.15339200926e-07
4.46808865046e-08
9.13113578604e-07
6.08613933867e-08
8.84706655418e-07
7.6959597093e-08
8.01951568091e-07
6.65740677874e-08
6.16346631742e-07
4.96272016455e-08
5.38916175189e-07
3.4073713904e-08
5.03257720298e-07
2.1553440162e-08
4.89385094678e-07
1.23793646336e-08
4.88682984859e-07
4.15467624968e-09
4.94409343515e-07
-3.43943532063e-09
4.95812182284e-07
-1.0404178497e-08
4.95844758855e-07
-1.70993263793e-08
4.98127545859e-07
-2.4595406885e-08
5.00520756665e-07
-3.17419910163e-08
4.95917741904e-07
-2.84888273863e-08
5.06554563872e-07
5.29709617429e-07
-3.38391300977e-08
-9.61052166626e-09
6.3297603431e-07
-3.72059950708e-08
8.94111037955e-07
-3.96064954314e-08
9.16310873876e-07
-2.71535843264e-08
9.02185524523e-07
-7.3580224933e-09
8.92741108636e-07
1.74514936834e-08
8.59503659921e-07
1.10631645762e-07
7.08451486717e-07
1.18678296124e-07
6.08025021768e-07
1.08928366732e-07
5.48444259017e-07
9.54292406638e-08
5.16585190671e-07
8.20909691591e-08
5.02598591655e-07
6.96379967789e-08
5.01039095931e-07
5.83573532658e-08
5.055908427e-07
4.77627090859e-08
5.06301467217e-07
3.75626338313e-08
5.05935854283e-07
2.76043200834e-08
5.0796829417e-07
1.69164048459e-08
5.11088285798e-07
4.6486880299e-09
5.08055202102e-07
-2.46673992853e-09
5.13471770935e-07
5.39576473347e-07
-1.26247974272e-08
-4.328949363e-08
7.05928729488e-07
-8.52949524336e-08
9.40033219307e-07
-8.85910258219e-08
9.22896231539e-07
-7.50791105578e-08
8.89653258324e-07
-4.57939674232e-08
8.63379423982e-07
7.73638558433e-08
7.3610134844e-07
1.33366381257e-07
6.52128783708e-07
1.49423225481e-07
5.91703562751e-07
1.47153466849e-07
5.50499024324e-07
1.37472840902e-07
5.26098094389e-07
1.25098236244e-07
5.14850542059e-07
1.11141243929e-07
5.14898974451e-07
9.83022135094e-08
5.18327316759e-07
8.61093220274e-08
5.18391764311e-07
7.41568040345e-08
5.1777910696e-07
6.23586560565e-08
5.19653675919e-07
5.01445407687e-08
5.23178057663e-07
3.60787540766e-08
5.21987513724e-07
2.16157952254e-08
5.2777264279e-07
5.52836851229e-07
8.0819143929e-09
-8.37200090555e-08
8.30193397663e-07
-1.3417994524e-07
1.00518768677e-06
-1.47553563214e-07
9.45105186321e-07
-1.1895540147e-07
8.63300447144e-07
3.11103494087e-08
7.13502051377e-07
1.1222102048e-07
6.54616182129e-07
1.51901851312e-07
6.12144339279e-07
1.68225810295e-07
5.7513512545e-07
1.70121487942e-07
5.48406788593e-07
1.64074667745e-07
5.319933145e-07
1.5294233602e-07
5.25871431816e-07
1.38891259663e-07
5.28850611256e-07
1.2577179605e-07
5.3134920294e-07
1.13074147359e-07
5.30985341824e-07
1.00448489083e-07
5.30300332096e-07
8.78606196983e-08
5.32130237213e-07
7.50589501529e-08
5.35868195204e-07
6.06801114309e-08
5.36253804743e-07
4.22011262017e-08
5.46058378716e-07
5.67643309513e-07
2.71254865295e-08
-1.08258434687e-07
9.88855049749e-07
-1.52412289268e-07
1.07356615298e-06
-1.50343170064e-07
9.52709609018e-07
1.52976132734e-08
7.0004500221e-07
8.82053660659e-08
6.4019877484e-07
1.36274364653e-07
6.06194955947e-07
1.66918464016e-07
5.81224413464e-07
1.81416384857e-07
5.60419721891e-07
1.84489532362e-07
5.45163478835e-07
1.7957615966e-07
5.36779056599e-07
1.68016950848e-07
5.37331559055e-07
1.55060710704e-07
5.41711302389e-07
1.42644437481e-07
5.43663555947e-07
1.30380469033e-07
5.43148935021e-07
1.17971228063e-07
5.42603094321e-07
1.0556084539e-07
5.44432653021e-07
9.30750834047e-08
5.48237616954e-07
7.78415474769e-08
5.51342865346e-07
5.97455355558e-08
5.63969944239e-07
5.82431689909e-07
4.47043714339e-08
-9.32647949783e-08
1.11530054385e-06
-1.337480608e-07
1.12964834355e-06
2.74993328083e-08
7.99921317058e-07
7.90202954331e-08
6.47968959219e-07
1.24573404054e-07
5.94138582251e-07
1.58997361727e-07
5.71412195489e-07
1.81646183853e-07
5.58321950557e-07
1.92809983098e-07
5.49068278832e-07
1.9432557567e-07
5.43508526967e-07
1.87063037255e-07
5.43937335477e-07
1.75144803434e-07
5.49155186758e-07
1.63349294243e-07
5.53406557403e-07
1.51825424966e-07
5.55089293118e-07
1.4028945579e-07
5.54580224131e-07
1.28578441846e-07
5.54207212712e-07
1.16988874627e-07
5.55905293737e-07
1.05508259558e-07
5.5959177212e-07
8.97595730048e-08
5.66968066434e-07
7.47837578019e-08
5.78758842657e-07
5.96141688527e-07
6.08290109626e-08
-2.51806246739e-08
1.17669419205e-06
6.74131110462e-08
1.04126649626e-06
1.07060734701e-07
7.5714878206e-07
1.34309451175e-07
6.18826645514e-07
1.60255471832e-07
5.67304932576e-07
1.82187232057e-07
5.49046387948e-07
1.9661736208e-07
5.4364922342e-07
2.02093523852e-07
5.43436422789e-07
1.98141572564e-07
5.47350770884e-07
1.87884479327e-07
5.54100052052e-07
1.76693113257e-07
5.60248765357e-07
1.65731585731e-07
5.64273361475e-07
1.54894784375e-07
5.65825333059e-07
1.43908847599e-07
5.65465824406e-07
1.32756613504e-07
5.65253922069e-07
1.21842169216e-07
5.66710243722e-07
1.0950824058e-07
5.71820649417e-07
9.68851152071e-08
5.79433535502e-07
8.58231961975e-08
5.89631036293e-07
6.07515137803e-07
7.42095540116e-08
5.19595003365e-08
1.19569449001e-06
1.24167232676e-07
9.5583905342e-07
1.5183729039e-07
7.22276774448e-07
1.68714094924e-07
5.98538510257e-07
1.85682925049e-07
5.48932012808e-07
1.99219824448e-07
5.34948142364e-07
2.05762839835e-07
5.36859840193e-07
2.03196282304e-07
5.45870689519e-07
1.94281587737e-07
5.56165344978e-07
1.83768765967e-07
5.64514824775e-07
1.73404023497e-07
5.70520664615e-07
1.63121629407e-07
5.74456866641e-07
1.52700787198e-07
5.76148940087e-07
1.42040290231e-07
5.76025204679e-07
1.31253556642e-07
5.75937353238e-07
1.20128932141e-07
5.77726367968e-07
1.0778341727e-07
5.84011355591e-07
9.83279429455e-08
5.8873015793e-07
9.08938437469e-08
5.96878156156e-07
6.15811573592e-07
8.23612230304e-08
1.60088677356e-07
1.13155583397e-06
1.80834854247e-07
9.06590366425e-07
1.93485718975e-07
6.96944966509e-07
2.030829715e-07
5.83475337668e-07
2.11254184184e-07
5.38675553334e-07
2.14899761669e-07
5.30572081269e-07
2.10497406075e-07
5.40999474901e-07
2.00286621306e-07
5.55944858472e-07
1.89029324195e-07
5.67315067048e-07
1.78250367649e-07
5.75198771418e-07
1.67794980168e-07
5.80877145475e-07
1.57268509387e-07
5.84885808706e-07
1.46509200704e-07
5.86806234562e-07
1.35452799901e-07
5.86975274648e-07
1.24413056175e-07
5.86865625697e-07
1.11557433408e-07
5.90441381557e-07
1.00959717394e-07
5.94467637779e-07
9.35145401782e-08
5.960182953e-07
8.8651397681e-08
6.0156025846e-07
6.2102889051e-07
8.32008910591e-08
1.83074342495e-07
1.06214627771e-06
2.05741669463e-07
8.46447390849e-07
2.2049690426e-07
6.64822077556e-07
2.27824679861e-07
5.68870334673e-07
2.29070897804e-07
5.34796321133e-07
2.22277774646e-07
5.36537231992e-07
2.09021620464e-07
5.53964061818e-07
1.95278197685e-07
5.69539456841e-07
1.82592154288e-07
5.79897451956e-07
1.70838050433e-07
5.8685340821e-07
1.59424961219e-07
5.92194273095e-07
1.47961941398e-07
5.96249046967e-07
1.36141066969e-07
5.98521795562e-07
1.2407033102e-07
5.98934249639e-07
1.11723180591e-07
5.99089027216e-07
9.8374099476e-08
6.03674757057e-07
8.83814932606e-08
6.0431751428e-07
8.17930443686e-08
6.02453113099e-07
7.83624970962e-08
6.04814965891e-07
6.22450006592e-07
7.67093442075e-08
1.80498849611e-07
1.00349404186e-06
2.10767957737e-07
7.74759871823e-07
2.30366617877e-07
6.25691703491e-07
2.37021795783e-07
5.54339766455e-07
2.31524521089e-07
5.37665165694e-07
2.16286269609e-07
5.50978964146e-07
1.99328584221e-07
5.70631007722e-07
1.83830032142e-07
5.84900342712e-07
1.69992046255e-07
5.93630674142e-07
1.57273546612e-07
5.99477795532e-07
1.45064593428e-07
6.04307226082e-07
1.32718697259e-07
6.08493050388e-07
1.20059297294e-07
6.11075766974e-07
1.07209145176e-07
6.11669000736e-07
9.29732519219e-08
6.13224202096e-07
8.01605037507e-08
6.16345572533e-07
7.02845384877e-08
6.14040585459e-07
6.33444741477e-08
6.09237304046e-07
6.03622477627e-08
6.0762253018e-07
6.19801916693e-07
6.27798471591e-08
1.74464762683e-07
9.50104804589e-07
2.05630616005e-07
7.00836208823e-07
2.25260376942e-07
5.87087713415e-07
2.28025880421e-07
5.4457717259e-07
2.14783921966e-07
5.4876259472e-07
1.9541504318e-07
5.69662831807e-07
1.76907377906e-07
5.88896119747e-07
1.60488762812e-07
6.01192981778e-07
1.46062340571e-07
6.07961222672e-07
1.33147287394e-07
6.12298158432e-07
1.20763859141e-07
6.16589888616e-07
1.08385905042e-07
6.2076814607e-07
9.57697502014e-08
6.23579378973e-07
8.32297965344e-08
6.24099916428e-07
6.88474179611e-08
6.27459500998e-07
5.73611780977e-08
6.27678042123e-07
4.80342298802e-08
6.23210937115e-07
4.04698692125e-08
6.16642781617e-07
3.70287478618e-08
6.10889936178e-07
6.14573404528e-07
4.20351986507e-08
1.7950182928e-07
8.90203568094e-07
1.96248007221e-07
6.44672996591e-07
2.03347437682e-07
5.64395134558e-07
1.95422494844e-07
5.47498015231e-07
1.76003971841e-07
5.66582145797e-07
1.55157767585e-07
5.90007833234e-07
1.36012734111e-07
6.07859887672e-07
1.19282225063e-07
6.17817832083e-07
1.05280867676e-07
6.21867496098e-07
9.30811181086e-08
6.2439660475e-07
8.17969585254e-08
6.27772577204e-07
7.07346078846e-08
6.31715363776e-07
5.97721725154e-08
6.34427343424e-07
4.77614967238e-08
6.35970071299e-07
3.70334325794e-08
6.38039688664e-07
2.90981523448e-08
6.35454316445e-07
2.24250305256e-08
6.29720683141e-07
1.65112122159e-08
6.22388850147e-07
1.30760179005e-08
6.14147070285e-07
6.08971543309e-07
1.84669415743e-08
1.8593228295e-07
8.30642250226e-07
1.70462723813e-07
6.27791714024e-07
1.53596856268e-07
5.69673203682e-07
1.31950689677e-07
5.6558046696e-07
1.09303423858e-07
5.88138649393e-07
8.73735497271e-08
6.11631944172e-07
6.75385124606e-08
6.27571181657e-07
5.12413616554e-08
6.34030442796e-07
3.87821522972e-08
6.34234380348e-07
2.92487867234e-08
6.33838368074e-07
2.16116387793e-08
6.352941722e-07
1.49392551382e-08
6.38275929451e-07
8.68074530165e-09
6.40551450385e-07
1.6538144913e-09
6.4286294266e-07
-1.86261063878e-09
6.41399946963e-07
-3.34463596916e-09
6.36770114849e-07
-4.28219083342e-09
6.30485169056e-07
-4.99484867424e-09
6.22922020882e-07
-5.26983743028e-09
6.14232356123e-07
6.04377637243e-07
-8.82763459591e-10
1.63598152738e-07
8.05677531814e-07
1.09432731662e-07
6.57547675099e-07
6.46622959883e-08
6.0621051668e-07
2.85487260866e-08
5.99515235365e-07
6.62338787141e-10
6.15458464338e-07
-2.39539182272e-08
6.36090268129e-07
-4.58839719746e-08
6.49429380788e-07
-6.15802268954e-08
6.49644988416e-07
-6.92909862511e-08
6.4185701681e-07
-7.00082387748e-08
6.34439905847e-07
-6.68605791067e-08
6.32037893451e-07
-6.17089916614e-08
6.32997633403e-07
-5.6391062646e-08
6.35102668481e-07
-4.97264335813e-08
6.36045275181e-07
-4.17947062663e-08
6.33301997621e-07
-3.34769276264e-08
6.28274697696e-07
-2.5584093327e-08
6.2240593087e-07
-1.85189417315e-08
6.15663675033e-07
-1.20980107512e-08
6.07608663284e-07
5.97952418602e-07
-5.88934385002e-09
1.61491655354e-07
8.01412022577e-07
8.12839012336e-08
7.22401080597e-07
6.78633370166e-09
6.75289412193e-07
-5.09538783909e-08
6.55743043889e-07
-9.36684012398e-08
6.5788545184e-07
-1.31182920805e-07
6.73550248796e-07
-1.64168151299e-07
6.82316593827e-07
-1.84708382093e-07
6.70069137891e-07
-1.86157605843e-07
6.43170591581e-07
-1.73097358084e-07
6.21251800666e-07
-1.52604217062e-07
6.1141000485e-07
-1.30098333879e-07
6.10352500643e-07
-1.07647689691e-07
6.1250237558e-07
-8.60175725268e-08
6.1425428893e-07
-6.60202390351e-08
6.1313063836e-07
-4.75278594938e-08
6.09595018943e-07
-3.07074385292e-08
6.05387354792e-07
-1.58671491935e-08
6.00616693685e-07
-2.45052040273e-09
5.93977351655e-07
5.85807007476e-07
9.46601143979e-09
2.29490475713e-07
7.53923515242e-07
1.82654671815e-07
7.43579902198e-07
1.03435192372e-07
7.38305984954e-07
2.66425118922e-08
7.26639386743e-07
-3.95059733493e-08
7.23003126356e-07
-1.01102643639e-07
7.35197828319e-07
-1.56140370122e-07
7.37327997242e-07
-1.92914793723e-07
7.06699025458e-07
-2.02542770699e-07
6.52633296567e-07
-1.89936297995e-07
6.08488706981e-07
-1.64863004409e-07
5.86192173973e-07
-1.34582961313e-07
5.79932123434e-07
-1.04678528031e-07
5.82454456634e-07
-7.76164151587e-08
5.87037640839e-07
-5.32002937727e-08
5.88544802172e-07
-3.06992226294e-08
5.86906740824e-07
-1.0001488007e-08
5.84487004599e-07
8.97195100642e-09
5.81428384888e-07
2.62618543814e-08
5.76463786664e-07
5.69071410432e-07
4.27605985254e-08
2.91741980742e-07
5.67838929687e-07
2.51140640277e-07
7.44558949754e-07
2.03602813113e-07
7.68079004668e-07
1.51780190504e-07
7.71862457869e-07
9.49893953128e-08
7.78210731289e-07
3.92169284366e-08
7.90799272543e-07
-1.49985157793e-08
7.91447083347e-07
-6.15690808344e-08
7.5306402549e-07
-8.45563733763e-08
6.75391691926e-07
-8.92768312431e-08
6.1299910023e-07
-7.93340156868e-08
5.76072772119e-07
-6.06982718538e-08
5.61146814498e-07
-3.86635951592e-08
5.60280266004e-07
-1.80006518571e-08
5.662260426e-07
7.24686914974e-10
5.69655107731e-07
1.86877619008e-08
5.68762349547e-07
3.66134248847e-08
5.66361598842e-07
5.42902608114e-08
5.63535904118e-07
7.14386432278e-08
5.59086073501e-07
5.51778697502e-07
8.84911730277e-08
1.21538147117e-07
4.81187249638e-07
1.564223779e-07
6.84226518522e-07
1.74114755501e-07
7.36941520417e-07
1.80025515136e-07
7.60295233988e-07
1.75192197893e-07
7.81201296273e-07
1.63475733277e-07
8.01994328289e-07
1.43530264572e-07
8.11120813004e-07
1.05623090975e-07
7.90688800966e-07
7.92820152001e-08
7.01427542572e-07
5.92967069184e-08
6.32702370903e-07
5.06250839676e-08
5.84510143293e-07
5.10905685624e-08
5.60496217697e-07
5.79942636205e-08
5.53227390452e-07
6.72669903776e-08
5.56804892985e-07
7.65139187644e-08
5.60246650263e-07
8.63831019207e-08
5.58716680644e-07
9.79207949249e-08
5.54630773928e-07
1.11226275671e-07
5.50019061904e-07
1.25956324824e-07
5.44128702708e-07
5.35585390268e-07
1.41907963359e-07
9.14417343492e-08
4.19254595955e-07
1.29456367959e-07
6.23269069668e-07
1.62849119005e-07
6.90843329795e-07
1.89828983743e-07
7.27238033858e-07
2.09548681666e-07
7.58946592384e-07
2.22757182662e-07
7.87758156563e-07
2.29333231502e-07
8.04017456598e-07
2.28286267103e-07
1.97744666158e-07
1.78151971052e-07
1.63154229716e-07
1.53926652466e-07
1.49847342398e-07
1.49738638691e-07
1.51110290029e-07
1.54130180284e-07
1.59611141655e-07
1.68225491948e-07
1.79876224634e-07
1.94461001725e-07
8.95157597678e-08
1.25518947671e-07
1.62126574756e-07
1.94413019365e-07
2.21747501434e-07
2.43820667656e-07
-2.42928630252e-08
2.58195129428e-07
-2.47381730998e-08
2.45572544656e-07
-2.47731243843e-08
2.32823766134e-07
-2.4244985107e-08
2.19502667005e-07
-2.29969627255e-08
2.05022302113e-07
-2.09982612863e-08
1.88940375361e-07
-1.84485432149e-08
1.71412998052e-07
-1.56697314545e-08
1.53234829407e-07
-1.29148357751e-08
1.35281697793e-07
-1.03252050935e-08
1.18107084154e-07
-7.9712970805e-09
1.01954050527e-07
-5.88719102883e-09
8.68717539676e-08
-4.0894417697e-09
7.28042052375e-08
-2.59005575628e-09
5.96566912248e-08
-1.41129040552e-09
4.73358218752e-08
-5.7725059709e-10
3.5756797367e-08
2.51530942902e-08
-1.97860114524e-08
3.03228272158e-07
-2.15042693842e-08
2.8588663235e-07
-2.2821030489e-08
2.72290510726e-07
-2.38003348872e-08
2.59174443871e-07
-2.43865484277e-08
2.46158748058e-07
-2.44663144096e-08
2.32903533109e-07
-2.38854774272e-08
2.18921816285e-07
-2.25210515954e-08
2.036578728e-07
-2.041543621e-08
1.86834746364e-07
-1.78250286437e-08
1.68822584213e-07
-1.50665090733e-08
1.50476295938e-07
-1.23634043594e-08
1.32578584669e-07
-9.83782402022e-09
1.15581491608e-07
-7.5513965466e-09
9.96676130212e-08
-5.53478060298e-09
8.48551286408e-08
-3.80356883264e-09
7.10729675986e-08
-2.36883707633e-09
5.82219697067e-08
-1.2527189898e-09
4.62196876858e-08
-4.88130619761e-10
3.49921939164e-08
2.46649637631e-08
-1.93157046611e-08
3.07711064199e-07
-2.14818803235e-08
2.88052574295e-07
-2.30774168432e-08
2.73886044526e-07
-2.42265723028e-08
2.60323612365e-07
-2.48763359169e-08
2.46808502275e-07
-2.49099376236e-08
2.32937142228e-07
-2.41862761916e-08
2.18198143902e-07
-2.26333083252e-08
2.02104909738e-07
-2.03700975731e-08
1.84571524701e-07
-1.76933306162e-08
1.66145820701e-07
-1.49037151897e-08
1.47686669295e-07
-1.21975166712e-08
1.29872388958e-07
-9.68090244594e-09
1.13064866046e-07
-7.40820506656e-09
9.73949189842e-08
-5.40733671613e-09
8.28542494134e-08
-3.69311091744e-09
6.93587547862e-08
-2.2759404854e-09
5.68047783737e-08
-1.17668630623e-09
4.51204382607e-08
-4.35986998114e-10
3.42514969095e-08
2.42289764386e-08
-2.03088335237e-08
3.13438257858e-07
-2.2894853838e-08
2.90638155125e-07
-2.46881487934e-08
2.75679339065e-07
-2.58965507132e-08
2.6153203332e-07
-2.64836365668e-08
2.47395581989e-07
-2.63407747346e-08
2.32794293575e-07
-2.53554121809e-08
2.17212774433e-07
-2.35203709732e-08
2.00269878389e-07
-2.10272113603e-08
1.82078359321e-07
-1.81950166833e-08
1.63313632784e-07
-1.53017826097e-08
1.44793430228e-07
-1.25193388499e-08
1.27089948515e-07