/*--------------------------------*- C++ -*----------------------------------*\
| =========                 |                                                 |
| \\      /  F ield         | OpenFOAM: The Open Source CFD Toolbox           |
|  \\    /   O peration     | Version:  2312                                  |
|   \\  /    A nd           | Website:  www.openfoam.com                      |
|    \\/     M anipulation  |                                                 |
\*---------------------------------------------------------------------------*/
FoamFile
{
    version     2.0;
    format      ascii;
    arch        "LSB;label=32;scalar=64";
    class       volScalarField;
    location    "0.835/water";
    object      d.gas;
}
// * * * * * * * * * * * * * * * * * * * * * * * * * * * * * * * * * * * * * //

dimensions      [0 1 0 0 0 0 0];

internalField   nonuniform List<scalar> 
6000
(
0.00496576841487
0.00496582941996
0.00496584521059
0.00496585758131
0.00496586822156
0.00496587785262
0.0049658868002
0.00496589505652
0.00496590255369
0.00496590931302
0.00496591535861
0.00496592073605
0.00496592551626
0.00496592976526
0.00496593353748
0.00496593687525
0.00496593981189
0.00496594237014
0.00496594456373
0.00496594639773
0.00496607257863
0.00496610287185
0.00496610046145
0.00496610055609
0.00496610549084
0.0049661101522
0.00496611472723
0.00496611928757
0.0049661239385
0.0049661285626
0.00496613293707
0.00496613697961
0.00496614072415
0.00496614420583
0.00496614743469
0.00496615040316
0.0049661530975
0.00496615550122
0.00496615759694
0.00496615936632
0.00496634360077
0.00496637516626
0.00496636339091
0.00496635461514
0.0049663529702
0.00496635204105
0.00496635174503
0.00496635222101
0.00496635338329
0.00496635510455
0.00496635717212
0.00496635934082
0.00496636148727
0.00496636359288
0.00496636565939
0.00496636767333
0.00496636960701
0.00496637142326
0.00496637308159
0.004966374543
0.00496657828931
0.00496660003487
0.00496658711167
0.0049665814319
0.00496658212087
0.00496658219744
0.00496658168131
0.00496658123274
0.0049665811241
0.00496658141238
0.00496658207307
0.00496658297926
0.00496658399386
0.00496658505332
0.00496658614934
0.00496658728156
0.00496658843997
0.00496658960121
0.00496659073302
0.00496659180072
0.00496681331658
0.00496682777971
0.00496681008901
0.00496680397284
0.00496680522155
0.00496680616666
0.00496680608194
0.0049668056045
0.00496680522289
0.00496680506612
0.00496680515491
0.00496680545431
0.00496680588216
0.00496680637384
0.0049668069123
0.00496680750265
0.004966808151
0.0049668088533
0.00496680959586
0.00496681035987
0.0049670382525
0.00496705322886
0.00496703520984
0.00496702769798
0.00496702742773
0.00496702814954
0.0049670282879
0.0049670278032
0.00496702719349
0.00496702675166
0.00496702652077
0.0049670264899
0.00496702660921
0.00496702681982
0.00496702709391
0.00496702743003
0.00496702783685
0.00496702831896
0.00496702887408
0.00496702949487
0.00496726504342
0.00496728126916
0.00496726345602
0.0049672545702
0.00496725151506
0.00496725017869
0.00496724941035
0.00496724855675
0.00496724759049
0.00496724681289
0.00496724631325
0.00496724606711
0.00496724603008
0.00496724614027
0.00496724635414
0.00496724665513
0.00496724704372
0.00496724752205
0.00496724808915
0.00496724874086
0.00496746565152
0.00496748787964
0.0049674785044
0.00496747272549
0.00496747039755
0.00496746862306
0.0049674673357
0.00496746637082
0.00496746539622
0.00496746453468
0.004967463986
0.00496746375666
0.00496746380187
0.00496746405085
0.00496746444382
0.00496746494774
0.0049674655508
0.00496746624694
0.00496746703005
0.00496746789432
0.00496769120286
0.0049677128681
0.00496769774449
0.00496769024538
0.00496768705966
0.00496768429023
0.00496768224252
0.00496768092645
0.00496768000754
0.00496767928529
0.00496767895488
0.00496767907405
0.00496767956239
0.00496768030831
0.0049676812194
0.00496768224065
0.00496768334457
0.00496768451371
0.00496768573612
0.00496768699903
0.00496788459321
0.00496790883626
0.00496789522792
0.00496789041386
0.00496789025003
0.00496789010058
0.00496788973253
0.0049678894849
0.00496788946212
0.0049678896455
0.00496789030123
0.00496789151972
0.00496789314323
0.00496789497986
0.00496789690169
0.00496789884596
0.00496790078218
0.00496790269153
0.00496790456061
0.00496790637543
0.00496808446896
0.00496811377451
0.00496809896009
0.00496809383421
0.00496809469506
0.00496809575382
0.00496809627768
0.00496809656336
0.00496809700656
0.00496809794828
0.00496809977554
0.00496810257299
0.00496810592109
0.00496810937288
0.00496811271592
0.00496811588865
0.00496811887463
0.00496812166517
0.00496812425955
0.00496812665848
0.00496826778305
0.00496830416322
0.00496829649682
0.00496829528197
0.00496829939719
0.0049683028771
0.00496830475241
0.00496830553253
0.00496830636574
0.00496830808758
0.00496831117023
0.00496831565278
0.00496832095253
0.00496832621358
0.00496833103691
0.00496833538976
0.00496833930376
0.00496834280846
0.00496834593428
0.00496834870979
0.00496847657965
0.00496852271283
0.00496852122343
0.00496852163439
0.00496852583235
0.00496852838046
0.00496852880355
0.00496852827542
0.00496852825054
0.00496852943457
0.00496853233403
0.00496853721049
0.00496854346198
0.00496854972201
0.00496855522567
0.00496855998144
0.00496856409556
0.00496856764769
0.0049685707048
0.00496857332593
0.00496872716557
0.00496877325934
0.00496876972733
0.00496876929035
0.0049687725715
0.0049687735672
0.00496877216754
0.00496877043974
0.00496876949613
0.0049687693112
0.0049687702778
0.00496877332903
0.00496877834106
0.00496878366032
0.00496878808022
0.00496879164427
0.00496879458263
0.00496879702301
0.00496879904797
0.00496880072504
0.00496900286323
0.00496905212995
0.00496904532936
0.00496904368907
0.00496904518402
0.00496904364388
0.0049690402536
0.0049690371327
0.0049690343866
0.00496903141429
0.00496902850684
0.0049690269557
0.00496902738366
0.00496902874063
0.00496902962791
0.0049690299541
0.00496903004915
0.0049690300689
0.00496903005312
0.00496903002155
0.00496932325182
0.00496936798589
0.00496935071858
0.00496934253566
0.00496933801684
0.00496933187899
0.00496932510732
0.00496931871858
0.00496931218498
0.00496930490464
0.00496929733094
0.00496929046176
0.00496928439974
0.00496927925002
0.00496927467494
0.00496927040448
0.00496926666148
0.00496926356895
0.00496926106483
0.00496925905822
0.00496962688473
0.0049696482096
0.00496962165164
0.0049696083215
0.00496960011364
0.00496959168476
0.00496958290384
0.0049695741315
0.00496956524187
0.00496955628312
0.00496954745557
0.00496953933388
0.00496953106487
0.00496952168621
0.00496951269786
0.00496950478077
0.00496949808934
0.00496949265967
0.00496948836262
0.00496948501155
0.00496980142925
0.00496981828543
0.00496980547003
0.0049697991772
0.00496979602594
0.00496979184645
0.00496978624656
0.00496978005827
0.00496977399798
0.00496976807535
0.00496976242415
0.0049697570019
0.00496975137762
0.00496974369485
0.00496973451072
0.00496972604949
0.00496971899871
0.00496971336391
0.00496970900558
0.00496970573337
0.00496998832222
0.00497000007097
0.00496998081493
0.00496997350734
0.00496997090937
0.00496996807548
0.0049699645319
0.00496996097996
0.00496995786716
0.00496995566741
0.00496995358977
0.00496995038184
0.00496994710776
0.00496994349633
0.00496993811968
0.00496993257671
0.00496992809437
0.00496992474522
0.00496992236933
0.0049699208497
0.00497014089407
0.00497015383167
0.00497013668803
0.00497013290778
0.00497013357632
0.00497013391521
0.00497013319598
0.00497013185495
0.00497013117736
0.00497013234583
0.00497013352793
0.00497013270737
0.00497013075308
0.00497012937606
0.00497012855629
0.00497012793712
0.00497012818304
0.00497012906148
0.00497013032232
0.00497013192865
0.00497031676866
0.00497033255977
0.00497031136739
0.00497030484946
0.00497030406269
0.0049703034518
0.00497030209247
0.00497030143849
0.00497030452317
0.0049703104537
0.00497031317431
0.0049703143914
0.00497031377695
0.00497031309876
0.00497031514516
0.00497031921661
0.00497032485512
0.00497033082501
0.00497033653803
0.00497034197781
0.00497045888155
0.00497048277057
0.0049704695432
0.00497046613809
0.00497046772091
0.00497046931336
0.00497047089785
0.00497047574017
0.00497048621943
0.00497049241774
0.00497049751942
0.00497050164927
0.00497050244503
0.00497050258566
0.00497050622655
0.00497051405003
0.00497052456489
0.00497053539762
0.00497054542856
0.00497055462164
0.00497064118474
0.00497067244696
0.00497065925342
0.00497065327045
0.00497065310825
0.00497065428805
0.00497065814065
0.00497066958206
0.00497068004118
0.00497068812548
0.00497069357862
0.00497069897211
0.00497070382185
0.00497070461776
0.0049707086803
0.00497071902755
0.00497073326428
0.00497074783812
0.00497076118879
0.00497077330507
0.00497083477915
0.00497086794339
0.00497085237477
0.00497084843079
0.00497085135892
0.00497085646202
0.00497086679992
0.00497088148552
0.00497089386595
0.00497089959754
0.0049709071911
0.00497091873758
0.00497092504583
0.00497092548023
0.00497092851493
0.00497093954387
0.00497095553189
0.00497097198974
0.00497098699709
0.00497100061545
0.00497106588559
0.00497110224623
0.00497108006225
0.00497107518475
0.00497107956702
0.00497108774451
0.00497110217739
0.00497111890998
0.00497112629733
0.00497113612104
0.00497114766646
0.00497116247515
0.00497117034438
0.00497116722945
0.00497116893971
0.00497117843623
0.00497119333427
0.00497120937549
0.00497122415683
0.00497123765729
0.00497130070334
0.00497133976187
0.00497131853664
0.00497131627023
0.00497132444861
0.00497133678762
0.00497135375594
0.0049713653378
0.00497137832761
0.0049713911026
0.00497140824809
0.00497142516995
0.00497142338252
0.00497142395779
0.00497142538713
0.00497143196738
0.00497144384195
0.00497145810404
0.00497147155623
0.00497148382985
0.00497153827814
0.00497158619391
0.00497157065486
0.00497157149567
0.0049715822473
0.00497159572074
0.00497161088521
0.00497162878005
0.00497164252896
0.00497165761865
0.00497167841982
0.00497168381792
0.00497168638722
0.00497168791131
0.00497168958504
0.00497169444905
0.00497170337144
0.00497171562465
0.00497172749199
0.00497173800587
0.00497179393163
0.00497185117567
0.00497184852207
0.00497185191145
0.00497186191721
0.00497187475138
0.00497189330959
0.00497191051282
0.00497192957634
0.00497195293617
0.00497195925909
0.00497195881602
0.00497196154421
0.00497196461694
0.0049719667412
0.00497196896724
0.00497197390361
0.00497198267784
0.00497199197508
0.00497199984452
0.00497210529
0.00497217326166
0.00497217306696
0.00497217764969
0.00497218843349
0.00497220311435
0.00497222251258
0.00497224186319
0.00497225631983
0.0049722569199
0.00497225313261
0.00497225323629
0.00497225647258
0.00497225638658
0.00497225624316
0.00497225435007
0.00497225586868
0.0049722597285
0.00497226485484
0.00497226879674
0.00497253981599
0.0049726164281
0.00497260900522
0.00497260476071
0.00497260218143
0.00497260194393
0.00497260335958
0.00497259938703
0.00497258792362
0.00497257598118
0.0049725679387
0.00497256414898
0.00497256026741
0.0049725577295
0.0049725523943
0.00497254819482
0.00497254683375
0.00497254532655
0.00497254447291
0.00497254308896
0.00497304995153
0.00497311744329
0.00497309648996
0.00497307668821
0.0049730545652
0.00497302950134
0.00497300312993
0.00497297473118
0.00497294646463
0.00497292180273
0.00497290241909
0.00497288705393
0.00497287394254
0.00497286307744
0.00497285335717
0.004972845855
0.00497284087234
0.0049728347525
0.00497282690878
0.00497281915457
0.00497343233694
0.00497347108524
0.00497344666897
0.00497343481701
0.00497342086078
0.00497339656329
0.0049733638521
0.00497332809565
0.00497329267378
0.00497325991909
0.00497323173422
0.00497320611083
0.00497318240936
0.00497316282259
0.00497314774882
0.00497313703831
0.00497312862724
0.00497311930768
0.00497310556415
0.00497309154771
0.00497365982248
0.00497367024612
0.00497365464364
0.00497364857567
0.00497364835222
0.0049736419659
0.00497362437866
0.00497359923469
0.00497357075604
0.00497354196621
0.00497351468647
0.00497348819291
0.00497346260304
0.00497344022011
0.00497342325404
0.00497341128373
0.00497340073539
0.00497338932003
0.00497337266082
0.00497335405492
0.00497384896308
0.00497384562982
0.00497382687305
0.00497382121575
0.0049738217807
0.00497382222553
0.00497381608307
0.00497380223725
0.00497378384712
0.00497376379779
0.00497374399362
0.00497372386218
0.00497370339158
0.00497368496563
0.00497367062432
0.00497366019592
0.00497364962135
0.0049736369419
0.00497362088845
0.0049736011005
0.00497402401773
0.00497401331232
0.00497399089333
0.00497398341677
0.00497398237101
0.00497398368022
0.00497398109281
0.00497397278735
0.00497396122041
0.00497394911711
0.00497393766179
0.00497392469567
0.00497391087401
0.004973898184
0.00497388872569
0.0049738813467
0.00497387046592
0.00497385828432
0.00497384599876
0.00497382951661
0.00497417978562
0.00497417010418
0.00497414746753
0.00497413995566
0.00497413910239
0.0049741392353
0.00497413716686
0.00497413138101
0.00497412411422
0.00497411772574
0.00497411253814
0.00497410581253
0.00497409686837
0.00497408936257
0.00497408486669
0.00497408085155
0.00497407011402
0.00497406063182
0.00497405234414
0.00497404150046
0.00497433091881
0.00497432342448
0.00497430296321
0.0049742954473
0.00497429342008
0.00497429318512
0.00497429125132
0.00497428691185
0.00497428194497
0.0049742795326
0.00497427979167
0.00497427606157
0.0049742722523
0.00497426943088
0.00497426974906
0.00497426921044
0.00497426369921
0.00497425662028
0.00497424936024
0.0049742433778
0.00497446964984
0.00497446837295
0.00497445299271
0.00497444644595
0.00497444532266
0.004974444081
0.00497444180535
0.00497443811383
0.00497443555864
0.0049744385466
0.00497444270464
0.00497444405077
0.00497444371612
0.00497444541585
0.00497445196072
0.00497445698097
0.00497445448872
0.00497444718771
0.00497444213107
0.00497444061151
0.00497462034346
0.00497461842167
0.00497459900177
0.0049745924774
0.00497459052736
0.00497458905441
0.0049745874019
0.00497458621108
0.00497458886973
0.00497459907421
0.00497460885771
0.00497461224529
0.00497461747476
0.00497462409598
0.00497463356082
0.00497464386591
0.00497464492926
0.0049746413741
0.00497463784441
0.0049746394382
0.00497476901379
0.00497476811034
0.00497474665062
0.00497473943135
0.0049747372696
0.00497473650929
0.00497473714124
0.00497474016322
0.00497475010683
0.00497476719874
0.00497477765675
0.00497478731558
0.00497479640931
0.00497480648138
0.00497482369278
0.00497483803196
0.00497484265786
0.00497484054759
0.00497483974025
0.00497484375652
0.00497491725926
0.0049749203421
0.00497489845963
0.0049748927642
0.00497489087113
0.00497489217289
0.00497489628423
0.00497490488
0.00497492375017
0.00497494400449
0.00497495974646
0.00497497203447
0.00497498589177
0.00497500204397
0.00497502091449
0.00497504029573
0.00497504757942
0.00497504983003
0.00497505154767
0.00497505656303
0.00497507423658
0.00497508508685
0.00497506277181
0.0049750560438
0.00497505560726
0.00497506030985
0.00497506925861
0.0049750861806
0.00497511356529
0.00497513812979
0.00497515453871
0.00497517241159
0.00497519100725
0.00497520932086
0.0049752345211
0.00497525397892
0.00497526501068
0.00497527112982
0.00497527445287
0.00497527876813
0.00497525677174
0.00497527784538
0.00497525649581
0.0049752488888
0.00497525038383
0.00497525816988
0.00497527245996
0.00497529947101
0.00497533227899
0.00497535351444
0.00497537493729
0.00497539523262
0.00497541494922
0.00497543740465
0.00497545982369
0.00497548168935
0.00497549661605
0.004975506466
0.00497550913343
0.00497551153798
0.00497550370974
0.00497552719395
0.00497549308955
0.00497548329512
0.00497548649838
0.00497549748008
0.00497551854209
0.00497555299145
0.00497558000747
0.00497560331662
0.00497562328944
0.00497564301418
0.0049756638175
0.00497568261694
0.00497570711484
0.00497572726868
0.00497574610607
0.00497575706666
0.00497575700597
0.00497575708115
0.00497580739197
0.00497583071623
0.00497578150529
0.00497576833385
0.00497577245328
0.00497578668039
0.00497581422754
0.00497584514554
0.0049758688807
0.00497588605264
0.00497590380598
0.00497592134424
0.00497593641152
0.00497595716997
0.00497597396479
0.00497599297536
0.00497601445089
0.00497602340364
0.00497601967008
0.0049760169906
0.00497617921403
0.00497619283145
0.00497612961696
0.00497611251705
0.00497611657166
0.00497613240303
0.00497615931989
0.00497618266164
0.00497619398718
0.00497620587634
0.00497621714862
0.00497622880496
0.00497624467076
0.00497625245706
0.00497626159456
0.00497627904452
0.0049762990116
0.00497630203423
0.00497629489653
0.00497628957611
0.00497663614214
0.00497661986778
0.0049765475364
0.00497652681337
0.00497652685983
0.00497653627198
0.0049765513599
0.00497655352143
0.00497655443646
0.0049765602196
0.00497656759122
0.00497657507638
0.00497656752007
0.00497656195302
0.00497656411163
0.00497657764035
0.00497659046591
0.0049765878849
0.00497657911283
0.00497657131383
0.00497714475772
0.00497708694245
0.00497701932001
0.0049769929784
0.00497697952975
0.00497696827074
0.00497695591943
0.0049769434915
0.0049769438899
0.00497694611448
0.00497693589457
0.00497690891172
0.00497688538629
0.00497687090418
0.00497686757203
0.00497687408334
0.00497687939045
0.00497687397837
0.00497686472344
0.00497685493131
0.0049775230074
0.00497746354895
0.00497739036584
0.00497735949137
0.00497733754098
0.00497731599346
0.00497730108037
0.00497729749914
0.004977295062
0.00497727170314
0.00497723294186
0.00497719733671
0.00497717150092
0.00497715659979
0.00497714992077
0.00497715193759
0.00497715333822
0.00497714783933
0.00497713907187
0.00497712856018
0.00497758606966
0.00497753577042
0.00497748184035
0.00497747577271
0.00497748251248
0.00497749484095
0.00497751091736
0.0049775204583
0.00497750356483
0.00497747162951
0.00497744180384
0.00497741892187
0.00497740533665
0.00497739873779
0.00497739628755
0.00497740111091
0.00497740428015
0.00497740189496
0.00497739457504
0.00497738745795
0.00497764420619
0.00497760302411
0.00497755171842
0.00497755635408
0.00497758318288
0.00497761656274
0.00497764102475
0.00497764073877
0.00497762376134
0.00497760892587
0.00497759598478
0.00497759013826
0.00497759509651
0.00497760244154
0.00497761278773
0.00497762713847
0.00497763608833
0.00497763899187
0.0049776390943
0.00497763614196
0.00497769686183
0.0049776691553
0.00497762743928
0.00497764306888
0.00497768454621
0.00497772503746
0.00497774818076
0.00497774872759
0.00497774487824
0.00497773994081
0.00497773600626
0.0049777469819
0.0049777700382
0.00497779363239
0.00497782006788
0.00497784256033
0.00497785823325
0.0049778702868
0.00497787774968
0.00497787803744
0.00497774753963
0.00497776053621
0.00497773970917
0.00497776737416
0.00497781613879
0.00497785850678
0.00497788258084
0.00497788520798
0.00497788141985
0.00497787738026
0.00497788535869
0.00497791704741
0.0049779577993
0.00497799689065
0.00497803210956
0.00497805964365
0.00497808469334
0.00497810725836
0.00497812452046
0.00497812804899
0.00497779513381
0.00497786639851
0.00497786496687
0.00497790370864
0.00497795695477
0.00497800328875
0.00497802373784
0.00497802275438
0.00497802026446
0.00497802833753
0.00497806244624
0.00497811663295
0.00497816979904
0.00497821873923
0.00497825861611
0.00497829473603
0.00497833344615
0.00497837176836
0.00497839836251
0.00497840868422
0.00497783815527
0.00497798490707
0.00497801153557
0.00497805287124
0.00497809905234
0.00497813999685
0.00497816087793
0.00497816796863
0.00497818316921
0.00497822227356
0.00497828861247
0.00497835801273
0.00497841933251
0.00497847293874
0.00497851936541
0.00497856763622
0.00497862365213
0.00497867741033
0.00497871386759
0.00497872737389
0.00497790990811
0.00497810269689
0.00497817128193
0.00497820597869
0.00497825620179
0.00497830781121
0.00497834537105
0.00497838237097
0.00497843713815
0.00497851378783
0.00497859521318
0.00497866824506
0.00497873399704
0.00497879066712
0.00497884379615
0.00497890316824
0.00497897077712
0.00497903118124
0.00497906730696
0.00497908344019
0.00497816083566
0.00497842933549
0.00497848272409
0.00497851551152
0.00497857999155
0.00497864422323
0.00497871047267
0.00497878492341
0.00497887093802
0.00497895749178
0.00497903550659
0.00497910441913
0.00497916412688
0.00497921656114
0.00497926878383
0.00497932528236
0.00497938283086
0.00497943298212
0.00497946250821
0.00497947039777
0.00497936676979
0.00497968100016
0.00497964140646
0.0049795882633
0.00497956418329
0.00497955541807
0.00497956009542
0.00497958656422
0.00497962653394
0.00497966724941
0.00497970365535
0.00497973444945
0.00497976025276
0.00497978391798
0.00497980764717
0.0049798298044
0.00497985271969
0.00497987286977
0.00497988246159
0.00497988400642
0.00498148242181
0.00498161078126
0.00498146443725
0.00498135572262
0.00498123594438
0.00498109469824
0.00498094813624
0.00498082022421
0.00498072022571
0.00498064492836
0.00498058383607
0.00498053120384
0.00498048500037
0.00498044448494
0.00498040847093
0.00498037673342
0.00498034980938
0.00498032626736
0.00498031007839
0.00498030036327
0.00498216204961
0.00498216287725
0.00498216288699
0.00498215845042
0.00498212996413
0.00498206957965
0.00498197262376
0.00498183263854
0.00498166415851
0.00498150110776
0.00498136152159
0.00498124153643
0.00498113625424
0.0049810424451
0.00498095919343
0.00498088547198
0.00498082155146
0.0049807639372
0.00498071861994
0.00498069580855
0.00498219406135
0.00498219423235
0.00498219448311
0.00498219506803
0.00498219551466
0.00498219423283
0.00498217962002
0.00498214006835
0.00498206179288
0.00498194638901
0.00498181561693
0.00498169093733
0.00498157760082
0.00498147427002
0.00498137969739
0.00498129459737
0.00498121771532
0.00498115048588
0.00498108693389
0.00498105048271
0.00498221929385
0.00498221941496
0.00498221953549
0.00498221969236
0.00498221993251
0.00498222028992
0.0049822165728
0.00498220285497
0.0049821687871
0.0049821092807
0.00498202716617
0.00498193441778
0.00498184354836
0.00498175696699
0.00498167562219
0.00498159913939
0.00498152962565
0.00498146494789
0.00498140563952
0.00498136615828
0.00498224382487
0.00498224388815
0.00498224395253
0.00498224406092
0.00498224421658
0.00498224440237
0.00498224308613
0.00498223799877
0.00498222045169
0.00498218619245
0.00498213638522
0.00498207651601
0.00498201373283
0.00498195161476
0.00498188999911
0.0049818318881
0.00498177562397
0.00498172444465
0.00498168085665
0.00498164470302
0.00498226888054
0.00498226887924
0.00498226886146
0.00498226882137
0.00498226871955
0.004982268457
0.00498226792543
0.0049822673196
0.00498225842852
0.00498223801832
0.00498220830997
0.00498217372156
0.00498213628009
0.0049820954578
0.00498205554066
0.00498201561007
0.00498197849176
0.00498194219922
0.00498191329491
0.00498189474318
0.00498229629662
0.00498229635074
0.00498229645249
0.00498229655633
0.00498229662219
0.0049822952198
0.00498229607108
0.0049822971457
0.00498229290926
0.00498228146364
0.00498226748728
0.0049822548334
0.0049822364543
0.00498221589052
0.00498219387082
0.00498217281786
0.0049821515433
0.00498213303009
0.00498211863397
0.00498211323894
0.00498232586956
0.00498232615494
0.00498232644743
0.00498232670898
0.00498232617815
0.0049823242998
0.00498232704249
0.0049823301984
0.00498232988448
0.00498232730116
0.00498233103379
0.00498233629029
0.00498233491238
0.00498232869598
0.00498232352488
0.0049823180244
0.00498231308473
0.00498230756711
0.00498230694688
0.00498232489013
0.00498235734446
0.00498235762784
0.00498235799813
0.0049823582564
0.00498235662608
0.00498235682261
0.00498236185767
0.00498236827341
0.00498237390311
0.00498238420276
0.00498240614465
0.00498242647211
0.0049824344549
0.00498244352033
0.00498245202626
0.00498246113123
0.00498247056895
0.00498248122085
0.0049824943999
0.00498251701273
0.00498239686543
0.0049823941044
0.00498239126468
0.00498239088971
0.00498238917174
0.00498239148573
0.0049823993495
0.00498241015723
0.0049824242956
0.00498245216769
0.0049824914387
0.00498251828798
0.0049825408739
0.00498256146547
0.00498258355554
0.00498260617781
0.00498262825618
0.00498265084183
0.00498267587529
0.00498271779436
0.00498247022472
0.00498246153511
0.00498244591396
0.00498244089285
0.00498243844235
0.00498244208351
0.00498245237362
0.00498246788102
0.0049824937156
0.00498254150008
0.0049825901675
0.00498262674936
0.00498265730507
0.0049826905552
0.00498272424066
0.00498275763647
0.00498279281236
0.00498282816031
0.00498286603465
0.00498291122074
0.00498256262265
0.00498255682454
0.00498252481459
0.00498251392442
0.00498251121755
0.00498251676299
0.00498252998159
0.00498255217747
0.00498259637703
0.00498265910763
0.0049827121556
0.00498275074633
0.00498279233318
0.00498283373064
0.00498287586729
0.00498292016694
0.00498296327955
0.00498300883626
0.00498305554527
0.00498311428264
0.00498266050339
0.0049826668365
0.00498261986666
0.00498260535525
0.00498260456834
0.00498261367108
0.00498263214163
0.00498266873163
0.00498273675868
0.00498280686355
0.00498285240011
0.00498289974685
0.00498294602646
0.00498299427154
0.00498304469351
0.00498309375732
0.0049831461562
0.00498319782857
0.00498325289964
0.00498331239825
0.00498276291129
0.00498279299595
0.00498273865572
0.00498272287947
0.00498272590019
0.00498274085118
0.00498277174298
0.00498283781463
0.00498291962569
0.00498297407993
0.00498302554739
0.00498307463456
0.00498312665484
0.00498318038402
0.00498323257124
0.00498328795133
0.00498334065388
0.00498339655749
0.00498345221335
0.00498351311063
0.00498289633484
0.00498296098786
0.00498291107985
0.00498289494176
0.00498290306465
0.00498292934297
0.00498298845466
0.00498307468718
0.00498313827146
0.00498319200957
0.00498324088286
0.00498329384928
0.00498334836079
0.00498340102429
0.00498345665432
0.00498350804041
0.00498356388965
0.00498361542796
0.00498366891092
0.00498372174738
0.00498309424653
0.00498318718229
0.00498313514303
0.00498312856647
0.00498315795469
0.00498321645849
0.00498330231565
0.00498337121621
0.00498342555226
0.00498347145629
0.00498352175155
0.00498357379939
0.00498362368445
0.00498368026488
0.00498372970615
0.0049837853606
0.00498383206764
0.00498387668649
0.00498391834784
0.00498396014498
0.00498342988746
0.00498355844318
0.00498352695896
0.00498353690941
0.00498358366296
0.00498364741982
0.00498370939301
0.00498375835845
0.00498380104263
0.00498384423257
0.00498389389315
0.00498393938136
0.0049839969261
0.00498404280656
0.00498408766236
0.00498412419584
0.00498415602507
0.00498418428199
0.00498421067907
0.00498423481393
0.00498417894226
0.00498433139152
0.00498428384469
0.00498426928875
0.00498428260657
0.00498430889158
0.00498434052296
0.0049843697892
0.00498439489804
0.00498442291791
0.00498444442101
0.00498446970144
0.00498448696938
0.00498450212808
0.00498451463005
0.00498452512814
0.00498453399234
0.00498454092246
0.00498454659339
0.00498455023629
0.00498542952076
0.00498558336022
0.00498553737587
0.00498551307438
0.00498550075309
0.00498548508569
0.00498545575197
0.00498540790847
0.00498534029934
0.00498526073591
0.00498518663129
0.00498512173568
0.00498507000494
0.00498502983752
0.00498499765853
0.00498497065576
0.0049849470146
0.00498492602458
0.00498490688558
0.00498488816506
0.00498605086586
0.00498611871675
0.00498610605203
0.00498609645658
0.00498608895967
0.0049860763386
0.00498605254775
0.00498601376848
0.00498595686777
0.00498588034067
0.0049857891331
0.00498569330717
0.00498560155877
0.00498551964032
0.00498544974664
0.00498539029117
0.00498533952621
0.00498529593814
0.0049852577116
0.00498522279269
0.00498602522508
0.00498602621407
0.00498602681906
0.00498602733494
0.00498602781061
0.00498602822164
0.00498602854656
0.00498602877379
0.00498602890091
0.00498602200371
0.00498599806088
0.00498595796605
0.00498590373547
0.00498583948281
0.00498577297698
0.00498571137837
0.00498565714138
0.00498560956649
0.00498556762082
0.00498552997486
0.00498603630886
0.0049860364043
0.00498603641743
0.00498603649422
0.00498603662367
0.00498603679446
0.00498603699693
0.00498603722815
0.00498603749259
0.00498603777387
0.0049860352076
0.00498602687975
0.00498601157186
0.00498598695503
0.00498595356956
0.00498591636535
0.00498588129035
0.00498584997205
0.0049858225576
0.00498579854838
0.0049860450084
0.00498604507832
0.00498604510027
0.0049860451281
0.00498604518643
0.00498604527284
0.00498604538311
0.00498604552314
0.00498604570522
0.00498604594905
0.00498604536588
0.00498604400959
0.0049860418981
0.0049860381176
0.0049860335844
0.00498603079523
0.00498602913851
0.00498602759557
0.00498602709654
0.00498603007782
0.00498605349805
0.00498605350564
0.00498605347148
0.00498605343445
0.00498605343829
0.00498605347829
0.00498605354099
0.00498605363438
0.00498605377383
0.00498605397882
0.00498605417553
0.00498605689806
0.00498606230023
0.00498607099004
0.00498608635848
0.00498611180842
0.00498614131788
0.004986167884
0.00498619712024
0.0049862295713
0.00498606245396
0.00498606238441
0.00498606218022
0.00498606178408
0.00498606160683
0.00498606154955
0.00498606151961
0.00498606152784
0.00498606157983
0.00498606179995
0.00498606302824
0.00498606957258
0.00498608134013
0.00498610024769
0.00498613194807
0.00498618145028
0.0049862356839
0.00498628819678
0.00498634152893
0.00498640188578
0.00498607808168
0.00498607770628
0.00498607670816
0.00498607326649
0.00498607081234
0.00498607024773
0.00498607007725
0.00498607015686
0.00498607101617
0.00498607418396
0.0049860795153
0.00498608944133
0.00498610632034
0.00498613503785
0.00498618679096
0.00498625883371
0.0049863318089
0.00498639894318
0.00498647347016
0.00498655320417
0.00498611116465
0.00498611105214
0.00498609687702
0.00498609893111
0.0049861045779
0.00498610987496
0.00498611370499
0.00498611579378
0.00498611662567
0.00498611863443
0.00498612433726
0.00498613631331
0.00498615986625
0.00498620687304
0.00498628247627
0.00498636502463
0.00498643697322
0.00498651642524
0.00498660089077
0.00498669607698
0.00498615967723
0.00498615274699
0.00498612743582
0.00498612870777
0.00498613762814
0.0049861467112
0.00498615470893
0.004986161427
0.00498616827312
0.00498617671411
0.00498618995002
0.00498621417547
0.0049862614259
0.00498633457005
0.00498641432222
0.00498648274042
0.00498655846939
0.00498663960599
0.00498673235468
0.00498683403846
0.00498621759568
0.00498619923282