/*--------------------------------*- C++ -*----------------------------------*\
| =========                 |                                                 |
| \\      /  F ield         | OpenFOAM: The Open Source CFD Toolbox           |
|  \\    /   O peration     | Version:  2312                                  |
|   \\  /    A nd           | Website:  www.openfoam.com                      |
|    \\/     M anipulation  |                                                 |
\*---------------------------------------------------------------------------*/
FoamFile
{
    version     2.0;
    format      ascii;
    arch        "LSB;label=32;scalar=64";
    class       volScalarField;
    location    "0.835/water";
    object      p;
}
// * * * * * * * * * * * * * * * * * * * * * * * * * * * * * * * * * * * * * //

dimensions      [1 -1 -2 0 0 0 0];

internalField   nonuniform List<scalar> 
6000
(
102087.268503
102083.506626
102082.535418
102081.776394
102081.125041
102080.536613
102079.990923
102079.488313
102079.032933
102078.623359
102078.258072
102077.934148
102077.647184
102077.393001
102077.168218
102076.970122
102076.796634
102076.646255
102076.518109
102076.411797
102068.502174
102066.635526
102066.787501
102066.787085
102066.489657
102066.209751
102065.935503
102065.662286
102065.383602
102065.106619
102064.845091
102064.604022
102064.381319
102064.174738
102063.983647
102063.808434
102063.649929
102063.509075
102063.386916
102063.284516
102051.79636
102049.851503
102050.580195
102051.126598
102051.235448
102051.301226
102051.328439
102051.308116
102051.245445
102051.148161
102051.029409
102050.90425
102050.780317
102050.658691
102050.539274
102050.422836
102050.311087
102050.206258
102050.110837
102050.02717
102037.34981
102036.010276
102036.808584
102037.162874
102037.126963
102037.130392
102037.171177
102037.207948
102037.223674
102037.214676
102037.182492
102037.134907
102037.080422
102037.022901
102036.962883
102036.900338
102036.835898
102036.770952
102036.707491
102036.647599
102022.902787
102022.011776
102023.103303
102023.482839
102023.41021
102023.35799
102023.370535
102023.407747
102023.439089
102023.456329
102023.458226
102023.446893
102023.427478
102023.403912
102023.377282
102023.347209
102023.313337
102023.275854
102023.235606
102023.193697
102009.054581
102008.152917
102009.278573
102009.749314
102009.769503
102009.727488
102009.722131
102009.755971
102009.798065
102009.83001
102009.849143
102009.856046
102009.853828
102009.845995
102009.834258
102009.818592
102009.798456
102009.773478
102009.743794
102009.70978
101995.56749
101994.483709
101995.478386
101995.944877
101996.077947
101996.128443
101996.159024
101996.203591
101996.260374
101996.308511
101996.341314
101996.359471
101996.365346
101996.36238
101996.35314
101996.338469
101996.318323
101996.292467
101996.260967
101996.224013
101982.029629
101980.778268
101981.575127
101982.094852
101982.36124
101982.552295
101982.681061
101982.770311
101982.849112
101982.91469
101982.957392
101982.978081
101982.980414
101982.969178
101982.948467
101982.920454
101982.886057
101982.845652
101982.799693
101982.748493
101969.653958
101968.289489
101969.019375
101969.340569
101969.437958
101969.541719
101969.626493
101969.682515
101969.723823
101969.759113
101969.774436
101969.764588
101969.733609
101969.687636
101969.632055
101969.569924
101969.502856
101969.431736
101969.357285
101969.280174
101956.712569
101955.225347
101956.227949
101956.630612
101956.711869
101956.766526
101956.813597
101956.838658
101956.842482
101956.830871
101956.790273
101956.715296
101956.615472
101956.502392
101956.384052
101956.264209
101956.144811
101956.026877
101955.911271
101955.798767
101945.41818
101943.611048
101944.345594
101944.542307
101944.40736
101944.283906
101944.209643
101944.16319
101944.117628
101944.049107
101943.931808
101943.757846
101943.551276
101943.338352
101943.131947
101942.935658
101942.75054
101942.577002
101942.415204
101942.265065
101933.231452
101930.960401
101931.580868
101931.756097
101931.568983
101931.39606
101931.304794
101931.270723
101931.228519
101931.129518
101930.945862
101930.674895
101930.352006
101930.029252
101929.73172
101929.461787
101929.217897
101928.998347
101928.801558
101928.625855
101920.594511
101917.893743
101918.028012
101918.03006
101917.785759
101917.63406
101917.609328
101917.643832
101917.648932
101917.579146
101917.402645
101917.103358
101916.717664
101916.328689
101915.984428
101915.684951
101915.424247
101915.197552
101915.001072
101914.831269
101905.823805
101902.922996
101903.083672
101903.061348
101902.820297
101902.725021
101902.787003
101902.879454
101902.928936
101902.932078
101902.8636
101902.665135
101902.343951
101902.001759
101901.714308
101901.479596
101901.283934
101901.119432
101900.981183
101900.864972
101888.806019
101885.783055
101886.185788
101886.267856
101886.150357
101886.221941
101886.41451
101886.594043
101886.749154
101886.915649
101887.076487
101887.15006
101887.097012
101886.985069
101886.903691
101886.859056
101886.830927
101886.809354
101886.791786
101886.776716
101868.941777
101866.261672
101867.355629
101867.872656
101868.148555
101868.519371
101868.926981
101869.306716
101869.691439
101870.121039
101870.569416
101870.971641
101871.316582
101871.599986
101871.849636
101872.083956
101872.288982
101872.456457
101872.589961
101872.694691
101851.134117
101849.567146
101850.959955
101851.628987
101852.036245
101852.490631
101852.98802
101853.499318
101854.029248
101854.571371
101855.109862
101855.603963
101856.102043
101856.659545
101857.188683
101857.652666
101858.043062
101858.357121
101858.602811
101858.791472
101838.227229
101837.331837
101838.434762
101839.036352
101839.383359
101839.75567
101840.185809
101840.627654
101841.042771
101841.43474
101841.798045
101842.13791
101842.483843
101842.951348
101843.505238
101844.011686
101844.430991
101844.762821
101845.016047
101845.202562
101828.857749
101828.023413
101828.903257
101829.160772
101829.192279
101829.277272
101829.43522
101829.616274
101829.78588
101829.909854
101830.031818
101830.221887
101830.413743
101830.626677
101830.949071
101831.280538
101831.54607
101831.740881
101831.875027
101831.955931
101817.419238
101816.722497
101818.104235
101818.540179
101818.640391
101818.727184
101818.848879
101818.982333
101819.057348
101819.006911
101818.946506
101818.991841
101819.102195
101819.174942
101819.215556
101819.244865
101819.22113
101819.157308
101819.068899
101818.958381
101808.436154
101807.435123
101808.476621
101808.714205
101808.653747
101808.612364
101808.641365
101808.650273
101808.45102
101808.125916
101807.901265
101807.811787
101807.838061
101807.86847
101807.731438
101807.470982
101807.11459
101806.736573
101806.373398
101806.026268
101797.835038
101796.473851
101797.608173
101798.010196
101798.051961
101798.064714
101798.05869
101797.840402
101797.315031
101796.802901
101796.513713
101796.28216
101796.222458
101796.209739
101795.977691
101795.486911
101794.828745
101794.148505
101793.516799
101792.936292
101788.471735
101786.543666
101787.082095
101787.285203
101787.184635
101787.034992
101786.755738
101786.046269
101785.179531
101784.867921
101784.462497
101784.041579
101783.869518
101783.802295
101783.538894
101782.888674
101781.995967
101781.079773
101780.238881
101779.474518
101775.318734
101773.26421
101774.385075
101774.730531
101774.625832
101774.369381
101773.781899
101772.784576
101772.301316
101771.740522
101771.291299
101770.907159
101770.320768
101770.233436
101770.025478
101769.329085
101768.32318
101767.285786
101766.338345
101765.477622
101761.782456
101759.647027
101760.901317
101761.133984
101760.822024
101760.296047
101759.379332
101758.556692
101757.834719
101757.385086
101756.837024
101755.475862
101755.060385
101755.258073
101755.188228
101754.607552
101753.675248
101752.66464
101751.729746
101750.873901
101747.292874
101744.783207
101746.070273
101746.197628
101745.688367
101744.926631
101743.947964
101742.939493
101742.37479
101741.641869
101740.215009
101739.331508
101739.516373
101739.580056
101739.456607
101739.020611
101738.256379
101737.345055
101736.485404
101735.70066
101732.088449
101729.264794
101730.301491
101730.301753
101729.673564
101728.859654
101727.800707
101727.038398
101726.178795
101724.991384
101723.912025
101723.541593
101723.439993
101723.254565
101723.163588
101722.830917
101722.248367
101721.460294
101720.697552
101720.02049
101716.683806
101713.191627
101713.375437
101713.165269
101712.546909
101711.769913
101710.836253
101709.718844
101708.237546
101706.991133
101706.474612
101706.521315
101706.279695
101706.175706
101705.939001
101705.83199
101705.525744
101704.964555
101704.365674
101703.854394
101697.687883
101693.581789
101693.614078
101693.330158
101692.657405
101691.744003
101690.471504
101689.112482
101688.291881
101688.097934
101688.318181
101688.28888
101688.196878
101688.04883
101688.143731
101688.236721
101688.126147
101687.860133
101687.513501
101687.242477
101671.437491
101666.727357
101667.126579
101667.316697
101667.371771
101667.261903
101667.039491
101667.194331
101667.782357
101668.469132
101668.931288
101669.195333
101669.346583
101669.547244
101669.797434
101670.049666
101670.126011
101670.199577
101670.22484
101670.284774
101639.750587
101635.510447
101636.776528
101637.913062
101639.252488
101640.733252
101642.270734
101643.946485
101645.638015
101647.108765
101648.260098
101649.157729
101649.93208
101650.537331
101651.136938
101651.59785
101651.902936
101652.272673
101652.738584
101653.198652
101615.208133
101612.70979
101614.154394
101614.991936
101615.921601
101617.493885
101619.555635
101621.784969
101623.980839
101626.003781
101627.736752
101629.304684
101630.747633
101631.940882
101632.862233
101633.520908
101634.039444
101634.615852
101635.4614
101636.32108
101600.709193
101599.871635
101600.912841
101601.270385
101601.330853
101601.80088
101602.975802
101604.60585
101606.42705
101608.256162
101609.981014
101611.648704
101613.253716
101614.653704
101615.715291
101616.464796
101617.12497
101617.836726
101618.880086
101620.042222
101588.745276
101589.116248
101590.254161
101590.616586
101590.578937
101590.559749
101590.978547
101591.88051
101593.064695
101594.352897
101595.624655
101596.917869
101598.220308
101599.399787
101600.314218
101600.976734
101601.616382
101602.434408
101603.46372
101604.721645
101578.380761
101578.919321
101580.278305
101580.720067
101580.760191
101580.685198
101580.833836
101581.347483
101582.075374
101582.849249
101583.599632
101584.428293
101585.351459
101586.158354
101586.774536
101587.238747
101588.016866
101588.778688
101589.537439
101590.58709
101568.322457
101569.027706
101570.446042
101570.931857
101571.035025
101571.017303
101571.158865
101571.535773
101572.009842
101572.436267
101572.784639
101573.305869
101573.851726
101574.343596
101574.662908
101575.021393
101575.622768
101576.160349
101576.743136
101577.474726
101559.387335
101559.814264
101561.060244
101561.516267
101561.586196
101561.616528
101561.733894
101562.006895
101562.327867
101562.513525
101562.587755
101562.763181
101563.065759
101563.26929
101563.255502
101563.285395
101563.690864
101564.235467
101564.672311
101565.071647
101550.679929
101550.812634
101551.780806
101552.185789
101552.316401
101552.377305
101552.512366
101552.743185
101552.92331
101552.786583
101552.495591
101552.531744
101552.5204
101552.442107
101552.195513
101551.932212
101552.080868
101552.440929
101552.815744
101552.963741
101541.493439
101541.63268
101542.826615
101543.260942
101543.34541
101543.438702
101543.553743
101543.653224
101543.533821
101542.955495
101542.480172
101542.167689
101541.951354
101541.640137
101540.941555
101540.381575
101540.327882
101540.672056
101540.898205
101540.83139
101532.42816
101532.497912
101533.819358
101534.219123
101534.361305
101534.423972
101534.416616
101534.277936
101533.741525
101532.78132
101531.99767
101531.556363
101531.005512
101530.362799
101529.558588
101528.643242
101528.409786
101528.501872
101528.591668
101528.381276
101523.336563
101523.169482
101524.500346
101524.900124
101525.02129
101524.968609
101524.753106
101524.281869
101523.20183
101521.873415
101521.09084
101520.282469
101519.498424
101518.696258
101517.396813
101516.335584
101515.883241
101515.810352
101515.731672
101515.448833
101513.887307
101513.252365
101514.6114
101515.004452
101515.055422
101514.803121
101514.297126
101513.325538
101511.650236
101510.295389
101509.14795
101508.182964
101507.178691
101505.987614
101504.672347
101503.376023
101502.742623
101502.393592
101502.209515
101501.960161
101503.005088
101501.735466
101503.015396
101503.48329
101503.416978
101502.972694
101502.145759
101500.561145
101498.666427
101497.153539
101496.026365
101494.864211
101493.606463
101492.381587
101490.797826
101489.587255
101488.702635
101488.127384
101487.97561
101487.837434
101488.300742
101486.861763
101488.898732
101489.495419
101489.320168
101488.683604
101487.460208
101485.425148
101483.524486
101482.314864
101481.069057
101479.816992
101478.616457
101477.230062
101475.978153
101474.710536
101473.589564
101472.931261
101472.938739
101472.939565
101469.987302
101468.467831
101471.434546
101472.267689
101472.05893
101471.243081
101469.620298
101467.560184
101466.339811
101465.143708
101464.050427
101463.007273
101461.716609
101460.802726
101459.714191
101458.591651
101457.30657
101456.759835
101456.989705
101457.156298
101447.663973
101446.642055
101450.492796
101451.565273
101451.351188
101450.400801
101448.688687
101447.444293
101446.471615
101445.747522
101445.058928
101443.88597
101443.351487
101442.900507
101442.332433
101441.269563
101440.037724
101439.823702
101440.25744
101440.581112
101420.283255
101420.949563
101425.332965
101426.61159
101426.605258
101425.993236
101425.105153
101424.585594
101424.501598
101424.31026
101423.455652
101423.422358
101423.808986
101424.10429
101423.949011
101423.105565
101422.27793
101422.41316
101422.954343
101423.421519
101388.092581
101391.605109
101395.86212
101397.579357
101398.47724
101399.197295
101399.767625
101400.598614
101401.083306
101400.652356
101401.383669
101402.88825
101404.304875
101405.184582
101405.386212
101404.974363
101404.622714
101404.948966
101405.505974
101406.106041
101363.937146
101367.651084
101372.310654
101374.317805
101375.773112
101377.236764
101378.420929
101379.016423
101379.006583
101380.373671
101382.718534
101384.959174
101386.602955
101387.571636
101388.01717
101387.917235
101387.839077
101388.182598
101388.780946
101389.40574
101359.864291
101362.924187
101366.305445
101366.78803
101366.555827
101366.043276
101365.252917
101364.663581
101365.614408
101367.615993
101369.571156
101371.108339
101372.081586
101372.600861
101372.842217
101372.615054
101372.462214
101372.682755
101373.092824
101373.512757
101356.345018
101359.181373
101362.334702
101362.098456
101360.567766
101358.61436
101357.122205
101357.011015
101358.110427
101359.215117
101360.115566
101360.607392
101360.443991
101360.109373
101359.586137
101358.789915
101358.292166
101358.110269
101358.165328
101358.330374
101353.015478
101354.897979
101357.608589
101356.799149
101354.419562
101352.019713
101350.572293
101350.576703
101350.983736
101351.318167
101351.625759
101351.096352
101349.818584
101348.488676
101346.973276
101345.654874
101344.747908
101344.111288
101343.626039
101343.673972
101349.891888
101349.842459
101351.236416
101349.623943
101346.622141
101344.036114
101342.530204
101342.38981
101342.627406
101342.912708
101342.573331
101340.810352
101338.421902
101336.135019
101334.044412
101332.420764
101330.974746
101329.635345
101328.667509
101328.416111
101346.854627
101343.062188
101343.475986
101341.011726
101337.824025
101335.082203
101333.769369
101333.824893
101334.029158
101333.685083
101331.833889
101328.644885
101325.470504
101322.580207
101320.211835
101318.113396
101315.865254
101313.617921
101311.979186
101311.477944
101344.108088
101335.788687
101334.297141
101331.976513
101329.110712
101326.47716
101325.197519
101324.838474
101324.081044
101321.961429
101318.106511
101313.957238
101310.316615
101307.126213
101304.400476
101301.576062
101298.287394
101295.091944
101293.028963
101292.073443
101341.74827
101330.086749
101326.079146
101323.405915
101320.116983
101316.938229
101314.357245
101312.181878
101309.06322
101304.57498
101299.68274
101295.299868
101291.370736
101287.994993
101284.843561
101281.322368
101277.26566
101273.610711
101271.289202
101270.415483
101326.843339
101311.292337
101307.521715
101305.021625
101301.034736
101296.703235
101292.696061
101288.384195
101283.341368
101278.155489
101273.451891
101269.290833
101265.674608
101262.50344
101259.345904
101255.888927
101252.305148
101249.190594
101247.446549
101246.811539
101261.986801
101242.655248
101243.233551
101245.359332
101245.616467
101245.281947
101244.394548
101242.332818
101239.499858
101236.672074
101234.154985
101232.017201
101230.21719
101228.57207
101226.921442
101225.333118
101223.784863
101222.38026
101221.625348
101221.589843
101129.551308
101120.003387
101129.911762
101137.148789
101144.850453
101153.481901
101161.963219
101168.945134
101174.175472
101178.046897
101181.184487
101183.903121
101186.301021
101188.417318
101190.289648
101191.99671
101193.343142
101194.610898
101195.534459
101196.073877
101079.550069
101079.494167
101079.49674
101080.37567
101082.998022
101087.478294
101094.273955
101103.541715
101114.072637
101123.890395
101132.184786
101139.300037
101145.550138
101151.098788
101156.04658
101160.399326
101164.251236
101167.617915
101170.289744
101171.638736
101077.500936
101077.488721
101077.470528
101077.430786
101077.407332
101077.587047
101078.691681
101081.465656
101086.750855
101094.259806
101102.513002
101110.255874
101117.25988
101123.649295
101129.459139
101134.713249
101139.380396
101143.593683
101147.398713
101149.51526
101075.934696
101075.927718
101075.921058
101075.91138
101075.894877
101075.870622
101076.126062
101077.059013
101079.311698
101083.195538
101088.491907
101094.404215
101100.151944
101105.567981
101110.701236
101115.415213
101119.809203
101123.743025
101127.452584
101130.021969
101074.433154
101074.429239
101074.425404
101074.418954
101074.410393
101074.400132
101074.492053
101074.845157
101075.997229
101078.212009
101081.419158
101085.270774
101089.25625
101093.240824
101097.085146
101100.820621
101104.253451
101107.516489
101110.316332
101112.534099
101072.90314
101072.902591
101072.902742
101072.903879
101072.9087
101072.923124
101072.959089
101073.017783
101073.604451
101074.921349
101076.839121
101079.080518
101081.564702
101084.127478
101086.732084
101089.218285
101091.672788
101093.895179
101095.742325
101097.208564
101071.240174
101071.235677
101071.225565
101071.211623
101071.19464
101071.278723
101071.245954
101071.190483
101071.470793
101072.218823
101073.173942
101074.102477
101075.222367
101076.662633
101078.051602
101079.467173
101080.784648
101082.112699
101083.078933
101083.059728
101069.492006
101069.477736
101069.466057
101069.460318
101069.467419
101069.586198
101069.424182
101069.237183
101069.26908
101069.473657
101069.341464
101069.02352
101069.287692
101069.628968
101070.038582
101070.409815
101070.786973
101071.036227
101071.099222
101070.552029
101067.587047
101067.566736
101067.539582
101067.51279
101067.600052
101067.607831
101067.317949
101066.93893
101066.615659
101066.050365
101064.782475
101063.683464
101063.052329
101062.629936
101062.112188
101061.595079
101061.068646
101060.548138
101059.803204
101057.969676
101065.386878
101065.495879
101065.632261
101065.626918
101065.731419
101065.599505
101065.12781
101064.474072
101063.639295
101062.03165
101059.731953
101057.875306
101056.662773
101055.328682
101054.007678
101052.671992
101051.273532
101049.834871
101048.261936
101046.17251
101061.246788
101061.721884
101062.54332
101062.783023
101062.915719
101062.695219
101062.062881
101061.114091
101059.587279
101056.740304
101053.569631
101051.505816
101049.4674
101047.50253
101045.461227
101043.342117
101041.274433
101039.124398
101036.878076
101033.724279
101055.436436
101055.840493
101057.700602
101058.337548
101058.511939
101058.194094
101057.399258
101056.070996
101053.479376
101049.56499
101046.424425
101043.803039
101041.375696
101038.777516
101036.108555
101033.480063
101030.693794
101027.916484
101024.948277
101021.685339
101049.657966
101049.363703
101052.081143
101052.914268
101052.955289
101052.400991
101051.279237
101049.131395
101045.048105
101040.853472
101037.653798
101034.926924
101031.951941
101028.94644
101025.944491
101022.777904
101019.718063
101016.460177
101013.159826
101009.411082
101043.348885
101041.641413
101044.853673
101045.777489
101045.595926
101044.704087
101042.906743
101039.071667
101034.19379
101030.302793
101027.361584
101024.154126
101020.967697
101017.757111
101014.387032
101011.169925
101007.735186
101004.403637
101000.901208
100997.257704
101035.43145
101031.706746
101034.586645
101035.481718
101034.979585
101033.454899
101030.097667
101024.941322
101020.377327
101017.364582
101014.104732
101010.914186
101007.674705
101004.26378
101001.03591
100997.610417
100994.397868
100991.00773
100987.780278
100984.400743
101023.048122
101017.548469
101020.774604
101021.258528
101019.64301
101016.332411
101011.179423
101006.267129
101003.35885
101000.224163
100997.212481
100994.11173
100990.859176
100987.735308
100984.30039
100981.218035
100978.014531
100975.314625
100972.666319
100970.126042
101002.636367
100995.162047
100997.293121
100996.839238
100994.101586
100990.225226
100986.049095
100983.438974
100980.765103
100977.902705
100975.157664
100972.058425
100969.155338
100965.742955
100963.094312
100960.575296
100958.56693
100956.75296
100955.057701
100953.459578
100961.109145
100951.854003
100954.514612
100955.170731
100954.123794
100952.274522
100950.165202
100948.211323
100946.152388
100944.457274
100942.553032
100941.053865
100939.398897
100938.292843
100937.279602
100936.469236
100935.78294
100935.210905
100934.730473
100934.392948
100885.976489
100876.588352
100879.429021
100880.920705
100881.595932
100882.342776
100883.761875
100886.132141
100889.770523
100893.944947
100898.007014
100901.399511
100904.18738
100906.31423
100908.005925
100909.416699
100910.655009
100911.764862
100912.783805
100913.793789
100841.904735
100837.13457
100838.140357
100838.886758
100839.452996
100840.365865
100842.048266
100844.752735
100848.625797
100853.686996
100859.480992
100865.421323
100870.978803
100875.860456
100879.994797
100883.497617
100886.477427
100889.032841
100891.27505
100893.32812
100843.222624
100843.157211
100843.117112
100843.083499
100843.052787
100843.026667
100843.006661
100842.993683
100843.03361
100843.616406
100845.268695
100847.931963
100851.439567
100855.49764
100859.619684
100863.402378
100866.717777
100869.618316
100872.177318
100874.477689
100842.528613
100842.522099
100842.521201
100842.516143
100842.507622
100842.49639
100842.483059
100842.467776
100842.45021
100842.43373
100842.609418
100843.171875
100844.19557
100845.820882
100848.00046
100850.407916
100852.670085
100854.677183
100856.454547
100858.005173
100841.997157
100841.992854
100841.99145
100841.989529
100841.985635
100841.979904
100841.972581
100841.963356
100841.951546
100841.936261
100841.970556
100842.065136
100842.226325
100842.521078
100842.905414
100843.224733
100843.470379
100843.738035
100843.883118
100843.879763
100841.482278
100841.481345
100841.48335
100841.484647
100841.48345
100841.48002
100841.47493
100841.467415
100841.455961
100841.438445
100841.430963
100841.287011
100840.99676
100840.534573
100839.711175
100838.301007
100836.684051
100835.136286
100833.569596
100831.713722
100840.945393
100840.949443
100840.960659
100840.981222
100840.98913
100840.99434
100840.998045
100841.000135
100841.000997
100840.987249
100840.929881
100840.549584
100839.87458
100838.802486
100837.003675
100834.156996
100830.901566
100827.966937
100824.773617
100821.335726
100840.052494
100840.076051
100840.138573
100840.325636
100840.449399
100840.471641
100840.48163
100840.476868
100840.433648
100840.264408
100839.963032
100839.398665
100838.436525
100836.804809
100833.847647
100829.559337
100825.352681
100821.221558
100816.950057
100812.137122
100838.064081
100838.069229
100838.860085
100838.739635
100838.42065
100838.130817
100837.926353
100837.814181
100837.770076
100837.685044
100837.379875
100836.71775
100835.40352
100832.747945
100828.308809
100823.479045
100818.950483
100814.402071
100809.242676
100803.668267
100835.180846
100835.517086
100836.998139
100836.940211
100836.441227
100835.925723
100835.476375
100835.112892
100834.748551
100834.304751
100833.599725
100832.278488
100829.628955
100825.341106
100820.642862
100816.277634
100811.939754
100806.937249
100801.510791
100795.332605
100831.69078
100832.765083
100834.498235
100834.351079
100833.514374
100832.587856
100831.785847
100831.063472
100830.220488
100829.022931
100827.109841
100824.11464
100820.100666
100816.126511
100812.352863
100808.556876
100804.061364
100799.104911
100793.49312
100787.09835
100826.258127
100827.607693
100829.25179
100829.103632
100828.085511
100826.829678
100825.543997
100823.930145
100821.822267
100819.150653
100816.13804
100812.885269
100810.113939
100807.108623
100804.006168
100800.232584
100795.753328
100790.930871
100785.132765
100778.466404
100819.870124
100820.325537
100823.02139
100822.850316
100821.457068
100819.488288
100816.904495
100813.888526
100810.970425
100808.58999
100806.064157
100803.889612
100801.247105
100798.53731
100795.310267
100790.882991
100786.48771
100781.500836
100775.814935
100769.28321
100815.909439
100813.420034
100816.614407
100816.486227
100814.854231
100812.21096
100808.680852
100805.26285
100802.761191
100800.003308
100797.610421
100794.786086
100791.903226
100788.776208
100784.21773
100780.252615
100776.205706
100771.543921
100766.095255
100759.742527
100811.363548
100804.130494
100806.863212
100807.118267
100805.584142
100802.571828
100798.488305
100795.162191
100791.854269
100789.114098
100786.080554
100782.994694
100779.777765
100775.30007
100771.705215
100768.200307
100764.284065
100759.802568
100754.745996
100749.0355
100799.36245
100786.860797
100789.91164
100790.750249
100789.526406
100786.079884
100781.737179
100777.82163
100774.583471
100771.37523
100767.74722
100764.091713
100759.771308
100757.078933
100754.277439
100751.340073
100748.06824
100744.536428
100740.756486
100736.693404
100766.393811
100751.13995
100754.918154
100757.095596
100756.149425
100752.562605
100748.294213
100744.440338
100740.9157
100737.253451
100734.763545
100732.836358
100732.233742
100731.214514
100729.843123
100728.278566
100726.68906
100725.094964
100723.428003
100721.769723
100675.43784
100665.840559
100677.555699
100682.38785
100683.627179
100683.544266
100683.467979
100683.633854
100684.217129
100686.146162
100688.908025
100692.003875
100694.428865
100696.051403
100697.409079
100698.739916
100700.117767
100701.453012
100702.7952
100704.246544
100574.871148
100578.148247
100586.903818
100591.343359
100594.906143
100600.822922
100608.656607
100616.514547
100623.90017
100630.895329
100637.701359
100644.21327
100650.30925
100655.946216
100661.238298
100666.281968
100671.121969
100675.745121
100680.212964
100684.653162
100553.631519
100553.607276
100553.580931
100553.590442
100554.40852
100557.229363
100563.417751
100572.209936
100581.329012
100589.799641
100597.740988
100605.572707
100613.593671
100621.651899
100629.481742
100636.998265
100644.211516
100651.145707
100657.786416
100664.309732
100551.512154
100551.503525
100551.486058
100551.453208
100551.39943
100551.387549
100552.062355
100555.485737
100561.727264
100568.697607
100575.556025
100582.590506
100590.135864
100598.144598
100606.274376
100614.303445
100622.159803
100629.841833
100637.283332
100644.639814
100549.917667
100549.910711
100549.895062
100549.878256
100549.856923
100549.827515
100549.801322
100550.438423
100553.603314
100558.811367
100564.321747
100570.06958
100576.384657
100583.27238
100590.451549
100597.704572
100604.967459
100612.230478
100619.420673
100626.591332
100548.504633
100548.501725
100548.496463
100548.488238
100548.47585
100548.462755
100548.452346
100548.465446
100549.448277
100553.031388
100557.820501
100562.734107
100567.903385
100573.407906
100579.154111
100585.107504
100591.262296
100597.567036
100603.967803
100610.451123
100547.221636
100547.217349
100547.209096
100547.195303
100547.173878
100547.141968
100547.094
100547.04112
100546.973354
100548.795197
100552.378694
100556.607254
100560.880813
100565.208299
100569.730853
100574.560585
100579.652409
100584.956509
100590.42919
100596.063121
100546.091374
100546.089852
100546.089004
100546.087287
100546.083779
100546.079573
100546.076123
100546.071124
100545.792563
100546.446765
100548.595014
100551.605369
100554.827871
100558.197207
100561.812829
100565.607938
100569.665557
100573.980068
100578.5224
100583.211806
100545.054369
100545.054189
100545.057009
100545.060154
100545.061372
100545.060199
100545.055358
100545.044917
100544.925728
100545.049765
100546.231516
100548.165732
100550.392513
100552.841876
100555.445785
100558.249415
100561.248396
100564.516282
100567.981218
100571.652475
100544.038294
100544.040521
100544.048062
100544.057439
100544.066004
100544.072112
100544.074085
100544.071191
100544.066888
100544.042791
100544.615523
100545.669687
100546.957829
100548.41352
100550.127909
100551.976529
100554.026381
100556.245295
100558.693497
100561.262145
100542.967656
100542.974254
100542.990416
100543.014503
100543.042683
100543.07234
100543.102834
100543.136801
100543.140014
100542.959448
100543.136762
100543.516374
100543.875493
100544.422856
100545.224727
100546.267814
100547.425498
100548.741189
100550.179825
100551.751436
100541.654607
100541.666569
100541.694663
100541.738596
100541.806235
100541.898123
100541.942969
100541.973221
100541.767576
100541.438563
100541.255879
100540.991108
100540.489835