/*--------------------------------*- C++ -*----------------------------------*\
| =========                 |                                                 |
| \\      /  F ield         | OpenFOAM: The Open Source CFD Toolbox           |
|  \\    /   O peration     | Version:  2312                                  |
|   \\  /    A nd           | Website:  www.openfoam.com                      |
|    \\/     M anipulation  |                                                 |
\*---------------------------------------------------------------------------*/
FoamFile
{
    version     2.0;
    format      ascii;
    arch        "LSB;label=32;scalar=64";
    class       volScalarField;
    location    "0.06/water";
    object      nut.gas;
}
// * * * * * * * * * * * * * * * * * * * * * * * * * * * * * * * * * * * * * //

dimensions      [0 2 -1 0 0 0 0];

internalField   nonuniform List<scalar> 
1496
(
4.1017137867e-06
3.5536529167e-06
3.00949559666e-06
2.70804075188e-06
2.51564434908e-06
2.01659105612e-06
1.37418594776e-06
8.68837547409e-07
5.84712958705e-07
5.06173335388e-07
4.74433027909e-07
3.86068861754e-07
2.42466231759e-07
1.10275957558e-07
2.21773537048e-08
1.99161698321e-09
1.58329909196e-10
3.7010277102e-11
3.35462693365e-11
5.82804489159e-11
4.15465027216e-06
3.64251738644e-06
3.07551731231e-06
2.78422765855e-06
2.54525343809e-06
1.92785600662e-06
1.27293731809e-06
7.91281894149e-07
5.36484949561e-07
4.76689088634e-07
4.54866634226e-07
3.71447334516e-07
2.30509083023e-07
1.11705565259e-07
1.93337546179e-08
1.7256139882e-09
1.41049669993e-10
3.55071150949e-11
3.35470486082e-11
5.97869168707e-11
4.24830282403e-06
3.73165864357e-06
3.12474158713e-06
2.85722411033e-06
2.55866347223e-06
1.83418530361e-06
1.18576949634e-06
7.24541270327e-07
4.92770082012e-07
4.48173809696e-07
4.35648910891e-07
3.57194045979e-07
2.21653493088e-07
1.07495811674e-07
1.74781995939e-08
1.58375187548e-09
1.32440487038e-10
3.46689473851e-11
3.36270325469e-11
6.11522346366e-11
4.35151626165e-06
3.75358304895e-06
3.11870247643e-06
2.91114219379e-06
2.54812109762e-06
1.75247613955e-06
1.11987411577e-06
6.69544170259e-07
4.51287025654e-07
4.20145245213e-07
4.18242288728e-07
3.44841614671e-07
2.26020832664e-07
1.01663706843e-07
1.60724230028e-08
1.47408386125e-09
1.2515239166e-10
3.39380485209e-11
3.37013287337e-11
6.22022602088e-11
4.3673314504e-06
3.63597003319e-06
3.03133811082e-06
2.92312115558e-06
2.52496034322e-06
1.68978499692e-06
1.07890908323e-06
6.2678081771e-07
4.10569456484e-07
3.92576198743e-07
4.03542167771e-07
3.35350707335e-07
2.33581348631e-07
9.66009698899e-08
1.49284306547e-08
1.37068680596e-09
1.17727091707e-10
3.32981999114e-11
3.38078679412e-11
6.29059313514e-11
4.24334602276e-06
3.38126946974e-06
2.8674276818e-06
2.87793840018e-06
2.50536292419e-06
1.6434808435e-06
1.06004754155e-06
5.96373069615e-07
3.7052208767e-07
3.66558938568e-07
3.92895322676e-07
3.29866358977e-07
2.32892350189e-07
9.31858073326e-08
1.40336158493e-08
1.271857468e-09
1.1050277775e-10
3.29010655377e-11
3.40602523324e-11
6.33767641915e-11
3.90544063854e-06
3.06134958161e-06
2.69040736606e-06
2.79140192856e-06
2.44534866387e-06
1.60143569836e-06
1.06187463228e-06
5.77983919626e-07
3.31282014565e-07
3.43319634229e-07
3.87845194424e-07
3.29598480424e-07
2.25941412603e-07
9.16614041841e-08
1.33982963449e-08
1.18090180706e-09
1.04389410566e-10
3.30035786694e-11
3.46442103984e-11
6.38757253917e-11
3.5544008662e-06
2.85777042827e-06
2.61277657636e-06
2.71290702581e-06
2.31304663507e-06
1.54909718994e-06
1.09695003679e-06
5.7122504155e-07
2.91967670228e-07
3.23845624799e-07
3.89466985354e-07
3.34998420267e-07
2.13036774642e-07
9.15086461337e-08
1.30001021534e-08
1.10342885519e-09
1.00512218017e-10
3.38651418306e-11
3.57193083653e-11
6.46015430046e-11
3.34736800384e-06
2.835342017e-06
2.6885397805e-06
2.6366991677e-06
2.16892185424e-06
1.58335334268e-06
1.19109050379e-06
5.72174406078e-07
2.509968417e-07
3.09874505658e-07
3.9753704617e-07
3.44874437517e-07
2.0986634778e-07
9.21865235133e-08
1.28084001969e-08
1.04939580988e-09
1.00035533339e-10
3.56438476878e-11
3.73357298403e-11
6.57377719619e-11
3.28022718825e-06
2.92445624295e-06
2.81190018289e-06
2.46580943603e-06
1.96748657336e-06
1.64216380073e-06
1.28351513572e-06
5.57019029107e-07
2.09443767747e-07
3.04652739874e-07
4.098132292e-07
3.56428011069e-07
2.15252413019e-07
9.39538667276e-08
1.28796702098e-08
1.03658089797e-09
1.04073604949e-10
3.825808415e-11
3.93035730615e-11
6.70872043136e-11
3.32298639428e-06
3.05137123668e-06
2.90361277976e-06
2.29461244883e-06
1.97044175046e-06
1.68717654541e-06
1.3347002424e-06
5.21136105185e-07
1.72581087394e-07
3.09024804274e-07
4.23789734362e-07
3.68236860515e-07
2.27600033988e-07
9.82440666801e-08
1.35617920815e-08
1.0996222623e-09
1.14947556647e-10
4.17730933476e-11
4.14960858866e-11
6.85241696499e-11
3.40888738333e-06
3.16510560348e-06
2.94551209316e-06
2.11194310489e-06
1.99640617558e-06
1.72136014093e-06
1.32958907633e-06
4.66614844031e-07
1.45431571241e-07
3.20384476429e-07
4.3736017993e-07
3.80799536779e-07
2.62716211034e-07
1.07495434075e-07
1.5545513178e-08
1.30024306459e-09
1.37282882956e-10
4.65143639248e-11
4.37742660349e-11
6.98933829543e-11
3.52123855905e-06
3.34004247934e-06
2.97960355661e-06
1.76432009075e-06
1.96503397806e-06
1.7283083045e-06
1.29310986853e-06
4.0551668864e-07
1.30949225898e-07
3.31937938675e-07
4.47265821765e-07
3.9462037475e-07
3.14148132857e-07
1.24021987646e-07
1.98540637326e-08
1.75170563721e-09
1.79948692575e-10
5.31233556205e-11
4.58309189597e-11
7.02792347367e-11
3.9932847534e-06
3.89410197002e-06
3.0999014275e-06
1.65512479073e-06
1.89627660385e-06
1.70154125882e-06
1.25857232187e-06
3.66112111135e-07
1.30944483649e-07
3.32102628657e-07
4.48542852739e-07
4.09143276439e-07
3.52634512814e-07
1.4978925632e-07
2.79850873551e-08
2.67805790349e-09
2.60254891704e-10
6.29591207013e-11
4.78557074022e-11
6.99427999376e-11
4.96690355955e-06
4.51996760638e-06
2.6266948527e-06
1.59688366241e-06
1.77698912646e-06
1.61329225129e-06
1.22865199462e-06
3.85364863281e-07
1.49579932001e-07
3.04416090975e-07
4.34455884083e-07
4.20811371349e-07
3.87906854747e-07
1.85796214256e-07
4.19228615928e-08
4.53131411764e-09
4.16120256427e-10
7.93254980863e-11
5.04974148954e-11
6.91769644337e-11
5.32725323818e-06
4.49972823589e-06
2.73382606901e-06
1.65370978951e-06
1.64511374638e-06
1.49960345844e-06
1.1792670419e-06
4.74061128269e-07
1.98207568398e-07
2.52457950277e-07
3.99886195525e-07
4.24550802886e-07
4.1404674081e-07
2.30531627779e-07
6.35697496644e-08
8.16045697897e-09
7.28822586961e-10
1.08147023675e-10
5.44264138357e-11
6.81316218957e-11
5.87770302935e-06
5.02134899754e-06
3.46370487257e-06
1.92959492375e-06
1.58836190701e-06
1.41748382196e-06
1.14032401558e-06
6.22604263009e-07
2.87963542462e-07
2.19219118171e-07
3.50578168547e-07
4.15023674636e-07
3.97415642191e-07
2.78530529628e-07
9.31789625917e-08
1.48242045375e-08
1.36406317893e-09
1.60882530447e-10
6.06150686348e-11
6.69769115497e-11
6.45977239682e-06
5.6277904206e-06
4.2586255009e-06
2.54556589957e-06
1.67976276769e-06
1.41316885909e-06
1.15127046707e-06
7.88956182445e-07
4.14510304251e-07
2.31399828645e-07
3.05826812958e-07
3.9157407644e-07
3.67601668477e-07
3.20285577961e-07
1.28679089422e-07
2.57956734141e-08
2.6320214357e-09
2.60379266687e-10
7.08479421497e-11
6.61799184455e-11
6.8878408707e-06
6.12756439995e-06
4.89782150279e-06
3.31222056056e-06
1.99244981719e-06
1.51196223936e-06
1.21333733335e-06
9.23979627034e-07
5.44141033269e-07
2.94155928416e-07
2.87423956181e-07
3.63230371935e-07
3.66750083423e-07
3.33431257501e-07
1.66429485939e-07
4.16180160186e-08
5.03479640008e-09
4.52289160406e-10
8.84831490242e-11
6.65182058087e-11
7.1201159596e-06
6.46883894406e-06
5.3909201241e-06
4.02839406778e-06
2.52125409478e-06
1.75340280226e-06
1.35603240275e-06
1.07363342581e-06
7.32567721912e-07
3.9673751065e-07
2.99955347274e-07
3.41641720654e-07
3.57932002592e-07
3.0840065764e-07
2.02355149041e-07
6.16605436448e-08
9.21206326791e-09
8.23744939154e-10
1.19632734561e-10
6.88851788785e-11
7.17446445019e-06
6.63864609836e-06
5.72616095659e-06
4.59217465262e-06
3.13278190349e-06
2.11686641119e-06
1.56906720859e-06
1.23764264927e-06
9.03425935341e-07
5.36955413689e-07
3.55288026517e-07
3.38259400907e-07
3.45651834943e-07
2.9338290218e-07
2.31662686516e-07
8.36903593976e-08
1.54782361119e-08
1.49604168334e-09
1.72854251277e-10
7.3955122698e-11
7.05481509027e-06
6.66265928954e-06
5.92615317114e-06
5.00914535731e-06
3.72644354064e-06
2.57891843268e-06
1.86685569134e-06
1.44473114566e-06
1.09627190641e-06
7.1025870758e-07
4.58136215545e-07
3.6395803343e-07
3.38127080554e-07
2.92307156476e-07
2.48557076606e-07
1.05399114776e-07
2.36395129214e-08
2.60680383289e-09
2.6023748873e-10
8.23821116213e-11
7.0634882073e-06
6.72912850421e-06
6.09335713251e-06
5.32406062165e-06
4.23905418053e-06
3.0875613168e-06
2.24278156946e-06
1.70800805073e-06
1.31290124626e-06
9.09886022153e-07
6.01678799021e-07
4.21428173149e-07
3.43017089629e-07
2.90489756474e-07
2.44619496277e-07
1.24993708131e-07
3.31082905895e-08
4.27182028397e-09
3.98118733825e-10
9.50420970169e-11
6.86631378524e-06
6.68641302791e-06
6.1724991073e-06
5.54082362758e-06
4.64774444781e-06
3.58820479211e-06
2.68055688245e-06
2.0404679334e-06
1.57993363561e-06
1.1828962245e-06
7.68402013601e-07
4.95437837373e-07
3.59009092823e-07
2.88907768669e-07
2.21721769864e-07
1.41248425436e-07
4.29953456185e-08
6.50505814721e-09
6.02525203668e-10
1.12703456235e-10
6.10073780088e-06
6.22225012622e-06
6.00939367375e-06
5.61166509098e-06
4.93672305647e-06
4.02343965125e-06
3.11845607824e-06
2.39904899653e-06
1.86520460185e-06
1.43894846645e-06
9.5149605542e-07
5.80525892419e-07
3.81066675669e-07
2.88293163e-07
2.10066229813e-07
1.52930647516e-07
5.22557642245e-08
9.1474623473e-09
8.78622351036e-10
1.35413683169e-10
5.36876710852e-06
5.58605815764e-06
5.6802962623e-06
5.5230269699e-06
5.06068762683e-06
4.32134200744e-06
3.48780296829e-06
2.7428069185e-06
2.15264470732e-06
1.68390090105e-06
1.12350760727e-06
6.62551231607e-07
4.04115586651e-07
2.88437164253e-07
2.10586722706e-07
1.55369487803e-07
5.98573642535e-08
1.18464458366e-08
1.20516075178e-09
1.61538709153e-10
4.81731327759e-06
5.03581148528e-06
5.32471692792e-06
5.35991848518e-06
5.07745747228e-06
4.50484567663e-06
3.77460373784e-06
3.0477831517e-06
2.42183784449e-06
1.89881300219e-06
1.26127127004e-06
7.23299105442e-07
4.20759353145e-07
2.87821715277e-07
2.09931870828e-07
1.41152350281e-07
6.50534273209e-08
1.41159884119e-08
1.52386348399e-09
1.8691993233e-10
4.45073378644e-06
4.60195580246e-06
4.98867838473e-06
5.17129575805e-06
5.03831189992e-06
4.61615435623e-06
3.99795427591e-06
3.31212011325e-06
2.66360648064e-06
2.07651920569e-06
1.35197937985e-06
7.51425814913e-07
4.24517385522e-07
2.84158997156e-07
2.07248833741e-07
1.26394917986e-07
6.740639036e-08
1.54782209326e-08
1.74972577003e-09
2.05227210382e-10
4.13258537496e-06
4.15052008955e-06
4.62044020639e-06
4.94618528912e-06
4.96332057716e-06
4.6877764343e-06
4.18168703318e-06
3.54412260335e-06
2.87429602004e-06
2.21098777336e-06
1.38353187461e-06
7.41116339646e-07
4.12611646462e-07
2.76333054591e-07
2.02525235453e-07
1.21740120855e-07
6.63794486066e-08
1.56308566257e-08
1.80695365448e-09
2.10377300377e-10
3.87442264995e-06
3.799647724e-06
4.27578560015e-06
4.73629783059e-06
4.87267221506e-06
4.7177695368e-06
4.31056706524e-06
3.71824447296e-06
3.02473984194e-06
2.27770685374e-06
1.33545687652e-06
6.90349508552e-07
3.86732873752e-07
2.65126796124e-07
1.9599387118e-07
1.16913743859e-07
6.21338980847e-08
1.4541485769e-08
1.6708336431e-09
1.99977097509e-10
3.72545081248e-06
3.58006349738e-06
4.01976642192e-06
4.59661960443e-06
4.79624227124e-06
4.71375763481e-06
4.37392138637e-06
3.80676991567e-06
3.07543624907e-06
2.24418390721e-06
1.20085203664e-06
6.07549510565e-07
3.52425481756e-07
2.52356324052e-07
1.87870698828e-07
1.09492649505e-07
5.5703350845e-08
1.24154016457e-08
1.38225954507e-09
1.76938625954e-10
3.61473423726e-06
3.42661180317e-06
3.83471802906e-06
4.49913994721e-06
4.72020039409e-06
4.68219656016e-06
4.38254278891e-06
3.80179032163e-06
2.9942251374e-06
2.08840853202e-06
1.00664576852e-06
5.1203123225e-07
3.16732329859e-07
2.39799070718e-07
1.78131253108e-07
9.9417249805e-08
4.74043773489e-08
9.6377263571e-09
1.02646542581e-09
1.48087828838e-10
3.49450008951e-06
3.27823903175e-06
3.66155310334e-06
4.41976856728e-06
4.63745108669e-06
4.60561007164e-06
4.30850060518e-06
3.64691119931e-06
2.72336808367e-06
1.80979901912e-06
8.0116171216e-07
4.22070653484e-07
2.8539256777e-07
2.28847296741e-07
1.66645419654e-07
8.70726272406e-08
3.7968077736e-08
6.75285476667e-09
6.9284763355e-10
1.20456110417e-10
3.35156583557e-06
3.14407199395e-06
3.53790900215e-06
4.34372648692e-06
4.52262248831e-06
4.4899618354e-06
4.18723985685e-06
3.4800109882e-06
2.46864699629e-06
1.44055128943e-06
6.13739430653e-07
3.45678773459e-07
2.62139944912e-07
2.20583503569e-07
1.53487596555e-07
7.42588303875e-08
2.8367283491e-08
4.27578066617e-09
4.36161677636e-10
9.82814562803e-11
3.21730040859e-06
3.04710580392e-06
3.46433174071e-06
4.24001730947e-06
4.39599046369e-06
4.31547297812e-06
4.01151212398e-06
3.33579799735e-06
2.34593393537e-06
1.06116321055e-06
4.50250579403e-07
2.86867053596e-07
2.5067255223e-07
2.15925947859e-07
1.39207100481e-07
6.67867973765e-08
1.9463960766e-08
2.47986095705e-09
2.67732339955e-10
8.28096236309e-11
3.14019946178e-06
3.00720661126e-06
3.4163585651e-06
4.08892762997e-06
4.17055752181e-06
3.99932181629e-06
3.67779081423e-06
2.97005799482e-06
2.12163466282e-06
7.3420040824e-07
3.1934289366e-07
2.52883779622e-07
2.55312300476e-07
2.15552692963e-07
1.25158730435e-07
6.01256559614e-08
1.24149240737e-08
1.36134836868e-09
1.70226887461e-10
7.32955889849e-11
3.11800154145e-06
3.01127838538e-06
3.38297517027e-06
3.8966547927e-06
3.83296199165e-06
3.66156859968e-06
3.38393635853e-06
2.67086213131e-06
1.78346018367e-06
4.91701322878e-07
2.31441418326e-07
2.47677479383e-07
2.77941255442e-07
2.19883174444e-07
1.42857713566e-07
4.78185158902e-08
7.72464160133e-09
7.6822378641e-10
1.20906467286e-10
6.95147063354e-11
7.45994192272e-09
9.43519114699e-09
1.19281973481e-08
1.72821616643e-08
2.09727797527e-08
2.56682767167e-08
3.88605592386e-08
4.40807955192e-08
4.26306775589e-08
3.77944544803e-08
5.18281377821e-07
2.40725938923e-06
3.94740139298e-06
4.79052955882e-06
5.1611152042e-06
5.60047019369e-06
1.6144631164e-10
5.42442229883e-10
1.88480020024e-09
4.82494797946e-09
7.60858429422e-09
9.6050830562e-09
1.22134048484e-08
1.7761058639e-08
2.1347529885e-08
2.6203899061e-08
3.9162720884e-08
4.40641445289e-08
4.10224839657e-08
4.16326297538e-08
5.53787144312e-07
2.45731201062e-06
3.98685007927e-06
4.82578588465e-06
5.19103758717e-06
5.61170743224e-06
1.69063799066e-10
5.72074308686e-10
1.9559054097e-09
4.92390550251e-09
7.72610292361e-09
9.75134651924e-09
1.2455662209e-08
1.81077071639e-08
2.15504831853e-08
2.63889875831e-08
3.92419012816e-08
4.39782866188e-08
3.89053270251e-08
4.68500117696e-08
5.88856185422e-07
2.50357050133e-06
4.0240250093e-06
4.86174597445e-06
5.22713139586e-06
5.62817099089e-06
1.75394055746e-10
5.95099662617e-10
2.00729870248e-09
4.99166379836e-09
7.81679592479e-09
9.87093915828e-09
1.26466389115e-08
1.83576126228e-08
2.16701879085e-08
2.6427500019e-08
3.92453860608e-08
4.38491849191e-08
3.69102382167e-08
5.2288648262e-08
6.21370287078e-07
2.54741572699e-06
4.06038952378e-06
4.89839553262e-06
5.26477610662e-06
5.65018215432e-06
1.79956124599e-10
6.10937453819e-10
2.04163137419e-09
5.03866731486e-09
7.88791949917e-09
9.96365595872e-09
1.27823954134e-08
1.85375307469e-08
2.17663832502e-08
2.64450036334e-08
3.92414579079e-08
4.37034983234e-08
3.53292872555e-08
5.73047110535e-08
6.50574208428e-07
2.58887119158e-06
4.09584287239e-06
4.93522041286e-06
5.30441673368e-06
5.67789696809e-06
1.82527056167e-10
6.19290324851e-10
2.05921534264e-09
5.06605291197e-09
7.94044275736e-09
1.00286901835e-08
1.28605513708e-08
1.8651293426e-08
2.1851983368e-08
2.64583048758e-08
3.92335983004e-08
4.35668961843e-08
3.42274558783e-08
6.15045226656e-08
6.7610364425e-07
2.62773755464e-06
4.13007711191e-06
4.97180038774e-06
5.34588850338e-06
5.71123015615e-06
1.83291985551e-10
6.20682139999e-10
2.06086879509e-09
5.07424399131e-09
7.97508258479e-09
1.00680414141e-08
1.28865427522e-08
1.87152752435e-08
2.19360519123e-08
2.64620265289e-08
3.92115167959e-08
4.34623173934e-08
3.35695495897e-08
6.46454266637e-08
6.97825019476e-07
2.6638080662e-06
4.16280477495e-06
5.00777849417e-06
5.38869668767e-06
5.74979663773e-06
1.82835514414e-10
6.16727081863e-10
2.04968417397e-09
5.06455148648e-09
7.99363765111e-09
1.00867451735e-08
1.28764320076e-08
1.8738643676e-08
2.20167705121e-08
2.64437065053e-08
3.91591704297e-08
4.34025354538e-08
3.32922449131e-08
6.66194180176e-08
7.15794650715e-07
2.69690903883e-06
4.1937810038e-06
5.04282056627e-06
5.432193496e-06
5.79289403769e-06
1.81670226522e-10
6.08879820338e-10
2.02741410807e-09
5.03895059202e-09
7.99881705742e-09
1.00915796317e-08
1.28404720474e-08
1.87408304055e-08
2.21037829493e-08
2.63876478604e-08
3.90557100297e-08
4.3386180616e-08
3.33385667891e-08
6.7440052919e-08
7.30210202765e-07
2.72689182969e-06
4.22278621208e-06
5.07660432222e-06
5.47568630747e-06
5.83955541608e-06
1.80661186828e-10
5.99738409156e-10
1.9960779076e-09
4.99873935297e-09
7.99298503388e-09
1.00886336083e-08
1.27967382684e-08
1.87488397877e-08
2.21997003024e-08
2.627559539e-08
3.88757450538e-08
4.33991261485e-08
3.36678040759e-08
6.72121740728e-08
7.41334309304e-07
2.75360741477e-06
4.24960690566e-06
5.10882541701e-06
5.51851785621e-06
5.88866093067e-06
1.7984466969e-10
5.89835648424e-10
1.95813070628e-09
4.94327742651e-09
7.97637742429e-09
1.00826616342e-08
1.27581204261e-08
1.87525893732e-08
2.22966567276e-08
2.6090696828e-08
3.85905427383e-08
4.341948736e-08
3.42535750179e-08
6.60882485621e-08
7.49412069315e-07
2.7768867256e-06
4.27402966763e-06
5.1392118524e-06
5.56012329293e-06
5.93907422829e-06
1.7904525187e-10
5.79961877422e-10
1.91437247851e-09
4.86981702734e-09
7.94587941004e-09
1.00723323522e-08
1.27145938283e-08
1.87375623255e-08
2.2388069561e-08
2.58224276575e-08
3.81707064306e-08
4.34229329712e-08
3.50781548814e-08
6.42277655903e-08
7.54621430897e-07
2.79654381531e-06
4.29585218458e-06
5.16753920093e-06
5.60005809189e-06
5.98975935869e-06
1.77941278732e-10
5.66730258114e-10
1.85795451868e-09
4.77353145745e-09
7.89500656584e-09
1.0049754362e-08
1.26538990783e-08
1.86936333128e-08
2.2467830783e-08
2.54712416973e-08
3.75904700453e-08
4.33859090204e-08
3.61252860702e-08
6.17764425236e-08
7.570840514e-07
2.81240894803e-06
4.3149087145e-06
5.19364258902e-06
5.63799758549e-06
6.03984755155e-06
1.74095538314e-10
5.46021596466e-10
1.77989362681e-09
4.64637244826e-09
7.81815993607e-09
1.00110656809e-08
1.25693190088e-08
1.86044550795e-08
2.25210959854e-08
2.50508215436e-08
3.68328947217e-08
4.32864745676e-08
3.73690658394e-08
5.88726426294e-08
7.56936908223e-07
2.82438106774e-06
4.3310989958e-06
5.21742171551e-06
5.67371634437e-06
6.08864822181e-06
1.68279071855e-10
5.19463346837e-10
1.68594967747e-09
4.47911812308e-09
7.71327806079e-09
9.95052477258e-09
1.24567666631e-08
1.84361310527e-08
2.2517447391e-08
2.45861123538e-08
3.58949990947e-08
4.3104095461e-08
3.87568553076e-08
5.5675205903e-08
7.54434215351e-07
2.8324785249e-06
4.34440977957e-06
5.23883809671e-06
5.70705981193e-06
6.13561993499e-06
1.60685029321e-10
4.87292342357e-10
1.57655099021e-09
4.27626670125e-09
7.56704039517e-09
9.8634888784e-09
1.23093147037e-08
1.81440925034e-08
2.24147912642e-08
2.41070680323e-08
3.47914224783e-08
4.28197993232e-08
4.01921891766e-08
5.23956764414e-08
7.50030199306e-07
2.83686941083e-06
4.35492369854e-06
5.25790914277e-06
5.73792362891e-06
6.18033152446e-06
1.51388663491e-10
4.49288801366e-10
1.4531496758e-09
4.04495860716e-09
7.37433569962e-09
9.74977384998e-09
1.21214366105e-08
1.77038380664e-08
2.21756089731e-08
2.36395778326e-08
3.3554917168e-08
4.24170520001e-08
4.15344630439e-08
4.93147826251e-08
7.44404707367e-07
2.83786852826e-06
4.3628100068e-06
5.27469904466e-06
5.76624526985e-06
6.222433849e-06
1.40688982353e-10
4.0641921472e-10
1.3180702467e-09
3.78749267044e-09
7.14937280388e-09
9.61071960142e-09
1.19007947032e-08
1.71402556183e-08
2.17834701171e-08
2.31977284552e-08
3.2233224604e-08
4.18830487985e-08
4.26319435937e-08
4.67609555025e-08
7.38406676359e-07
2.8359144473e-06
4.36830896685e-06
5.28931353397e-06
5.79200948127e-06
6.26165580274e-06
1.29689826469e-10
3.62318264963e-10
1.17755874129e-09
3.50958583993e-09
6.89370372633e-09
9.45016795152e-09
1.16703783906e-08
1.6517836952e-08
2.1247435231e-08
2.27807406573e-08
3.08819939294e-08
4.12098713338e-08
4.33782173813e-08
4.50185465297e-08
7.32950097828e-07
2.83152612079e-06
4.37171593977e-06
5.30189739188e-06
5.81525720215e-06
6.29782028346e-06
1.19806602071e-10
3.21542646076e-10
1.04093704796e-09
3.22049982742e-09
6.61092672068e-09
9.27280471735e-09
1.14550618138e-08
1.59032820324e-08
2.05993451306e-08
2.23751386813e-08
2.95567463499e-08
4.03964092925e-08
4.37435508514e-08
4.41630374651e-08
7.28873889296e-07
2.82528989257e-06
4.37338796591e-06
5.31264627597e-06
5.83609422513e-06
6.33088108628e-06
1.11893976392e-10
2.86812510419e-10
9.16454971899e-10
2.93143330824e-09
6.30705419066e-09
9.08222981205e-09
1.12672223628e-08
1.53411414487e-08
1.98887447509e-08
2.19635485738e-08
2.83052476372e-08
3.94512291012e-08
4.37430144798e-08
4.39839700959e-08
7.26784253829e-07
2.817921614e-06
4.37380306079e-06
5.3218297067e-06
5.85468546434e-06
6.36096178029e-06
1.06057237554e-10
2.5851769206e-10
8.08581068719e-10
2.65474901962e-09
5.99438013885e-09
8.88406437528e-09
1.11058613186e-08
1.48568776339e-08
1.91814294752e-08
2.15436157807e-08
2.71895242618e-08
3.84251457652e-08
4.35512330254e-08
4.40599495414e-08
7.26250845936e-07
2.81152266638e-06
4.37461313635e-06
5.33052247133e-06
5.87165664401e-06
6.38851881225e-06
1.02064789197e-10
2.35751256776e-10
7.17738792333e-10
2.3990415549e-09
5.68505552453e-09
8.68478843064e-09
1.09654222248e-08
1.44574583628e-08
1.85308111172e-08
2.11178855681e-08
2.62410793301e-08
3.73822330653e-08
4.33068526304e-08
4.42233280514e-08
7.27177282795e-07
2.80760961204e-06
4.37704101969e-06
5.33963749255e-06
5.8876359195e-06
6.41396834053e-06
9.97180229966e-11
2.17450710468e-10
6.42374664464e-10
2.16783190143e-09
5.38446583822e-09
8.48768590535e-09
1.08409031173e-08
1.41332470629e-08
1.79616023602e-08
2.06881413746e-08
2.54455433899e-08
3.63639873927e-08
4.30327730142e-08
4.44740201616e-08
7.29896075267e-07
2.80693263438e-06
4.38167132772e-06
5.34958237181e-06
5.90290441372e-06
6.43752097392e-06
9.88224823933e-11
2.02712362071e-10
5.80323629539e-10
1.9624001585e-09
5.09610548501e-09
8.29606714221e-09
1.07299166822e-08
1.38723057089e-08
1.74826264536e-08
2.0262848448e-08
2.47780050821e-08
3.54049929544e-08
4.27409142726e-08
4.48323226169e-08
7.34793224596e-07
2.81014436673e-06
4.38902357373e-06
5.36072034376e-06
5.91771606122e-06
6.45937232574e-06
9.91161650106e-11
1.90849654562e-10
5.29576794138e-10
1.78317091397e-09
4.82339007554e-09
8.11416034462e-09
1.06329424962e-08
1.36661216582e-08
1.70913394513e-08
1.98538735359e-08
2.42135741243e-08
3.45341136789e-08
4.24451435967e-08
4.53242636877e-08
7.42273404556e-07
2.81788782872e-06
4.3996125227e-06
5.37341098823e-06
5.93232156016e-06
6.47971623443e-06
1.00189245911e-10
1.81372004572e-10
4.88607896423e-10
1.630699248e-09
4.57113290954e-09
7.94750342947e-09
1.05528932981e-08
1.35103645818e-08
1.67799431085e-08
1.94718841014e-08
2.37310452002e-08
3.3774519689e-08
4.21621700142e-08
4.59804398775e-08
7.52750781795e-07
2.83078673482e-06
4.41393186659e-06
5.38799716855e-06
5.94696257584e-06
6.49874174558e-06
1.01459558736e-10
1.7397372176e-10
4.56483633816e-10
1.50629634106e-09
4.3472019964e-09
7.80334502183e-09
1.04948168142e-08
1.34029249735e-08
1.65464119532e-08
1.91292318816e-08
2.33130197916e-08
3.31434016616e-08
4.19103911972e-08
4.68356570202e-08
7.66624585164e-07
2.84939260248e-06
4.43240666135e-06
5.4047732317e-06
5.96185793843e-06
6.51662923374e-06
1.0225552461e-10
1.68522569366e-10
4.3278185039e-10
1.41190395704e-09
4.16392406082e-09
7.69129982632e-09
1.04647185511e-08
1.33428936085e-08
1.63997245531e-08
1.88552219831e-08
2.295445857e-08
3.2652690172e-08
4.17077993583e-08
4.7927522531e-08
7.84235841484e-07
2.87410172628e-06
4.45532540932e-06
5.42394199868e-06
5.97718520538e-06
6.5335470125e-06
1.02020156421e-10
1.65004997417e-10
4.17416970238e-10
1.34896888811e-09
4.03702622003e-09
7.62450197449e-09
1.04664501319e-08
1.33287071538e-08
1.63497699081e-08
1.86979878543e-08
2.26861175286e-08
3.23152569552e-08
4.15692402137e-08
4.9293459364e-08
8.05809376741e-07
2.9050579421e-06
4.48276536668e-06
5.4455697554e-06
5.99306211389e-06
6.54964970944e-06
1.0055138616e-10
1.634617646e-10
4.1044439916e-10
1.31836911038e-09
3.97983822245e-09
7.61456490907e-09
1.05104359415e-08
1.33509731934e-08
1.63942317047e-08
1.8691220008e-08
2.25720727808e-08
3.21536086737e-08
4.15036355856e-08
5.09658440071e-08
8.31388494268e-07
2.94206098901e-06
4.51452740793e-06
5.46954993639e-06
6.00953317284e-06
6.56507958526e-06
9.80440524949e-11
1.63762899595e-10
4.11232486873e-10
1.31796805978e-09
3.9928558081e-09
7.66142554659e-09
1.06012337043e-08
1.34202395378e-08
1.65040378084e-08
1.88235488427e-08
2.26375766739e-08
3.21809095983e-08
4.15119647866e-08
5.29652743876e-08
8.60772764032e-07
2.98450232142e-06
4.55009752413e-06
5.49558630638e-06
6.02656702298e-06
6.57997244366e-06
9.50553699177e-11
1.65512456419e-10
4.17789106929e-10
1.33990008934e-09
4.06302682222e-09
7.77897109973e-09
1.07400882522e-08
1.35494783104e-08
1.66576008922e-08
1.90238876694e-08
2.28208399761e-08
3.23747617223e-08
4.15860434868e-08
5.5292504885e-08
8.9347103984e-07
3.03134641898e-06
4.58864742294e-06
5.52320256501e-06
6.04406790996e-06
6.59446919183e-06
9.25901082066e-11
1.69371082633e-10
4.31875741118e-10
1.39152999913e-09
4.21330051266e-09
7.97020856501e-09
1.09249012382e-08
1.37328457704e-08
1.68967945214e-08
1.92909343151e-08
2.30750797645e-08
3.27013056375e-08
4.17088695239e-08
5.79203030338e-08
9.28681501477e-07
3.08116685718e-06
4.62907904716e-06
5.55177996636e-06
6.06190129432e-06
6.60873292093e-06
9.13469874029e-11
1.75969475704e-10
4.5570824447e-10
1.48223596724e-09
4.45364019479e-09
8.22101397559e-09
1.11472452344e-08
1.39588003005e-08
1.72334060611e-08
1.97045750765e-08
2.34607981257e-08
3.31416446206e-08
4.18574530406e-08
6.07872251969e-08
9.65308909926e-07
3.13223810241e-06
4.67011215959e-06
5.58062056028e-06
6.07992990873e-06
6.62296824635e-06
9.16135692676e-11
1.8534800448e-10
4.89376693716e-10
1.61149763423e-09
4.76308804756e-09
8.50932129638e-09
1.13980261424e-08
1.42221984519e-08
1.76562745283e-08
2.02821693733e-08
2.39847071738e-08
3.3647454765e-08
4.20049152589e-08
6.37961891614e-08
1.00203393625e-06
3.18269451458e-06
4.71041654541e-06
5.60903028843e-06
6.09805042105e-06
6.63742746781e-06
9.32157939507e-11
1.9656031286e-10
5.29479304935e-10
1.7637893806e-09
5.08656131174e-09
8.78852786039e-09
1.16444843797e-08
1.4492968233e-08
1.81159361336e-08
2.09572026394e-08
2.45726467103e-08
3.4135506605e-08
4.21239984188e-08
6.68207495891e-08
1.03744583303e-06
3.23076670962e-06
4.74875816013e-06
5.63627918896e-06
6.11609399832e-06
6.65237169505e-06
9.79962769842e-11
2.15069696936e-10
5.95470743162e-10
1.99180866894e-09
5.48360405677e-09
9.12371380376e-09
1.19733448128e-08
1.4909820623e-08
1.88447593568e-08
2.19739286485e-08
2.52466525225e-08
3.45171697464e-08
4.2178001947e-08
6.96977941701e-08
1.0697990728e-06
3.27405638414e-06
4.78320743482e-06
5.66036064529e-06
6.130774243e-06
6.66361316423e-06
)
;

boundaryField
{
    emptyPatch
    {
        type            empty;
    }
    minY
    {
        type            calculated;
        value           nonuniform List<scalar> 0();
    }
    maxY
    {
        type            calculated;
        value           nonuniform List<scalar> 
40
(
3.11773868312e-06
3.01118173136e-06
3.38289618064e-06
3.89662263074e-06
3.83296563685e-06
3.66146259021e-06
3.3838388215e-06
2.67078605385e-06
1.78341040964e-06
4.91671309745e-07
2.31427762166e-07
2.47664787388e-07
2.77928543946e-07
2.19873726445e-07
1.42851770336e-07
4.7816583193e-08
7.72434074725e-09
7.68194798128e-10
1.20902017372e-10
6.95122063901e-11
9.79928269301e-11
2.15062261631e-10
5.95450457649e-10
1.99174162001e-09
5.48342120562e-09
9.12341171211e-09
1.1972950429e-08
1.49093314388e-08
1.88441428746e-08
2.19732113339e-08
2.52458295529e-08
3.45160453846e-08
4.21766282251e-08
6.96955257013e-08
1.06976435737e-06
3.27395073693e-06
4.78305395007e-06
5.6601797971e-06
6.13057919686e-06
6.66340031775e-06
)
;
    }
    water_to_cooler
    {
        type            nutkWallFunction;
        blending        stepwise;
        value           uniform 0;
    }
    water_to_heater
    {
        type            nutkWallFunction;
        blending        stepwise;
        value           uniform 0;
    }
    procBoundary0to1
    {
        type            processor;
        value           nonuniform List<scalar> 
41
(
4.08736848791e-06
3.4897134992e-06
2.94487757689e-06
2.63094031785e-06
2.47397999306e-06
2.08792719404e-06
1.48483468626e-06
9.56900115172e-07
6.38827293124e-07
5.36167519015e-07
4.92929966279e-07
4.01048038745e-07
2.55635806493e-07
1.07314446281e-07
2.6168309437e-08
2.44462413864e-09
1.89355586291e-10
3.95329241644e-11
3.36674734993e-11
5.67617181214e-11
7.28505152883e-09
9.24743192201e-09
1.16172695548e-08
1.66933060801e-08
2.04318038492e-08
2.48369249534e-08
3.83171031694e-08
4.40402422775e-08
4.36300362745e-08
3.55810828389e-08
4.84019266217e-07
2.35296447878e-06
3.90440070597e-06
4.75419405267e-06
5.13503865329e-06
5.58696465609e-06
1.53173721796e-10
5.08132985991e-10
1.7950892095e-09
4.68940028556e-09
4.68940028556e-09
)
;
    }
}


// ************************************************************************* //
