/*--------------------------------*- C++ -*----------------------------------*\
| =========                 |                                                 |
| \\      /  F ield         | OpenFOAM: The Open Source CFD Toolbox           |
|  \\    /   O peration     | Version:  2312                                  |
|   \\  /    A nd           | Website:  www.openfoam.com                      |
|    \\/     M anipulation  |                                                 |
\*---------------------------------------------------------------------------*/
FoamFile
{
    version     2.0;
    format      ascii;
    arch        "LSB;label=32;scalar=64";
    class       volScalarField;
    location    "0.015/water";
    object      alphat.gas;
}
// * * * * * * * * * * * * * * * * * * * * * * * * * * * * * * * * * * * * * //

dimensions      [1 -1 -1 0 0 0 0];

internalField   nonuniform List<scalar> 
1504
(
2.96181862788e-06
2.74836836095e-06
1.88751227956e-06
7.90152696151e-07
2.49458304615e-07
9.86184564355e-08
2.66505381375e-08
3.75645626344e-09
2.58042825596e-10
3.53733447094e-11
2.12599760912e-11
1.90209399192e-11
1.81973817973e-11
1.82137715945e-11
1.92359561982e-11
2.17127517706e-11
2.66631782704e-11
3.91070082751e-11
7.69204059033e-11
2.15744185412e-10
2.98925767831e-06
2.79185140215e-06
1.9348682894e-06
8.17276768768e-07
2.5018644193e-07
9.44373464081e-08
2.37028490376e-08
3.05987854679e-09
1.97584140225e-10
3.20603325928e-11
2.10204603251e-11
1.90472569948e-11
1.83034989373e-11
1.83651347124e-11
1.942087389e-11
2.19378264146e-11
2.69556109436e-11
3.95651605047e-11
7.80852698062e-11
2.19246900287e-10
3.047120019e-06
2.86168442901e-06
2.00956714911e-06
8.64191138972e-07
2.58062915818e-07
9.11763954344e-08
2.0958452402e-08
2.46303007014e-09
1.5258963159e-10
2.98474345809e-11
2.10280723245e-11
1.91995191482e-11
1.84888592399e-11
1.85803350834e-11
1.96715304607e-11
2.22334837566e-11
2.72986589986e-11
4.00207226821e-11
7.91872894179e-11
2.22624039958e-10
3.14393318528e-06
2.9830748482e-06
2.12919598672e-06
9.46606795637e-07
2.80467052541e-07
9.0375803166e-08
1.8931184594e-08
2.04186779077e-09
1.24382379611e-10
2.87187590083e-11
2.12880745324e-11
1.95154724835e-11
1.87890124341e-11
1.88885847896e-11
2.00157450245e-11
2.26314336239e-11
2.77461693253e-11
4.05709559401e-11
8.03900410752e-11
2.26138683792e-10
3.28158779111e-06
3.11811651354e-06
2.25516056664e-06
1.05471959079e-06
3.19235083633e-07
9.1987832976e-08
1.74683168381e-08
1.74381476547e-09
1.06287447815e-10
2.80360620674e-11
2.15478375616e-11
1.98330152809e-11
1.91011159748e-11
1.92172001266e-11
2.03894077034e-11
2.30611794097e-11
2.8234091534e-11
4.11878554346e-11
8.16542356524e-11
2.2953505943e-10
3.33928342576e-06
3.19424334383e-06
2.33274498214e-06
1.17478818578e-06
3.75366811102e-07
9.60266653601e-08
1.63304685617e-08
1.50782312339e-09
9.29136195066e-11
2.74434788513e-11
2.17044981943e-11
2.00624587904e-11
1.93530812792e-11
1.94963546744e-11
2.07120992443e-11
2.34307362742e-11
2.86662168622e-11
4.17511316947e-11
8.27336406282e-11
2.32345878036e-10
3.44784025788e-06
3.30974727588e-06
2.45679353956e-06
1.35385309134e-06
4.72085576952e-07
1.05808549975e-07
1.56034148925e-08
1.32935050153e-09
8.37375759688e-11
2.7139084788e-11
2.19060345519e-11
2.02987556602e-11
1.96032149634e-11
1.97643726187e-11
2.10027034814e-11
2.37392522518e-11
2.90096107409e-11
4.21700821694e-11
8.34675206799e-11
2.34506356971e-10
3.67256971353e-06
3.56983492886e-06
2.74270548206e-06
1.68648580583e-06
6.79895599337e-07
1.38682420148e-07
1.65295363385e-08
1.28240071841e-09
8.1479821987e-11
2.75288227123e-11
2.2371849849e-11
2.07027557306e-11
1.99597413799e-11
2.01019737e-11
2.13393901337e-11
2.40763664238e-11
2.93499346063e-11
4.24924183975e-11
8.38865885523e-11
2.36157517905e-10
3.79263472501e-06
3.9255304958e-06
3.26737276805e-06
2.27370101795e-06
1.1381892478e-06
2.5545230823e-07
2.26998998852e-08
1.43143944014e-09
8.68684952823e-11
2.86401549637e-11
2.31174564919e-11
2.13078109465e-11
2.04664257137e-11
2.05412584265e-11
2.17331417315e-11
2.44491119296e-11
2.97054244754e-11
4.27926466593e-11
8.41711866475e-11
2.37628046456e-10
2.1685036553e-06
3.13428059803e-06
3.39070025955e-06
2.84852983466e-06
1.78430597062e-06
5.33785995059e-07
4.39961091709e-08
1.88959956677e-09
9.91025845799e-11
3.00299252006e-11
2.3853669816e-11
2.19205734164e-11
2.10041448202e-11
2.10099406563e-11
2.21406755951e-11
2.48315481031e-11
3.00695572393e-11
4.30748261036e-11
8.43299751658e-11
2.38775763512e-10
1.62168181499e-06
2.3340432171e-06
2.68504115424e-06
2.38687425519e-06
1.5267820483e-06
4.52846962746e-07
4.2076914251e-08
2.29124624402e-09
1.20925362633e-10
3.1688048836e-11
2.4412588098e-11
2.23691663455e-11
2.14173276575e-11
2.13799911891e-11
2.24600097803e-11
2.51231403514e-11
3.03435350853e-11
4.3264872036e-11
8.43251486251e-11
2.39168760291e-10
1.68922059947e-06
2.20605645681e-06
2.37913160521e-06
2.04012424998e-06
1.22912984412e-06
3.43567496843e-07
3.78661960395e-08
2.82826778591e-09
1.57746627622e-10
3.39501982491e-11
2.48808706572e-11
2.2675811755e-11
2.16916805851e-11
2.16258226207e-11
2.26725798318e-11
2.52992266756e-11
3.04716189437e-11
4.3248299996e-11
8.39599755107e-11
2.38880647866e-10
1.79315808093e-06
2.26237162258e-06
2.3513214546e-06
1.94709772399e-06
1.11740548713e-06
3.04982957327e-07
3.82954865648e-08
3.49563358257e-09
2.08085473232e-10
3.69632030753e-11
2.54387194742e-11
2.29749734424e-11
2.19102239219e-11
2.18020515091e-11
2.28278345579e-11
2.54224825204e-11
3.05337910452e-11
4.31050995422e-11
8.32820290535e-11
2.3806251617e-10
1.92715105875e-06
2.39469429724e-06
2.43483704157e-06
1.9779311254e-06
1.11722444082e-06
3.09140082475e-07
4.19319733555e-08
4.28396196056e-09
2.70700651716e-10
4.06341381392e-11
2.60946375547e-11
2.33248870058e-11
2.21539531307e-11
2.19816219413e-11
2.29744556018e-11
2.55465061933e-11
3.06024709385e-11
4.29522860211e-11
8.25198707822e-11
2.37205773896e-10
2.03236079414e-06
2.50645161903e-06
2.52041341346e-06
2.03552458088e-06
1.15575319391e-06
3.2968414255e-07
4.69379279921e-08
5.15269014195e-09
3.43549990144e-10
4.45462368968e-11
2.66363689574e-11
2.36034491822e-11
2.23696089804e-11
2.21449969185e-11
2.30931592695e-11
2.56418151632e-11
3.06623688117e-11
4.28328511106e-11
8.18300796173e-11
2.36481022683e-10
2.11112700546e-06
2.59363646941e-06
2.59843749731e-06
2.10162819601e-06
1.21016188345e-06
3.58570247904e-07
5.30118946482e-08
6.12055158199e-09
4.28379906388e-10
4.86536092897e-11
2.69729291181e-11
2.37072846637e-11
2.24706142974e-11
2.22368723734e-11
2.31427106783e-11
2.56552593346e-11
3.06431417743e-11
4.26724905444e-11
8.11758243584e-11
2.35544720053e-10
2.17462729935e-06
2.67313848882e-06
2.67990600135e-06
2.17612732987e-06
1.27251289098e-06
3.91786330858e-07
5.98270973198e-08
7.17171772256e-09
5.23964830017e-10
5.31282076637e-11
2.72452724224e-11
2.3710832316e-11
2.24854536067e-11
2.22621023963e-11
2.31443992501e-11
2.56067357689e-11
3.05356177361e-11
4.24098522975e-11
8.04377640581e-11
2.34224266172e-10
2.22241377817e-06
2.74335017441e-06
2.75886900592e-06
2.25043596013e-06
1.33484770374e-06
4.25264132657e-07
6.6782965848e-08
8.24361215884e-09
6.24019622466e-10
5.79883513975e-11
2.76308622195e-11
2.37566163264e-11
2.25083592422e-11
2.22907463686e-11
2.31572888967e-11
2.55741329072e-11
3.04347803981e-11
4.21242647997e-11
7.96268802839e-11
2.32644864412e-10
2.24030337553e-06
2.78311572589e-06
2.81351734492e-06
2.30911960781e-06
1.38845399911e-06
4.55591463461e-07
7.33274388672e-08
9.2752734752e-09
7.20884384496e-10
6.28602452987e-11
2.81254578899e-11
2.38980555915e-11
2.25976136218e-11
2.23697434693e-11
2.32284641451e-11
2.5615074274e-11
3.04115766099e-11
4.1914261823e-11
7.88813446667e-11
2.31289167517e-10
2.22772170396e-06
2.78197975906e-06
2.83004516815e-06
2.34117082627e-06
1.43031111358e-06
4.83011389193e-07
7.94296766051e-08
1.02147691586e-08
8.05955905603e-10
6.69328833398e-11
2.84921957863e-11
2.40140398467e-11
2.26828297049e-11
2.24493770798e-11
2.33158317642e-11
2.56936171905e-11
3.04561169871e-11
4.18127823858e-11
7.8286350232e-11
2.30337213203e-10
2.22085030988e-06
2.77983653945e-06
2.84418641485e-06
2.37199479151e-06
1.47249664374e-06
5.11938958643e-07
8.59174799583e-08
1.11715064953e-08
8.88723798828e-10
7.0476631485e-11
2.86547453654e-11
2.40067484303e-11
2.26816525184e-11
2.24670318383e-11
2.33600094276e-11
2.57299066302e-11
3.04781882816e-11
4.17371901532e-11
7.77906378439e-11
2.29530545096e-10
2.21406056461e-06
2.79231500531e-06
2.87830534763e-06
2.41825259181e-06
1.52172868517e-06
5.42828640356e-07
9.27196735198e-08
1.2151686812e-08
9.72886098272e-10
7.39735352199e-11
2.87628348017e-11
2.39469930161e-11
2.26377061563e-11
2.24444531314e-11
2.33499098566e-11
2.57134460458e-11
3.04325010003e-11
4.1593761765e-11
7.72725660353e-11
2.28545287685e-10
2.18671256811e-06
2.7952396609e-06
2.91624236945e-06
2.46947708801e-06
1.57043852242e-06
5.71019297613e-07
9.87781972438e-08
1.30576241947e-08
1.05117972765e-09
7.7497513029e-11
2.89997705543e-11
2.3977563425e-11
2.2652583756e-11
2.24627103148e-11
2.3361847819e-11
2.56969413713e-11
3.03791000355e-11
4.14199311194e-11
7.67058971151e-11
2.27286718487e-10
2.16529470648e-06
2.78330583456e-06
2.9284086027e-06
2.49933205841e-06
1.60474322636e-06
5.93026833419e-07
1.0396710675e-07
1.3935031324e-08
1.12909773367e-09
8.13702799781e-11
2.94311764314e-11
2.41592893935e-11
2.27753305035e-11
2.25487808915e-11
2.34258248231e-11
2.57463401037e-11
3.03890556317e-11
4.13112695949e-11
7.61956352633e-11
2.26161808999e-10
2.14560382452e-06
2.76069344036e-06
2.91749322012e-06
2.50796351099e-06
1.62857994586e-06
6.13720295234e-07
1.09466344685e-07
1.48640137291e-08
1.20930477197e-09
8.52341273358e-11
2.98342309225e-11
2.43528699063e-11
2.29298597038e-11
2.26671093454e-11
2.35253935033e-11
2.58436229224e-11
3.04699819091e-11
4.12902532218e-11
7.57907054974e-11
2.25367079078e-10
2.13430636704e-06
2.7422315286e-06
2.90708872298e-06
2.51473913938e-06
1.65172840521e-06
6.36051935349e-07
1.15674163023e-07
1.5898880112e-08
1.29877021462e-09
8.91875097386e-11
3.00672405288e-11
2.44176672036e-11
2.30024245623e-11
2.27384082616e-11
2.3599318678e-11
2.59230359511e-11
3.05511201869e-11
4.13033622768e-11
7.54608045522e-11
2.24809211769e-10
2.11913077807e-06
2.72616571839e-06
2.90758556513e-06
2.5326941846e-06
1.6808018907e-06
6.59882890445e-07
1.22111174727e-07
1.6963902087e-08
1.39637135649e-09
9.3566200231e-11
3.02530251846e-11
2.4404981548e-11
2.30085277531e-11
2.27660496554e-11
2.36371940902e-11
2.59607696986e-11
3.05713758071e-11
4.12531403982e-11
7.50990870521e-11
2.24016250909e-10
2.09882615906e-06
2.71228094475e-06
2.91636896976e-06
2.55721323422e-06
1.70937383226e-06
6.79990468952e-07
1.27460132015e-07
1.79328687767e-08
1.49393869798e-09
9.85039699179e-11
3.05924618288e-11
2.44636196268e-11
2.30461128416e-11
2.28131708128e-11
2.36911504812e-11
2.59952637087e-11
3.05730871334e-11
4.11535798044e-11
7.46586526965e-11
2.22905654258e-10
2.08732362142e-06
2.69994646003e-06
2.91501300539e-06
2.56903381231e-06
1.72912466381e-06
6.9579652778e-07
1.32300826958e-07
1.89376542239e-08
1.60077290678e-09
1.04304630444e-10
3.11355488952e-11
2.46537292484e-11
2.31655065369e-11
2.290322722e-11
2.37774373558e-11
2.6078249356e-11
3.06235520647e-11
4.11026895657e-11
7.42401305358e-11
2.21726792306e-10
2.0725895316e-06
2.68467999971e-06
2.89643168374e-06
2.56150960572e-06
1.73770273728e-06
7.11180962161e-07
1.37894837138e-07
2.00374761657e-08
1.70554993083e-09
1.0960025913e-10
3.16059914468e-11
2.48496190883e-11
2.33069010626e-11
2.30128741326e-11
2.38758189639e-11
2.61858323077e-11
3.07318403216e-11
4.11263344613e-11
7.38969876072e-11
2.20808461935e-10
2.06660757297e-06
2.66842760211e-06
2.87737574389e-06
2.55379085378e-06
1.74736582038e-06
7.27936474784e-07
1.43720470319e-07
2.11039109311e-08
1.79252275112e-09
1.13283532452e-10
3.17974021793e-11
2.49150201864e-11
2.33686228701e-11
2.30755631752e-11
2.39406647748e-11
2.62740066582e-11
3.08476359754e-11
4.12001620294e-11
7.36305315655e-11
2.20208127047e-10
2.05627622364e-06
2.65429867465e-06
2.87042181118e-06
2.55938281476e-06
1.763911086e-06
7.4493338672e-07
1.48882421081e-07
2.19554234514e-08
1.85518473761e-09
1.15546512031e-10
3.18192699718e-11
2.48911584283e-11
2.33679726936e-11
2.30974098617e-11
2.3968647017e-11
2.63169539213e-11
3.09116491014e-11
4.12310116309e-11
7.33671468048e-11
2.19590937469e-10
2.04164658119e-06
2.63929730743e-06
2.87106107069e-06
2.5750656324e-06
1.78482799487e-06
7.59574875422e-07
1.52612723338e-07
2.25257149625e-08
1.89523912052e-09
1.17027179541e-10
3.18716593194e-11
2.49021678893e-11
2.34022359725e-11
2.31586353701e-11
2.40291970888e-11
2.63647788159e-11
3.09473304406e-11
4.12169452409e-11
7.30578942865e-11
2.18822223225e-10
2.02550772265e-06
2.62453428404e-06
2.86843248424e-06
2.58531516167e-06
1.79996264825e-06
7.69012332985e-07
1.54917174054e-07
2.2921453475e-08
1.92526025519e-09
1.18357247765e-10
3.20267056976e-11
2.49954606328e-11
2.35071730281e-11
2.32860791418e-11
2.41578776734e-11
2.64796987773e-11
3.10336817507e-11
4.12274434617e-11
7.27928742384e-11
2.17937482325e-10
2.00926109429e-06
2.60841308963e-06
2.85647993344e-06
2.58283090539e-06
1.80462640303e-06
7.73329264522e-07
1.55920563268e-07
2.31147190409e-08
1.92887295176e-09
1.1823369227e-10
3.20796177558e-11
2.50781743096e-11
2.36180093247e-11
2.34249801487e-11
2.43117749858e-11
2.66404135282e-11
3.12024975228e-11
4.13486234454e-11
7.26085465474e-11
2.17110414717e-10
1.99574521845e-06
2.5892881375e-06
2.84196593957e-06
2.57704735701e-06
1.80483159159e-06
7.73945725262e-07
1.55527453533e-07
2.30504463354e-08
1.90015733446e-09
1.16333781991e-10
3.19097265446e-11
2.50574855253e-11
2.36516264045e-11
2.35054246089e-11
2.44303056189e-11
2.67852872327e-11
3.1378870636e-11
4.15085932349e-11
7.24729604845e-11
2.16464286511e-10
1.98143088569e-06
2.57541432446e-06
2.84044572168e-06
2.58157261252e-06
1.80741691001e-06
7.71317927079e-07
1.53630794468e-07
2.27231637021e-08
1.86143858509e-09
1.14608163285e-10
3.17274234711e-11
2.49970304476e-11
2.36374412062e-11
2.35355505935e-11
2.45018834837e-11
2.68820177566e-11
3.15056909991e-11
4.16283393543e-11
7.2311290856e-11
2.15808321477e-10
1.97862849027e-06
2.5836987861e-06
2.85667407171e-06
2.59487843784e-06
1.81084290547e-06
7.65157526996e-07
1.50745665255e-07
5.12612054976e-09
9.15556987078e-09
2.60792358977e-08
3.19952560177e-08
3.23296072966e-08
3.23420836712e-08
3.23423356755e-08
3.23422382109e-08
3.23421630302e-08
3.2342109168e-08
3.23420812714e-08
3.23420698631e-08
3.23401063119e-08
3.09900990353e-08
1.93675377431e-08
4.99645353216e-07
1.94950817076e-06
5.61361699043e-10
1.54067646709e-09
3.42157646944e-09
5.27059221505e-09
9.51556355577e-09
2.66389800979e-08
3.20442004908e-08
3.23306392903e-08
3.23409232649e-08
3.2341143485e-08
3.23410844787e-08
3.23410428799e-08
3.23410166381e-08
3.2341011009e-08
3.23410176242e-08
3.23389688556e-08
3.09211406055e-08
1.98981642635e-08
5.10816977168e-07
1.97214444712e-06
5.69943705049e-10
1.5614919377e-09
3.49336766488e-09
5.42837647282e-09
9.9230309692e-09
2.71897146825e-08
3.20876975395e-08
3.23315643133e-08
3.23400055262e-08
3.23402087713e-08
3.23401886639e-08
3.23401800708e-08
3.23401812292e-08
3.23401969453e-08
3.23402210943e-08
3.2338080057e-08
3.08497164161e-08
2.04572370451e-08
5.22258433945e-07
1.99501109067e-06
5.7811835139e-10
1.58242497726e-09
3.57251702139e-09
5.60929972016e-09
1.0359548548e-08
2.76791196417e-08
3.21234710635e-08
3.2332373754e-08
3.23393664795e-08
3.23395654907e-08
3.23395822069e-08
3.23396047693e-08
3.23396312731e-08
3.23396666272e-08
3.2339706265e-08
3.23374659801e-08
3.07758471574e-08
2.1040373466e-08
5.33805655627e-07
2.01793072221e-06
5.85932435624e-10
1.60270293409e-09
3.65089245257e-09
5.78327722941e-09
1.07513047774e-08
2.80830376039e-08
3.21519847345e-08
3.23331521674e-08
3.23390365851e-08
3.23392387728e-08
3.23392874131e-08
3.23393377933e-08
3.23393861025e-08
3.23394393429e-08
3.23394923534e-08
3.23371462155e-08
3.06996133485e-08
2.16457664739e-08
5.45456525612e-07
2.04078152636e-06
5.93408304956e-10
1.62035016543e-09
3.71752184459e-09
5.92620104837e-09
1.10757118662e-08
2.84230529608e-08
3.21750432598e-08
3.2333993031e-08
3.23390253094e-08
3.23392329056e-08
3.23393067631e-08
3.23393799712e-08
3.23394452456e-08
3.23395133963e-08
3.23395766586e-08
3.23371176006e-08
3.06210936031e-08
2.22721753315e-08
5.57188954267e-07
2.06349633367e-06
6.0042925752e-10
1.63431262588e-09
3.77127239247e-09
6.04100432764e-09
1.13458912654e-08
2.87113709693e-08
3.21935017918e-08
3.23349368732e-08
3.23393258339e-08
3.23395383759e-08
3.23396305723e-08
3.23397206606e-08
3.2339797385e-08
3.23398756105e-08
3.23399441702e-08
3.23373628037e-08
3.05403238887e-08
2.29186642963e-08
5.68981094003e-07
2.08604109494e-06
6.06826207176e-10
1.64550715437e-09
3.8204461292e-09
6.1473762491e-09
1.15769524569e-08
2.89365141386e-08
3.22071035445e-08
3.23359825461e-08
3.23399240902e-08
3.23401394653e-08
3.23402429409e-08
3.23403432749e-08
3.23404261046e-08
3.2340509677e-08
3.23405798028e-08
3.23378685188e-08
3.04573531056e-08
2.35841670676e-08
5.80809715147e-07
2.10839033052e-06
6.12411947274e-10
1.65543067942e-09
3.87351715815e-09
6.25768875178e-09
1.17359334203e-08
2.90680317673e-08
3.22153923068e-08
3.23371259808e-08
3.23408090373e-08
3.23410244295e-08
3.23411328111e-08
3.23412375141e-08
3.2341322211e-08
3.23414070007e-08
3.23414755352e-08
3.23386273735e-08
3.03722026488e-08
2.42677913273e-08
5.92656581585e-07
2.13052889264e-06
6.17242065249e-10
1.66408928476e-09
3.92426321114e-09
6.34572842161e-09
1.17768547272e-08
2.91023951245e-08
3.22188120473e-08
3.23383851721e-08
3.2341971182e-08
3.23421821525e-08
3.23422888483e-08
3.23423923678e-08
3.23424756346e-08
3.23425594154e-08
3.23426260839e-08
3.23396377971e-08
3.02849047456e-08
2.4968548829e-08
6.04503291899e-07
2.15244083613e-06
6.21374729961e-10
1.66921835076e-09
3.96152550385e-09
6.40118205958e-09
1.17088754866e-08
2.90645399455e-08
3.22185900511e-08
3.23397870631e-08
3.23433979554e-08
3.23435994487e-08
3.23436984817e-08
3.23437962022e-08
3.23438753693e-08
3.23439561759e-08
3.23440203222e-08
3.23408886276e-08
3.0195424637e-08
2.56858882025e-08
6.16339827534e-07
2.17412082962e-06
6.24802274327e-10
1.66865700147e-09
3.98345508795e-09
6.4169161408e-09
1.15554346417e-08
2.89748316225e-08
3.2215595835e-08
3.23413316628e-08
3.23450658109e-08
3.23452523564e-08
3.23453373241e-08
3.23454241295e-08
3.23454958941e-08
3.23455718312e-08
3.23456333704e-08
3.23423558811e-08
3.01037103002e-08
2.64192821348e-08
6.281570873e-07
2.19556241767e-06
6.27651865114e-10
1.66293899535e-09
3.99708746965e-09
6.42062631538e-09
1.13749103636e-08
2.88414938507e-08
3.22097681451e-08
3.23429798548e-08
3.23469424e-08
3.23471103939e-08
3.23471758953e-08
3.23472471642e-08
3.23473077302e-08
3.23473752815e-08
3.23474308841e-08
3.23440013252e-08
3.00096240265e-08
2.71688118421e-08
6.39956041279e-07
2.21677217142e-06
6.29979662293e-10
1.65453565512e-09
4.012327067e-09
6.43347138099e-09
1.11814998062e-08
2.86527811435e-08
3.22003940918e-08
3.23446655919e-08
3.23489875289e-08
3.23491355487e-08
3.23491767471e-08
3.23492278233e-08
3.23492729926e-08
3.23493285743e-08
3.23493753134e-08
3.23457882593e-08
2.99130331098e-08
2.79345591587e-08
6.51737526213e-07
2.23775480742e-06
6.31958127427e-10
1.64537862294e-09
4.02953184359e-09
6.4507432179e-09
1.0959061779e-08
2.8402560465e-08
3.21872210736e-08
3.23463336445e-08
3.2351160045e-08
3.23512903685e-08
3.23513052901e-08
3.23513339504e-08
3.23513612419e-08
3.23514019122e-08
3.23514365613e-08
3.23476863967e-08
2.98137425571e-08
2.87172058788e-08
6.63511384389e-07
2.25852790208e-06
6.3373952191e-10
1.63494767527e-09
4.04012814812e-09
6.4518429618e-09
1.0697305415e-08
2.81083769387e-08
3.2171247512e-08
3.23479651443e-08
3.2353418271e-08
3.23535356801e-08
3.23535246141e-08
3.2353530437e-08
3.23535390414e-08
3.23535640394e-08
3.23535862151e-08
3.23496697306e-08
2.97115798373e-08
2.95173198936e-08
6.75285063181e-07
2.27910496831e-06
6.35218323398e-10
1.62172228077e-09
4.04035737e-09
6.43178018841e-09
1.04247043225e-08
2.78045549314e-08
3.21540153328e-08
3.23495629346e-08
3.23557252272e-08
3.23558379401e-08
3.23558052284e-08
3.23557915148e-08
3.23557837069e-08
3.23557941596e-08
3.23558041798e-08
3.23517183221e-08
2.96063256726e-08
3.03359558029e-08
6.87072533549e-07
2.29950931824e-06
6.36474947099e-10
1.6062324403e-09
4.0361332457e-09
6.41362744581e-09
1.01925814397e-08
2.75148382113e-08
3.21362275669e-08
3.23511141092e-08
3.23580489513e-08
3.23581676199e-08
3.23581201052e-08
3.23580925206e-08
3.23580732011e-08
3.23580737695e-08
3.23580761487e-08
3.23538204759e-08
2.94978050017e-08
3.11739204168e-08
6.98883152773e-07
2.31975714535e-06
6.37661543712e-10
1.59076372873e-09
4.03637841416e-09
6.41798331426e-09
1.00115461936e-08
2.72327048699e-08
3.21173912182e-08
3.23525827515e-08
3.23603673383e-08
3.23605042043e-08
3.2360450208e-08
3.23604159502e-08
3.23603912693e-08
3.23603869745e-08
3.23603852356e-08
3.23559571538e-08
2.93858072664e-08
3.20323357011e-08
7.10729932022e-07
2.33987008459e-06
6.38934239756e-10
1.57720833209e-09
4.0434554084e-09
6.44078006736e-09
9.85187931163e-09
2.69447007342e-08
3.20971269503e-08
3.23539511187e-08
3.23626674782e-08
3.23628325652e-08
3.236277837e-08
3.23627427919e-08
3.23627173931e-08
3.23627125394e-08
3.23627108004e-08
3.23581084137e-08
2.9270174677e-08
3.29119482438e-08
7.22619714256e-07
2.35986062013e-06
6.40402141171e-10
1.56551378651e-09
4.05000967336e-09
6.46003411822e-09
9.68499222092e-09
2.66573566968e-08
3.20765125016e-08
3.2355258722e-08
3.23649443587e-08
3.23651445571e-08
3.23650951945e-08
3.23650628439e-08
3.2365040627e-08
3.23650382301e-08
3.23650384665e-08
3.23602571949e-08
2.91507398576e-08
3.38136851709e-08
7.34561266329e-07
2.37974439979e-06
6.41845101434e-10
1.55431937261e-09
4.05078631955e-09
6.46434945404e-09
9.51737012291e-09
2.63956077208e-08
3.20573434336e-08
3.23565687014e-08
3.23671932018e-08
3.23674327882e-08
3.2367392348e-08
3.23673667947e-08
3.23673509049e-08
3.23673539759e-08
3.23673592247e-08
3.23623952178e-08
2.90274016931e-08
3.47380676461e-08
7.46557344648e-07
2.39952867805e-06
6.43078958547e-10
1.54331990286e-09
4.04920575035e-09
6.46901123789e-09
9.38669159674e-09
2.6176380268e-08
3.20401770422e-08
3.23579009301e-08
3.23694101459e-08
3.23696937189e-08
3.23696672625e-08
3.23696530102e-08
3.23696473629e-08
3.23696590845e-08
3.23696716738e-08
3.23645198556e-08
2.89000572813e-08
3.56857508881e-08
7.58612290161e-07
2.41922346105e-06
6.44165880379e-10
1.53353113157e-09
4.05306976314e-09
6.49451459458e-09
9.3038528701e-09
2.59826407555e-08
3.20236905143e-08
3.23592135667e-08
3.23715956743e-08
3.23719280706e-08
3.23719197583e-08
3.23719203886e-08
3.2371928237e-08
3.23719519044e-08
3.23719754385e-08
3.23666321412e-08
2.87686589384e-08
3.66570219504e-08
7.70725452967e-07
2.43883207959e-06
6.45258040771e-10
1.52582999319e-09
4.06505995167e-09
6.53916028167e-09
9.23952758292e-09
2.57868635124e-08
3.200637313e-08
3.23604675967e-08
3.23737588677e-08
3.23741438208e-08
3.23741559564e-08
3.23741734921e-08
3.23741965624e-08
3.23742334458e-08
3.23742686403e-08
3.23687267453e-08
2.86331418751e-08
3.76523264112e-08
7.82898296194e-07
2.4583612341e-06
6.46537966065e-10
1.51995327648e-09
4.07835248856e-09
6.58208992539e-09
9.16102128633e-09
2.55842884702e-08
3.19886580191e-08
3.23617028791e-08
3.23759154027e-08
3.23763523065e-08
3.23763836732e-08
3.23764166798e-08
3.23764533516e-08
3.2376501805e-08
3.23765471007e-08
3.237079703e-08
2.84934796673e-08
3.86718397743e-08
7.95128821593e-07
2.4778130773e-06
6.47882595816e-10
1.51464035268e-09
4.08597336348e-09
6.60585818691e-09
9.06232500521e-09
2.53961290768e-08
3.19724873685e-08
3.23630157071e-08
3.23780842845e-08
3.23785682711e-08
3.23786158517e-08
3.23786614124e-08
3.23787086778e-08
3.23787653527e-08
3.23788169371e-08
3.23728466471e-08
2.83496345776e-08
3.97159620427e-08
8.07417915416e-07
2.49719361607e-06
6.4901857888e-10
1.50929425216e-09
4.08939242251e-09
6.62073429227e-09
8.97959663157e-09
2.52464419325e-08
3.19588302308e-08
3.23644592524e-08
3.23802823702e-08
3.238080677e-08
3.23808665985e-08
3.23809208533e-08
3.23809749445e-08
3.23810363358e-08
3.23810911099e-08
3.23748895459e-08
2.8201609042e-08
4.07848808957e-08
8.19763695371e-07
2.51650489669e-06
6.49986660451e-10
1.50459003161e-09
4.09609460764e-09
6.65155211914e-09
8.9386180475e-09
2.51253073751e-08
3.19463078461e-08
3.23659926554e-08
3.2382524106e-08
3.23830849909e-08
3.238315434e-08
3.2383214719e-08
3.23832730845e-08
3.23833364119e-08
3.23833912472e-08
3.23769464783e-08
2.8049387494e-08
4.18790254142e-08
8.32167234023e-07
2.53575237972e-06
6.50966881502e-10
1.50130511464e-09
4.11091305601e-09
6.70351978532e-09
8.92020397445e-09
2.50031981022e-08
3.19327360209e-08
3.23675450382e-08
3.23848234923e-08
3.23854209123e-08
3.23854986071e-08
3.23855639476e-08
3.23856256021e-08
3.23856902539e-08
3.2385745093e-08
3.23790490114e-08
2.78929975688e-08
4.29985846496e-08
8.44626549411e-07
2.5549373562e-06
6.52218450852e-10
1.49947876049e-09
4.12972216196e-09
6.76150963672e-09
8.8942213445e-09
2.48688985329e-08
3.19178621484e-08
3.23691285376e-08
3.23871991511e-08
3.23878356522e-08
3.23879232738e-08
3.23879951861e-08
3.23880617648e-08
3.23881291897e-08
3.23881852216e-08
3.23812295851e-08
2.77324507771e-08
4.41439455353e-08
8.57142158914e-07
2.57406399416e-06
6.537917876e-10
1.4981874823e-09
4.14459857099e-09
6.80467006201e-09
8.84345630619e-09
2.47378595328e-08
3.19039148644e-08
3.23708541321e-08
3.23896736989e-08
3.23903508854e-08
3.23904517441e-08
3.23905333663e-08
3.23906080306e-08
3.23906815413e-08
3.2390742379e-08
3.23835220507e-08
2.75678055822e-08
4.53151314857e-08
8.69710305796e-07
2.5931314321e-06
6.55274789211e-10
1.49656024731e-09
4.15383358175e-09
6.83261035532e-09
8.79090786588e-09
2.46378372429e-08
3.18929189161e-08
3.23728201805e-08
3.23922723954e-08
3.23929910984e-08
3.2393109913e-08
3.23932057212e-08
3.23932926768e-08
3.23933759826e-08
3.23934448185e-08
3.2385952499e-08
2.73991061663e-08
4.65123086356e-08
8.82329513509e-07
2.61214201355e-06
6.56494211833e-10
1.4949019919e-09
4.16288679528e-09
6.86987633312e-09
8.77536204766e-09
2.45714576961e-08
3.18840241815e-08
3.23750129127e-08
3.23950200493e-08
3.23957817171e-08
3.23959223282e-08
3.23960356685e-08
3.23961380734e-08
3.23962341532e-08
3.23963139964e-08
3.23885433825e-08
2.72264524475e-08
4.77351788257e-08
8.94993270633e-07
2.63109322499e-06
6.57521858428e-10
1.49381859173e-09
4.17682358486e-09
6.92577356926e-09
8.78823337442e-09
2.45082513703e-08
3.18742104191e-08
3.23773431542e-08
3.23979451448e-08
3.23987533159e-08
3.23989180568e-08
3.23990508149e-08
3.23991702442e-08
3.23992800928e-08
3.23993713899e-08
3.23913117797e-08
2.70499326846e-08
4.89835957704e-08
9.07698080195e-07
2.64998704176e-06
6.58553237231e-10
1.49346337799e-09
4.19377835047e-09
6.98954311284e-09
8.79999696025e-09
2.44246113558e-08
3.18614364055e-08
3.23797687771e-08
3.24010806627e-08
3.24019380653e-08
3.24021261817e-08
3.24022773823e-08
3.24024130678e-08
3.24025360203e-08
3.24026383859e-08
3.23942801267e-08
2.68696991083e-08
5.02569263219e-08
9.20435287501e-07
2.66882152973e-06
6.59781632879e-10
1.4933932385e-09
4.20650186815e-09
7.04081907345e-09
8.78585028797e-09
2.4318719698e-08
3.18463670365e-08
3.23823564734e-08
3.24044667157e-08
3.24053722225e-08
3.2405580003e-08
3.24057461888e-08
3.24058950233e-08
3.24060282943e-08
3.24061392071e-08
3.23974692359e-08
2.66858760345e-08
5.1554824093e-08
9.33200778697e-07
2.68759947985e-06
6.60863282446e-10
1.4926264839e-09
4.21038506583e-09
7.06917548747e-09
8.74808376269e-09
2.42048032915e-08
3.18306487007e-08
3.23851939056e-08
3.24081421044e-08
3.24090897177e-08
3.24093100496e-08
3.24094849474e-08
3.24096416718e-08
3.24097808353e-08
3.24098966668e-08
3.24009023546e-08
2.64987862064e-08
5.28731984408e-08
9.45917577138e-07
2.70602264807e-06
)
;

boundaryField
{
    emptyPatch
    {
        type            empty;
    }
    minY
    {
        type            zeroGradient;
    }
    maxY
    {
        type            calculated;
        value           nonuniform List<scalar> 0();
    }
    water_to_cooler
    {
        type            compressible::alphatWallBoilingWallFunction;
        phaseType       vapor;
        relax           constant 1;
        partitioningModel
        {
            type            Lavieville;
            alphaCrit       0.2;
        }
        otherPhase      liquid;
        dmdt            uniform 0;
        dDep            uniform 1e-05;
        qQuenching      uniform 0;
        alphatConv      uniform 0;
        value           uniform 3.01273722487e-05;
    }
    water_to_heater
    {
        type            compressible::alphatWallBoilingWallFunction;
        phaseType       vapor;
        relax           constant 1;
        partitioningModel
        {
            type            Lavieville;
            alphaCrit       0.2;
        }
        otherPhase      liquid;
        dmdt            uniform 0;
        dDep            uniform 1e-05;
        qQuenching      uniform 0;
        alphatConv      uniform 0;
        value           nonuniform List<scalar> 
60
(
1.0818070417e-09
1.0818070417e-09
1.22599153184e-09
1.08704586833e-09
1.24424342545e-09
1.24424342545e-09
1.10833920458e-09
1.10833920458e-09
1.28107155921e-09
1.28107155921e-09
1.18448997748e-09
1.3204570524e-09
2.98002198744e-09
2.98002198744e-09
9.89155726347e-09
9.89155726347e-09
2.59415462888e-08
2.59415462888e-08
2.59540690402e-08
2.09066706924e-08
1.11527797224e-08
1.11527797224e-08
7.14753568119e-09
7.14753568119e-09
5.13274742618e-09
5.13274742618e-09
3.73673888784e-09
2.81879369533e-09
2.52157759322e-09
2.52157759322e-09
2.49713608041e-09
2.49713608041e-09
2.42676529546e-09
2.42676529546e-09
2.27643081195e-09
2.25279764409e-09
2.17341693015e-09
2.17341693015e-09
2.11319874748e-09
2.11319874748e-09
2.06126925594e-09
2.06126925594e-09
2.08853757487e-09
1.96948377418e-09
2.03802349593e-09
2.03802349593e-09
1.95524806791e-09
1.95524806791e-09
1.91469125823e-09
1.91469125823e-09