/*--------------------------------*- C++ -*----------------------------------*\
| =========                 |                                                 |
| \\      /  F ield         | OpenFOAM: The Open Source CFD Toolbox           |
|  \\    /   O peration     | Version:  2312                                  |
|   \\  /    A nd           | Website:  www.openfoam.com                      |
|    \\/     M anipulation  |                                                 |
\*---------------------------------------------------------------------------*/
FoamFile
{
    version     2.0;
    format      ascii;
    arch        "LSB;label=32;scalar=64";
    class       volScalarField;
    location    "0.395/water";
    object      alphat.gas;
}
// * * * * * * * * * * * * * * * * * * * * * * * * * * * * * * * * * * * * * //

dimensions      [1 -1 -1 0 0 0 0];

internalField   nonuniform List<scalar> 
1504
(
2.65619116898e-06
2.71763183839e-06
2.25047166241e-06
1.68311442464e-06
1.25577388673e-06
9.87544357837e-07
8.22806923489e-07
7.11433855456e-07
6.10385642354e-07
4.70665812687e-07
2.83758020441e-07
1.19565862666e-07
4.13526962025e-08
2.15969881107e-08
1.9364565449e-08
1.98057471564e-08
1.94024421079e-08
1.87539874466e-08
1.90337715842e-08
3.66134944991e-08
2.57634169153e-06
2.62760439524e-06
2.17876283927e-06
1.64231934221e-06
1.23937425518e-06
9.86656773992e-07
8.2744168773e-07
7.10522134263e-07
5.93795816387e-07
4.37262679368e-07
2.54898494061e-07
1.09885125973e-07
4.09399288584e-08
2.18620669177e-08
1.939272504e-08
1.97972454464e-08
1.94545218275e-08
1.89508887434e-08
1.90705345167e-08
2.87657586445e-08
2.45315923461e-06
2.47748360192e-06
2.07457803954e-06
1.60502898089e-06
1.24359339544e-06
1.00256572122e-06
8.38571721348e-07
7.07687683832e-07
5.6936994433e-07
4.029667739e-07
2.32942601416e-07
1.0522640414e-07
4.21952279881e-08
2.26577472224e-08
1.94776145149e-08
1.96541222472e-08
1.93805347352e-08
1.90080353025e-08
1.92882229138e-08
2.17853015192e-08
2.27184115494e-06
2.30715062117e-06
2.02481840401e-06
1.64033889233e-06
1.29706838339e-06
1.0407969024e-06
8.5441738237e-07
6.97388948514e-07
5.39851366126e-07
3.76063337906e-07
2.22290268538e-07
1.07324836676e-07
4.61527987069e-08
2.42758468583e-08
1.96373930065e-08
1.93824062023e-08
1.91925134812e-08
1.8930799036e-08
1.9486821157e-08
2.12453932845e-08
2.26097588761e-06
2.38856256694e-06
2.1957121525e-06
1.80366974023e-06
1.39912137035e-06
1.08715582494e-06
8.61330275098e-07
6.79479381605e-07
5.18534863571e-07
3.67060505794e-07
2.27392091169e-07
1.18144466703e-07
5.35480134254e-08
2.6863747058e-08
1.9940475217e-08
1.90467643277e-08
1.89394970419e-08
1.88120035244e-08
1.95345873814e-08
2.11601196569e-08
2.63163445242e-06
2.85930292338e-06
2.58944365142e-06
2.03388163008e-06
1.50216707457e-06
1.12714546058e-06
8.67798955017e-07
6.72991166946e-07
5.18165697019e-07
3.80923519553e-07
2.51288036564e-07
1.40779083847e-07
6.64968288127e-08
3.12165696871e-08
2.06562488438e-08
1.87916796766e-08
1.86722588812e-08
1.87210396795e-08
1.94590094724e-08
2.10496678283e-08
3.23298879208e-06
3.45437615002e-06
2.98421160425e-06
2.24213474e-06
1.61903347959e-06
1.19884081725e-06
9.06580588435e-07
6.97461930746e-07
5.45895936183e-07
4.20477333119e-07
2.98175515065e-07
1.81324693388e-07
8.97994274004e-08
3.93304405574e-08
2.23505637833e-08
1.88665951578e-08
1.85112000686e-08
1.86902822221e-08
1.93196363108e-08
2.08826174885e-08
3.64726561879e-06
3.76624524792e-06
3.18874990113e-06
2.43637301222e-06
1.79900986535e-06
1.33702499689e-06
1.00336869622e-06
7.65821486495e-07
6.01892382675e-07
4.80035216993e-07
3.65703964683e-07
2.43972779291e-07
1.29931424427e-07
5.46266285114e-08
2.60571694881e-08
1.95649184741e-08
1.86507477095e-08
1.87610015363e-08
1.92224554764e-08
2.06457961651e-08
3.36707119696e-06
3.53907577015e-06
3.20182065142e-06
2.62389577089e-06
2.03071473715e-06
1.53342478402e-06
1.14950976201e-06
8.69444956482e-07
6.75729527917e-07
5.44536909487e-07
4.38092534939e-07
3.20612273803e-07
1.88443396762e-07
8.05037034648e-08
3.29107904683e-08
2.12110433108e-08
1.91845932564e-08
1.89987192196e-08
1.92413086014e-08
2.03863384376e-08
3.03045853012e-06
3.32480230115e-06
3.15518728989e-06
2.73448106528e-06
2.23341787007e-06
1.7540207037e-06
1.32239443016e-06
9.81424107631e-07
7.48142895881e-07
5.99423815337e-07
4.96938121651e-07
3.91241367314e-07
2.53812352077e-07
1.15704055927e-07
4.32368589427e-08
2.37575592561e-08
2.00294109452e-08
1.93949897144e-08
1.93524288355e-08
2.01295719068e-08
2.8742165756e-06
3.25489232069e-06
3.1566133259e-06
2.80262307638e-06
2.35082622605e-06
1.89421272548e-06
1.46200626365e-06
1.07642814879e-06
8.02422099978e-07
6.36847745826e-07
5.3568258303e-07
4.42599441393e-07
3.1028103016e-07
1.53150560912e-07
5.61071083379e-08
2.68529334739e-08
2.09592631067e-08
1.98131397287e-08
1.94964989845e-08
1.99307753051e-08
2.75626339909e-06
3.20150297273e-06
3.15320585222e-06
2.83366688738e-06
2.40455336071e-06
1.96024669044e-06
1.5294955323e-06
1.1317796707e-06
8.33796134346e-07
6.57659573068e-07
5.57959526312e-07
4.74457358671e-07
3.50315662118e-07
1.85913545366e-07
7.0035521834e-08
3.04037015226e-08
2.17685524015e-08
2.01208854765e-08
1.96426909411e-08
1.98088998475e-08
2.68645337656e-06
3.15932972786e-06
3.13821668484e-06
2.83481560533e-06
2.41560613633e-06
1.97668600924e-06
1.54900465008e-06
1.15014661116e-06
8.47901193614e-07
6.70874133558e-07
5.73582146822e-07
4.94894257504e-07
3.74950637453e-07
2.0839637632e-07
8.19838237558e-08
3.40103958474e-08
2.25017518501e-08
2.0304242532e-08
1.97688725121e-08
1.97296173983e-08
2.64178019371e-06
3.13377322184e-06
3.12222236311e-06
2.81849118887e-06
2.39869871596e-06
1.95775581008e-06
1.53016954522e-06
1.13772043702e-06
8.48393120483e-07
6.8057511078e-07
5.8793290011e-07
5.10642707837e-07
3.8957500762e-07
2.20585743834e-07
8.92804185784e-08
3.65667783147e-08
2.30127998273e-08
2.03591704952e-08
1.98530416538e-08
1.96565856908e-08
2.62515992294e-06
3.12996160238e-06
3.11640097998e-06
2.79864048512e-06
2.36636736014e-06
1.91448531489e-06
1.48363249256e-06
1.10613431856e-06
8.41900013403e-07
6.89396890306e-07
6.02517672041e-07
5.23564419282e-07
3.9658389439e-07
2.2408999575e-07
9.18779500967e-08
3.77522105769e-08
2.32174944382e-08
2.02895847735e-08
1.98635942825e-08
1.95523389912e-08
2.62369880418e-06
3.14717016296e-06
3.12882835897e-06
2.78528022717e-06
2.32578919713e-06
1.85375489581e-06
1.41898735346e-06
1.06856886102e-06
8.34790505706e-07
6.98868717846e-07
6.17028695219e-07
5.33059125029e-07
3.96531300731e-07
2.2032187068e-07
9.04746048685e-08
3.76367429678e-08
2.31003946069e-08
2.010706743e-08
1.97769109568e-08
1.93823431243e-08
2.6450446651e-06
3.19528598289e-06
3.16979237516e-06
2.78236670453e-06
2.27709871889e-06
1.77991821372e-06
1.34840239188e-06
1.03366818603e-06
8.29413296772e-07
7.0873213607e-07
6.29996741589e-07
5.37650693895e-07
3.89351337364e-07
2.10462746672e-07
8.59890951535e-08
3.64761057206e-08
2.26992951699e-08
1.98172153402e-08
1.95771455558e-08
1.91323812516e-08
2.70158554493e-06
3.29316258332e-06
3.243663702e-06
2.7826002278e-06
2.21466528152e-06
1.69593133156e-06
1.28563908074e-06
1.00403966205e-06
8.25521852523e-07
7.18179973483e-07
6.3990196357e-07
5.35984975438e-07
3.75003050977e-07
1.95788877244e-07
7.94581955263e-08
3.46241274385e-08
2.20945384671e-08
1.94327026639e-08
1.92575667162e-08
1.87883266343e-08
2.81983871268e-06
3.46098303894e-06
3.34874940745e-06
2.77370745687e-06
2.13200324738e-06
1.60285509085e-06
1.22798070937e-06
9.78849762574e-07
8.22544693324e-07
7.26794528841e-07
6.45564402837e-07
5.2711910875e-07
3.54002359812e-07
1.78050960181e-07
7.20364870121e-08
3.24825717856e-08
2.13932711413e-08
1.8973803957e-08
1.8814094717e-08
1.83284465938e-08
2.98462905524e-06
3.65408457273e-06
3.42866829281e-06
2.73111899793e-06
2.03595295733e-06
1.52091135306e-06
1.17728683472e-06
9.56647747242e-07
8.21044223639e-07
7.34594917582e-07
6.45985777198e-07
5.10807771449e-07
3.27964911315e-07
1.59513650943e-07
6.48756543821e-08
3.04385761715e-08
2.07066403226e-08
1.84637153897e-08
1.82538929131e-08
1.77844565274e-08
3.0934411362e-06
3.76534799885e-06
3.43159058685e-06
2.65728871148e-06
1.94140169218e-06
1.44587573799e-06
1.13236921101e-06
9.38303315192e-07
8.23136963806e-07
7.41594856275e-07
6.40743615808e-07
4.88041795168e-07
2.99938393291e-07
1.42632812345e-07
5.89375722202e-08
2.87947925617e-08
2.01239647528e-08
1.79288163387e-08
1.76030231935e-08
1.7191668767e-08
3.12702267748e-06
3.69520816338e-06
3.33938026813e-06
2.56241340949e-06
1.85836085333e-06
1.38490393399e-06
1.09624527538e-06
9.28174534611e-07
8.30721241063e-07
7.47842071336e-07
6.30391412808e-07
4.61116989914e-07
2.73652715725e-07
1.29337393269e-07
5.48100389645e-08
2.77278949904e-08
1.97014327503e-08
1.74024018535e-08
1.6899319297e-08
1.65685870497e-08
3.15047269601e-06
3.56950232049e-06
3.20486188742e-06
2.46822263496e-06
1.79541570552e-06
1.34161315248e-06
1.07484940743e-06
9.31691790078e-07
8.45755869258e-07
7.54060288259e-07
6.15203986996e-07
4.33090954449e-07
2.52184137135e-07
1.20588753314e-07
5.27219113463e-08
2.73167644103e-08
1.94709460791e-08
1.69299794508e-08
1.61835613079e-08
1.59221980336e-08
3.09165831837e-06
3.39895051211e-06
3.02576830939e-06
2.34992904019e-06
1.73206003003e-06
1.31128215937e-06
1.07383424629e-06
9.53469462453e-07
8.70384368039e-07
7.59227627468e-07
5.94925277622e-07
4.07264449735e-07
2.37388131827e-07
1.16672647635e-07
5.27711762789e-08
2.76324422941e-08
1.94729885828e-08
1.65735184295e-08
1.55001957438e-08
1.52636578994e-08
2.94236641296e-06
3.1597375025e-06
2.79259164384e-06
2.20089312487e-06
1.66498539252e-06
1.29902809605e-06
1.10068212435e-06
9.98328654643e-07
9.03874501925e-07
7.58350731787e-07
5.70766160337e-07
3.87082576965e-07
2.30366056062e-07
1.17793153338e-07
5.52171131755e-08
2.88991306772e-08
1.98180091585e-08
1.64193520408e-08
1.49089566782e-08
1.46163989329e-08
2.75573817138e-06
2.88725365597e-06
2.56902888889e-06
2.07857792067e-06
1.63172785828e-06
1.32767008102e-06
1.16665490679e-06
1.0669724053e-06
9.37198474235e-07
7.48014367356e-07
5.48448809735e-07
3.76519708377e-07
2.32247619418e-07
1.24723203473e-07
6.09697937878e-08
3.15937044256e-08
2.06657042092e-08
1.653460891e-08
1.45119312593e-08
1.40237876863e-08
2.65507196357e-06
2.75979096095e-06
2.49937923491e-06
2.079613553e-06
1.68469409254e-06
1.42034585656e-06
1.27476616096e-06
1.1467731316e-06
9.60108464027e-07
7.36399437129e-07
5.38743445548e-07
3.79915894562e-07
2.45399283871e-07
1.39804267972e-07
7.11400806576e-08
3.59924808833e-08
2.2065260287e-08
1.69209637883e-08
1.43997054253e-08
1.35250601457e-08
2.74748717823e-06
2.90838408267e-06
2.66875558914e-06
2.23684750556e-06
1.83064736681e-06
1.56794156947e-06
1.40132196413e-06
1.22069188758e-06
9.85900558885e-07
7.46572158573e-07
5.50228951046e-07
3.9820681238e-07
2.72386187976e-07
1.66060708063e-07
8.74920740833e-08
4.28559154174e-08
2.42267721243e-08
1.7592767886e-08
1.46191706388e-08
1.31947759423e-08
3.04644426419e-06
3.2459175479e-06
2.95844096808e-06
2.44746949421e-06
2.00295981458e-06
1.72306582158e-06
1.52545902558e-06
1.30518649784e-06
1.0424775873e-06
7.88473014356e-07
5.84626029455e-07
4.35602553729e-07
3.17606140145e-07
2.07765283455e-07
1.13878714012e-07
5.40289992451e-08
2.76777437974e-08
1.86295435413e-08
1.5116314863e-08
1.32335100652e-08
3.37469477191e-06
3.53281147805e-06
3.1272396193e-06
2.57073289262e-06
2.12821117647e-06
1.84623506477e-06
1.63785368634e-06
1.40706049657e-06
1.13386024982e-06
8.66964965744e-07
6.51760956111e-07
4.96478827351e-07
3.7867560072e-07
2.66492943172e-07
1.55462929555e-07
7.281138924e-08
3.34164815249e-08
2.02216817789e-08
1.58188495122e-08
1.36437995717e-08
3.35109805076e-06
3.44022731822e-06
3.0506095802e-06
2.55677280473e-06
2.1597178656e-06
1.8974922187e-06
1.70569877794e-06
1.49887393799e-06
1.2439608594e-06
9.7977766801e-07
7.52163812015e-07
5.75896908736e-07
4.45475724454e-07
3.33545369351e-07
2.12790537847e-07
1.03088598981e-07
4.31604251729e-08
2.27720222716e-08
1.67365601258e-08
1.4202047353e-08
3.13462284174e-06
3.2667876428e-06
2.94476313814e-06
2.50494811284e-06
2.14278108118e-06
1.89738288985e-06
1.72203876579e-06
1.54931107047e-06
1.33657813538e-06
1.0965986719e-06
8.65111104517e-07
6.63478923148e-07
5.08825768136e-07
3.92940736437e-07
2.74156152039e-07
1.45074607988e-07
5.93823775994e-08
2.72021549611e-08
1.80419394737e-08
1.47789361921e-08
3.01118042265e-06
3.17215385872e-06
2.8736048985e-06
2.45687993077e-06
2.11066696018e-06
1.87510269092e-06
1.71235441481e-06
1.56486374695e-06
1.3883948777e-06
1.17747579617e-06
9.5370050186e-07
7.3908846945e-07
5.63972590095e-07
4.37654223766e-07
3.23831592356e-07
1.90492428686e-07
8.28034223433e-08
3.4782602649e-08
2.01196263446e-08
1.54242501929e-08
2.89177372521e-06
3.08574613172e-06
2.81443505012e-06
2.40977366296e-06
2.06586484645e-06
1.83300769703e-06
1.67928515293e-06
1.5501335087e-06
1.40006478804e-06
1.21412152923e-06
1.00382767807e-06
7.89681699132e-07
6.05993344242e-07
4.71419933439e-07
3.58939318813e-07
2.2788298065e-07
1.07220033861e-07
4.42709537385e-08
2.28847613886e-08
1.61722245505e-08
2.77011564486e-06
3.01609227838e-06
2.7733719505e-06
2.36566770391e-06
2.00862418624e-06
1.76964055793e-06
1.62147929755e-06
1.50660930702e-06
1.37603685602e-06
1.20995190902e-06
1.01504575807e-06
8.10374055297e-07
6.30058832221e-07
4.94735753129e-07
3.82594109667e-07
2.53242069306e-07
1.26369484394e-07
5.30911233867e-08
2.57875535188e-08
1.6981679386e-08
2.67839803618e-06
2.97580838934e-06
2.75779263964e-06
2.3289591757e-06
1.9421333073e-06
1.69020567862e-06
1.54544511388e-06
1.44079504351e-06
1.32297499536e-06
1.17142345436e-06
9.91995801913e-07
8.02784293195e-07
6.35427099663e-07
5.06951586424e-07
3.96056272971e-07
2.66133401724e-07
1.36839997636e-07
5.88277352029e-08
2.79956095695e-08
1.76486603377e-08
2.61914732195e-06
2.97103309628e-06
2.76618353861e-06
2.30091242634e-06
1.87494295018e-06
1.60789886933e-06
1.4652389439e-06
1.36595044713e-06
1.25317725413e-06
1.10975553374e-06
9.44139238577e-07
7.74324639519e-07
6.26308413048e-07
5.09468336253e-07
3.99735322159e-07
2.6683509345e-07
1.37639596544e-07
6.02076415688e-08
2.88570672576e-08
1.7944355534e-08
2.59089016597e-06
2.97495361398e-06
2.76752809951e-06
2.26837176064e-06
1.81236239321e-06
1.53521178528e-06
1.39454485818e-06
5.09979635919e-06
3.79792550034e-06
2.53034484079e-06
1.6912908433e-06
1.33015764946e-06
1.35208979027e-06
1.63699232368e-06
2.04002932955e-06
2.42796754708e-06
2.72436196773e-06
2.89567222475e-06
2.93008626084e-06
2.82967647945e-06
2.61222126573e-06
2.31736244971e-06
2.02031518042e-06
1.9043008409e-06
5.07959588729e-07
3.11223984738e-06
4.92382026757e-06
4.60817561198e-06
3.39874053204e-06
2.26666236283e-06
1.57696901957e-06
1.33772620349e-06
1.44571000777e-06
1.77747897669e-06
2.18873415375e-06
2.56207307346e-06
2.83515626372e-06
2.98108254746e-06
2.99079894946e-06
2.86772254622e-06
2.63144397797e-06
2.32511192734e-06
2.02226587053e-06
1.88426455728e-06
2.72322651391e-07
2.29563452737e-06
4.28956399596e-06
4.14164463377e-06
3.042833734e-06
2.05250859812e-06
1.50340884736e-06
1.37355021194e-06
1.55632121129e-06
1.92405216546e-06
2.33681119156e-06
2.69339381528e-06
2.94310054676e-06
3.06430666135e-06
3.0501083466e-06
2.90489864361e-06
2.64986588698e-06
2.33246565391e-06
2.027784102e-06
1.87374052772e-06
1.32729752633e-07
1.57230599298e-06
3.65293634532e-06
3.7071718827e-06
2.73374173636e-06
1.88545856596e-06
1.46588841251e-06
1.4337716815e-06
1.68054635205e-06
2.07442838389e-06
2.48348708566e-06
2.82189847987e-06
3.04842945226e-06
3.14565794278e-06
3.10833868652e-06
2.94149909045e-06
2.66760416161e-06
2.33893268248e-06
2.03583209502e-06
1.87385612024e-06
6.45340175949e-08
1.02327434396e-06
3.02499759088e-06
3.30892840348e-06
2.47190781675e-06
1.76137302774e-06
1.45975067793e-06
1.51480139712e-06
1.81530239917e-06
2.22682772806e-06
2.62827151516e-06
2.9476544266e-06
3.15139581227e-06
3.22543209176e-06
3.16578257627e-06
2.97779412607e-06
2.68477920267e-06
2.34399687454e-06
2.04505361862e-06
1.88569638645e-06
4.06878091936e-08
6.3327617712e-07
2.4075655068e-06
2.94746969456e-06
2.25568141062e-06
1.67555149704e-06
1.48078452323e-06
1.61332106625e-06
1.95786822611e-06
2.37992431632e-06
2.77089857049e-06
3.07081351456e-06
3.25227373794e-06
3.30391349184e-06
3.22270491858e-06
3.01403277611e-06
2.7015383003e-06
2.34716634637e-06
2.05358853908e-06
1.90970643066e-06
3.25462142196e-08
3.18621445774e-07
1.80522280548e-06
2.62012564288e-06
2.08194827375e-06
1.62335141536e-06
1.52537773796e-06
1.72642029862e-06
2.1061008001e-06
2.53293138747e-06
2.91139426909e-06
3.19167266116e-06
3.35139683993e-06
3.38138888717e-06
3.27933528639e-06
3.05042351061e-06
2.71804806579e-06
2.34804126548e-06
2.05914640636e-06
1.94505577426e-06
2.40818396868e-08
1.07993821447e-07
1.25007391121e-06
2.32157627611e-06
1.94645228181e-06
1.60059849814e-06
1.59070273022e-06
1.85187380304e-06
2.25868014462e-06
2.68568810249e-06
3.05012563116e-06
3.31069138633e-06
3.44914634565e-06
3.4581142897e-06
3.33582122949e-06
3.08708025643e-06
2.73445895709e-06
2.34638723938e-06
2.05922728624e-06
1.98884073624e-06
2.33611994869e-08
5.15625183738e-08
7.41702504101e-07
2.04113247731e-06
1.84440011581e-06
1.60402383452e-06
1.67490134145e-06
1.98832949488e-06
2.41515217942e-06
2.8385724795e-06
3.18769937277e-06
3.4283856464e-06
3.54584705648e-06
3.53421952074e-06
3.39214225716e-06
3.12394006351e-06
2.75083805793e-06
2.34218801173e-06
2.05152209954e-06
2.03533506051e-06
2.27089947105e-08
3.42271131478e-08
2.92619097529e-07
1.75183140426e-06
1.77137624853e-06
1.63160841302e-06
1.7770851177e-06
2.13521711839e-06
2.57566933066e-06
2.99219489693e-06
3.32469659926e-06
3.54510917484e-06
3.64159719878e-06
3.60958533912e-06
3.44802607389e-06
3.16069861221e-06
2.7671003794e-06
2.33565524303e-06
2.03442366444e-06
2.07581639368e-06
2.20696490699e-08
2.84673579377e-08
1.03805475077e-07
1.37169981241e-06
1.72383976926e-06
1.68259417739e-06
1.89699588106e-06
2.29231523723e-06
2.74046554347e-06
3.14693536353e-06
3.46131771683e-06
3.66079800391e-06
3.7361008712e-06
3.6837508227e-06
3.50291325992e-06
3.19679622406e-06
2.78295948539e-06
2.32713897387e-06
2.00741885253e-06
2.09962653138e-06
2.14501834087e-08
2.63688199478e-08
7.04435760894e-08
8.06648949962e-07
1.69521389232e-06
1.7569559605e-06
2.03429243312e-06
2.45906660633e-06
2.90922829381e-06
3.30248521725e-06
3.59708522645e-06
3.77480140495e-06
3.82859804437e-06
3.75591751647e-06
3.55601247626e-06
3.23148965512e-06
2.79793495869e-06
2.31702952277e-06
1.97136257524e-06
2.0969042504e-06
2.08910651965e-08
2.4646146031e-08
4.63211014963e-08
3.42257620063e-07
1.65450184661e-06
1.85442913026e-06
2.18776357381e-06
2.63400262808e-06
3.0807073967e-06
3.45766089075e-06
3.73080276849e-06
3.88593358272e-06
3.91797061152e-06
3.82508399275e-06
3.60644744232e-06
3.2639966139e-06
2.81145050228e-06
2.30567750209e-06
1.92823436923e-06
2.06190739886e-06
2.04170343855e-08
2.32261443738e-08
3.85004538354e-08
1.68909711475e-07
1.52223734608e-06
1.9735582853e-06
2.35507198796e-06
2.81473858102e-06
3.25285619866e-06
3.61064291221e-06
3.86082515208e-06
3.99273417669e-06
4.00297256038e-06
3.89023559819e-06
3.65340094624e-06
3.29356853715e-06
2.82280128025e-06
2.29340743132e-06
1.88062890848e-06
1.99516092362e-06
1.99979568772e-08
2.21026138152e-08
3.4303542033e-08
1.20315219882e-07
1.23876719695e-06
2.10942809933e-06
2.53309862513e-06
2.99842237705e-06
3.42327867102e-06
3.75937989883e-06
3.98539281517e-06
4.09373096919e-06
4.08242870935e-06
3.95048590654e-06
3.69618425467e-06
3.31953801243e-06
2.83167820827e-06
2.28049099969e-06
1.83123055722e-06
1.90317531927e-06
1.95881638119e-08
2.12312126539e-08
3.10383883769e-08
1.01908631579e-07
8.82074972646e-07
2.24959615577e-06
2.71825264909e-06
3.18205090831e-06
3.58949805363e-06
3.90180739408e-06
4.10280848372e-06
4.18758820476e-06
4.15536610009e-06
4.00519766663e-06
3.73440983422e-06
3.34187566417e-06
2.83794344952e-06
2.26695243765e-06
1.78249668322e-06
1.79597409551e-06
1.9161778516e-08
2.05265687078e-08
2.85233639555e-08
7.92040065135e-08
5.82503205514e-07
2.36990926571e-06
2.90644288064e-06
3.36258787122e-06
3.74910278615e-06
4.03601090472e-06
4.21161771351e-06
4.27330719426e-06
4.22123987108e-06
4.05426633053e-06
3.76835311166e-06
3.36087087415e-06
2.84165917763e-06
2.2531398734e-06
1.73657425781e-06
1.68419999087e-06
1.87006097917e-08
1.99095339301e-08
2.66675255796e-08
6.28178313534e-08
3.89603697501e-07
2.43074790327e-06
3.09310524421e-06
3.53733944401e-06
3.90012623104e-06
4.160567423e-06
4.31091688234e-06
4.35050981048e-06
4.28019272017e-06
4.09831755637e-06
3.79896381304e-06
3.37778332727e-06
2.84390909365e-06
2.23954575122e-06
1.69535431965e-06
1.57713662007e-06
1.81666962539e-08
1.93247335812e-08
2.54542174561e-08
5.69460277746e-08
2.80689047629e-07
2.37592080661e-06
3.27245015197e-06
3.70405262421e-06
4.04117763782e-06
4.27462805361e-06
4.40039988367e-06
4.41946470527e-06
4.3330639457e-06
4.1386905194e-06
3.82818465778e-06
3.39421697022e-06
2.84539013679e-06
2.22666630557e-06
1.66065685391e-06
1.48172096262e-06
1.75797466677e-08
1.8799316935e-08
2.48296278595e-08
5.21004180072e-08
2.21229273848e-07
2.13784518946e-06
3.43341646601e-06
3.85963664e-06
4.17073932385e-06
4.37747063394e-06
4.48006119712e-06
4.48088094133e-06
4.38122660411e-06
4.17723164429e-06
3.8579954212e-06
3.41203794248e-06
2.84742493298e-06
2.21516496013e-06
1.63401485116e-06
1.40272500442e-06
1.70083002406e-08
1.83604436619e-08
2.46538671852e-08
4.84809221986e-08
1.86860869844e-07
1.68236965965e-06
3.55122559977e-06
3.99879998626e-06
4.28699674034e-06
4.46870090439e-06
4.55048333528e-06
4.53615290014e-06
4.42673908864e-06
4.21642200514e-06
3.8905461608e-06
3.43321102097e-06
2.85166350698e-06
2.20583286328e-06
1.61654411475e-06
1.3431259936e-06
1.64786587928e-08
1.80063589239e-08
2.48214730719e-08
4.64504064191e-08
1.5892422158e-07
1.10083924476e-06
3.57264447313e-06
4.11410120785e-06
4.3891092335e-06
4.54942628227e-06
4.61347725827e-06
4.5872929068e-06
4.47150063933e-06
4.25782067435e-06
3.92686522929e-06
3.45749820318e-06
2.85695970334e-06
2.19672023187e-06
1.60633048739e-06
1.30267138099e-06
1.59972652553e-08
1.77034636722e-08
2.5200487626e-08
4.59534257004e-08
1.16663856663e-07
6.07929314559e-07
3.36857065668e-06
4.1939822125e-06
4.47697359909e-06
4.62186671882e-06
4.67078093272e-06
4.63434510363e-06
4.5132236299e-06
4.2966889134e-06
3.96038298775e-06
3.47742160642e-06
2.85490547397e-06
2.17860058995e-06
1.59459538883e-06
1.27667106676e-06
1.55649524078e-08
1.7430451649e-08
2.55623800866e-08
4.64416686696e-08
9.67361612625e-08
3.46931863167e-07
2.66387520478e-06
4.20776903818e-06
4.54796023756e-06
4.68672590161e-06
4.72105761848e-06
4.67147192234e-06
4.54037291539e-06
4.31595288336e-06
3.97035438521e-06
3.47179964124e-06
2.8267153372e-06
2.13504419293e-06
1.56739080916e-06
1.25878899195e-06
1.51783734189e-08
1.71940843946e-08
2.57729204222e-08
4.74280923152e-08
9.32509526207e-08
2.60449644803e-07
1.46498419714e-06
4.0330254173e-06
4.59196061492e-06
4.74048292201e-06
4.75825704634e-06
4.68631600133e-06
4.53251337408e-06
4.28736037906e-06
3.92379441005e-06
3.40879183646e-06
2.74810672273e-06
2.05237123636e-06
1.51921035329e-06
1.25203247228e-06
1.48281003435e-08
1.7046302539e-08
2.57902042853e-08
4.82301904338e-08
9.19665746816e-08
1.81234682077e-07
6.25178638552e-07
3.26121753997e-06
4.56761033527e-06
4.76942530238e-06
4.76588860078e-06
4.65573138921e-06
4.45849987032e-06
4.17255362973e-06
3.77906460557e-06
3.25205569406e-06
2.60073937712e-06
1.93997358836e-06
1.48036092602e-06
1.29237539867e-06
1.45045443513e-08
1.70349116892e-08
2.58739844676e-08
4.85891655528e-08
9.0889881258e-08
1.60137896502e-07
3.93391779745e-07
1.7976184407e-06
4.27072260865e-06
4.7194088256e-06
4.67806305801e-06
4.49821022766e-06
4.22325054901e-06
3.86877229846e-06
3.43719419901e-06
2.92623974803e-06
2.36094112949e-06
1.84985991779e-06
1.57420343779e-06
1.54227912974e-06
1.42100178155e-08
1.71614045249e-08
2.62851796237e-08
4.88090235889e-08
8.97519832226e-08
1.52481791018e-07
3.12113950621e-07
8.14498869248e-07
3.25359488666e-06
4.41328938535e-06
4.31014973629e-06
4.00310619321e-06
3.61310655623e-06
3.19205355358e-06
2.78642451465e-06
2.43907247273e-06
2.19952306238e-06
2.16289631266e-06
2.48017632309e-06
3.15740315839e-06
1.39889163898e-08
1.74129060132e-08
2.7064876008e-08
4.91201149404e-08
8.77304584599e-08
1.43373129749e-07
2.27800932253e-07
5.07538949047e-07
1.83772049817e-06
3.61334922912e-06
3.53325957813e-06
3.13616880757e-06
2.76576744598e-06
2.51454892296e-06
2.44723723772e-06
2.59921496e-06
2.97530797073e-06
3.55453214583e-06
4.35348973106e-06
5.31089989757e-06
1.38778609313e-08
1.77496945767e-08
2.80933752881e-08
4.95172658416e-08
8.47128712797e-08
1.31081277922e-07
1.97077641426e-07
3.93956991447e-07
9.36602483098e-07
2.4977273727e-06
2.67484054928e-06
2.43639980969e-06
2.34073841189e-06
2.4091479173e-06
2.6135517809e-06
2.92432251251e-06
3.28000954293e-06
3.59997187233e-06
3.81400182997e-06
3.84341507136e-06
1.37887030212e-08
1.80475465645e-08
2.90595206211e-08
4.978561698e-08
8.05088623992e-08
1.15317975865e-07
1.59662450517e-07
2.93182457176e-07
5.36072393484e-07
1.62407890455e-06
2.12240878429e-06
2.11312395098e-06
2.15954254093e-06
2.2489293884e-06
2.39729018378e-06
2.59940941527e-06
2.83451259363e-06
3.06108549822e-06
3.24627650271e-06
3.34710158402e-06
1.36833926038e-08
1.80784505612e-08
2.94610021702e-08
4.94027874822e-08
7.51657446206e-08
9.76308957041e-08
1.20095450587e-07
1.81969927719e-07
3.25376610411e-07
1.00940850955e-06
1.61995968405e-06
1.67352550939e-06
1.68460461582e-06
1.74981440932e-06
1.88122907971e-06
2.09089166634e-06
2.37958655346e-06
2.6795086072e-06
2.95149267616e-06
3.20335726628e-06
1.35845014356e-08
1.74012445644e-08
2.86513258527e-08
4.78829776843e-08
6.95385134795e-08
8.1480570441e-08
8.50193104693e-08
9.32313056121e-08
1.66682033077e-07
4.47322535754e-07
9.19962848146e-07
9.82722089246e-07
9.88311378619e-07
9.72956311942e-07
7.64699415983e-07
6.62345003607e-07
1.00302305516e-06
2.20849838101e-06
2.71482534729e-06
3.12680246477e-06
1.34783782454e-08
1.58356371852e-08
2.60518830763e-08
4.44548089092e-08
6.42765218284e-08
7.14710070056e-08
6.5217847472e-08
5.55913477022e-08
7.16730549668e-08
1.14095918302e-07
3.24590953347e-07
4.50571143768e-07
4.62686072635e-07
2.50682910182e-07
1.09728299628e-07
9.96862101907e-08
1.51786742587e-07
3.39351333719e-07
1.61616954483e-06
2.86941348678e-06
1.35345034564e-08
1.44538046859e-08
2.2491308985e-08
3.86561191458e-08
5.66087800274e-08
6.4482992773e-08
5.99937929157e-08
4.96774803598e-08
4.07936156657e-08
5.30261691247e-08
7.74125394801e-08
1.46342107916e-07
1.07510000892e-07
7.33558422782e-08
5.58457105032e-08
6.05402902356e-08
8.77839586364e-08
1.79134030485e-07
2.45215046044e-07
9.90712482368e-07
1.36587051297e-08
1.35224196608e-08
1.91223627079e-08
3.20774043393e-08
4.71581124534e-08
5.60274354762e-08
5.68784196053e-08
5.23566562036e-08
4.71767256192e-08
4.50274337047e-08
4.90248415526e-08
5.74342889303e-08
5.61278555158e-08
5.20868666123e-08
4.79995319327e-08
3.88362920433e-08
4.41867596083e-08
1.31519621356e-07
1.9741733443e-07
3.9198031641e-07
1.37625992486e-08
1.28371644229e-08
1.63342609827e-08
2.59870793827e-08
3.79827630315e-08
4.67135015361e-08
5.10134549632e-08
5.18022546308e-08
5.11383018608e-08
5.11409464027e-08
5.251499983e-08
5.26016881067e-08
4.95605117369e-08
4.68987074668e-08
4.99674770039e-08
3.34530978633e-08
3.10937865673e-08
1.13388702953e-07
1.75543778659e-07
3.264070911e-07
1.37509056015e-08
1.22804650573e-08
1.41919151893e-08
2.10238311105e-08
3.02774427019e-08
3.79859528527e-08
4.33858336339e-08
4.6284363984e-08
4.74393659547e-08
4.77483730829e-08
4.74327080071e-08
4.58962884649e-08
4.31993714022e-08
4.15087731345e-08
4.42846333417e-08
3.15091022718e-08
3.29931874311e-08
1.13850500263e-07
1.76117706908e-07
3.16835384296e-07
)
;

boundaryField
{
    emptyPatch
    {
        type            empty;
    }
    minY
    {
        type            zeroGradient;
    }
    maxY
    {
        type            calculated;
        value           nonuniform List<scalar> 0();
    }
    water_to_cooler
    {
        type            compressible::alphatWallBoilingWallFunction;
        phaseType       vapor;
        relax           constant 1;
        partitioningModel
        {
            type            Lavieville;
            alphaCrit       0.2;
        }
        otherPhase      liquid;
        dmdt            uniform 0;
        dDep            uniform 1e-05;
        qQuenching      uniform 0;
        alphatConv      uniform 0;
        value           nonuniform List<scalar> 
38
(
3.01273722487e-05
3.01273722487e-05
3.01273722487e-05
3.01273722487e-05
3.01273722487e-05
3.01273722487e-05
3.01273722487e-05
3.01273722487e-05
3.01273722487e-05
3.01273722487e-05
3.01273722487e-05
3.01273722487e-05
3.01273722487e-05
3.01273722487e-05
3.01273722487e-05
3.01273722487e-05
3.01273722487e-05
3.01273722487e-05
3.01273722487e-05
3.01273722487e-05
3.01273722487e-05
3.01273722487e-05
3.01273722487e-05
3.01273722487e-05
3.01273722487e-05
3.01273722487e-05
3.01273722487e-05
4.79019991978e-05
3.73798017692e-05
3.46348025201e-05
3.34762385831e-05
3.27399202988e-05
9.0867619953e-07
1.87465847604e-09
7.39361946702e-11
3.28249064812e-11
3.18459279197e-11
2.78079169271e-11
)
;
    }
    water_to_heater
    {
        type            compressible::alphatWallBoilingWallFunction;
        phaseType       vapor;
        relax           constant 1;
        partitioningModel
        {
            type            Lavieville;
            alphaCrit       0.2;
        }
        otherPhase      liquid;
        dmdt            uniform 0;
        dDep            uniform 1e-05;
        qQuenching      uniform 0;
        alphatConv      uniform 0;
        value           nonuniform List<scalar> 
60
(
4.12233957964e-07
4.12233957964e-07
3.77353772801e-07
3.83080430379e-07
3.57306385828e-07
3.57306385828e-07
1.0384550477e-07
1.0384550477e-07
1.25655649426e-08
1.25655649426e-08
6.51412408352e-09
1.83555382485e-08