/*--------------------------------*- C++ -*----------------------------------*\
| =========                 |                                                 |
| \\      /  F ield         | OpenFOAM: The Open Source CFD Toolbox           |
|  \\    /   O peration     | Version:  2312                                  |
|   \\  /    A nd           | Website:  www.openfoam.com                      |
|    \\/     M anipulation  |                                                 |
\*---------------------------------------------------------------------------*/
FoamFile
{
    version     2.0;
    format      ascii;
    arch        "LSB;label=32;scalar=64";
    class       surfaceScalarField;
    location    "4.5/water";
    object      phi.gas;
}
// * * * * * * * * * * * * * * * * * * * * * * * * * * * * * * * * * * * * * //

dimensions      [0 3 -1 0 0 0 0];

oriented        oriented;

internalField   nonuniform List<scalar> 
46280
(
-1.74365493607e-09
2.72662350556e-07
4.39520897709e-10
2.72659134393e-07
6.29558285292e-10
2.72632344502e-07
7.73664764779e-10
2.72595511673e-07
9.13278115162e-10
2.72551455955e-07
9.90380943329e-10
2.72497545058e-07
1.0493207498e-09
2.72436646063e-07
1.02513846793e-09
2.72366584388e-07
9.74684665203e-10
2.72291437641e-07
8.29162469024e-10
2.72209110899e-07
6.52926893296e-10
2.72124463685e-07
3.76648580964e-10
2.72035634129e-07
6.95501464808e-11
2.71947899442e-07
-3.36330305104e-10
2.71859720901e-07
-7.67733284071e-10
2.71776665608e-07
-1.29090449823e-09
2.71697385373e-07
-1.82880412856e-09
2.71627524999e-07
-2.44661125044e-09
2.7156567726e-07
-3.0638900004e-09
2.71517283525e-07
-3.74599929039e-09
2.71480559001e-07
-4.40975964533e-09
2.71460456887e-07
-5.12202991518e-09
2.7145453198e-07
-5.79772056958e-09
2.71467058321e-07
-6.50617719097e-09
2.71494795142e-07
-7.16109101779e-09
2.71541303248e-07
-7.83470278771e-09
2.7160258336e-07
-8.43998869012e-09
2.716816006e-07
-9.05195305652e-09
2.71773776591e-07
-9.58315817591e-09
2.71881683048e-07
-1.01108628242e-08
2.72000391528e-07
-1.05475343347e-08
2.72132284795e-07
-1.09720426514e-08
2.72272293814e-07
-1.12971630633e-08
2.72422753813e-07
-1.16027443624e-08
2.72578587145e-07
-1.18024781464e-08
2.72742135481e-07
-1.1976659248e-08
2.72908367255e-07
-1.20404850878e-08
2.73079603225e-07
-1.20742048875e-08
2.73250896573e-07
-1.19956068224e-08
2.7342456172e-07
-1.18845529558e-08
2.73595639834e-07
-1.16619557103e-08
2.73766159596e-07
-1.1406761068e-08
2.73931055688e-07
-1.10438158441e-08
2.74092078448e-07
-1.06509252916e-08
2.74244098662e-07
-1.0157480006e-08
2.74388578105e-07
-9.63990488194e-09
2.7452039691e-07
-9.03267842113e-09
2.74640823071e-07
-8.41074933707e-09
2.74744943312e-07
-7.71411990636e-09
2.74834079821e-07
-7.01630275362e-09
2.74903896769e-07
-6.26311380931e-09
2.7495625326e-07
-5.52666293343e-09
2.74988063812e-07
-4.75835784185e-09
2.7500264658e-07
-4.02803203824e-09
2.74999484546e-07
-3.289524506e-09
2.74985257211e-07
-2.6012652109e-09
2.74964651847e-07
-1.89371870994e-09
2.74950826322e-07
-1.17776058179e-09
2.74955028885e-07
-4.0478300558e-10
2.74990786997e-07
3.30579541488e-10
2.75061535395e-07
1.06874898103e-09
2.75172407703e-07
1.80530527151e-09
2.75318674911e-07
2.62775110622e-09
2.75491730944e-07
3.50755074024e-09
2.75677518326e-07
4.48848165447e-09
2.7586711953e-07
5.52568954985e-09
2.76050161642e-07
6.65273243887e-09
2.76221436872e-07
7.82291947163e-09
2.76374083965e-07
9.06626093699e-09
2.76505739959e-07
1.03371551512e-08
2.76612242326e-07
1.16640209033e-08
2.76693436331e-07
1.30030995449e-08
2.76747261517e-07
1.43819171917e-08
2.76775226739e-07
1.5758593802e-08
2.76776803527e-07
1.71599379611e-08
2.76754630563e-07
1.85457540647e-08
2.76709173994e-07
1.99421460005e-08
2.76643718264e-07
2.13104044744e-08
2.76559262744e-07
2.26758967647e-08
2.7645934284e-07
2.40012684425e-08
2.76345135748e-07
2.53111501568e-08
2.76220136853e-07
2.65695067113e-08
2.76085453358e-07
2.78002654214e-08
2.75944351597e-07
2.89687612625e-08
2.75797721049e-07
3.00983005435e-08
2.75648495004e-07
3.11557031631e-08
2.75497273197e-07
3.21637453758e-08
2.75346615006e-07
3.30908690282e-08
2.75196813031e-07
3.39594131361e-08
2.75050051797e-07
3.47395741221e-08
2.74906330016e-07
3.54533171724e-08
2.74767479368e-07
3.60727008285e-08
2.74633235614e-07
3.66193622075e-08
2.74505109102e-07
3.70673046287e-08
2.74382607679e-07
3.74378587989e-08
2.74266953257e-07
3.77070362507e-08
2.74157459084e-07
3.78958916965e-08
2.74055084152e-07
3.79825195362e-08
2.73958966715e-07
3.79877647178e-08
2.73869808301e-07
3.78918605448e-08
2.73786559443e-07
3.77145697907e-08
2.73709645151e-07
3.74375405733e-08
2.7363808462e-07
3.70809312749e-08
2.7357253007e-07
3.66286513606e-08
2.73511918021e-07
3.60996714466e-08
2.73456426213e-07
3.54793316809e-08
2.73404814295e-07
3.47862237767e-08
2.73357146343e-07
3.40076542443e-08
2.73312163172e-07
3.31618377926e-08
2.73269818617e-07
3.22379863127e-08
2.73228825314e-07
3.12538951685e-08
2.73189023446e-07
3.02005962551e-08
2.73149100817e-07
2.90953912407e-08
2.73108795905e-07
2.79309870872e-08
2.73066793589e-07
2.67240353978e-08
2.73022766986e-07
2.54686646876e-08
2.72975450614e-07
2.41805879536e-08
2.72924526054e-07
2.28549431719e-08
2.7286887695e-07
2.15060351114e-08
2.72808328089e-07
2.01294162136e-08
2.72742091956e-07
1.87373449976e-08
2.72670376775e-07
1.73250892721e-08
2.72593040733e-07
1.59022468643e-08
2.72511082799e-07
1.44633861177e-08
2.72425501058e-07
1.30155397649e-08
2.72338628967e-07
1.1553523372e-08
2.72253106606e-07
1.00840924266e-08
2.72172906056e-07
8.60632752013e-09
2.72102207306e-07
7.13264509763e-09
2.72045895543e-07
5.67387063969e-09
2.72008193676e-07
4.2560790637e-09
2.71992644246e-07
2.90862989916e-09
2.72000736173e-07
1.67496637397e-09
2.72031824108e-07
6.02371254658e-10
2.72082334525e-07
-2.52404613336e-10
2.72146151555e-07
-8.28210772717e-10
2.7221463583e-07
-1.05552965802e-09
2.72277422432e-07
-8.79781936464e-10
2.72323660805e-07
-8.51992100828e-09
2.72336174793e-07
2.72297150412e-07
-1.02396382504e-09
2.2184860191e-07
3.80813075949e-11
2.21871202636e-07
5.61761453814e-11
2.21893310887e-07
5.00842587884e-11
2.21927719847e-07
2.9081563917e-11
2.21973360158e-07
-2.6463127466e-11
2.22029426497e-07
-1.04208271686e-10
2.22094528075e-07
-2.2606129591e-10
2.22167160052e-07
-3.75656311005e-10
2.2224569316e-07
-5.74897199917e-10
2.22328502684e-07
-8.04454323165e-10
2.22413729653e-07
-1.08541043518e-09
2.22499719125e-07
-1.39586622491e-09
2.22584658268e-07
-1.75556234871e-09
2.22666896717e-07
-2.14054289939e-09
2.22744660403e-07
-2.56927760465e-09
2.22816406484e-07
-3.01608799532e-09
2.22880460748e-07
-3.4986770502e-09
2.22935464122e-07
-3.99002748447e-09
2.22979925996e-07
-4.50772372831e-09
2.23012750578e-07
-5.02379211963e-09
2.23032721436e-07
-5.55621998167e-09
2.23039092803e-07
-6.07638634736e-09
2.23031004786e-07
-6.60299532231e-09
2.23008127672e-07
-7.10696478358e-09
2.22970016189e-07
-7.60779515034e-09
2.2291679551e-07
-8.07607528345e-09
2.22848452676e-07
-8.53207518302e-09
2.2276555577e-07
-8.94619953795e-09
2.22668495141e-07
-9.33941672781e-09
2.22558228309e-07
-9.68218689651e-09
2.22435474552e-07
-9.99616282939e-09
2.22301482119e-07
-1.02521933324e-08
2.22157193184e-07
-1.04726298558e-08
2.22004030918e-07
-1.06291198815e-08
2.2184304032e-07
-1.07447617538e-08
2.21675696049e-07
-1.07921422757e-08
2.21503034621e-07
-1.07948975164e-08
2.21326490259e-07
-1.07276203037e-08
2.2114705032e-07
-1.06150493306e-08
2.20966070937e-07
-1.04333934987e-08
2.20784359553e-07
-1.02076558583e-08
2.20603099567e-07
-9.91597145991e-09
2.20422974405e-07
-9.58360805102e-09
2.202450695e-07
-9.19061482533e-09
2.20069996741e-07
-8.76219837529e-09
2.19898821517e-07
-8.28018384913e-09
2.19732179814e-07
-7.76934378511e-09
2.19571231421e-07
-7.21297732336e-09
2.19416770727e-07
-6.63489060382e-09
2.19270200555e-07
-6.01919096503e-09
2.1913261994e-07
-5.38764428801e-09
2.1900578647e-07
-4.72342057645e-09
2.18891123452e-07
-4.04345118414e-09
2.18790543924e-07
-3.32546270085e-09
2.18705169063e-07
-2.57494025486e-09
2.18635661169e-07
-1.75697296603e-09
2.1858014355e-07
-8.72772645119e-10
2.18533698069e-07
7.00368851109e-11
2.18488339381e-07
1.01856214552e-09
2.18438011513e-07
1.9611482767e-09
2.18382348975e-07
2.87810382663e-09
2.18328112753e-07
3.80002108307e-09
2.18281440047e-07
4.72750268564e-09
2.18245566197e-07
5.68197899628e-09
2.18221151865e-07
6.65566190585e-09
2.18208316868e-07
7.66301858986e-09
2.18206294539e-07
8.69278794823e-09
2.18214639151e-07
9.75624890037e-09
2.18232437558e-07
1.08408418926e-08
2.18259241456e-07
1.19560052446e-08
2.18294191392e-07
1.30885025947e-08
2.18336884569e-07
1.42463628014e-08
2.18386521935e-07
1.54158343326e-08
2.18442749798e-07
1.66037270107e-08
2.18504843231e-07
1.77958614728e-08
2.18572515871e-07
1.89979984122e-08
2.18645139843e-07
2.01956583519e-08
2.18722515825e-07
2.13937392204e-08
2.18804127153e-07
2.25776264898e-08
2.18889867245e-07
2.37515653144e-08
2.18979331465e-07
2.49010123004e-08
2.19072500872e-07
2.60297768748e-08
2.19169071438e-07
2.71236004314e-08
2.19269095003e-07
2.81860657351e-08
2.19372348779e-07
2.92034077588e-08
2.19478934579e-07
3.01791604731e-08
2.19588687261e-07
3.11002254576e-08
2.19701734211e-07
3.19702279235e-08
2.19817944094e-07
3.27768753749e-08
2.19937448063e-07
3.35239809767e-08
2.20060126143e-07
3.42001526394e-08
2.20186092063e-07
3.48094528476e-08
2.20315217276e-07
3.53414541258e-08
2.20447580765e-07
3.58004979947e-08
2.20583027615e-07
3.61771508712e-08
2.20721585916e-07
3.64760378523e-08
2.20863060198e-07
3.66887184843e-08
2.21007418435e-07
3.68200615705e-08
2.21154421257e-07
3.68625954365e-08
2.21303990183e-07
3.68219225382e-08
2.21455872256e-07
3.66921166082e-08
2.21609883483e-07
3.64781560078e-08
2.21765726945e-07
3.61742273962e-08
2.21923273153e-07
3.57859520556e-08
2.22082169653e-07
3.53088574739e-08
2.22242159737e-07
3.47489137883e-08
2.22402810763e-07
3.41027084261e-08
2.22563767454e-07
3.3376580874e-08
2.22724516127e-07
3.25682455747e-08
2.22884613042e-07
3.16845064323e-08
2.23043469141e-07
3.07243102764e-08
2.23200552546e-07
2.96950629333e-08
2.2335518951e-07
2.85970912587e-08
2.23506737055e-07
2.74385760196e-08
2.23654391855e-07
2.62213902732e-08
2.23797327509e-07
2.49546545089e-08
2.2393450453e-07
2.36418984246e-08
2.24064770969e-07
2.22932159805e-08
2.24186676855e-07
2.0913676559e-08
2.2429855709e-07
1.95140418095e-08
2.24398382925e-07
1.81003566007e-08
2.24483879009e-07
1.6683219702e-08
2.24552473189e-07
1.52685707105e-08
2.24601511525e-07
1.38656442262e-08
2.24628346614e-07
1.24791576963e-08
2.24630648911e-07
1.11162773737e-08
2.24606570156e-07
9.78056621567e-09
2.24555031725e-07
8.47829995575e-09
2.24475807994e-07
7.21432636309e-09
2.24369644585e-07
5.99760436935e-09
2.24238170576e-07
4.83844860208e-09
2.24083847269e-07
3.75247131364e-09
2.23909819776e-07
2.75825808229e-09
2.23719891893e-07
1.87917945315e-09
2.23518575807e-07
1.14231719201e-09
2.23311364246e-07
5.82058202153e-10
2.23105212134e-07
2.59428834221e-10
2.22909781703e-07
-4.57821233531e-09
2.22733004277e-07
2.22564782212e-07
-1.05302161473e-09
2.30386961381e-07
6.99938360327e-11
2.30406317162e-07
1.15505542125e-10
2.30428678214e-07
1.31799126389e-10
2.30459754924e-07
1.2783681046e-10
2.30500186861e-07
8.36592089773e-11
2.30549677451e-07
1.00653704469e-11
2.30607265963e-07
-1.13423328652e-10
2.30672403223e-07
-2.72135078744e-10
2.30743698717e-07
-4.86284281458e-10
2.30820226291e-07
-7.37712160177e-10
2.30900611311e-07
-1.04508937554e-09
2.30983752158e-07
-1.38771049096e-09
2.3106801979e-07
-1.7824453062e-09
2.31152218521e-07
-2.20631382057e-09
2.31234562838e-07
-2.67473959623e-09
2.31313745918e-07
-3.16294439188e-09
2.31387880239e-07
-3.68557751242e-09
2.31455608105e-07
-4.21667846134e-09
2.31515018681e-07
-4.77091344477e-09
2.31564807706e-07
-5.3217136332e-09
2.3160315962e-07
-5.88441304183e-09
2.31628957245e-07
-6.43227257009e-09
2.31640627383e-07
-6.98166198492e-09
2.31637396956e-07
-7.50587889037e-09
2.3161809246e-07
-8.02240586662e-09
2.31582428073e-07
-8.50464971544e-09
2.31529758327e-07
-8.97109171236e-09
2.314603857e-07
-9.39524843288e-09
2.3137426117e-07
-9.79641607748e-09
2.31272296952e-07
-1.01482925886e-08
2.31155023971e-07
-1.04708349889e-08
2.31023904188e-07
-1.07380755244e-08
2.3087995268e-07
-1.09705435055e-08
2.30725045316e-07
-1.11428751884e-08
2.30560525806e-07
-1.12761372394e-08
2.30388510515e-07
-1.13455221938e-08
2.30210493493e-07
-1.13721269199e-08
2.30028625003e-07
-1.13328974906e-08
2.29844441529e-07
-1.12503509974e-08
2.2966009876e-07
-1.11025739604e-08
2.29476935504e-07
-1.09118032401e-08
2.29296841016e-07
-1.06575840697e-08
2.29120945936e-07
-1.03621590934e-08
2.28950896394e-07
-1.00064650732e-08
2.28787585064e-07
-9.61240692115e-09
2.28632400595e-07
-9.16211366762e-09
2.28486001453e-07
-8.67671431428e-09
2.2834952982e-07
-8.13913581252e-09
2.28223422136e-07
-7.56912278256e-09
2.28108570678e-07
-6.94969217335e-09
2.28005159717e-07
-6.29818281459e-09
2.27913745352e-07
-5.59630935639e-09
2.27834079832e-07
-4.85713077058e-09
2.27766054278e-07
-4.05871453348e-09
2.27708449022e-07
-3.20774564662e-09
2.27659671784e-07
-2.27960621072e-09
2.27616425598e-07
-1.28506201327e-09
2.27574600796e-07
-2.35606366727e-10
2.27528821259e-07
8.27550637668e-10
2.27476837425e-07
1.90550395941e-09
2.2741655277e-07
2.97066413169e-09
2.27349351088e-07
4.03594444108e-09
2.27279699307e-07
5.09561874866e-09
2.2721046041e-07
6.16707558266e-09
2.27143592218e-07
7.2427902105e-09
2.27080800114e-07
8.33630911509e-09
2.27022957548e-07
9.43793659478e-09
2.26971107776e-07
1.05585372406e-08
2.2692571688e-07
1.16872585864e-08
2.26887568306e-07
1.28332044726e-08
2.26856969583e-07
1.39848907041e-08
2.26834579684e-07
1.51501121621e-08
2.26820616136e-07
1.63169529138e-08
2.26815642469e-07
1.74921114755e-08
2.26819795388e-07
1.86633303201e-08
2.26833541659e-07
1.98363603065e-08
2.26856930704e-07
2.09986859966e-08
2.26890323026e-07
2.21552446914e-08
2.26933673176e-07
2.32933741979e-08
2.2698723119e-07
2.44173549323e-08
2.27050856518e-07
2.55145258459e-08
2.27124691727e-07
2.65886791188e-08
2.27208509059e-07
2.76273285089e-08
2.27302355683e-07
2.86339582669e-08
2.2740593105e-07
2.9596436355e-08
2.27519201931e-07
3.05181007386e-08
2.27641810864e-07
3.13873369842e-08
2.27773660419e-07
3.22074765769e-08
2.27914350872e-07
3.29675572463e-08
2.28063732904e-07
3.36710046087e-08
2.28221374962e-07
3.43076085584e-08
2.28387084738e-07
3.48809602366e-08
2.28560404741e-07
3.53816685456e-08
2.28741102661e-07
3.5813527135e-08
2.28928695662e-07
3.61680005577e-08
2.29122910721e-07
3.6449100256e-08
2.29323236682e-07
3.66491554495e-08
2.29529355804e-07
3.67723884816e-08
2.29740725199e-07
3.68120071253e-08
2.29956981064e-07
3.67727681764e-08
2.30177545682e-07
3.66495859198e-08
2.30402000526e-07
3.64467325033e-08
2.30629798201e-07
3.61586239832e-08
2.30860539525e-07
3.57902127935e-08
2.3109355612e-07
3.53374359333e-08
2.3132828549e-07
3.48055666099e-08
2.31563951457e-07
3.41915474557e-08
2.31799857244e-07
3.3501054536e-08
2.32035089115e-07
3.27321314755e-08
2.32268784319e-07
3.18909847627e-08
2.32499855124e-07
3.09769008233e-08
2.32727228268e-07
2.999678583e-08
2.32949584727e-07
2.89513360569e-08
2.33165567805e-07
2.78483260882e-08
2.33373535342e-07
2.66899870026e-08
2.33571736365e-07
2.54850259744e-08
2.33758077934e-07
2.42371410415e-08
2.33930281698e-07
2.2955735393e-08
2.3408568627e-07
2.16454937504e-08
2.34221419565e-07
2.03157686511e-08
2.3433428483e-07
1.89711957182e-08
2.34421008645e-07
1.76198239084e-08
2.34478268044e-07
1.62648897036e-08
2.34503052935e-07
1.49119309994e-08
2.34492829047e-07
1.35620117994e-08
2.34445949519e-07
1.2218182821e-08
2.34361819226e-07
1.08804729081e-08
2.34241168933e-07
9.55192123991e-09
2.34086020327e-07
8.23534075517e-09
2.33899662696e-07
6.93865620055e-09
2.33686353946e-07
5.67285309643e-09
2.33451066579e-07
4.45575139531e-09
2.33199122012e-07
3.31018135331e-09
2.32936023617e-07
2.2655298203e-09
2.32667382346e-07
1.35673013103e-09
2.32399114845e-07
6.29605844173e-10
2.32137744753e-07
1.49061932287e-10
2.31890567086e-07
-5.40312680176e-09
2.31660679603e-07
2.31498737521e-07
-9.91488335853e-10
2.28965466452e-07
8.065963491e-11
2.28983278921e-07
1.23549954664e-10
2.29012209288e-07
1.39312477574e-10
2.29054953478e-07
1.33145121717e-10
2.29110936789e-07
8.43036562676e-11
2.29179776528e-07
3.50949783846e-12
2.29260262856e-07
-1.30298730273e-10
2.29351023556e-07
-3.02818695373e-10
2.29450577678e-07
-5.33409597848e-10
2.29557444816e-07
-8.04898920892e-10
2.29669674838e-07
-1.13500977686e-09
2.29785589513e-07
-1.50352388208e-09
2.29903147663e-07
-1.92633511905e-09
2.30020418604e-07
-2.3807480829e-09
2.30135183867e-07
-2.88109186908e-09
2.30245363182e-07
-3.4027516329e-09
2.30348608047e-07
-3.95922654995e-09
2.30442783614e-07
-4.52467714632e-09
2.30525527626e-07
-5.1126441039e-09
2.30594791706e-07
-5.69675236546e-09
2.3064836873e-07
-6.29130642433e-09
2.30684484225e-07
-6.86991839232e-09
2.30701290658e-07
-7.44808283343e-09
2.30697494755e-07
-7.99967766645e-09
2.30671815729e-07
-8.54148753944e-09
2.30623631071e-07
-9.0477323678e-09
2.30552391758e-07
-9.53635798519e-09
2.30458269469e-07
-9.98189807857e-09
2.30341527898e-07
-1.04032160072e-08
2.3020315878e-07
-1.07751403409e-08
2.30044211953e-07
-1.11172141012e-08
2.2986641442e-07
-1.14046184332e-08
2.29671471975e-07
-1.16573909339e-08
2.29461671818e-07
-1.18512206896e-08
2.29239170947e-07
-1.20065292479e-08
2.29006587213e-07
-1.20995346482e-08
2.28766292171e-07
-1.21500153564e-08
2.28520917576e-07
-1.21354640086e-08
2.2827289565e-07
-1.20776954723e-08
2.28024909629e-07
-1.19551589277e-08
2.27779122796e-07
-1.17887339936e-08
2.27537853995e-07
-1.15580491716e-08
2.27302959415e-07
-1.1283758857e-08
2.27076387619e-07
-1.09466208306e-08
2.26859607968e-07
-1.05667627216e-08
2.26654142297e-07
-1.01259200787e-08
2.26461028834e-07
-9.64333733811e-09
2.26281323156e-07
-9.10144740407e-09
2.26115594825e-07
-8.51816025568e-09
2.25964387483e-07
-7.87614158267e-09
2.25827735523e-07
-7.19133075786e-09
2.25705566136e-07
-6.4458664464e-09
2.25597211547e-07
-5.65284348273e-09
2.25501722899e-07
-4.79313505341e-09
2.25417341227e-07
-3.87722017337e-09
2.25341720062e-07
-2.88755015834e-09
2.25271448745e-07
-1.83969901295e-09
2.25202518752e-07
-7.35894820485e-10
2.25130541328e-07
3.8476420474e-10
2.25053644777e-07
1.53166097301e-09
2.24970819603e-07
2.68854583359e-09
2.24880128954e-07
3.8549018458e-09
2.24783455269e-07
5.01900490859e-09
2.24684327713e-07
6.19267784902e-09
2.2458479623e-07
7.36555487254e-09
2.24487099924e-07
8.54853419024e-09
2.24393107511e-07
9.73091877862e-09
2.24304695755e-07
1.09222129655e-08
2.24223424191e-07
1.21114212186e-08
2.24150876843e-07
1.33069345728e-08
2.24088324464e-07
1.4497606341e-08
2.2403706401e-07
1.56909291618e-08
2.23998079923e-07
1.68756607538e-08
2.23972382965e-07
1.80585063512e-08
2.23960675176e-07
1.92281368967e-08
2.23963685059e-07
2.03905426529e-08
2.23981839908e-07
2.15343240073e-08
2.24015596284e-07
2.26648249959e-08
2.24065122161e-07
2.37706173377e-08
2.24130621759e-07
2.48564845924e-08
2.24212030248e-07
2.59110512914e-08
2.24309331136e-07
2.69386487765e-08
2.24422263686e-07
2.79280670943e-08
2.24550630231e-07
2.888331006e-08
2.24694016554e-07
2.97934652241e-08
2.24852086556e-07
3.06623341288e-08
2.25024314575e-07
3.14794307265e-08
2.2521026542e-07
3.22484670109e-08
2.25409338818e-07
3.29594981713e-08
2.25621033566e-07
3.36162370266e-08
2.25844703533e-07
3.42093696936e-08
2.26079805358e-07
3.47426756824e-08
2.2632566649e-07
3.52075374548e-08
2.2658171634e-07
3.56078429156e-08
2.2684726609e-07
3.59357104646e-08
2.27121723694e-07
3.61951578199e-08
2.27404386242e-07
3.63790596678e-08
2.27694639821e-07
3.64915725483e-08
2.2799176488e-07
3.65263371144e-08
2.28295122471e-07
3.64878559469e-08
2.2860397451e-07
3.63715909884e-08
2.28917653127e-07
3.61816537527e-08
2.29235432037e-07
3.59125217868e-08
2.29556637269e-07
3.556892631e-08
2.29880435015e-07
3.51469882093e-08
2.30205997038e-07
3.46516791382e-08
2.30532349711e-07
3.40800330347e-08
2.30858498537e-07
3.34373724776e-08
2.3118328359e-07
3.27217510805e-08
2.31505488239e-07
3.19389701855e-08
2.31823700982e-07
3.1088236221e-08
2.32136406678e-07
3.01759782909e-08
2.3244185219e-07
2.9202688705e-08
2.32738118876e-07
2.81755384611e-08
2.33022991706e-07
2.70963495724e-08
2.33294017097e-07
2.59729872836e-08
2.33548384811e-07
2.48083944989e-08
2.3378298957e-07
2.36107289857e-08
2.33994354347e-07
2.23834005458e-08
2.34178737535e-07
2.11339588659e-08
2.34332148864e-07
1.98651514576e-08
2.34450557093e-07
1.85826785659e-08
2.34530042424e-07
1.72874327643e-08
2.34567121116e-07
1.5982383091e-08
2.34559002655e-07
1.46662738392e-08
2.34503939991e-07
1.33399396801e-08
2.34401441397e-07
1.20016835477e-08
2.3425246052e-07
1.06531328646e-08
2.34059380746e-07
9.29622183313e-09
2.33825916821e-07
7.93830534165e-09
2.33556838128e-07
6.59022213039e-09
2.33257672155e-07
5.26996180511e-09
2.32934392212e-07
4.00093673326e-09
2.32593251198e-07
2.81329639467e-09
2.32240850714e-07
1.74217309592e-09
2.31884578934e-07
8.30230864537e-10
2.31533416472e-07
1.29693476104e-10
2.31198919968e-07
-5.47917199462e-09
2.30892326721e-07
2.30718320959e-07
-9.69246506324e-10
2.29284787943e-07
9.14678658059e-11
2.29305180545e-07
1.34860556461e-10
2.29341152736e-07
1.49581131461e-10
2.29394863234e-07
1.41477910854e-10
2.29465939401e-07
8.77273132441e-11
2.29553267162e-07
-1.31318861672e-12
2.29655368934e-07
-1.46511499138e-10
2.29770785606e-07
-3.33737345623e-10
2.29897343557e-07
-5.82910402855e-10
2.30032952391e-07
-8.7633125102e-10
2.3017542999e-07
-1.23177065358e-09
2.30322383585e-07
-1.62883820308e-09
2.30471261662e-07
-2.08313288144e-09
2.3061950553e-07
-2.57164397418e-09
2.30764354679e-07
-3.10833527004e-09
2.30903093929e-07
-3.66810814715e-09
2.31032860992e-07
-4.26410221941e-09
2.31150909778e-07
-4.86989660568e-09
2.31254426281e-07
-5.49872929084e-09
2.31340816378e-07
-6.12362961613e-09
2.31407515838e-07
-6.75870787698e-09
2.31452305319e-07
-7.3770441566e-09
2.31473104666e-07
-7.9940845555e-09
2.31468307023e-07
-8.58329451384e-09
2.31436547427e-07
-9.16157698499e-09
2.31377040352e-07
-9.70288394896e-09
2.31289314679e-07
-1.0225430701e-08
2.31173538762e-07
-1.07036116793e-08
2.31030216817e-07
-1.11566660285e-08
2.3086048944e-07
-1.15593623135e-08
2.30665794723e-07
-1.19316498382e-08
2.30448140142e-07
-1.22486565334e-08
2.3020973853e-07
-1.25307753884e-08
2.29953253764e-07
-1.27535716223e-08
2.29681428484e-07
-1.29376890306e-08
2.29397310853e-07
-1.30595035256e-08
2.29103901523e-07
-1.31380941884e-08
2.2880423568e-07
-1.31503441584e-08
2.28501319797e-07
-1.31184679897e-08
2.2819825756e-07
-1.30203374873e-08
2.27897784632e-07
-1.28764932136e-08
2.27602548541e-07
-1.26658379405e-08
2.27314857013e-07
-1.24085028937e-08
2.27036878772e-07
-1.20844135054e-08
2.26770416855e-07
-1.17130708239e-08
2.26517083814e-07
-1.12753577364e-08
2.26278109145e-07
-1.07898858998e-08
2.26054493572e-07
-1.02383378177e-08
2.25846843499e-07
-9.63814126768e-09
2.25655498939e-07
-8.97151964557e-09
2.25480385367e-07
-8.25436155285e-09
2.25321107062e-07
-7.46907441159e-09
2.25176798783e-07
-6.62971717284e-09
2.25046173992e-07
-5.71890856464e-09
2.24927366638e-07
-4.74983220918e-09
2.24817967198e-07
-3.70797636234e-09
2.24714954048e-07
-2.61082628869e-09
2.2461495937e-07
-1.45234692372e-09
2.24514671641e-07
-2.68686969549e-10
2.24411051154e-07
9.3990555878e-10
2.24305477941e-07
2.16892447426e-09
2.24196363415e-07
3.42170049022e-09
2.24080826083e-07
4.67668022976e-09
2.23962422618e-07
5.94284118234e-09
2.2384326122e-07
7.20681118474e-09
2.23725405277e-07
8.47733066111e-09
2.236109217e-07
9.74189511494e-09
2.23501952997e-07
1.10087482901e-08
2.23400523011e-07
1.22658167984e-08
2.23308634753e-07
1.35208376289e-08
2.23228101998e-07
1.4762103573e-08
2.2316065689e-07
1.59968975734e-08
2.23107801546e-07
1.72138110755e-08
2.23070930105e-07
1.84196791586e-08
2.23051185184e-07
1.96033191455e-08
2.2304959154e-07
2.07711153238e-08
2.23066915756e-07
2.19120594074e-08
2.23103808204e-07
2.30320868239e-08
2.23160667874e-07
2.41203431647e-08
2.23237789821e-07
2.51823369964e-08
2.23335236272e-07
2.62073862622e-08
2.23452986339e-07
2.72006197563e-08
2.23590813751e-07
2.81515834236e-08
2.23748435211e-07
2.90650974761e-08
2.23925393901e-07
2.99310174726e-08
2.24121202976e-07
3.07539368987e-08
2.24335234258e-07
3.15241123299e-08
2.24566854222e-07
3.22459925642e-08
2.24815317181e-07
3.29103227077e-08
2.2507989195e-07
3.35214775607e-08
2.25359759498e-07
3.40707650566e-08
2.25654129362e-07
3.45625422372e-08
2.25962141571e-07
3.49887367763e-08
2.26282972444e-07
3.53537268109e-08
2.2661574112e-07
3.56500983899e-08
2.26959604943e-07
3.5882275319e-08
2.27313670798e-07
3.60435248605e-08
2.27677080812e-07
3.61383295726e-08
2.28048929362e-07
3.61606473602e-08
2.28428340645e-07
3.61151966493e-08
2.28814393165e-07
3.59978402576e-08
2.29206197467e-07
3.58128800693e-08
2.29602853727e-07
3.55548383006e-08
2.30003455391e-07
3.52285656859e-08
2.30406980035e-07
3.48303040517e-08
2.30812359257e-07
3.43650652495e-08
2.31218409639e-07
3.38299175166e-08
2.31623869573e-07
3.32301332681e-08
2.3202733033e-07
3.25637021534e-08
2.32427261644e-07
3.18362655047e-08
2.32821942565e-07
3.10468373443e-08
2.33209475306e-07
3.02015348734e-08
2.33587714902e-07
2.93004723694e-08
2.33954272182e-07
2.83502843852e-08
2.34306445422e-07
2.73521401567e-08
2.34641220486e-07
2.63130407979e-08
2.34955218478e-07
2.5234889747e-08
2.35244716239e-07
2.41245451522e-08
2.35505642838e-07
2.2983904391e-08
2.35733663344e-07
2.18187407732e-08
2.35924272247e-07
2.06298447089e-08
2.36072986286e-07
1.94207837998e-08
2.36175563757e-07
1.81902711253e-08
2.36228303251e-07
1.69391000329e-08
2.36228337633e-07
1.56639791778e-08
2.3617393282e-07
1.43638798935e-08
2.36064702983e-07
1.30354816777e-08
2.35901734229e-07
1.16789740446e-08
2.35687560871e-07
1.02950030293e-08
2.35426013069e-07
8.88967423437e-09
2.35121949695e-07
7.47260973777e-09
2.34780946479e-07
6.06059073591e-09
2.34409020631e-07
4.67604897019e-09
2.34012541235e-07
3.34852961219e-09
2.33598449354e-07
2.11269913416e-09
2.3317498556e-07
1.00843751834e-09
2.32753090027e-07
8.18204356433e-11
2.32348430195e-07
-5.45824177801e-09
2.31979882558e-07
2.31790369333e-07
-9.50701468041e-10
2.29316240477e-07
1.00116861826e-10
2.29340062618e-07
1.44011734044e-10
2.2938449323e-07
1.57732656953e-10
2.29451207019e-07
1.46211769164e-10
2.29539364206e-07
8.58992289047e-11
2.29647959871e-07
-1.23364674e-11
2.29775141274e-07
-1.7101724382e-10
2.29918545033e-07
-3.75540253198e-10
2.30075859616e-07
-6.45638899854e-10
2.30244474246e-07
-9.63956125817e-10
2.30421338321e-07
-1.34807923919e-09
2.30603506613e-07
-1.77734584139e-09
2.30787757875e-07
-2.26720022576e-09
2.30970803812e-07
-2.79419881225e-09
2.31149220023e-07
-3.37205346682e-09
2.31319579022e-07
-3.97513100594e-09
2.31478392567e-07
-4.61629517104e-09
2.31622283037e-07
-5.26852297391e-09
2.31747906637e-07
-5.94481893716e-09
2.31852161919e-07
-6.61759133479e-09
2.31932094576e-07
-7.30080438762e-09
2.31985131861e-07
-7.96694562604e-09
2.3200896783e-07
-8.63143141663e-09
2.32001809225e-07
-9.26720609254e-09
2.31962235883e-07
-9.8912712818e-09
2.31889441399e-07
-1.0477150114e-08
2.31783062014e-07
-1.1043274809e-08
2.3164339575e-07
-1.15637019011e-08
2.31471196512e-07
-1.20579708126e-08
2.31267860721e-07
-1.25005731207e-08
2.31035189916e-07
-1.2911787122e-08
2.30775541237e-07
-1.3266481046e-08
2.3049156984e-07
-1.35853419747e-08
2.30186347249e-07
-1.38436409759e-08
2.29863099924e-07
-1.40621909043e-08
2.29525302645e-07
-1.42174265935e-08
2.29176416696e-07
-1.43280710101e-08
2.28820155151e-07
-1.43700277193e-08
2.28459713921e-07
-1.43656558745e-08
2.28098368013e-07
-1.42926055623e-08
2.27739577656e-07
-1.41712101563e-08
2.27386264109e-07
-1.39797419968e-08
2.2704106752e-07
-1.37379893101e-08
2.26706384804e-07
-1.34252258829e-08
2.26384270923e-07
-1.30605563556e-08
2.26076480878e-07
-1.26242572116e-08
2.25784405459e-07
-1.21345753638e-08
2.25509098058e-07
-1.15727307639e-08
2.25251235915e-07
-1.09559384809e-08
2.25011129504e-07
-1.02662470748e-08
2.24788699422e-07
-9.51968105142e-09
2.24583465969e-07
-8.69901360716e-09
2.24394530284e-07
-7.81911995265e-09
2.24220545448e-07
-6.86385611792e-09
2.24059703994e-07
-5.84803889071e-09
2.23909731896e-07
-4.75867612491e-09
2.23767964491e-07
-3.61368729152e-09
2.23631519095e-07
-2.40657644991e-09
2.23497600708e-07
-1.1591052851e-09
2.23364061515e-07
1.16431086599e-10
2.23228814541e-07
1.40446215821e-09
2.23095606629e-07
2.72878115026e-09
2.22961900099e-07
4.06297859271e-09
2.22824267585e-07
5.41035349824e-09
2.2268776983e-07
6.75573397269e-09
2.22553927103e-07
8.10616633884e-09
2.22424874884e-07
9.44757796226e-09
2.22302753999e-07
1.07870663731e-08
2.22189768201e-07
1.21114426156e-08
2.2208808294e-07
1.342771636e-08
2.21999749308e-07
1.47234603092e-08
2.21926716298e-07
1.60055937542e-08
2.21870732499e-07
1.72623184468e-08
2.21833402495e-07
1.85004074176e-08
2.21816090413e-07
1.97085685281e-08
2.21819992984e-07
2.08933751949e-08
2.21846049698e-07
2.20439471212e-08
2.21895028705e-07
2.3166612606e-08
2.21967443003e-07
2.42508377454e-08
2.22063645437e-07
2.53026773414e-08
2.22183751317e-07
2.63119146779e-08
2.22327738566e-07
2.728432809e-08
2.22495376352e-07
2.82100253238e-08
2.22686326155e-07
2.90945307657e-08
2.22900075507e-07
2.99283135294e-08
2.23136036246e-07
3.07166845792e-08
2.23393482215e-07
3.14505277995e-08
2.23671641699e-07
3.21349891223e-08
2.23969638389e-07
3.27614255575e-08
2.24286576048e-07
3.33348653954e-08
2.24621482154e-07
3.38471923382e-08
2.24973383595e-07
3.43033576873e-08
2.2534125286e-07
3.46958158398e-08
2.25724074311e-07
3.50294723207e-08
2.26120792777e-07
3.52973837806e-08
2.26530370481e-07
3.55044314308e-08
2.2695173828e-07
3.56442941068e-08
2.27383843908e-07
3.57218414669e-08
2.27825606384e-07
3.57313813414e-08
2.28275957122e-07
3.56779653097e-08
2.28733799828e-07
3.55578990884e-08
2.29198055547e-07
3.53757246929e-08
2.29667658118e-07
3.51260719619e-08
2.30141519492e-07
3.48139817265e-08
2.30618442183e-07