/*--------------------------------*- C++ -*----------------------------------*\
| =========                 |                                                 |
| \\      /  F ield         | OpenFOAM: The Open Source CFD Toolbox           |
|  \\    /   O peration     | Version:  2312                                  |
|   \\  /    A nd           | Website:  www.openfoam.com                      |
|    \\/     M anipulation  |                                                 |
\*---------------------------------------------------------------------------*/
FoamFile
{
    version     2.0;
    format      ascii;
    arch        "LSB;label=32;scalar=64";
    class       surfaceScalarField;
    location    "0.08/water";
    object      phi;
}
// * * * * * * * * * * * * * * * * * * * * * * * * * * * * * * * * * * * * * //

dimensions      [0 3 -1 0 0 0 0];

oriented        oriented;

internalField   nonuniform List<scalar> 
2929
(
1.67074912536e-07
4.08489657351e-07
1.60717900634e-07
4.05271076406e-07
1.62033832885e-07
4.38481021263e-07
1.66032163938e-07
4.72861825106e-07
1.73010604838e-07
5.07664923152e-07
1.82573846748e-07
5.24678525932e-07
1.90668712508e-07
5.18348264062e-07
1.95674013366e-07
4.99314728919e-07
1.96192943932e-07
4.80408322349e-07
1.89465104181e-07
4.74597049033e-07
1.71600486893e-07
5.02064866233e-07
1.20848361312e-07
5.78813107168e-07
9.64449654801e-08
6.29393030405e-07
8.27427459145e-08
6.51033669767e-07
7.41437345111e-08
6.51398465707e-07
5.01722328528e-08
5.84960010565e-07
3.16775361205e-08
4.16593652816e-07
2.25098394975e-08
3.31214901195e-07
1.81047939423e-08
3.1216279967e-07
3.14636328172e-07
1.49437367791e-08
1.68543256008e-07
3.99749956375e-07
1.60670522417e-07
3.95566080603e-07
1.63078232328e-07
4.29252823102e-07
1.66478866334e-07
4.67091265331e-07
1.74101796966e-07
4.99470272238e-07
1.8531958513e-07
5.13566615654e-07
1.95521723433e-07
5.08486224571e-07
2.01597302403e-07
4.93634085576e-07
2.01144879852e-07
4.81238853322e-07
1.8719059628e-07
4.88916013951e-07
1.50121572512e-07
5.39613426812e-07
1.17802981617e-07
6.11782564089e-07
1.03310739613e-07
6.44600445446e-07
9.33197303354e-08
6.61781071798e-07
8.54231932743e-08
6.60071762147e-07
6.48042913491e-08
6.06400715006e-07
4.43309853893e-08
4.37649368546e-07
3.3886600919e-08
3.41914322758e-07
2.8761883791e-08
3.17396019224e-07
3.18623972778e-07
2.4838943663e-08
1.69605637404e-07
3.89626706976e-07
1.56553999256e-07
3.91009503177e-07
1.57782918509e-07
4.21133712281e-07
1.60342293171e-07
4.62138611359e-07
1.66743473555e-07
4.92477450552e-07
1.7700033691e-07
5.03399965662e-07
1.86781538013e-07
4.9903142363e-07
1.91479948698e-07
4.89324029657e-07
1.87920949799e-07
4.85188941848e-07
1.70277448522e-07
5.06996610522e-07
1.33069188985e-07
5.77407566027e-07
1.18473494486e-07
6.27079375167e-07
1.07944381297e-07
6.5585955198e-07
1.00147952466e-07
6.70335661657e-07
9.33088115546e-08
6.67728120188e-07
7.8860390571e-08
6.21686502503e-07
5.67083893015e-08
4.60452314703e-07
4.45677070057e-08
3.54355392e-07
3.86823667746e-08
3.23406584631e-07
3.23132315853e-07
3.42492340491e-08
1.67424906867e-07
3.82006990837e-07
1.49356950995e-07
3.92303211284e-07
1.44162852004e-07
4.19752119719e-07
1.41413676251e-07
4.62607172246e-07
1.43732456993e-07
4.89614430856e-07
1.5153928438e-07
4.95705607813e-07
1.59279610003e-07
4.91625548958e-07
1.61809057958e-07
4.87194066625e-07
1.55270711383e-07
4.9215229912e-07
1.38004519672e-07
5.24762389058e-07
1.20376055694e-07
5.95706008313e-07
1.11461773813e-07
6.36679438867e-07
1.05863636268e-07
6.62181564708e-07
1.02417824112e-07
6.74553455695e-07
9.92240911153e-08
6.71708740029e-07
9.03674014242e-08
6.31390744029e-07
6.87957461776e-08
4.82695594281e-07
5.52440840623e-08
3.68251789847e-07
4.8433008936e-08
3.30361696708e-07
3.28041829687e-07
4.36096126407e-08
1.58424617677e-07
3.83592057011e-07
1.36011113479e-07
3.99283698676e-07
1.1932407339e-07
4.30666940854e-07
1.0491699629e-07
4.75143802756e-07
1.01617206158e-07
4.92561257823e-07
1.07156112172e-07
4.90364347087e-07
1.13527781768e-07
4.85625037955e-07
1.15684924923e-07
4.8546299273e-07
1.11756735255e-07
4.96547124692e-07
1.01158525778e-07
5.35915303413e-07
9.61054170356e-08
6.01402336022e-07
9.40934680811e-08
6.39382627675e-07
9.4566183291e-08
6.62437720232e-07
9.68882437129e-08
6.72985206572e-07
9.94299718796e-08
6.69980034242e-07
9.71304802721e-08
6.34511040262e-07
8.01208173548e-08
5.0043483149e-07
6.66339577455e-08
3.82145640847e-07
5.87475417445e-08
3.38419673564e-07
3.33438898334e-07
5.34492343199e-08
1.52697238782e-07
3.90250330674e-07
1.20978802137e-07
4.15822555237e-07
8.31033438574e-08
4.63250341017e-07
5.15657455959e-08
5.05241362273e-07
4.19195568406e-08
5.02134210059e-07
4.5287038726e-08
4.87314115142e-07
5.1460589649e-08
4.7987117297e-07
5.5834756316e-08
4.81546873808e-07
5.90679588571e-08
4.93810762416e-07
5.96962361296e-08
5.35860017334e-07
6.22166317369e-08
5.99541412931e-07
6.7474499347e-08
6.34814867488e-07
7.51802983925e-08
6.55455082692e-07
8.40375825045e-08
6.6490056684e-07
9.29337648825e-08
6.61868559834e-07
9.79247102417e-08
6.3036576869e-07
8.96269594754e-08
5.09480680397e-07
7.85983326998e-08
3.93636223126e-07
7.00032103106e-08
3.47220571323e-07
3.39556309944e-07
6.39983756413e-08
1.40465483266e-07
4.11805082766e-07
8.61018334241e-08
4.55864463439e-07
2.80816177003e-08
5.16599997213e-07
-1.67494011449e-08
5.4916009654e-07
-3.1573993434e-08
5.17188127865e-07
-2.97845315862e-08
4.85952743202e-07
-2.1778694525e-08
4.72325807886e-07
-1.15346469143e-08
4.71784512839e-07
3.22299573574e-11
4.82753931444e-07
1.19338317315e-08
5.24540365429e-07
2.31128659732e-08
5.89020623937e-07
3.69804622954e-08
6.21640855485e-07
5.19183975989e-08
6.41248862611e-07
6.76957757684e-08
6.49874952435e-07
8.28105119312e-08
6.47563661721e-07
9.47620975561e-08
6.19232768876e-07
9.63562441518e-08
5.08655543915e-07
9.00005630624e-08
4.00495671585e-07
8.17935380144e-08
3.55669212813e-07
3.46495989481e-07
7.49811146728e-08
1.12250608671e-07
4.6435968013e-07
2.69655244809e-08
5.266382636e-07
-3.10120146715e-08
5.70410755101e-07
-7.77514549556e-08
5.95288506274e-07
-9.59472989243e-08
5.35839867785e-07
-9.67019080102e-08
4.87210159287e-07
-8.73003540708e-08
4.63411442004e-07
-7.21129556337e-08
4.57088427128e-07
-5.41246546606e-08
4.65279272516e-07
-3.16706576999e-08
5.02667906649e-07
-9.85156694645e-09
5.67862919826e-07
1.12212175105e-08
6.01262854766e-07
3.27595841253e-08
6.204326096e-07
5.38591911567e-08
6.29546115085e-07
7.44263869677e-08
6.27780910239e-07
9.27346450291e-08
6.01768252649e-07
1.02170286619e-07
4.99985801847e-07
1.0014997081e-07
4.03030960565e-07
9.32722663125e-08
3.62812755717e-07
3.54101372542e-07
8.58067909232e-08
1.83409046172e-08
6.16835472971e-07
-5.79936086603e-08
5.95080150756e-07
-8.96414478508e-08
6.01264344427e-07
-1.19638779672e-07
6.25542839213e-07
-1.33058862692e-07
5.49896206454e-07
-1.33265025846e-07
4.87986435548e-07
-1.2311696614e-07
4.53779309324e-07
-1.07192424238e-07
4.41662212356e-07
-8.72411554515e-08
4.45838333516e-07
-5.87610828482e-08
4.74756620617e-07
-2.60682613533e-08
5.35825672412e-07
-6.76551387164e-10
5.76559272622e-07
2.35343550753e-08
5.96948584903e-07
4.74048987643e-08
6.06425224606e-07
7.05879570624e-08
6.05401974023e-07
9.40128148989e-08
5.79159735068e-07
1.09705512592e-07
4.85049249853e-07
1.10117156825e-07
4.03130984284e-07
1.03932273346e-07
3.69270293553e-07
3.62365012782e-07
9.58154554326e-08
1.49686367919e-07
6.24987972184e-07
3.19091052063e-08
7.0053444071e-07
-5.08059521115e-08
6.81128654985e-07
-1.0109164755e-07
6.76156459726e-07
-1.18596314756e-07
5.68032593173e-07
-1.22524135383e-07
4.92495809268e-07
-1.16727584323e-07
4.4850463005e-07
-1.05274512094e-07
4.30700074716e-07
-8.85468888227e-08
4.29599992566e-07
-6.23200784007e-08
4.49062837875e-07
-2.48888893923e-08
4.99028952358e-07
1.16405045907e-09
5.51199253808e-07
2.4823313954e-08
5.74012267866e-07
4.76075142738e-08
5.84410159633e-07
7.09982042955e-08
5.82797332391e-07
9.8697222696e-08
5.52302653118e-07
1.18120254464e-07
4.66362348682e-07
1.19673608325e-07
4.02069937594e-07
1.131922087e-07
3.76021765583e-07
3.71586801999e-07
1.04118440026e-07
1.58569776556e-07
6.21054523806e-07
1.19449958517e-07
7.23565001905e-07
4.06529831279e-08
7.56082372766e-07
-4.46670352895e-08
7.61178547221e-07
-7.4992904087e-08
5.98886284877e-07
-8.67828061854e-08
5.04848717614e-07
-8.7288921504e-08
4.49522101715e-07
-8.17148392184e-08
4.25596348129e-07
-7.11489150527e-08
4.19485151123e-07
-5.25787594562e-08
4.30966680289e-07
-2.00726558705e-08
4.67096135479e-07
9.7685273468e-09
5.22046752108e-07
3.09671768699e-08
5.53542721879e-07
5.2207783971e-08
5.63922813257e-07
7.48686647241e-08
5.60942968411e-07
1.06617933454e-07
5.21370678002e-07
1.24972493216e-07
4.48680773461e-07
1.25935370138e-07
4.01548130087e-07
1.19032062226e-07
3.8317684529e-07
3.81568741299e-07
1.09193789605e-07
1.57418658574e-07
6.21642130031e-07
1.17340237725e-07
7.47008864066e-07
7.68976922501e-08
7.92206466533e-07
2.19906426003e-08
8.15696233832e-07
-2.31208181801e-08
6.44430359431e-07
-4.61914805559e-08
5.28444751183e-07
-5.44056500258e-08
4.58232854565e-07
-5.49180910427e-08
4.26549033729e-07
-5.10260651688e-08
4.15994240533e-07
-4.15412623004e-08
4.21883644889e-07
-1.97033628412e-08
4.45738783941e-07
1.17006092487e-08
4.91279609965e-07
3.63558830784e-08
5.2960519834e-07
5.85345769717e-08
5.4250583442e-07
8.52042450827e-08
5.35059617679e-07
1.15381298539e-07
4.91952506379e-07
1.28253968796e-07
4.36392070614e-07
1.26743946172e-07
4.03433899035e-07
1.19227915381e-07
3.90912480071e-07
3.9165478531e-07
1.09271332186e-07
1.61060869435e-07
6.15765523828e-07
1.42250661631e-07
7.47895360607e-07
1.21655380221e-07
8.07184545596e-07
9.3942819909e-08
8.42513113231e-07
3.34292968453e-08
7.05290355141e-07
-1.4422328805e-09
5.63850373552e-07
-1.86586434779e-08
4.75937168421e-07
-2.70828897711e-08
4.35384118626e-07
-3.07228788624e-08
4.1998353809e-07
-2.92876397651e-08
4.2077712723e-07
-1.8968975455e-08
4.35797975925e-07
6.94230290498e-09
4.65894751847e-07
3.68594485411e-08
5.00359723972e-07
6.5453622316e-08
5.14642140865e-07
9.65017672291e-08
5.04764227251e-07
1.19617399134e-07
4.69501394843e-07
1.25394078217e-07
4.31107328817e-07
1.21023218117e-07
4.08121350318e-07
1.13046888844e-07
3.99074245675e-07
4.01198614266e-07
1.03611936523e-07
1.83301612226e-07
5.89879577376e-07
1.80042128776e-07
7.3048570387e-07
1.86458762319e-07
7.93200299395e-07
1.91270156916e-07
8.35542774665e-07
9.82960130737e-08
7.98249790007e-07
5.4281942169e-08
6.08347365517e-07
2.72835733781e-08
5.0341657239e-07
1.0645768245e-08
4.52427802607e-07
-7.43789637532e-10
4.31698493547e-07
-7.52496643579e-09
4.27824698915e-07
-6.88053852232e-09
4.35435569591e-07
7.57653113106e-09
4.51812864953e-07
3.51357319001e-08
4.73329161727e-07
6.64131348102e-08
4.83982536461e-07
9.62279467574e-08
4.75568294284e-07
1.12465003908e-07
4.53805889214e-07
1.13761635458e-07
4.3022217902e-07
1.08292342976e-07
4.13863143545e-07
1.01007067245e-07
4.06516295329e-07
4.09385564552e-07
9.29082848493e-08
1.75147382664e-07
5.70489608472e-07
1.73696009855e-07
7.12145170893e-07
1.83170789383e-07
7.75721101455e-07
1.91339521535e-07
8.24920342232e-07
1.65516753056e-07
8.2374749948e-07
1.2024459769e-07
6.53990089692e-07
8.46172489944e-08
5.3951395686e-07
6.11535946334e-08
4.76302467267e-07
4.40473337357e-08
4.49132632394e-07
3.06799170972e-08
4.41443291573e-07
2.28086919348e-08
4.43522000736e-07
2.35293438733e-08
4.5133937826e-07
3.85501230187e-08
4.58647858319e-07
6.21848355296e-08
4.60776374484e-07
8.38605985533e-08
4.54340674156e-07
9.50896160784e-08
4.4299956201e-07
9.53950921752e-08
4.30268413731e-07
9.09540035225e-08
4.18548436235e-07
8.5474769362e-08
4.12130829019e-07
4.15673710195e-07
7.92575988128e-08
1.81151961782e-07
5.47987737587e-07
1.86720044179e-07
6.85412461417e-07
2.00918628465e-07
7.52757966372e-07
2.17609806377e-07
8.04985902388e-07
2.19619725267e-07
8.20998441471e-07
1.84471475826e-07
6.8933735264e-07
1.47689222043e-07
5.76736031646e-07
1.19268111317e-07
5.05146792837e-07
9.79859042956e-08
4.70756171454e-07
8.08853011413e-08
4.58798791831e-07
6.70083980117e-08
4.57594601269e-07
5.68027097915e-08
4.61739627862e-07
5.45939736214e-08
4.61077981308e-07
6.19181805076e-08
4.53721774616e-07
7.1855490412e-08
4.44718807621e-07
7.75235855526e-08
4.37665269777e-07
7.74391038243e-08
4.30664807701e-07
7.41814106082e-08
4.22033561537e-07
7.02098588556e-08
4.16222374213e-07
4.20490420807e-07
6.54514022218e-08
1.78840157489e-07
5.25941457035e-07
1.85179188103e-07
6.57384835364e-07
2.02627833302e-07
7.25414345684e-07
2.28481941152e-07
7.7539400914e-07
2.44380331811e-07
8.03984605714e-07
2.28672108655e-07
7.05085275852e-07
2.02268323012e-07
6.03533252e-07
1.7524326296e-07
5.32602235249e-07
1.51813800092e-07
4.94546500754e-07
1.31820020859e-07
4.7905978821e-07
1.14122718713e-07
4.75487506479e-07
9.7746704357e-08
4.78304173054e-07
8.35252533152e-08
4.75499111687e-07
7.39066146713e-08
4.63554059284e-07
6.99667712201e-08
4.48903461011e-07
6.80283841043e-08
4.39886787594e-07
6.51895898791e-08
4.33786658212e-07
6.13885715051e-08
4.26049773435e-07
5.75663026859e-08
4.20153083437e-07
4.24948557286e-07
5.31573069783e-08
1.55143134083e-07
5.31399485058e-07
1.68677722812e-07
6.22549837716e-07
1.87890091454e-07
6.96258988616e-07
2.12411612829e-07
7.46859651849e-07
2.41224106181e-07
7.73980255293e-07
2.50557946317e-07
6.95693653015e-07
2.38615029012e-07
6.15811110593e-07
2.17670811678e-07
5.53960959334e-07
1.95004507479e-07
5.17578481754e-07
1.73158119978e-07
5.01180848508e-07
1.52304446048e-07
4.96537350054e-07
1.31839456064e-07
4.98956562219e-07
1.11515369626e-07
4.96021255488e-07
9.17813955522e-08
4.83498183682e-07
7.56753373686e-08
4.65233452637e-07
6.50777382773e-08
4.50738027956e-07
5.71510667512e-08
4.41974685538e-07
5.12425197583e-08
4.32160777802e-07
4.65678043363e-08
4.24924985356e-07
4.29885238217e-07
4.16730715749e-08
8.14685275026e-08
6.14392197851e-07
9.31685244807e-08
5.95302880672e-07
1.28316252988e-07
6.53384224715e-07
1.73425229039e-07
6.98483397126e-07
2.36663542716e-07
7.09604939381e-07
2.62001589511e-07
6.70227284653e-07
2.61098766854e-07
6.17003148816e-07
2.45826173192e-07
5.69626984369e-07
2.24736507009e-07
5.39025871087e-07
2.02028578622e-07
5.24160431182e-07
1.78758837273e-07
5.20001253615e-07
1.54843469431e-07
5.23057445058e-07
1.30199480528e-07
5.20864999658e-07
1.04533929955e-07
5.09373926797e-07
7.99719160548e-08
4.90015141544e-07
6.09039064832e-08
4.70043336892e-07
4.72878311069e-08
4.55836166809e-07
3.93796840617e-08
4.40254952085e-07
3.38825575816e-08
4.30505090403e-07
4.35273303279e-07
2.85299220153e-08
6.87640299839e-08
7.09677530267e-07
6.72868029137e-08
5.84467582942e-07
1.10201346929e-07
6.04615712817e-07
1.70841891099e-07
6.35203461659e-07
2.2643727754e-07
6.5308760995e-07
2.57901288034e-07
6.38691765911e-07
2.66723614462e-07
6.08463881332e-07
2.58127206969e-07
5.78596538e-07
2.40181835764e-07
5.5731027661e-07
2.18127907873e-07
5.46470145973e-07
1.93179618796e-07
5.45134703936e-07
1.66800538634e-07
5.49624002193e-07
1.3890072741e-07
5.48961433841e-07
1.08556312127e-07
5.39926159799e-07
7.75966764143e-08
5.21194968466e-07
4.97189522623e-08
4.98150196137e-07
3.0525195848e-08
4.75267567747e-07
2.17437897081e-08
4.4919961926e-07
1.60541575395e-08
4.36260043338e-07
4.40262257881e-07
1.10948598306e-08
1.1332006262e-07
7.55487118431e-07
1.05564351275e-07
5.79551914944e-07
1.31449410761e-07
5.7406492988e-07
1.72467858015e-07
5.92301103974e-07
2.16177347063e-07
6.08785899639e-07
2.4750054477e-07
6.07393352712e-07
2.60439366694e-07
5.95801788204e-07
2.57004877373e-07
5.82365914113e-07
2.42952075619e-07
5.71659782808e-07
2.22504250552e-07
5.67136640016e-07
1.9648614056e-07
5.71328176949e-07
1.69180915717e-07
5.7711081286e-07
1.39263418642e-07
5.79076034622e-07
1.05082314974e-07
5.74316111735e-07
6.62757358517e-08
5.60222221207e-07
2.72317254826e-08
5.3744487688e-07
3.90493326575e-09
4.98831482938e-07
-4.53821898807e-09
4.57774738606e-07
-9.27364126113e-09
4.41044309723e-07
4.43237963525e-07
-1.22237673901e-08
1.52650163249e-07
7.5645983979e-07
1.42920443042e-07
5.72674227019e-07
1.57133168873e-07
5.54619628184e-07
1.85215398111e-07
5.62553981137e-07
2.1700007376e-07
5.76580592607e-07
2.4064579117e-07
5.83817254238e-07
2.51129626761e-07
5.85564707484e-07
2.49024754473e-07
5.84747469344e-07
2.37164895265e-07
5.8375341435e-07
2.16619732e-07
5.87857760004e-07
1.92132961967e-07
5.95986215349e-07
1.66882732228e-07
6.02550518713e-07
1.37911757722e-07
6.08248958294e-07
9.86463157576e-08
6.13798585836e-07
4.17458228939e-08
6.17384139034e-07
-7.53188371847e-09
5.87029238938e-07
-3.20762715171e-08
5.23617033611e-07
-3.99498841507e-08
4.65751128086e-07
-4.19371303608e-08
4.43071848649e-07
4.42254855058e-07
-4.09302014709e-08
1.86430129284e-07
7.19016843948e-07
1.80415943458e-07
5.57769092219e-07
1.85710122714e-07
5.42458815836e-07
1.98098130836e-07
5.48167764294e-07
2.13110279201e-07
5.61128283749e-07
2.24851086045e-07
5.72127023752e-07
2.29786266471e-07
5.80821098121e-07
2.2747170333e-07
5.87267470814e-07
2.16044133092e-07
5.9535291582e-07
1.98661469835e-07
6.05404038689e-07
1.82111745753e-07
6.12718191717e-07
1.66244702635e-07
6.18610415544e-07
1.4057423623e-07
6.34128145258e-07
8.50611894165e-08
6.69586255386e-07
8.26662799456e-09
6.94587858383e-07
-4.80690810534e-08
6.4377453074e-07
-7.39743973158e-08
5.49771338289e-07
-8.11831029306e-08
4.73055839449e-07
-7.84982706377e-08
4.40426393142e-07
4.35704909477e-07
-7.19244821291e-08
2.05177602961e-07
6.6464054198e-07
1.97886290385e-07
5.43441560168e-07
1.90680009578e-07
5.42164474949e-07
1.83433496931e-07
5.53250587804e-07
1.79921037651e-07
5.64181886123e-07
1.78813345798e-07
5.73265782418e-07
1.77122843734e-07
5.8265958616e-07
1.74067913209e-07
5.90474791397e-07
1.65671353312e-07
6.03904630544e-07
1.58560945487e-07
6.12688490978e-07
1.55584652809e-07
6.1588175297e-07
1.46435684286e-07
6.27956096728e-07
1.11278164162e-07
6.6956957974e-07
4.76585502041e-08
7.33702690765e-07
-1.63588763765e-08
7.59246221557e-07
-7.1507002124e-08
6.9946905842e-07
-1.06850826146e-07
5.85433239775e-07
-1.17814376339e-07
4.84143630924e-07
-1.11398018521e-07
4.34056805802e-07
4.23611549833e-07
-9.92776319253e-08
2.01652716151e-07
6.15851122911e-07
1.76009188441e-07
5.5113809711e-07
1.49203848252e-07
5.62703324166e-07
1.22497345871e-07
5.78204285631e-07
1.04133734742e-07
5.82259358129e-07
9.38227936234e-08
5.83676026494e-07
8.65961537927e-08
5.90058711101e-07
7.89019599784e-08
5.98335178076e-07
7.13521953072e-08
6.11635740979e-07
6.59069575382e-08
6.18328608952e-07
5.79230905335e-08
6.24076257083e-07
3.36870177913e-08
6.52511294482e-07
-6.88446191291e-09
7.1070222719e-07
-2.94978000414e-08
7.57050740511e-07
-3.96205680309e-08
7.70144485502e-07
-7.09825023309e-08
7.31552458183e-07
-1.13339375272e-07
6.28319287158e-07
-1.33712194858e-07
5.04769273763e-07
-1.29989456118e-07
4.30419824216e-07
4.09196415537e-07
-1.15535294331e-07
1.84559361923e-07
5.86380126398e-07
1.36916707291e-07
5.83283810297e-07
9.18379710479e-08
6.02603910217e-07
4.88319681445e-08
6.19867971053e-07
1.69981631478e-08
6.13945706202e-07
-3.52808747275e-09
6.04355634881e-07
-2.28913405126e-08
6.09636047316e-07
-4.96981206688e-08
6.25361691541e-07
-8.30925923404e-08
6.45266557069e-07
-1.19725801496e-07
6.55234890478e-07
-1.55289452928e-07
6.6002942837e-07
-1.80271282907e-07
6.78061147888e-07
-1.71949268196e-07
7.03083682087e-07
-1.41298746673e-07
7.27166975981e-07
-1.09700906717e-07
7.39355127894e-07
-9.81671607952e-08
7.20842601444e-07
-1.13762519044e-07
6.44663550414e-07
-1.29718874486e-07
5.21212574957e-07
-1.29831434135e-07
4.30726381455e-07
3.96260910938e-07
-1.16825983623e-07
1.7511220399e-07
5.76418285772e-07
1.32725048006e-07
6.10904280562e-07
9.05449703773e-08
6.38443804246e-07
4.43853955582e-08
6.63943951842e-07
-3.42201905626e-09
6.61416629033e-07
-5.20307125549e-08
6.53200169779e-07
-1.09409850904e-07
6.67407644622e-07
-1.83689095216e-07
7.00071446261e-07
-2.72518839158e-07
7.34591332918e-07
-3.5489630759e-07
7.38188111164e-07
-3.89999686286e-07
6.95772711602e-07
-3.7110006022e-07
6.59843223536e-07
-3.21908554264e-07
6.54607937472e-07
-2.62291406608e-07
6.68316968877e-07
-2.05678635725e-07
6.83556986558e-07
-1.61030244974e-07
6.77041765366e-07
-1.31114741595e-07
6.15573176405e-07
-1.20401714265e-07
5.11159957715e-07
-1.14327135641e-07
4.25006392553e-07
3.85659307804e-07
-1.0359489971e-07
2.1251255103e-07
5.1689060317e-07
1.60242481405e-07
6.36779916723e-07
1.01007024063e-07
6.87811164292e-07
3.44880449311e-08
7.27729855626e-07
-4.27763086293e-08
7.38445782439e-07
-1.32496832368e-07
7.43568588835e-07
-2.36626074921e-07
7.72333522249e-07
-3.49155250281e-07
8.13428456569e-07
-4.62288922648e-07
8.48595424341e-07
-5.29380404878e-07
8.06159924549e-07
-5.24307415975e-07
6.91518158441e-07
-4.74845149996e-07
6.1113723222e-07
-4.08275037335e-07
5.88786537723e-07
-3.33872983761e-07
5.94700071896e-07
-2.61106526769e-07
6.11630008725e-07
-1.92730045224e-07
6.09551959236e-07
-1.38974738565e-07
5.62672881211e-07
-1.04854601664e-07
4.77767338871e-07
-8.78204096324e-08
4.08444395495e-07
3.75941717944e-07
-7.78956760778e-08
1.74257765974e-07
4.83137903489e-07
1.34538004203e-07
6.55101094263e-07
8.98811715323e-08
7.24339508199e-07
4.56525644861e-08
7.69775410961e-07
-2.40438452726e-08
8.08104766598e-07
-1.23374174836e-07
8.43642771996e-07
-2.34930592736e-07
8.84803090419e-07
-3.43279915907e-07
9.2272947413e-07
-4.32853631873e-07
9.39161675842e-07
-5.11732065942e-07
8.86057033327e-07
-4.80909269388e-07
6.6165959135e-07
-4.2719226379e-07
5.58287174989e-07
-3.65695688764e-07
5.28108427004e-07
-2.99657412186e-07
5.2949248127e-07
-2.28842663392e-07
5.41692821701e-07
-1.59993684362e-07
5.41607785333e-07
-1.05953698386e-07
5.09529653379e-07
-7.00508152322e-08
4.42628852998e-07
-5.15342204755e-08
3.90452141792e-07
3.67896470494e-07
-4.32256644982e-08
1.3470822394e-07
4.9190666614e-07
8.73109913651e-08
6.84563409708e-07
4.68139371108e-08
7.59024397654e-07
5.67166097302e-09
8.09574613939e-07
-4.29774137065e-08
8.56980939347e-07
-1.03996328736e-07
9.05452311034e-07
-1.73479562914e-07
9.55188540193e-07
-2.45252593757e-07
9.9544312328e-07
-2.90379613076e-07
9.85253669293e-07
-3.19629324924e-07
9.16283732743e-07
-2.93335525452e-07
6.36309254781e-07
-2.60074638574e-07
5.25902906412e-07
-2.23121833184e-07
4.91989965025e-07
-1.8245205178e-07
4.89670770119e-07
-1.34887996995e-07
4.95015105974e-07
-8.76074567638e-08
4.95246895638e-07
-4.68863231463e-08
4.69726073463e-07
-2.11235465536e-08
4.17648379277e-07
-9.41212589648e-09
3.79280801363e-07
3.64184255206e-07
-5.41374083388e-09
1.19375279683e-07
5.15123586615e-07
7.05261458957e-08
7.17390788984e-07
2.9502697906e-08
7.95668733398e-07
-1.13715526773e-08
8.49993967314e-07
-5.87533020625e-08
9.04934849987e-07
-1.14809960542e-07
9.62358320791e-07
-1.79683998324e-07
1.02097931653e-06
-2.49489978518e-07
1.06620214342e-06
-3.0134844268e-07
1.0380832364e-06
-1.52412249374e-07
7.68307702053e-07
-1.13820779759e-07
5.98634064111e-07
-9.35695464046e-08
5.06506671301e-07
-7.75893234116e-08
4.76834744243e-07
-6.06791113804e-08
4.73615631039e-07
-3.82522133084e-08
4.73477976708e-07
-1.31887644508e-08
4.71114286365e-07
1.1609346172e-08
4.4584916785e-07
2.62575306505e-08
4.03770988537e-07
3.07591713589e-08
3.75306251946e-07
3.65331001287e-07
2.99005118136e-08
1.23179219291e-07
5.3611595819e-07
7.93333419062e-08
7.45710154088e-07
4.46090253723e-08
8.26935665587e-07
1.06792227929e-08
8.84081092839e-07
-2.56579380835e-08
9.42125454759e-07
-6.61668446328e-08
1.0037580155e-06
-1.0925786222e-07
1.06499017713e-06
-1.40908867783e-07
1.09880516872e-06
-1.21152459778e-07
1.01927240465e-06
-3.86964100951e-08
6.86756328582e-07
3.04414636676e-09
5.57747512518e-07
1.77147350143e-08
4.92638343702e-07
2.31733950724e-08
4.72180430505e-07
2.70814252609e-08
4.70563947334e-07
3.40154875729e-08
4.67438483697e-07
4.48532673617e-08
4.61210339926e-07
5.79244689186e-08
4.33678332005e-07
6.45222703209e-08
3.97901977536e-07
6.40421193614e-08
3.76272763952e-07
3.7004841721e-07
5.95960359712e-08
1.28401720264e-07
5.49216413344e-07
9.35244953786e-08
7.64905120527e-07
6.73552266934e-08
8.49591983362e-07
4.2565665399e-08
9.09252087232e-07
1.47624792895e-08
9.70989944103e-07
-1.7640938437e-08
1.03713553808e-06
-5.59438778563e-08
1.10424462205e-06
-8.837836541e-08
1.13219803742e-06
3.0302695046e-09
9.28785561288e-07
4.4267241987e-08
6.46359395884e-07
7.01505653445e-08
5.32636242501e-07
7.85866005768e-08
4.84947221444e-07
8.04794290672e-08
4.71068116878e-07
8.0746744683e-08
4.71151029642e-07
8.11841135492e-08
4.67899548816e-07
8.59433824974e-08
4.57389287656e-07
9.21302890051e-08
4.28359126791e-07
9.35509484788e-08
3.97157532103e-07
8.98183974707e-08
3.80445645213e-07
3.77104416935e-07
8.30096729509e-08
1.40958243421e-07
5.50676161102e-07
1.18806977389e-07
7.69391995656e-07
1.06905821231e-07
8.56758171192e-07
9.77146781112e-08
9.18181671525e-07
8.91860920426e-08
9.80397875954e-07
8.03506330726e-08
1.04694855894e-06
7.14700135153e-08
1.11407939702e-06
7.19491526128e-08
1.13266208172e-06
1.01806912202e-07
8.99818478998e-07
1.04626793892e-07
6.44337529904e-07
1.10432532003e-07
5.27548190797e-07
1.12601294299e-07
4.83488356347e-07
1.12959387536e-07
4.71469450164e-07
1.13356495377e-07
4.71596632636e-07
1.12957008225e-07
4.69204276602e-07
1.15671088006e-07
4.55596371394e-07
1.17657262648e-07
4.2719872056e-07
1.15608347152e-07
3.9983094884e-07
1.09766607145e-07
3.86686378884e-07
3.85677097946e-07
1.01420117428e-07
1.51257770455e-07
5.39821705993e-07
1.41912864461e-07
7.59486257204e-07
1.42812764533e-07
8.49382126192e-07
1.47994403186e-07
9.11863154486e-07
1.54979449191e-07
9.73919066213e-07
1.62671305143e-07
1.04013647097e-06
1.71008460026e-07
1.10667536944e-06
1.80418282443e-07
1.12418386761e-06
1.7433138316e-07
9.06787034878e-07
1.55874395286e-07
6.63589206956e-07
1.45758528783e-07
5.38376104009e-07
1.41430753574e-07
4.8851110231e-07
1.39107568769e-07
4.74535916396e-07
1.38755260842e-07
4.72772685294e-07
1.39026375279e-07
4.69823504255e-07
1.39758060965e-07
4.55757741156e-07
1.38326738028e-07
4.29417675653e-07
1.33496806418e-07
4.05245104227e-07
1.25992174111e-07
3.94558574007e-07
3.95345688475e-07
1.16533452224e-07
1.59361616756e-07
5.22123443574e-07
1.58144057109e-07
7.39926784558e-07
1.68259906089e-07
8.31622008639e-07
1.83495047372e-07
8.94553380708e-07
2.01460405297e-07
9.56032729163e-07
2.21685256914e-07
1.02063075788e-06
2.44174943486e-07
1.08506932976e-06
2.62894250651e-07
1.10637973537e-06
2.27019855396e-07
9.43538159232e-07
1.97490825886e-07
6.93916552713e-07
1.79017945622e-07
5.57563978296e-07
1.69750298893e-07
4.9846530446e-07
1.64714169292e-07
4.80300566113e-07
1.62919293377e-07
4.75367924644e-07
1.62449560922e-07
4.7115472723e-07
1.60901925545e-07
4.58170182654e-07
1.56494154057e-07
4.3458718074e-07
1.49239332905e-07
4.13060470686e-07
1.40169647059e-07
4.03976430111e-07
4.06041014826e-07
1.29672749014e-07
1.62553851243e-07
5.00744307945e-07
1.65873536435e-07
7.15018301611e-07
1.81232884161e-07
8.07234690591e-07
2.02013336628e-07
8.70845143486e-07
2.26434180711e-07
9.31127309768e-07
2.53850798372e-07
9.93667642082e-07
2.83499766791e-07
1.05618387363e-06
3.06523964543e-07
2.67786604765e-07
2.33025976779e-07
2.09293695867e-07
1.96570323584e-07
1.8967627639e-07
1.8613380005e-07
1.83734325567e-07
1.79954140105e-07
1.73114259517e-07
1.63807306898e-07
1.53208852316e-07
1.41595546002e-07
1.62896526215e-07
1.66448953001e-07
1.82123356864e-07
2.03940679261e-07
2.28832240679e-07
2.55775848216e-07
2.4772411983e-09
2.59002778158e-07
2.25083554043e-09
2.46821193709e-07
2.00689924434e-09
2.35097482247e-07
1.80716534268e-09
2.23710527411e-07
1.66006751489e-09
2.12872722831e-07
1.53637060396e-09
2.02781298057e-07
1.40482442505e-09
1.93367001721e-07
1.25569000747e-09
1.84451378932e-07
1.09055287221e-09
1.75939180122e-07
9.14312928929e-10
1.6778107988e-07
7.32880117454e-10
1.59783678268e-07
5.63403218393e-10
1.50053730517e-07
3.80101557309e-10
1.32684617521e-07
1.76907615171e-10
1.11058828591e-07
5.06320632304e-11
9.04592125949e-08
1.26291602578e-11
7.15849598616e-08
5.52652505265e-08
1.26210315343e-08
3.07465831413e-07
1.10243775244e-08
2.88858662598e-07
9.88493987643e-09
2.73345553857e-07
8.94312305571e-09
2.59952864653e-07
8.03290712255e-09
2.4773768637e-07
7.12505072984e-09
2.36009135575e-07
6.29900124313e-09
2.24538098779e-07
5.59281757053e-09
2.13579223633e-07
4.96918479917e-09
2.03404981172e-07
4.38099159256e-09
1.93955194592e-07
3.81010173903e-09
1.85022291746e-07
3.25291025028e-09
1.76496372997e-07
2.71062860859e-09
1.68323384583e-07
2.18743409288e-09
1.60306877979e-07
1.70716896486e-09
1.50534019426e-07
1.24530334775e-09
1.33146481147e-07
7.82364307606e-10
1.11521806804e-07
4.17667675521e-10
9.08239278164e-08
1.73926567595e-10
7.18287234991e-08
5.54391787444e-08
2.15871344172e-08
3.10755841048e-07
1.90670003858e-08
2.91399573607e-07
1.7116799719e-08
2.75308435763e-07
1.54883875269e-08
2.61590708113e-07
1.3979114164e-08
2.49254604674e-07
1.24886369002e-08
2.3750499495e-07
1.10641842311e-08
2.25965159386e-07
9.79024700513e-09
2.14853833972e-07
8.64895483506e-09
2.04546366299e-07
7.58266684846e-09
1.95021483817e-07
6.56474713118e-09
1.8604022846e-07
5.5880762999e-09
1.77473047267e-07
4.65112732819e-09
1.69260349855e-07
3.75703450604e-09
1.61200980799e-07
2.93832711864e-09
1.51352740821e-07
2.17762832435e-09
1.33907212723e-07
1.43778592282e-09
1.12261658142e-07
8.17386934639e-10
9.14443754377e-08
3.51409704696e-10
7.22947501737e-08
5.57905898e-08
3.02989964378e-08
3.14751974169e-07
2.69895950072e-08
2.94734226245e-07
2.42978493932e-08
2.78014854448e-07
2.20248470055e-08
2.63874083952e-07
1.99507860473e-08
2.5133715966e-07
1.79378337386e-08
2.39524526148e-07
1.59660223822e-08
2.27940776492e-07
1.4134862922e-08
2.16686220471e-07
1.24708439701e-08
2.06210579656e-07
1.09173513601e-08
1.9657498368e-07
9.43913906868e-09
1.87518462649e-07
8.0269380408e-09
1.78885252662e-07
6.67764189222e-09
1.70609667437e-07
5.39429015033e-09
1.62484342644e-07
4.22098394389e-09