/*--------------------------------*- C++ -*----------------------------------*\
| =========                 |                                                 |
| \\      /  F ield         | OpenFOAM: The Open Source CFD Toolbox           |
|  \\    /   O peration     | Version:  2312                                  |
|   \\  /    A nd           | Website:  www.openfoam.com                      |
|    \\/     M anipulation  |                                                 |
\*---------------------------------------------------------------------------*/
FoamFile
{
    version     2.0;
    format      ascii;
    arch        "LSB;label=32;scalar=64";
    class       volVectorField;
    location    "0.08/water";
    object      U.gas;
}
// * * * * * * * * * * * * * * * * * * * * * * * * * * * * * * * * * * * * * //

dimensions      [0 1 -1 0 0 0 0];

internalField   nonuniform List<vector> 
1504
(
(0.0507657279662 1.18328715864 0)
(0.101949123802 1.1223765613 0)
(0.0997834208845 1.11162060692 0)
(0.0963058294137 1.1176028427 0)
(0.0963774282595 1.12777719265 0)
(0.101041347387 1.10701950913 0)
(0.110061099096 1.04538864705 0)
(0.121920608733 0.965802220349 0)
(0.136734645328 0.890102118876 0)
(0.153962842451 0.835070622038 0)
(0.162934107819 0.81809494555 0)
(0.144169923569 0.84804781956 0)
(0.116506419094 0.893020669864 0)
(0.100989420137 0.914885455376 0)
(0.0861265400457 0.896253157303 0)
(0.0675871669793 0.761264143408 0)
(0.0483914310866 0.558888059952 0)
(0.0290595087347 0.481703330093 0)
(0.00866354561527 0.462186058607 0)
(-0.00802281089954 0.457021126139 0)
(0.0517089923961 1.162506 0)
(0.104061771077 1.1004498913 0)
(0.101949625054 1.09149187295 0)
(0.0983277568256 1.10209111183 0)
(0.0991550198422 1.11106195358 0)
(0.105611356743 1.08925977654 0)
(0.116868708604 1.03247173112 0)
(0.130803527291 0.960195571147 0)
(0.145867535359 0.892204797192 0)
(0.156470074867 0.846477892855 0)
(0.147409399875 0.845613053713 0)
(0.124965136856 0.891282248073 0)
(0.112350971285 0.926956501389 0)
(0.104392787505 0.935752771137 0)
(0.0902495213418 0.908950363506 0)
(0.0722609733334 0.786421861866 0)
(0.0543178240094 0.577904449811 0)
(0.0364389065538 0.486211918056 0)
(0.0171428066434 0.461847774195 0)
(0.000124581639245 0.45524038818 0)
(0.0525746948785 1.14184965928 0)
(0.10545095925 1.08513447416 0)
(0.102839346969 1.07620448945 0)
(0.099242115228 1.09181330351 0)
(0.100676543197 1.09862122744 0)
(0.107969236442 1.07339634698 0)
(0.119874509936 1.01913363562 0)
(0.133419071492 0.953521767731 0)
(0.144378178267 0.893812820951 0)
(0.143634630231 0.860316055997 0)
(0.127895026019 0.882927784809 0)
(0.115812732836 0.928882310783 0)
(0.112910244688 0.952934063596 0)
(0.106243979246 0.951941337891 0)
(0.0930205070217 0.920175193436 0)
(0.0765638462368 0.810103694316 0)
(0.0597291247436 0.599563070186 0)
(0.0423333168613 0.492535264031 0)
(0.0240327910272 0.462873129083 0)
(0.00709783705644 0.45456652676 0)
(0.0526275713699 1.12779981442 0)
(0.1051213611 1.08127189119 0)
(0.101626003336 1.07324984976 0)
(0.0966671229389 1.09344188919 0)
(0.0967350051358 1.09519101452 0)
(0.103309271587 1.06230114674 0)
(0.114063264904 1.00727186376 0)
(0.124545324159 0.946831311625 0)
(0.129454755784 0.895863844252 0)
(0.123169739236 0.877047493836 0)
(0.112018853504 0.91931200918 0)
(0.108852002454 0.957634663544 0)
(0.109335549327 0.971980577291 0)
(0.104371384542 0.963569477642 0)
(0.0934400463437 0.928502660742 0)
(0.0789506914405 0.828322960749 0)
(0.0629879633604 0.621170261511 0)
(0.0466178616436 0.498909072456 0)
(0.0295869747724 0.464062410158 0)
(0.0132155531114 0.454016570032 0)
(0.0513859765375 1.13266951904 0)
(0.101052285981 1.09448814406 0)
(0.0941800234801 1.0924380661 0)
(0.0850177802387 1.11529654924 0)
(0.0818752737242 1.1028216683 0)
(0.0871438821318 1.05516114226 0)
(0.0961077672839 0.99574581877 0)
(0.103102497754 0.938754518541 0)
(0.104233818635 0.896131422504 0)
(0.0987802167451 0.892985953083 0)
(0.0947614469678 0.944597760655 0)
(0.0971083570021 0.975857991426 0)
(0.0995362995189 0.982294754677 0)
(0.0972491090339 0.968020596354 0)
(0.0892538374138 0.930389969216 0)
(0.0775756599147 0.83765789369 0)
(0.0639362897066 0.638472438484 0)
(0.049647187377 0.503649837716 0)
(0.0346243835091 0.464455617757 0)
(0.0194300804929 0.45289429103 0)
(0.0543412751988 1.15700772938 0)
(0.102597842446 1.12984422944 0)
(0.0847455173945 1.14541606929 0)
(0.064206575256 1.16642253901 0)
(0.0548180730954 1.12199480426 0)
(0.0576876325849 1.04989923104 0)
(0.0645726395024 0.98222907194 0)
(0.06967957111 0.926497426061 0)
(0.0714485678993 0.889933448831 0)
(0.0711213531352 0.900134266836 0)
(0.0729483973601 0.956278117049 0)
(0.0788618564199 0.981241849972 0)
(0.0842593110962 0.981558557715 0)
(0.0849316700771 0.962924593937 0)
(0.0804229196894 0.923587340873 0)
(0.0722683693082 0.836617003616 0)
(0.0624245419967 0.647576331419 0)
(0.052025930951 0.506260825385 0)
(0.039929379472 0.463836894413 0)
(0.0266459086053 0.451140804192 0)
(0.0553807954874 1.1937800906 0)
(0.0934138324725 1.19153816604 0)
(0.0588021392323 1.23599721571 0)
(0.0297302594744 1.24632396741 0)
(0.0155814261209 1.14886647044 0)
(0.0156547806859 1.04367315799 0)
(0.0213506938227 0.963629692474 0)
(0.0277076368776 0.906025435447 0)
(0.033506636879 0.872528643563 0)
(0.0392701583149 0.891149467594 0)
(0.046870350904 0.951315474875 0)
(0.0568920731249 0.971233581936 0)
(0.0657746844603 0.967662058916 0)
(0.0700092807848 0.946663676219 0)
(0.0689423925024 0.906896158109 0)
(0.0646096835623 0.824605529599 0)
(0.0597509483343 0.646495220548 0)
(0.0541386728356 0.506805592859 0)
(0.0457958413625 0.462644041679 0)
(0.0351728212505 0.449279982154 0)
(0.0442370959417 1.25247476662 0)
(0.0618823908119 1.29967810288 0)
(0.0201304494168 1.34725248493 0)
(-0.00724780338879 1.33861858552 0)
(-0.0233445755358 1.17556562153 0)
(-0.025998959653 1.03435374559 0)
(-0.0210698471229 0.938407024144 0)
(-0.0126731963982 0.875324284744 0)
(-0.00299178799966 0.841597994816 0)
(0.0083657659635 0.861366596321 0)
(0.0220736740696 0.925320472337 0)
(0.0367907197553 0.94438783913 0)
(0.0492784804332 0.940141433478 0)
(0.0565234075468 0.91913209359 0)
(0.0585320792506 0.880320510568 0)
(0.0579461498874 0.801629101111 0)
(0.0577543378076 0.635242616564 0)
(0.056785292049 0.504787891009 0)
(0.0523468147831 0.461476548698 0)
(0.044875003699 0.448083649612 0)
(0.0103438489925 1.48161128804 0)
(0.000810186434901 1.44931047984 0)
(-0.0261465910463 1.43395667499 0)
(-0.0405287174017 1.41271476982 0)
(-0.0506849686608 1.19318892053 0)
(-0.0524372630655 1.02076387135 0)
(-0.0472904004917 0.908686287719 0)
(-0.0380359009903 0.838726167946 0)
(-0.0268205102648 0.801973892331 0)
(-0.0124303880443 0.814999435589 0)
(0.00625870925911 0.877058612956 0)
(0.0250110455736 0.90353478678 0)
(0.0393975100744 0.901893215524 0)
(0.0483081932758 0.882896155793 0)
(0.0518758636347 0.845807451878 0)
(0.0539866511513 0.768465420822 0)
(0.0581369913359 0.615341924808 0)
(0.0612329332258 0.500523700356 0)
(0.0602307940834 0.461027231796 0)
(0.0557345152915 0.448360570049 0)
(0.0422437784416 1.68647297823 0)
(0.0539244231232 1.67261997525 0)
(0.0026310910879 1.56250375313 0)
(-0.0303913870672 1.49598606391 0)
(-0.0464968887188 1.21215522554 0)
(-0.0501904978246 1.01136326554 0)
(-0.0470284387421 0.88345299576 0)
(-0.0396897282105 0.805969729864 0)
(-0.0298870995704 0.763844966286 0)
(-0.016242406494 0.765738962405 0)
(0.00322317615119 0.815976692874 0)
(0.0229007532276 0.854300759424 0)
(0.0371096236674 0.858523788833 0)
(0.0456359262587 0.84250997149 0)
(0.0491650909254 0.806785444364 0)
(0.0532941718927 0.727192774866 0)
(0.0612300883829 0.590852471012 0)
(0.0678472665832 0.496360027081 0)
(0.0697074756129 0.462482250974 0)
(0.0675690972908 0.451024587757 0)
(0.0440450641208 1.69265202338 0)
(0.0781319017061 1.848114735 0)
(0.0481782646092 1.75806724088 0)
(0.00666841114744 1.6542946992 0)
(-0.0220042315316 1.25732162405 0)
(-0.0310227049894 1.02068175827 0)
(-0.031154432479 0.872908272575 0)
(-0.0262909808021 0.785537029404 0)
(-0.0189819842828 0.73606120996 0)
(-0.00845131980463 0.726208210018 0)
(0.00742089037224 0.758788011734 0)
(0.0253043114947 0.801215095954 0)
(0.038855243212 0.814153622763 0)
(0.0463845751179 0.80112160304 0)
(0.0496439496336 0.765257923298 0)
(0.0560951095435 0.682493913745 0)
(0.0673443666796 0.568115523288 0)
(0.0760158827397 0.495250475701 0)
(0.0798308937551 0.467235372437 0)
(0.0792930585942 0.457016292948 0)
(0.0431904634768 1.68583984385 0)
(0.0762508509344 1.9109321994 0)
(0.0561049198637 1.90156498224 0)
(0.0325992689965 1.82385658965 0)
(0.00819356774132 1.33685725564 0)
(-0.00732364432815 1.05537774858 0)
(-0.0117106514971 0.88092637667 0)
(-0.00934163317581 0.780473872147 0)
(-0.0043524530069 0.722655801171 0)
(0.00258329846156 0.702343347456 0)
(0.0131039403996 0.71722934627 0)
(0.0271061418875 0.751237752768 0)
(0.0399094115962 0.76943596266 0)
(0.0478695836752 0.758715285725 0)
(0.0537296291742 0.721385241273 0)
(0.063726987854 0.642460948477 0)
(0.0762110226842 0.552574281144 0)
(0.0850115476935 0.498957129286 0)
(0.0893878560656 0.476037562324 0)
(0.0894733049887 0.466808697213 0)
(0.0439808218022 1.67573911342 0)
(0.0831820907002 1.9416419414 0)
(0.0734394165137 1.96604008654 0)
(0.0617776247408 1.92304631956 0)
(0.0403089376495 1.44941492464 0)
(0.0181860234426 1.11515601962 0)
(0.00928885102423 0.908655229555 0)
(0.00864274543892 0.791277847346 0)
(0.0108529658411 0.723788041081 0)
(0.0143332293684 0.694918406449 0)
(0.0202093461388 0.695021146265 0)
(0.0297131770828 0.713934378393 0)
(0.0409663662004 0.727874234221 0)
(0.0511073056968 0.717407813512 0)
(0.0617929970519 0.680651306574 0)
(0.0746037406734 0.614397204989 0)
(0.0859996306398 0.546992121245 0)
(0.0932561061753 0.507704015787 0)
(0.0969241495994 0.488554444563 0)
(0.0968033661041 0.47991129142 0)
(0.0492913431067 1.62591842188 0)
(0.0979981120769 1.91488779858 0)
(0.0992823964787 1.96296023266 0)
(0.102548997081 1.94385600847 0)
(0.0803937596023 1.62006170059 0)
(0.0474853198287 1.19301464829 0)
(0.0344351072141 0.953933404366 0)
(0.0301426508031 0.816904647633 0)
(0.0298944542066 0.73793236026 0)
(0.0308016458973 0.701229887099 0)
(0.0334126968391 0.689827841314 0)
(0.039341011482 0.693926872747 0)
(0.0483813614939 0.697820881692 0)
(0.0596029329547 0.684566299406 0)
(0.0726256593192 0.651361948784 0)
(0.0850048134683 0.599790897525 0)
(0.0934975388811 0.550197368899 0)
(0.098292535187 0.519836144191 0)
(0.10073865817 0.503089928216 0)
(0.100264354748 0.494737509167 0)
(0.0467270573385 1.555788857 0)
(0.0930602795639 1.8599428433 0)
(0.0950288368845 1.91643373846 0)
(0.0992178305469 1.91617199485 0)
(0.0948002371042 1.75399363765 0)
(0.0787874216679 1.27559598259 0)
(0.0636330091668 1.01030235821 0)
(0.056561551883 0.853966791271 0)
(0.0547011869593 0.762492808978 0)
(0.0550202763169 0.71716472306 0)
(0.0570269322363 0.696620474351 0)
(0.0609849689627 0.688960788635 0)
(0.0672664586007 0.682434704323 0)
(0.0761390521604 0.665106335181 0)
(0.0860832174794 0.635009876052 0)
(0.0938729452986 0.594606302617 0)
(0.0978519755106 0.557159588933 0)
(0.0996645118335 0.531978843316 0)
(0.100976025358 0.517001891473 0)
(0.100323812031 0.509159472668 0)
(0.0476753426089 1.48932574732 0)
(0.0968511150992 1.7910515941 0)
(0.101627816672 1.85634290037 0)
(0.108735163404 1.87115119219 0)
(0.112816251477 1.77498976087 0)
(0.105368534258 1.34487880174 0)
(0.0922774151729 1.0672797956 0)
(0.0849455039564 0.896449018398 0)
(0.0831524179483 0.793731618184 0)
(0.0847129951312 0.739299628314 0)
(0.0880582399963 0.711211800724 0)
(0.0922824310195 0.694465968087 0)
(0.0970940994131 0.678911736962 0)
(0.10190769778 0.657156437557 0)
(0.105167548817 0.628023268286 0)
(0.105283966254 0.594320535493 0)
(0.102910625334 0.563757493293 0)
(0.100912916848 0.54186081878 0)
(0.10071595637 0.528680297454 0)
(0.0994364710547 0.52193323044 0)
(0.0466790598404 1.41749384894 0)
(0.0948868257731 1.7068499308 0)
(0.100262235257 1.78133329883 0)
(0.11008725863 1.8000635723 0)
(0.119464562941 1.7428868661 0)
(0.119430750392 1.38316629242 0)
(0.113193953078 1.11231964225 0)
(0.109715845721 0.937472548393 0)
(0.11026797171 0.827940393919 0)
(0.114267584612 0.76589562988 0)
(0.119788135661 0.731768026138 0)
(0.124785273821 0.708408207255 0)
(0.129005427505 0.685968764356 0)
(0.131346538642 0.659575364444 0)
(0.129189877902 0.629581640656 0)
(0.121977245766 0.598630150222 0)
(0.112838285266 0.571051659935 0)
(0.106158858137 0.550849697744 0)
(0.10326319715 0.539188840214 0)
(0.100064581995 0.533812259707 0)
(0.0398546102472 1.38458509686 0)
(0.083155314477 1.60968467389 0)
(0.0907116964879 1.69576418254 0)
(0.100237816164 1.71608194426 0)
(0.112069481338 1.67480727762 0)
(0.121418211344 1.37561074142 0)
(0.125374226271 1.13637450436 0)
(0.127927732947 0.971662285511 0)
(0.132160153158 0.862412140142 0)
(0.139073535739 0.796608497308 0)
(0.147059624307 0.758962915894 0)
(0.153128880294 0.731477704656 0)
(0.157050696708 0.704560707481 0)
(0.158413120701 0.674741952629 0)
(0.153941467911 0.643068016431 0)
(0.142182169736 0.611643815286 0)
(0.127137124229 0.583576750534 0)
(0.115311772784 0.562659657281 0)
(0.108739594049 0.551441276277 0)
(0.102208954309 0.546980705805 0)
(0.0199677274522 1.50356556868 0)
(0.0428201703095 1.51722206392 0)
(0.0537461391245 1.58819671035 0)
(0.0724377938157 1.60589779909 0)
(0.0985808391363 1.54882647006 0)
(0.12137831992 1.32790089123 0)
(0.133037963927 1.14100325901 0)
(0.141134991069 0.997978409478 0)
(0.149176239455 0.896123178319 0)
(0.159059860679 0.831686169557 0)
(0.169219517237 0.793734739574 0)
(0.175991662486 0.764551740167 0)
(0.179603347538 0.735374015663 0)
(0.180584120268 0.70399217212 0)
(0.17532204719 0.671211935844 0)
(0.16080134525 0.637399636219 0)
(0.140779337259 0.604867324963 0)
(0.124257520908 0.580285111835 0)
(0.113856636103 0.568073512577 0)
(0.102949424927 0.563382526963 0)
(0.0165226900703 1.75252622024 0)
(0.0323779155991 1.4706537299 0)
(0.0413054041175 1.46137933565 0)
(0.0655198067889 1.45827878474 0)
(0.0940354635695 1.40129119615 0)
(0.117915754202 1.2689569469 0)
(0.135476123097 1.13471735389 0)
(0.149101841568 1.01871222276 0)
(0.161385417056 0.929846171172 0)
(0.174908928011 0.872135532557 0)
(0.187153436598 0.836945327879 0)
(0.193789234369 0.80770536196 0)
(0.196670551389 0.778270641914 0)
(0.197281122513 0.747780159417 0)
(0.191225230273 0.71574715586 0)
(0.173374744078 0.677825506969 0)
(0.148200185891 0.635959154766 0)
(0.12796454145 0.604996954652 0)
(0.113844275858 0.590205186743 0)
(0.0977047618453 0.583375095749 0)
(0.029231038981 1.94556685912 0)
(0.0562423635581 1.47160002384 0)
(0.0581079321134 1.3704230997 0)
(0.0716645695707 1.34014979691 0)
(0.0930213811628 1.30176011472 0)
(0.116473867114 1.22187545229 0)
(0.137815835536 1.12744905779 0)
(0.155932509132 1.03853691857 0)
(0.173018662498 0.966988441881 0)
(0.190347499778 0.920537883342 0)
(0.202741034991 0.889487530663 0)
(0.207435547361 0.861171819634 0)
(0.209375493131 0.833970415194 0)
(0.209875270714 0.808760502121 0)
(0.201117648061 0.780450185491 0)
(0.175101382771 0.731964235424 0)
(0.143126417022 0.675561161633 0)
(0.120804369917 0.636232156671 0)
(0.102874336867 0.616320592465 0)
(0.0813537481871 0.604913372307 0)
(0.0401250056928 2.00452504737 0)
(0.0796723633061 1.49377847357 0)
(0.0787892257541 1.34291005636 0)
(0.085111513668 1.28982184859 0)
(0.10220828374 1.25369810465 0)
(0.12430400994 1.19771987442 0)
(0.146839320386 1.1307844336 0)
(0.168304208438 1.06619391091 0)
(0.190045478243 1.01420842144 0)
(0.208438427144 0.979168858921 0)
(0.217293781826 0.950954587928 0)
(0.219923804207 0.925197632934 0)
(0.222993710895 0.904700444004 0)
(0.222345610276 0.891811032362 0)
(0.198374356676 0.863085103571 0)
(0.153388383869 0.793721490274 0)
(0.117598305632 0.720122127373 0)
(0.0966587752582 0.669563266492 0)
(0.075304290979 0.641028436864 0)
(0.0505409575021 0.623496660781 0)
(0.0480817966968 1.96723193789 0)
(0.10274108639 1.52050114761 0)
(0.10636242043 1.3592391074 0)
(0.107359571627 1.28984682117 0)
(0.119455442608 1.24850057243 0)
(0.138519782037 1.20230887003 0)
(0.161499711917 1.15395308349 0)
(0.18637849854 1.10948784743 0)
(0.209299219671 1.07353208714 0)
(0.223942863594 1.04446560426 0)
(0.231207031017 1.01794392864 0)
(0.238168523835 0.9968202843 0)
(0.243541601353 0.987255773937 0)
(0.220402922532 0.983068585962 0)
(0.159768127527 0.948899311856 0)
(0.102729203436 0.859078938609 0)
(0.0721231719931 0.762092536979 0)
(0.0521343844772 0.695201613344 0)
(0.0294723215559 0.656533162683 0)
(0.00649518613169 0.633333787496 0)
(0.0531607323771 1.90649529751 0)
(0.120977311909 1.55332276365 0)
(0.130867044135 1.40777161237 0)
(0.126679967724 1.33307364978 0)
(0.132450066537 1.28268423688 0)
(0.14743586681 1.23650832329 0)
(0.169970921534 1.19907375052 0)
(0.193727685616 1.16676714602 0)
(0.212629052288 1.13843151322 0)
(0.227458325562 1.11066692267 0)
(0.24232872866 1.08342353918 0)
(0.251676697748 1.06176801299 0)
(0.226879469845 1.05378389893 0)
(0.16059067048 1.05247542099 0)
(0.0939947885016 1.02118385199 0)
(0.050643475365 0.920848942729 0)
(0.0205401993779 0.792528502226 0)
(-0.00489230855836 0.702069219008 0)
(-0.0271042554389 0.655372168168 0)
(-0.0438505329534 0.629165103488 0)
(0.058987977268 1.88571018382 0)
(0.129790829833 1.61419324193 0)
(0.133817124633 1.49163492379 0)
(0.121951984003 1.42040756433 0)
(0.119791560778 1.35741099392 0)
(0.129146977808 1.30077501195 0)
(0.147436752899 1.2645050261 0)
(0.167341300464 1.23743737224 0)
(0.184816923282 1.21133814907 0)
(0.200605458259 1.17717486794 0)
(0.2033405647 1.13486281816 0)
(0.171885511667 1.10031561354 0)
(0.112957738588 1.08911943321 0)
(0.0631856858776 1.0878264548 0)
(0.0368237708692 1.0581249574 0)
(0.0155041016859 0.959684536684 0)
(-0.0151689423338 0.811291860405 0)
(-0.0493213749868 0.68982641513 0)
(-0.0756180091177 0.634850333655 0)
(-0.0895506086922 0.609333428982 0)
(0.0743159283912 1.87776650122 0)
(0.145220835243 1.68507593708 0)
(0.12773285484 1.58987503601 0)
(0.102962917342 1.52899731532 0)
(0.0884337638984 1.45338453353 0)
(0.0862919256024 1.37909510868 0)
(0.0912215085532 1.33808392799 0)
(0.0939926457245 1.31802279134 0)
(0.087727929968 1.29416354596 0)
(0.0681258831896 1.24324400439 0)
(0.0345160673608 1.17094732634 0)
(-0.00227351608487 1.116328188 0)
(-0.025014474804 1.09504460878 0)
(-0.0294387156959 1.08275284527 0)
(-0.0259474305014 1.04707239299 0)
(-0.0266184636216 0.960274382136 0)
(-0.0409527724627 0.815964782793 0)
(-0.0684123827952 0.668515209342 0)
(-0.0985265568613 0.59858809371 0)
(-0.117477453525 0.576488158083 0)
(0.0779912388898 1.77502964303 0)
(0.140598083202 1.67861434215 0)
(0.111893426451 1.6263417392 0)
(0.0850500050284 1.58709638371 0)
(0.0597654464627 1.51292320006 0)
(0.0353062958933 1.43369012558 0)
(0.0057974019168 1.39633436757 0)
(-0.0334277427517 1.39075437765 0)
(-0.0819464517372 1.37624370538 0)
(-0.130055655189 1.31015962894 0)
(-0.159478715764 1.194206962 0)
(-0.161526858684 1.1030252536 0)
(-0.145309425602 1.05645673937 0)
(-0.122442405048 1.02850469775 0)
(-0.099699849336 0.992007261193 0)
(-0.0817912974559 0.919872989021 0)
(-0.0726925624565 0.791413722555 0)
(-0.0778653570636 0.639077175704 0)
(-0.0980274406279 0.553419225784 0)
(-0.120258975509 0.535114910986 0)
(0.0650478690375 1.51877841554 0)
(0.113385879059 1.62072299544 0)
(0.0811093108393 1.62960708582 0)
(0.0474867985791 1.6195830556 0)
(0.00853889693163 1.5583608218 0)
(-0.0375511182165 1.49025506856 0)
(-0.0921956069203 1.46812136126 0)
(-0.152539983628 1.47435222719 0)
(-0.213970145783 1.46708627106 0)
(-0.263008602168 1.36360294977 0)
(-0.280260237094 1.1760058775 0)
(-0.2639131962 1.03442548253 0)
(-0.229229065909 0.966985870601 0)
(-0.189702366501 0.929973903041 0)
(-0.151706754762 0.898456324462 0)
(-0.11813558385 0.84100755184 0)
(-0.0925720550799 0.732446269939 0)
(-0.0804470660523 0.594672220104 0)
(-0.0858067315593 0.506463650127 0)
(-0.103894399128 0.491333793665 0)
(0.0449907065143 1.2920376163 0)
(0.0795865480417 1.60969434139 0)
(0.0577369626605 1.67145653072 0)
(0.034869276965 1.68085957774 0)
(0.00575699425567 1.6498886074 0)
(-0.0372296341373 1.61263453127 0)
(-0.0912431153819 1.6045928143 0)
(-0.148201566275 1.60556463819 0)
(-0.200905111205 1.58072001077 0)
(-0.250236507244 1.43972716674 0)
(-0.271534026059 1.10996746477 0)
(-0.254951335664 0.92843675904 0)
(-0.223601640244 0.852202722159 0)
(-0.185581065505 0.813708710716 0)
(-0.146508065276 0.78698518657 0)
(-0.109933077183 0.742337200776 0)
(-0.0810189539848 0.656311301466 0)
(-0.0646173690209 0.541566277224 0)
(-0.0639227801476 0.464733731565 0)
(-0.0771961741749 0.452656315209 0)
(0.0333442539357 1.24826119017 0)
(0.0548142081596 1.65927560506 0)
(0.0326238814527 1.74530211915 0)
(0.0118098812417 1.76344763547 0)
(-0.0110418964694 1.76432569743 0)
(-0.0388192037157 1.76012145217 0)
(-0.07186183398 1.76077459231 0)
(-0.108202015937 1.7500367699 0)
(-0.140149712237 1.68469603427 0)
(-0.164319101411 1.52633626822 0)
(-0.171909662959 1.04519131018 0)
(-0.161200534348 0.840282532686 0)
(-0.142847209901 0.759125478936 0)
(-0.119312073827 0.719179606142 0)
(-0.0935403367355 0.692424372065 0)
(-0.0683546608316 0.656221376325 0)
(-0.0473605385031 0.587386584093 0)
(-0.0349634211889 0.495732753333 0)
(-0.0349869128166 0.434913121725 0)
(-0.046229559143 0.424944751754 0)
(0.0291345032329 1.29919040026 0)
(0.0460857462221 1.74229233567 0)
(0.0234439912455 1.83689027912 0)
(0.00258812459931 1.86136298283 0)
(-0.0198333590915 1.87563979241 0)
(-0.0460355104747 1.88746477684 0)
(-0.0766506578743 1.89706086633 0)
(-0.111465960999 1.88304522475 0)
(-0.145650367961 1.78241797276 0)
(-0.125293359873 1.42945014388 0)
(-0.0805109645618 0.994398020547 0)
(-0.0664466549558 0.793921233237 0)
(-0.0553644156824 0.709475445931 0)
(-0.044188555463 0.665383995934 0)
(-0.0328382262363 0.634320447315 0)
(-0.0213802235074 0.599712045982 0)
(-0.0106979351364 0.539433225841 0)
(-0.00436820410197 0.465999886579 0)
(-0.0064230351285 0.419355449294 0)
(-0.0164045692731 0.409945994241 0)
(0.0297708841392 1.36131600728 0)
(0.048710782554 1.82289565071 0)
(0.0289617141907 1.92215793252 0)
(0.0113645240516 1.95018024065 0)
(-0.00661991013854 1.97177469117 0)
(-0.026290353512 1.99287030968 0)
(-0.047705098803 2.00801167537 0)
(-0.0678132977288 1.98400745904 0)
(-0.0741395328539 1.83331786728 0)
(-0.0512713986843 1.24305236952 0)
(-0.0191898556488 0.94382213085 0)
(-0.00161933637017 0.773055139745 0)
(0.00688060975682 0.690603744464 0)
(0.011053244541 0.643387578127 0)
(0.0132525412978 0.60725520973 0)
(0.0155551285348 0.569552806388 0)
(0.0190128908288 0.512385385398 0)
(0.0209394708398 0.451357093177 0)
(0.0176209099399 0.415037782786 0)
(0.00896824326584 0.405533663787 0)
(0.0310048495577 1.40751709732 0)
(0.0533451078993 1.88344500944 0)
(0.0378382040411 1.98745562781 0)
(0.0245479720336 2.0185490597 0)
(0.0108638210846 2.04420996165 0)
(-0.00477032832503 2.07070069913 0)
(-0.0231729949316 2.09030042153 0)
(-0.0427276671306 2.05287405749 0)
(-0.0300328972137 1.75130487419 0)
(0.00316253364463 1.15811974957 0)
(0.0234858520707 0.907751320162 0)
(0.0374548918028 0.763650129571 0)
(0.0433903687718 0.684924113128 0)
(0.0442728304493 0.63654651071 0)
(0.0424425853911 0.597369396468 0)
(0.0407283662947 0.555521380725 0)
(0.0409651843936 0.499781485767 0)
(0.0407370694507 0.446742308864 0)
(0.0369954154572 0.417351063289 0)
(0.0294415480318 0.40790662586 0)
(0.0340022113672 1.42575688664 0)
(0.0625057699842 1.91192999264 0)
(0.0536666351361 2.02189330134 0)
(0.0476928439772 2.05614286535 0)
(0.0425356118251 2.08419937983 0)
(0.0373902329461 2.11374519818 0)
(0.0321065573261 2.13700106389 0)
(0.0292158717023 2.09096954318 0)
(0.037154705515 1.64869351951 0)
(0.047639162332 1.13550506387 0)
(0.0543813810551 0.894282613474 0)
(0.0614544723398 0.76003889462 0)
(0.0644456671431 0.68297469037 0)
(0.0637226440268 0.634203674019 0)
(0.060795744792 0.593868722654 0)
(0.058287675519 0.549388626494 0)
(0.057540577455 0.495379647069 0)
(0.056360857794 0.447863938968 0)
(0.0526700720712 0.423064725959 0)
(0.0460677361689 0.413890136511 0)
(0.0365642191425 1.41059711976 0)
(0.0707448198735 1.90217180535 0)
(0.0681304946993 2.01875043963 0)
(0.0687767806575 2.05584674481 0)
(0.0709320046819 2.08413338157 0)
(0.0736030882753 2.11328394385 0)
(0.076757818435 2.13587933482 0)
(0.0814678458826 2.08367645925 0)
(0.0847646799311 1.62662501997 0)
(0.0827888339422 1.15294962664 0)
(0.0805564408186 0.900987650555 0)
(0.0811907482141 0.762794430113 0)
(0.0810369517135 0.683586436048 0)
(0.0787889179535 0.633415731036 0)
(0.075517890603 0.592418163541 0)
(0.0728954468851 0.547327240638 0)
(0.0713849844723 0.495611605518 0)
(0.0695461447212 0.45230662502 0)
(0.0660067584649 0.430517576794 0)
(0.0601783475929 0.421718403438 0)
(0.0385180561164 1.3690119685 0)
(0.0766495360947 1.86083751619 0)
(0.0782968578749 1.98409780395 0)
(0.083658755461 2.02427477338 0)
(0.0909193567859 2.05282140782 0)
(0.0993489545723 2.08115455523 0)
(0.109157131648 2.1027946711 0)
(0.120352948301 2.05282406763 0)
(0.119865114874 1.6596694131 0)
(0.109026392542 1.19026472239 0)
(0.102482707561 0.923186475857 0)
(0.0994031543331 0.773614213597 0)
(0.0968931471348 0.688317583344 0)
(0.0935021381183 0.634857155747 0)
(0.0897322828721 0.592742885184 0)
(0.0864195366446 0.548161329001 0)
(0.0839007167808 0.498922348666 0)
(0.0814843957355 0.458911205036 0)
(0.0781288577452 0.439054472783 0)
(0.0729263196387 0.430681680705 0)
(0.0393189110089 1.31252874994 0)
(0.0793355031138 1.79933746167 0)
(0.0833080967758 1.92808231429 0)
(0.0912454697732 1.97150206755 0)
(0.101426859758 2.00026213008 0)
(0.113156295257 2.0272867629 0)
(0.126457439752 2.04723627514 0)
(0.14046483281 2.0044816006 0)
(0.14072701035 1.71752479274 0)
(0.128832683221 1.2361085652 0)
(0.120522459079 0.953543860327 0)
(0.115730462209 0.790614469637 0)
(0.112228813746 0.697166203915 0)
(0.10830756828 0.639073133105 0)
(0.103743311446 0.595276871742 0)
(0.0992368706726 0.55149016592 0)
(0.0956119695854 0.504674826019 0)
(0.0927361875655 0.467229826211 0)
(0.0896613370075 0.448655989967 0)
(0.0850347201114 0.440723089812 0)
(0.0393534742651 1.25164337796 0)
(0.079450749235 1.72924985356 0)
(0.0835453530505 1.86209367913 0)
(0.0917855343104 1.90877991445 0)
(0.10228526206 1.93846154859 0)
(0.114003333375 1.96504519926 0)
(0.126654015905 1.98462782432 0)
(-0.0285932072232 0.456435101966 0)
(-0.0277284323055 0.456414275271 0)
(-0.0266000926153 0.456310304252 0)
(-0.0252923268472 0.456154583123 0)
(-0.0234696892125 0.457191892437 0)
(-0.0184657801151 0.466934637219 0)
(-0.0129801853676 0.46953392136 0)
(-0.0105612870894 0.469687353466 0)
(-0.00900510987025 0.4698316017 0)
(-0.00756588402703 0.469933287666 0)
(-0.0062200161101 0.469716478291 0)
(-0.00497129381955 0.466119788615 0)
(-0.00390360640743 0.448635355964 0)
(-0.00303549580332 0.421267799576 0)
(-0.00218297788869 0.392652148346 0)
(-0.00106200670548 0.364116733977 0)
(-0.00019814679772 0.337522080322 0)
(-0.0183105481986 0.454823959788 0)
(-0.0232247425274 0.453575043741 0)
(-0.0250162231698 0.45303199377 0)
(-0.0254045086044 0.453004635985 0)
(-0.0250936776215 0.453189366755 0)
(-0.0244351204451 0.453282143781 0)
(-0.0236139156669 0.453184532389 0)
(-0.022608198462 0.453447209958 0)
(-0.019438722354 0.45943239401 0)
(-0.0140270364066 0.46682330182 0)
(-0.0104064512875 0.467048980403 0)
(-0.00887814507387 0.467272685586 0)
(-0.0074810575367 0.467438396222 0)
(-0.00614702492167 0.467270124858 0)
(-0.00486000932011 0.463681338622 0)
(-0.00375417407268 0.446236093187 0)
(-0.00291953559693 0.41892648813 0)
(-0.00214392492075 0.390185907578 0)
(-0.00115967622381 0.361474210438 0)
(-0.0002955366531 0.334796353068 0)
(-0.0114425623941 0.452614765558 0)
(-0.0176960774404 0.451200454723 0)
(-0.0204933788505 0.450554927597 0)
(-0.0216272663085 0.45050573325 0)
(-0.0218455580438 0.450750485945 0)
(-0.021593233768 0.450950834945 0)
(-0.0211644362524 0.450929790818 0)
(-0.0206450912166 0.45094147688 0)
(-0.019251428214 0.453384522715 0)
(-0.014543358933 0.464652234246 0)
(-0.0100541436409 0.464927268725 0)
(-0.008495163877 0.465187753019 0)
(-0.00718461024258 0.465381931742 0)
(-0.00590307586681 0.465232258978 0)
(-0.00461790363191 0.46161251178 0)
(-0.00350593514829 0.444161377482 0)
(-0.00272759011906 0.416890439081 0)
(-0.00205321184461 0.388002963083 0)
(-0.00123156259292 0.359068830045 0)
(-0.000387227860089 0.332235376087 0)
(-0.00505212453334 0.451390505827 0)
(-0.0121552110224 0.449736975706 0)
(-0.0157636699698 0.448931413052 0)
(-0.0175679632838 0.448784901123 0)
(-0.0182919574919 0.449013857985 0)
(-0.0183961206737 0.449262402253 0)
(-0.0182689968206 0.449306149943 0)
(-0.0181064476904 0.449260566011 0)
(-0.017758423386 0.450116878306 0)
(-0.0143808915189 0.461584834355 0)
(-0.00999659650209 0.463359125187 0)
(-0.00809939439682 0.463629862657 0)
(-0.00687379327664 0.463824556835 0)
(-0.00564590873183 0.463669962759 0)
(-0.00436258024293 0.4599814226 0)
(-0.00324137744082 0.442471799626 0)
(-0.00251607467475 0.415217913692 0)
(-0.00194563936634 0.386166652213 0)
(-0.00130926936974 0.356968093154 0)
(-0.000491290276212 0.329905589233 0)
(0.00106574097756 0.450383910925 0)
(-0.00643659504554 0.448610398986 0)
(-0.0106630140578 0.447756985394 0)
(-0.0130815387484 0.447577045129 0)
(-0.0143332282702 0.447815099969 0)
(-0.0148195006809 0.448119648844 0)
(-0.0149717139892 0.448240596048 0)
(-0.0150888451127 0.448230568022 0)
(-0.015205952191 0.448660403783 0)
(-0.013737743365 0.456785529246 0)
(-0.0103440213077 0.462298099852 0)
(-0.00786253955738 0.462568489373 0)
(-0.00668360080671 0.462751928497 0)
(-0.00548215335846 0.46258050854 0)
(-0.00417636064201 0.458789939985 0)
(-0.00302344519084 0.441165116233 0)
(-0.00233294807179 0.413906657995 0)
(-0.00185512159198 0.384679789953 0)
(-0.00140992189652 0.355180812019 0)
(-0.000611861979191 0.327818037901 0)