/*--------------------------------*- C++ -*----------------------------------*\
| =========                 |                                                 |
| \\      /  F ield         | OpenFOAM: The Open Source CFD Toolbox           |
|  \\    /   O peration     | Version:  2312                                  |
|   \\  /    A nd           | Website:  www.openfoam.com                      |
|    \\/     M anipulation  |                                                 |
\*---------------------------------------------------------------------------*/
FoamFile
{
    version     2.0;
    format      ascii;
    arch        "LSB;label=32;scalar=64";
    class       volScalarField;
    location    "0.2/water";
    object      d.gas;
}
// * * * * * * * * * * * * * * * * * * * * * * * * * * * * * * * * * * * * * //

dimensions      [0 1 0 0 0 0 0];

internalField   nonuniform List<scalar> 
750
(
0.00497436191398
0.00497436807253
0.0049743736154
0.00497437461589
0.0049743753724
0.00497437552928
0.0049743755201
0.00497437548133
0.00497437544739
0.00497437542126
0.00497437539905
0.0049743753793
0.00497437536089
0.00497437534176
0.00497437532119
0.00497437530116
0.00497437528006
0.00497437525803
0.00497437524267
0.00497437526441
0.00497425273303
0.00497417150725
0.00497423321393
0.00497423819626
0.00497424585857
0.00497425209892
0.00497425307389
0.00497425202148
0.00497425196861
0.00497425189834
0.00497425185022
0.00497425182327
0.00497425180777
0.00497425179387
0.00497425177903
0.00497425176375
0.00497425174924
0.00497425174032
0.00497425174561
0.00497425176
0.00497429190682
0.00497418131544
0.00497425503231
0.0049742608903
0.00497443145217
0.00497486718423
0.00497494531922
0.00497416512246
0.00497416306954
0.00497416236059
0.00497416229388
0.00497416229737
0.00497416229397
0.00497416228159
0.00497416225432
0.00497416221798
0.00497416219091
0.00497416217537
0.00497416217231
0.00497416254698
0.00497412172846
0.00497395078676
0.00497416398492
0.00497425839424
0.00497429848769
0.0049746761885
0.00497539805065
0.00497450293767
0.00497412718122
0.00497412566458
0.00497412538875
0.00497412539519
0.00497412540875
0.00497412540069
0.00497412535432
0.00497412527636
0.00497412517837
0.00497413080469
0.00497413661383
0.00497414430632
0.0049748132395
0.00497420892181
0.0049743749867
0.00497446407914
0.00497453365616
0.0049747410649
0.00497473762107
0.00497437960805
0.00497437828172
0.00497437776621
0.0049743776965
0.00497437769786
0.00497437770433
0.00497437769295
0.00497437766266
0.00497437805649
0.00497440831243
0.00497440720365
0.00497440559749
0.00497441082551
0.00497502812892
0.00497473062069
0.00497489055209
0.00497500364034
0.00497507273897
0.00497497774006
0.00497491019704
0.00497490945428
0.00497490919426
0.00497490914891
0.00497490916637
0.00497490921509
0.00497490925919
0.00497490931112
0.00497490935001
0.00497490940129
0.00497497169489
0.00497501356356
0.00497499028815
0.00497496926763
0.00497564413283
0.00497540088398
0.00497549360899
0.00497557958038
0.00497561884248
0.00497556506225
0.00497549251841
0.00497552408078
0.00497553802541
0.00497553800862
0.00497553802321
0.00497553807615
0.00497553829329
0.00497553841597
0.00497553853849
0.00497553870536
0.00497552091574
0.00497551225416
0.00497553536354
0.00497557727522
0.0049793722625
0.00497906880804
0.00497890019956
0.00497868478366
0.00497852087269
0.00497843305527
0.00497833119315
0.00497848016521
0.00497908257855
0.00498063534711
0.00498101612377
0.00497851844048
0.00497818286075
0.00497818153199
0.00497818197958
0.00497818323416
0.00497814314049
0.00497805849899
0.0049779966315
0.00497798895244
0.00498126928343
0.00498102940666
0.00498112474759
0.00498141150094
0.00498154193221
0.00498165740878
0.00498177484097
0.0049817435244
0.0049817399083
0.00498175022297
0.00498191927852
0.00498244530275
0.00498382607568
0.00498462168043
0.00498243300617
0.00498179529071
0.00498179401036
0.00498179405618
0.00498179414567
0.00498178487168
0.00498332971192
0.00498293421356
0.00498288672413
0.0049829614439
0.00498292788994
0.0049829111908
0.00498288741477
0.0049828657109
0.0049828402222
0.00498288891614
0.00498311674377
0.00498347577522
0.00498350737637
0.00498297557468
0.0049828654163
0.00498286802674
0.00498286728535
0.00498286410428
0.00498286048579
0.00498285756721
0.00498469797686
0.00498461923719
0.00498497707635
0.00498501929684
0.00498457619216
0.00498454516074
0.00498454442713
0.00498454424297
0.00498457485735
0.00498461835057
0.00498463803581
0.00498465169501
0.0049846968439
0.00498475102578
0.00498477590766
0.00498479112778
0.00498480650045
0.00498481958221
0.00498483356615
0.00498485358491
0.00498634322973
0.00498586913684
0.00498588803167
0.00498587521613
0.00498587474483
0.00498587451943
0.00498587447829
0.00498587449965
0.0049858745746
0.00498587464791
0.00498587469767
0.00498587470782
0.00498587467055
0.00498587462319
0.00498587463387
0.00498587470567
0.00498587485438
0.0049858750998
0.00498587736904
0.00498587746506
0.00498585311579
0.00498585462217
0.00498585497957
0.00498585499845
0.00498585499659
0.00498585500746
0.00498585502453
0.00498585504713
0.00498585506917
0.0049858550938
0.00498585511388
0.004985855125
0.00498585513097
0.00498585514018
0.00498585515831
0.00498585519095
0.00498585523467
0.00498585528191
0.00498585533345
0.00498582693755
0.00498582812126
0.00498582840424
0.00498582842274
0.00498582842717
0.0049858284331
0.00498582844012
0.00498582844554
0.00498582844892
0.00498582845008
0.0049858284491
0.00498582844549
0.00498582844034
0.00498582843624
0.00498582843735
0.0049858284446
0.0049858284586
0.00498582847789
0.00498582850147
0.00498585172215
0.00498585358559
0.00498585403728
0.00498585406458
0.00498585406653
0.00498585407058
0.00498585407543
0.00498585407991
0.00498585408231
0.00498585408186
0.00498585407971
0.00498585407679
0.00498585407233
0.00498585407354
0.00498585408727
0.00498585412446
0.00498585417013
0.00498585419654
0.00498585420922
0.00498587976306
0.00498588109255
0.00498588141288
0.00498588143056
0.00498588142984
0.00498588142946
0.00498588142821
0.00498588142483
0.00498588141725
0.00498588140378
0.00498588138703
0.00498588138246
0.00498588236485
0.00498588419968
0.00498588634353
0.00498588793399
0.00498588830239
0.00498588832504
0.00498588831661
0.00498591479177
0.00498591549396
0.00498591566062
0.00498591566826
0.00498591566653
0.00498591566507
0.00498591566262
0.00498591565691
0.00498591564346
0.00498591561654
0.00498591782313
0.00498592113188
0.00498592351127
0.00498592964646
0.004985939742
0.00498594252693
0.00498593076545
0.00498592267013
0.00498592255835
0.00498598953676
0.00498599014919
0.00498599029383
0.00498599029993
0.0049859902972
0.00498599029419
0.00498599028952
0.00498599028034
0.00498599026186
0.00498599023259
0.00498599007799
0.00498598698676
0.00498598143109
0.00498597611415
0.00498597174764
0.00498597167397
0.00498598242166
0.00498599581323
0.00498597262833
0.00498609795402
0.00498609839178
0.00498609849478
0.00498609849879
0.00498609849621
0.00498609849347
0.0049860984904
0.00498609848654
0.00498609848047
0.0049860984697
0.00498609845522
0.00498609873123
0.0049860964339
0.00498609232913
0.0049860890141
0.00498608668734
0.0049860857037
0.00498609189737
0.00498610597491
0.00498598096206
0.00498598119626
0.00498598125316
0.00498598125529
0.00498598125297
0.00498598125031
0.0049859812478
0.00498598124564
0.00498598124399
0.00498598124318
0.00498598124137
0.00498598122939
0.00498598274118
0.00498598185102
0.00498598007962
0.00498597918807
0.00498597867381
0.00498597898094
0.00498598432417
0.00498593974383
0.00498594002775
0.00498594009936
0.00498594010246
0.00498594009945
0.00498594009582
0.0049859400922
0.004985940089
0.00498594008719
0.00498594008856
0.00498594011078
0.00498594018422
0.00498594889756
0.00498595486091
0.00498594930045
0.00498594553337
0.00498594467882
0.00498594482032
0.00498594614118
0.00498591555618
0.00498591879744
0.00498591964711
0.00498591983507
0.00498592006441
0.00498592032729
0.00498592053615
0.00498592061588
0.00498592063625
0.00498592065231
0.0049859206523
0.00498592063999
0.00498592063594
0.00498592128629
0.00498592331381
0.00498592645413
0.00498593001612
0.00498593368943
0.00498593704324
0.00498589881852
0.00498587548309
0.00498593791131
0.00498591982471
0.00498591330979
0.00498591169848
0.00498591126393
0.00498592569835
0.00498598898861
0.00498607100056
0.004985977443
0.00498591631314
0.0049859157889
0.0049859156512
0.00498591563223
0.00498591561168
0.00498591558241
0.00498591555867
0.00498591721421
0.00498592445495
0.00498591849897
0.00498583468167
0.0049859326974
0.00498592391369
0.00498591868926
0.00498591921485
0.00498591856828
0.0049859143506
0.00498591230556
0.00498594829352
0.00498605200365
0.00498616019753
0.00498599041666
0.00498590250848
0.00498590192587
0.00498590175917
0.00498590174173
0.00498590337591
0.00498590881621
0.00498591653182
0.00498589404573
0.00498579983895
0.00498588537858
0.00498588669928
0.00498588950526
0.00498589270099
0.00498589473146
0.00498589470934
0.00498589306993
0.00498589579955
0.0049859203742
0.00498596283004
0.00498595422242
0.00498591106849
0.00498591072155
0.00498591056651
0.00498591054042
0.00498591056422
0.00498591200873
0.00498591572667
0.00498591435335
0.00498581917651
0.00498589164475
0.00498589467411
0.00498589951912
0.00498590533366
0.00498591157176
0.00498591789407
0.0049859255815
0.00498593796885
0.00498594899731
0.00498594512025
0.00498593793352
0.00498593777195
0.00498593767232
0.00498593764108
0.00498593763613
0.00498593763877
0.00498593765214
0.00498593767048
0.0049859703237
0.00498580709869
0.0049859203592
0.00498591626277
0.00498591491764
0.00498592564186
0.00498595497352
0.00498598841203
0.0049859694427
0.00498592909457
0.00498592872948
0.00498592853041
0.00498592845334
0.0049859284252
0.00498592841617
0.00498592841459
0.00498592841526
0.00498592841671
0.00498592841884
0.00498592842589
0.00498595345012
0.00498584014415
0.00498595212342
0.00498595929316
0.00498594478293
0.00498599856029
0.00498628311101
0.00498649253916
0.00498593071146
0.00498592897905
0.00498592820154
0.00498592807602
0.00498592806788
0.00498592806947
0.00498592807049
0.00498592807271
0.00498592807363
0.00498592807511
0.00498592807549
0.00498592808296
0.00498608545962
0.00498587184329
0.00498601041342
0.004986038989
0.00498602444118
0.00498606569963
0.00498643757831
0.00498724767893
0.00498706743536
0.00498593782053
0.00498593574802
0.00498593508095
0.00498593502111
0.00498593502503
0.00498593503045
0.00498593503426
0.00498593503786
0.00498593503909
0.0049859350394
0.0049859350397
0.00498606472019
0.00498564854856
0.00498589928796
0.00498595217004
0.00498594428153
0.00498593763159
0.00498595275737
0.00498607517613
0.00498626231965
0.0049860635396
0.00498594456693
0.00498594385699
0.00498594366291
0.0049859436384
0.00498594363693
0.00498594363716
0.00498594363724
0.00498594363723
0.00498594363668
0.00498594363625
0.00498612569159
0.00498565809042
0.0049858901656
0.00498592017682
0.00498593334862
0.00498595607909
0.00498599611795
0.00498603420306
0.00498600071541
0.00498597721622
0.00498597682535
0.00498597666546
0.00498597663061
0.00498597662418
0.00498597661915
0.00498597661413
0.00498597661011
0.0049859766077
0.00498597660288
0.00498597658777
0.00498603611932
0.00498577219244
0.00498591068103
0.00498594371771
0.00498594151024
0.00498593653093
0.00498591890907
0.00498589365307
0.00498590558745
0.00498594860457
0.00498597962089
0.00498598682864
0.0049859868462
0.00498598681239
0.00498598679258
0.0049859867895
0.00498598679109
0.00498598679555
0.00498598680827
0.00498598697497
0.00498608614474
0.00498599133943
0.00498603752271
0.00498607409528
0.00498606459573
0.00498607247865
0.00498608127152
0.00498609034113
0.00498609721158
0.00498629667568
0.00498695771524
0.00498717644489
0.00498601052336
0.00498596670545
0.00498596589962
0.00498596582441
0.00498596580089
0.00498596574359
0.0049859657391
0.00498596806061
0.00498625207396
0.00498606810978
0.0049861246911
0.00498618653939
0.00498617457739
0.0049861782282
0.00498617609271
0.00498617634081
0.00498617572667
0.00498617588546
0.00498619207691
0.00498623279773
0.00498630252687
0.00498670229473
0.00498777070676
0.00498780821642
0.004985953274
0.00498595048282
0.00498595316379
0.00498597565949
0.00498647332715
0.00498590867819
0.00498614573424
0.00498629678309
0.00498630396788
0.00498630181535
0.00498629068851
0.00498629026652
0.00498628797618
0.00498628424173
0.0049862705164
0.00498623400266
0.00498620747563
0.00498632015155
0.00498665880668
0.00498693339126
0.00498655158074
0.00498634335022
0.00498634775596
0.00498640362165
0.00499025472239
0.0049901467838
0.00499081627141
0.0049905090508
0.00498981981177
0.00498981786813
0.00498981744205
0.00498996446013
0.00499016211576
0.00499008296648
0.00499001447619
0.00498998699542
0.00498996560029
0.00498995064525
0.00498993688161
0.00498992283125
0.00498990850998
0.00498990665235
0.0049899266493
0.0049899617218
0.00499774108707
0.00499704191169
0.00499705342373
0.00499705143576
0.00499705080248
0.00499705064249
0.00499705079215
0.00499705121514
0.00499705237529
0.00499706310496
0.00499710491435
0.00499715185998
0.00499710158698
0.00499701837345
0.00499694678748
0.00499688278601
0.00499682247809
0.00499676453115
0.00499671938332
0.00499668402133
0.00499994618415
0.00499994945043
0.00499995018132
0.00499995011637
0.00499995010025
0.00499995009812
0.00499995014767
0.0049999349526
0.00499985727394
0.00499977953868
0.00499973567582
0.00499970498814
0.00499970708068
0.00499972450622
0.00499974006384
0.00499976704227
0.00499983492285
0.00499997894922
0.00500026630564
0.00500014286557
)
;

boundaryField
{
    emptyPatch
    {
        type            empty;
    }
    minY
    {
        type            calculated;
        value           nonuniform List<scalar> 0();
    }
    maxY
    {
        type            calculated;
        value           uniform 0.005;
    }
    maxX
    {
        type            calculated;
        value           nonuniform List<scalar> 0();
    }
    water_to_heater
    {
        type            calculated;
        value           nonuniform List<scalar> 
61
(
0.00497432778798
0.0049743957018
0.00497422392547
0.00497433840911
0.00497429176992
0.00497412159033
0.0049746879887
0.00497485478364
0.00497493642352
0.00497511953906
0.00497559628735
0.00497578711045
0.00497937213048
0.00498126914024
0.00498318351528
0.00498337825803
0.00498460076939
0.00498479488339
0.00498630530387
0.00498645609985
0.00498585299856
0.0049858268393
0.00498581779854
0.0049858628623
0.00498585895595
0.00498590036114
0.00498590580703
0.0049859414068
0.004985989455
0.00498609787878
0.00498596034092
0.00498598774231
0.00498592531498
0.0049859540254
0.00498589960482
0.00498596244105
0.00498589856665
0.00498591825341
0.00498579830976
0.0049859255866
0.00498585859321
0.0049859695132
0.00498593406435
0.00498607799048
0.00498595322237
0.00498608523036
0.00498594488217
0.00498610431652
0.00498604569395
0.00498620514718
0.00498599015694
0.00498617303515
0.00498608593741
0.00498625186378
0.00498633262197
0.00498651991565
0.00499015981025
0.00499034914536
0.0049977055578
0.00499784614541
0.00499994582646
)
;
    }
    procBoundary3to0
    {
        type            processor;
        value           nonuniform List<scalar> 
20
(
0.00497435480642
0.00497436271828
0.0049743694546
0.00497437026683
0.00497437060186
0.00497437015931
0.00497436946162
0.00497436899403
0.00497436895942
0.00497436922067
0.00497436948377
0.00497436966041
0.00497436981583
0.00497437001949
0.00497437012752
0.00497437009462
0.0049743700693
0.00497437021382
0.00497437048311
0.00497437057029
)
;
    }
    procBoundary3to1
    {
        type            processor;
        value           uniform 0.00497437559229;
    }
    procBoundary3to2
    {
        type            processor;
        value           nonuniform List<scalar> 
39
(
0.00497425250791
0.00497417200803
0.00497421063278
0.00497443346475
0.00497492341315
0.0049758039182
0.00497799348868
0.0049816443429
0.00498282842439
0.0049849741821
0.00498585553046
0.0049858548292
0.00498585553046
0.0049858285321
0.00498585423848
0.00498588831507
0.00498592252786
0.00498594537847
0.00498609958981
0.00498599012157
0.00498595162543
0.00498594590135
0.00498594590135
0.0049859867647
0.00498594250964
0.00498593648388
0.00498593770962
0.00498592845075
0.00498592815351
0.00498593507667
0.00498594365598
0.00498597899978
0.00498599141999
0.00498600899269
0.0049862227064
0.00498671757407
0.00499013903883
0.00499638846387
0.0049992769826
)
;
    }
}


// ************************************************************************* //
