/*--------------------------------*- C++ -*----------------------------------*\
| =========                 |                                                 |
| \\      /  F ield         | OpenFOAM: The Open Source CFD Toolbox           |
|  \\    /   O peration     | Version:  2312                                  |
|   \\  /    A nd           | Website:  www.openfoam.com                      |
|    \\/     M anipulation  |                                                 |
\*---------------------------------------------------------------------------*/
FoamFile
{
    version     2.0;
    format      ascii;
    arch        "LSB;label=32;scalar=64";
    class       volScalarField;
    location    "0.29/water";
    object      T.gas;
}
// * * * * * * * * * * * * * * * * * * * * * * * * * * * * * * * * * * * * * //

dimensions      [0 0 0 1 0 0 0];

internalField   nonuniform List<scalar> 
1497
(
300.614561076
300.456313096
300.360118121
300.288081544
300.221353265
300.158292522
300.102722951
300.058202706
300.028235483
300.011894715
300.004502248
300.001578244
300.000497656
427.408986355
341.143293855
314.362903321
305.845656472
302.833251176
301.598354947
300.988563027
300.65996571
300.479691095
300.372830276
300.296193198
300.22758038
300.164627474
300.109345136
300.064326136
300.03271705
300.014498504
300.005744017
300.002098093
300.000684524
427.766186734
337.422663956
313.146682378
305.600055121
302.816949564
301.608864095
300.996193423
300.665087842
300.482671824
300.374083543
300.296090497
300.227049467
300.165838746
300.112306531
300.068119845
300.036081665
300.016630256
300.006814649
300.002552325
300.000848067
426.737450786
334.516738496
311.122703686
304.763368368
302.470506122
301.447614481
300.918467983
300.628336564
300.464531321
300.363405715
300.287206045
300.220622806
300.162752637
300.112292183
300.070176768
300.03852487
300.018376238
300.007697734
300.002923588
300.000975606
423.131707741
336.686163787
309.629455397
303.741989284
301.951607825
301.187973832
300.790652004
300.566071719
300.43251829
300.343604894
300.271489175
300.21044993
300.15733519
300.110978358
300.071524072
300.040790169
300.020068675
300.008591773
300.003273254
300.001097306
417.489317633
342.212364812
310.139447818
303.132410842
301.514856371
300.946446097
300.665501383
300.501932423
300.396976674
300.318517636
300.25412841
300.199620945
300.15211302
300.110164303
300.073688739
300.043883146
300.022314486
300.009639258
300.003651015
300.001226756
411.062705868
345.007039084
312.535401516
303.263934417
301.30913136
300.790273306
300.574238817
300.449937266
300.363502073
300.295521543
300.239619514
300.191736252
300.14974944
300.11185414
300.077585635
300.048016395
300.025187101
300.010967005
300.004132841
300.001387354
402.290335466
343.570647955
313.967137479
303.694162089
301.285151447
300.715461823
300.518644103
300.413316914
300.339341215
300.280384501
300.231471913
300.189189839
300.151323472
300.116218934
300.083323481
300.053409164
300.028799809
300.012646665
300.00473424
300.001579443
392.572614117
340.863116951
314.704075322
304.24712592
301.408681213
300.716713387
300.499598815
300.39595133
300.327470601
300.274600045
300.230935769
300.19264626
300.157424559
300.123820295
300.091355822
300.060517708
300.033687419
300.015012616
300.00558457
300.001839038
387.959781365
340.715271518
316.933550664
306.026244868
302.10096699
300.904794732
300.535476229
300.398644411
300.330247138
300.281440753
300.240851355
300.204340297
300.169723521
300.1358994
300.102500049
300.069907715
300.040243213
300.018368848
300.006862292
300.002255106
397.080073529
350.27022117
325.081724441
310.643439668
303.947244626
301.460358019
300.667372268
300.434029324
300.354195339
300.30345903
300.262240137
300.224580032
300.188252787
300.152370507
300.11662117
300.081335888
300.048281991
300.022620541
300.008525648
300.002807738
442.168723877
370.899401655
332.712916945
313.647705492
305.164258802
301.914894482
300.831234783
300.501234549
300.392104469
300.334196503
300.289929975
300.249098578
300.20956408
300.170821278
300.132458384
300.09415017
300.057469492
300.027722979
300.010638275
300.003545177
513.455591261
380.838557515
331.929877893
312.267528114
304.618993213
301.831022559
300.873173507
300.552454729
300.431302123
300.365531741
300.31705009
300.272183001
300.228913864
300.18722966
300.146803053
300.106604
300.066970796
300.033498404
300.013328558
300.00459279
538.66073025
380.425844659
327.297738744
309.323247972
303.431976243
301.487071714
300.812961114
300.563052132
300.452543991
300.387195813
300.338250014
300.29035398
300.24407749
300.200108376
300.158222856
300.117131968
300.07584289
300.039768778
300.016789263
300.006096135
542.67688979
373.599544497
321.476925754
306.55456516
302.407345647
301.166076453
300.734754029
300.557016125
300.46247188
300.401365934
300.352055558
300.302247295
300.25410938
300.208745329
300.166009551
300.124465559
300.082471686
300.04507086
300.020144291
300.007747765
540.843524619
369.525017252
318.825660316
305.217388451
301.858293861
300.976510527
300.688504454
300.553777026
300.471390967
300.412546105
300.35992698
300.308558457
300.25945895
300.213478347
300.170375263
300.12848126
300.086107695
300.048569387
300.0227852
300.009252018
522.136257717
371.297827806
321.123083814
306.005064526
301.962496521
300.965188447
300.684308317
300.559098828
300.48089791
300.419790814
300.364331764
300.311561299
300.26185472
300.215582637
300.172143841
300.12934717
300.086928233
300.050167206
300.024347364
300.010388867
488.097562435
368.939005843
323.033434472
307.342560156
302.483173683
301.135605012
300.750881481
300.586054643
300.493722468
300.426129101
300.367321077
300.313067472
300.262700906
300.215868333
300.171137518
300.127020733
300.085553546
300.049997372
300.024778651
300.011157215
468.899587126
357.990258383
320.643192993
307.48827857
302.858918054
301.363699774
300.869031901
300.636441669
300.512946741
300.433173189
300.369772782
300.313702782
300.262100531
300.213321201
300.166531689
300.122582716
300.082365328
300.04808684
300.024499238
300.011480966
460.384979091
347.558593783
316.96316072
306.880267686
303.014091063
301.575387053
300.991411066
300.691780459
300.533895772
300.439807498
300.37115115
300.312371985
300.257820925
300.206882471
300.159577464
300.116354237
300.077544315
300.045566275
300.02395131
300.01136759
456.079621062
344.537429091
315.232294376
306.333005922
303.040648004
301.691881837
301.051490414
300.719072354
300.543501576
300.441277114
300.368509922
300.305641244
300.249178203
300.197480446
300.150619638
300.108803449
300.07226497
300.043688784
300.02301055
300.010821763
453.727942156
344.156891741
314.161608228
305.734060281
302.821172906
301.608680542
301.01463384
300.701991535
300.533563565
300.433068713
300.357647597
300.293685319
300.236925346
300.185862289
300.140507959
300.101041775
300.068891314
300.041911666
300.021836067
300.010001516
452.45830695
343.441605913
312.818404132
304.864076112
302.389770663
301.397027882
300.911840908
300.652963538
300.507994183
300.414678799
300.340263469
300.277876647
300.222505825
300.173337532
300.131406548
300.096810658
300.066597826
300.040371163
300.020579156
300.009166256
451.653333627
346.145304134
313.000637688
304.354946733
302.001725685
301.17526302
300.797261275
300.595524686
300.475538917
300.38939287
300.320446154
300.260875343
300.208491828
300.164169093
300.12722515
300.094923172
300.065369659
300.039093672
300.01944282
300.008603337
440.611663613
347.757280865
314.120245276
304.387261992
301.786977808
301.008724756
300.701049273
300.541650554
300.440006022
300.364150403
300.300854015
300.245917518
300.199984884
300.160752481
300.126843036
300.095356549
300.065375145
300.038462339
300.018872658
300.008458572
415.605558302
343.97316005
314.259004027
304.398504707
301.617798285
300.872967946
300.61904774
300.492462572
300.40866007
300.341983095
300.286308253
300.239372727
300.198659006
300.163140638
300.130174519
300.098177788
300.066915348
300.039094718
300.019286359
300.008930851
392.942756557
337.546486923
312.810290004
303.753856779
301.284478196
300.728516254
300.551611517
300.45571443
300.386204051
300.330907184
300.284085446
300.242661076
300.205439121
300.17078268
300.137231289
300.103688241
300.070792075
300.041807339
300.021127294
300.010099917
383.236094076
335.494730685
312.301715265
303.121134204
301.06817134
300.660978897
300.525153453
300.445514869
300.38633109
300.33776392
300.295129969
300.25603776
300.219142392
300.18334619
300.147823142
300.112193796
300.077344192
300.046538754
300.024163405
300.011837748
397.417707598
347.308994195
318.302216679
305.129447185
301.47836062
300.742825307
300.555621878
300.469646784
300.410213584
300.361805126
300.318786032
300.278465404
300.239333145
300.200655679
300.162141863
300.123806597
300.086543019
300.053218282
300.028375933
300.014166221
465.599432584
370.275918207
327.532968787
309.158409028
302.857500852
301.064798303
300.649450972
300.522049473
300.452910639
300.400034369
300.352284225
300.307109302
300.26355903
300.220947936
300.178948916
300.137691364
300.097671988
300.061400796
300.033612758
300.01707546
541.175939919
387.040015637
333.134656791
311.700666753
303.962872606
301.491568602
300.797813052
300.590705831
300.500150763
300.438507735
300.38479846
300.334364511
300.286273759
300.240164599
300.195362493
300.151478773
300.108965409
300.069984638
300.039359923
300.020417119
568.47815268
394.317114739
334.651171369
312.273197687
304.326373285
301.707585022
300.903945686
300.646084854
300.536520468
300.467070816
300.408120739
300.353535064
300.302139722
300.253620717
300.207312497
300.162212117
300.118093035
300.077281176
300.044724842
300.023840011
574.539230503
391.668430673
331.848681831
310.983430239
303.905815285
301.626629197
300.907581982
300.660694064
300.549198628
300.477383749
300.418917755
300.362882591
300.309874093
300.260196077
300.213275902
300.16799056
300.12326223
300.081777887
300.048542184
300.026440478
566.290512349
381.934374743
326.729704618
308.829079096
303.171980648
301.412656036
300.850085841
300.644720751
300.541859607
300.474937368
300.41816156
300.36218347
300.308981304
300.259193235
300.212385168
300.167410057
300.122715118
300.08150258
300.048750166
300.026793054
551.319116961
370.21809788
320.6907685
306.356383293
302.314211758
301.15350901
300.777782189
300.622910423
300.530913845
300.468125002
300.409967182
300.35407303
300.301323412
300.252071187
300.205826659
300.161089893
300.116379298
300.076420612
300.04530353
300.024704785
543.729879057
363.241340821
316.724916234
304.698087167
301.758508861
300.995645389
300.731358588
300.602466727
300.522052597
300.457698389
300.398168004
300.342189561
300.290013202
300.241510183
300.195695095
300.150099388
300.106078536
300.068151847
300.039612905
300.02113441
546.865550819
363.800242237
317.054729216
304.600933048
301.630414713
300.933981262
300.706833776
300.595146732
300.517104766
300.449510868
300.387527728
300.330588526
300.278395342
300.230005746
300.182970597
300.136611324
300.094379085
300.059131895
300.033526804
300.017386669
508.605814544
366.846301637
322.811949013
307.282636162
302.497141117
301.195460026
300.776153172
300.616706226
300.52326866
300.447897873
300.381329656
300.321928049
300.26834231
300.217876512
300.169070514
300.123870617
300.083757265
300.051310052
300.028516544
300.014228082
300.000124152
300.000023772
300.00000528
300.000001683
300.00000047
300
300
300
300.000001811
300.000007463
300.000013039
300.000017814
300.000022362
300.000026744
300.000028704
300.000028936
300.000028542
300.000027937
300.000027664
300.000025567
300.000177633
300.00003424
300.000006655
300.000001053
300
300
300
300
300.000001986
300.000008283
300.000014801
300.000020754
300.000027055
300.000032501
300.000033727
300.000032322
300.000030322
300.000028667
300.000027977
300.000025033
300.000226649
300.000043797
300.000008048
300.000000715
300
300
300
300
300.000002606
300.000010519
300.00001965
300.000028785
300.00003754
300.000044065
300.000043724
300.00003887
300.000032687
300.000028351
300.000026698
300.000023403
300.000268243
300.000051662
300.000009161
300.000000607
300
300
300
300
300.00000346
300.000013291
300.000025832
300.000039
300.000049948
300.00005666
300.000056841
300.000048694
300.000036514
300.00002765
300.000023893
300.000022408
300.000305962
300.000058451
300.000009893
300.000000659
300
300
300
300
300.000004401
300.000016013
300.000031339
300.000047622
300.000060526
300.000066805
300.000066458
300.000058393
300.000043291
300.000027778
300.000022467
300.000021503
300.000347034
300.000066434
300.000010191
300.000000853
300
300
300
300
300.000006124
300.000019931
300.000037764
300.000055958
300.00006969
300.000075188
300.000072677
300.000063678
300.000049851
300.000028825
300.000022227
300.000020548
300.000398146
300.000080853
300.000010082
300.000001215
300
300
300
300.000000221
300.000010101
300.000027134
300.000047397
300.000066641
300.00007926
300.00008228
300.000076138
300.000065102
300.000049932
300.000027822
300.000021185
300.000018765
300.000456787
300.000100359
300.000012246
300.000001703
300
300
300
300.000004014
300.000018379
300.000039345
300.000061739
300.000079896
300.000088799
300.000086582
300.000074968
300.000061009
300.000043995
300.000024132
300.000019486
300.000017219
300.00053365
300.000126321
300.000019025
300.000001958
300.000000222
300
300.000001659
300.00001211
300.000032388
300.000057479
300.000080093
300.000094353
300.000096637
300.000087613
300.000070867
300.000054403
300.000035241
300.000022269
300.000019201
300.000018239
300.000663119
300.000166903
300.000032689
300.000003642
300.00000098
300.000000835
300.000007928
300.000025909
300.000052921
300.000080819
300.000100788
300.000107947
300.000101934
300.000085818
300.000065063
300.000046589
300.000029139
300.000020728
300.000018847
300.000018219
300.00084781
300.000235177
300.000058154
300.000011972
300.000003465
300.000005714
300.000019857
300.000046595
300.000079776
300.000107638
300.000121413
300.000119492
300.000104576
300.000082051
300.000058525
300.000039577
300.000024743
300.00001914
300.00001805
300.000017441
300.001109075
300.000339843
300.000103346
300.00003177
300.000013334
300.000017853
300.000039987
300.000075299
300.00011199
300.000135844
300.000140489
300.00012809
300.000104554
300.000076879
300.000051726
300.000033232
300.000020749
300.000017553
300.000017193
300.000016541
300.001514994
300.000509294
300.000179089
300.000069008
300.000035897
300.000041231
300.000071403
300.000113097
300.000148946
300.000164813
300.000157496
300.000133481
300.000101753
300.000070036
300.000044214
300.00002677
300.000016924
300.000016035
300.000016182
300.000015492
300.00211622
300.000764026
300.000297958
300.000131516
300.000077192
300.000080314
300.000116314
300.000160644
300.000190773
300.000194235
300.000172667
300.000136267
300.000096551
300.000061472
300.000035574
300.000019879
300.000013219
300.000014602
300.000015738
300.000015137
300.002862284
300.001114799
300.000473248
300.000229244
300.000145069
300.000141295
300.00017785
300.000218614
300.000236697
300.00022289
300.00018476
300.000136119
300.00008909
300.000051464
300.000025972
300.000012498
300.000009431
300.000013407
300.000016421
300.000016089
300.003662411
300.001540934
300.000705799
300.000368435
300.000247939
300.000233427
300.00026316
300.000290585
300.000287574
300.000250537
300.000193053
300.000132303
300.000079731
300.000040363
300.000015143
300.000004214
300.000004431
300.000013473
300.000019877
300.000019634
300.004399891
300.001977697
300.000965667
300.000539867
300.000388516
300.000363293
300.000377932
300.000377927
300.000341046
300.000273959
300.000195878
300.000124171
300.000068265
300.000026986
300.000002594
300
300
300.000023619
300.000031174
300.000029282
300.00498044
300.002339487
300.001196472
300.000723953
300.000562751
300.000526899
300.000509812
300.000460155
300.000374589
300.000274256
300.000181149
300.000107051
300.000050756
300.000006836
300
300
300
300.000041308
300.000038656
300.000035314
300.00528174
300.002538388
300.001361635
300.000905061
300.0007573
300.00069554
300.000613399
300.000489243
300.000350131
300.000226522
300.000133946
300.000069383
300.000021815
300
300
300
300
300.000018466
300.000017465
300.00001639
300.005241808
300.002555405
300.001465598
300.001083064
300.000938311
300.000802804
300.00061935
300.000419565
300.000249195
300.000133078
300.0000659
300.000025838
300
300
300
300
300
300.000028308
300.000018345
300.000017576
300.00492401
300.002463779
300.001560422
300.001249764
300.001044126
300.000784562
300.000504069
300.000266458
300.000119688
300.00005274
300.000022682
300
300
300
300
300.000040402
300.000150044
300.000040628
300.00002094
300.000019662
300.004501851
300.002395882
300.001685328
300.001367392
300.001029517
300.000646308
300.000322116
300.000128834
300.000044752
300.000015601
300.000003727
300
300
300
300
300.000069159
300.000218935
300.000044893
300.000020918
300.000019545
300.004201776
300.002441298
300.001823442
300.00139894
300.000913799
300.000469668
300.000187757
300.000055776
300.000011953
300.000002778
300.000004001
300
300
300
300
300.00012013
300.000155966
300.000032977
300.000017607
300.000016613
300.00413385
300.00259435
300.001944501
300.001363108
300.000770914
300.000337811
300.000113951
300.000026262
300.000001502
300.000004718
300.000051386
300
300
300
300
300.000107982
300.000066253
300.000021383
300.000014948
300.000014282
300.00430153
300.00282438
300.002038739
300.001302043
300.000672229
300.000276593
300.000088101
300.000017553
300.000001055
300.000021152
300.000091855
300.000075824
300
300
300.000065096
300.000059252
300.000031114
300.000016554
300.000014168
300.000013566
300.00476382
300.003140148
300.002154768
300.001294792
300.000640133
300.00025759
300.00007997
300.000015661
300.000003732
300.000033601
300.00010797
300.000159323
300.000024846
300
300.000119686
300.000050056
300.000023946
300.000015648
300.000014567
300.000013727
300.005491351
300.003542786
300.002321239
300.001342825
300.000652438
300.000264581
300.00008361
300.000017693
300.000004495
300.000031303
300.000096249
300.000195187
300.000132193
300.000043653
300.000097899
300.000045633
300.00002323
300.000015966
300.000015551
300.000014035
300.006452985
300.004047985
300.002555866
300.001445264
300.000703827
300.000296043
300.000100951
300.000024671
300.000003545
300.00001686
300.000065372
300.000154341
300.000215925
300.000085371
300.000083542
300.00004072
300.000022614
300.000016319
300.00001639
300.000013377
300.007681448
300.004680145
300.002868601
300.001603039
300.000793828
300.000351738
300.000136215
300.000040614
300.00000602
300.000003054
300.000029808
300.000086786
300.000170163
300.000119959
300.000074116
300.000036513
300.000022138
300.000017141
300.0000173
300.000012781
300.009193064
300.005443813
300.003253316
300.001810954
300.000917993
300.000430502
300.000188505
300.000069619
300.00001663
300
300.000003928
300.000036317
300.000086806
300.000126282
300.000059612
300.000031002
300.000021013
300.000018649
300.000018373
300.000012799
300.010945581
300.006312022
300.003683575
300.002050127
300.001064294
300.000521324
300.000243876
300.000107704
300.00003609
300.000003597
300
300.000007352
300.000036854
300.000082476
300.000031614
300.000017369
300.000015901
300.000022503
300.00002332
300.000014299
300.012797641
300.007202204
300.004099062
300.002267972
300.001197327
300.00060339
300.000293498
300.000137673
300.000057389
300.000014564
300.000000568
300.000001545
300.000008818
300.000032718
300
300
300.000000169
300.000019834
300.000014341
300.000013708
300.014148238
300.007761746
300.004289768
300.002324932
300.001220639
300.000622437
300.000310441
300.000150549
300.000066849
300.000018908
300.000002442
300.000001683
300.000004371
300.000006429
300
300
300
300.000010396
300.000013169
300.000012721
300.014244955
300.007568394
300.004009685
300.002079031
300.001052599
300.000527164
300.000259869
300.000123571
300.000048005
300.000010834
300.00000279
300.000012794
300.000015005
300
300
300
300
300.0000481
300.000016951
300.000015779
300.012870683
300.006530142
300.00323636
300.001549744
300.000728929
300.000340852
300.000153021
300.000058618
300.000008066
300
300
300.000007583
300.000025011
300.00001169
300.000018365
300.000044681
300.000059688
300.000022006
300.000016325
300.000014568
300.010569536
300.005017802
300.00225692
300.000968906
300.000409786
300.000162715
300.000053661
300.000000203
300
300
300
300
300.000036222
300.000057253
300.000066575
300.000079498
300.000068883
300.000025081
300.000017171
300.000014605
300.008214794
300.003615448
300.001450395
300.00054984
300.000198274
300.000062108
300.000000599
300
300
300
300
300
300.000027943
300.000053161
300.000067332
300.000061664
300.000043706
300.000023064
300.000017369
300.000014451
300.006570497
300.002675082
300.000966206
300.000329172
)
;

boundaryField
{
    emptyPatch
    {
        type            empty;
    }
    minY
    {
        type            fixedValue;
        value           nonuniform List<scalar> 0();
    }
    maxY
    {
        type            inletOutlet;
        inletValue      nonuniform List<scalar> 0();
        value           nonuniform List<scalar> 0();
    }
    maxX
    {
        type            fixedValue;
        value           uniform 300;
    }
    water_to_heater
    {
        type            copiedFixedValue;
        sourceFieldName T.liquid;
        value           nonuniform List<scalar> 
60
(
795.552359799
795.584793423
795.585034087
795.615176717
795.614520728
795.641756412
795.636905154
795.657614782
795.655802002
795.678312952
795.678721323
795.698401905
795.70181529
795.710088588
795.710008677
795.711479055
795.730885355
795.738619572
795.845994222
795.83478048
795.855665406
795.834409861
795.835949033
795.809705406
795.782902983
795.775884973
795.719878404
795.734919648
795.718135081
795.746014452
795.742856315
795.791052688
795.789813328
795.847755303
795.847242524
795.891630108
795.890662944
795.917644054
795.901872091
795.907642682
795.913288825
795.943026371
795.944264316
795.962233291
795.955252634
795.960669655
796.00462832
796.112999317
796.130705506
796.09547331
796.099400636
796.058987011
796.053899493
795.991669015
795.984274449
795.875352557
795.872698014
795.773961911
795.690724155
795.623583939
)
;
    }
    procBoundary1to0
    {
        type            processor;
        value           nonuniform List<scalar> 
41
(
447.762349693
365.645304928
327.67754332
310.63097632
304.153077109
301.897020364
301.030300141
300.700216163
300.551190069
300.456593406
300.381326047
300.316768865
300.258934752
300.205907549
300.157475114
300.113736122
300.075842973
300.045928282
300.024888915
300.012751167
300.00009899
300.000024752
300
300
300
300
300
300.000008142
300.000016257
300.000025866
300.000035165
300.00002185
300.000010015
300.000017128
300.000017959
300.000014844
300.005831068
300.002220151
300.000753183
300.00009899
300.000236515
)
;
    }
    procBoundary1to3
    {
        type            processor;
        value           nonuniform List<scalar> 
41
(
300.547987577
300.421027223
300.339476148
300.273300142
300.208872125
300.146900121
300.092390965
300.049885622
300.022763335
300.008994458
300.003200795
300.001058592
300.000313397
423.542230889
341.77771936
314.281201316
305.604564325
302.60706512
301.445730072
300.90255649
300.90255649
300.000073924
300.000014537
300.000004354
300.000002556
300.000001858
300.000000837
300
300
300.000001535
300.000006834
300.000012323
300.000016925
300.000020665
300.000024016
300.000026241
300.000027124
300.000027281
300.000027054
300.000026908
300.000025005
)
;
    }
}


// ************************************************************************* //
