/*--------------------------------*- C++ -*----------------------------------*\
| =========                 |                                                 |
| \\      /  F ield         | OpenFOAM: The Open Source CFD Toolbox           |
|  \\    /   O peration     | Version:  2312                                  |
|   \\  /    A nd           | Website:  www.openfoam.com                      |
|    \\/     M anipulation  |                                                 |
\*---------------------------------------------------------------------------*/
FoamFile
{
    version     2.0;
    format      ascii;
    arch        "LSB;label=32;scalar=64";
    class       volVectorField;
    location    "0.76/water";
    object      U.gas;
}
// * * * * * * * * * * * * * * * * * * * * * * * * * * * * * * * * * * * * * //

dimensions      [0 1 -1 0 0 0 0];

internalField   nonuniform List<vector> 
1504
(
(0.0364269197467 1.55978419186 0)
(0.0840327326996 1.26817544136 0)
(0.0964439349957 1.14340761288 0)
(0.10337928299 1.07230287603 0)
(0.11569256179 1.02708713696 0)
(0.128738044688 0.988546007145 0)
(0.139167875 0.953311471143 0)
(0.145410533513 0.920862588804 0)
(0.148847467892 0.889823512252 0)
(0.150029585 0.858722760126 0)
(0.149025917827 0.826405905862 0)
(0.146116260471 0.793740350465 0)
(0.137228477227 0.76588409853 0)
(0.120494306356 0.746814405969 0)
(0.104516653084 0.727279142058 0)
(0.0928150524593 0.70358360187 0)
(0.081191907167 0.662484655508 0)
(0.0693509975936 0.59896427777 0)
(0.058526834497 0.545431519549 0)
(0.0464033765029 0.515968398587 0)
(0.0382418504171 1.54287550636 0)
(0.094248785293 1.26248988039 0)
(0.111671381752 1.15213568766 0)
(0.115477485989 1.08802922177 0)
(0.124199326544 1.04690675264 0)
(0.132590810007 1.01154132115 0)
(0.13873570329 0.979633442333 0)
(0.142392178535 0.948661480284 0)
(0.143597766571 0.917284357106 0)
(0.142105936371 0.884297488339 0)
(0.138459448197 0.849741546391 0)
(0.132049496028 0.815355123958 0)
(0.119876412896 0.786470484256 0)
(0.104932984232 0.765061123901 0)
(0.0937340176259 0.745152419743 0)
(0.0848220967339 0.725516903758 0)
(0.0747792814842 0.689066286847 0)
(0.0621713309439 0.629018903488 0)
(0.0489406770519 0.560140370138 0)
(0.0354288737269 0.523307786198 0)
(0.0409235604362 1.52324717477 0)
(0.10462321594 1.28223658756 0)
(0.123843663615 1.19034697265 0)
(0.121270780598 1.13277987006 0)
(0.12402211413 1.08910037725 0)
(0.127237274212 1.05052555117 0)
(0.129315056036 1.01706235999 0)
(0.129287757337 0.984185147584 0)
(0.126503860999 0.949584933978 0)
(0.121125801396 0.912260523533 0)
(0.113950404676 0.873928562222 0)
(0.104407328483 0.83667039215 0)
(0.092213061112 0.804465497101 0)
(0.0817044679756 0.777976091344 0)
(0.0750759721645 0.757077023421 0)
(0.0690545369512 0.742310652321 0)
(0.0611819738596 0.709295551418 0)
(0.0503452351096 0.655238662396 0)
(0.0377733867678 0.574205605273 0)
(0.0231398776908 0.528881929502 0)
(0.0461072648987 1.55586513512 0)
(0.111129832612 1.35480540598 0)
(0.121794263139 1.27708957728 0)
(0.109542836604 1.22003616745 0)
(0.104157740535 1.16031639482 0)
(0.101763412922 1.10921628782 0)
(0.0990118475287 1.06738735057 0)
(0.0943913528826 1.02714135659 0)
(0.0873946133269 0.984597984399 0)
(0.0786527386742 0.939360672189 0)
(0.0696507486537 0.895856621917 0)
(0.0608676413272 0.855270570672 0)
(0.0534486988878 0.818095281865 0)
(0.0488764981415 0.784749740021 0)
(0.0463608381588 0.760237053863 0)
(0.0445558321066 0.748895928363 0)
(0.0414128857048 0.720451867404 0)
(0.0355450996708 0.671140491512 0)
(0.0258178759246 0.587720367134 0)
(0.0102638498132 0.530562146281 0)
(0.0537050316282 1.64916684858 0)
(0.106519397517 1.49113888299 0)
(0.0893538128087 1.42361267985 0)
(0.0612493897725 1.35431104338 0)
(0.0438068644899 1.25940603395 0)
(0.0348984572221 1.18233427203 0)
(0.0288660753691 1.12037768424 0)
(0.0229886706305 1.06452691114 0)
(0.0167028708317 1.00881263469 0)
(0.0113661732515 0.953679555662 0)
(0.00787252398022 0.905588078911 0)
(0.00614210910501 0.862663136001 0)
(0.00609506147688 0.821316192452 0)
(0.00708245291629 0.781810241139 0)
(0.00954951254867 0.751357967276 0)
(0.0146647669998 0.738617187203 0)
(0.0192401223001 0.716944335048 0)
(0.0199041402717 0.672563664302 0)
(0.0141115162628 0.596634185297 0)
(-0.000316604741114 0.526122608659 0)
(0.0608739155171 1.74152267883 0)
(0.0955082889198 1.6500401599 0)
(0.0440516397526 1.59862808082 0)
(-0.00179979613284 1.50702586704 0)
(-0.0351841240484 1.36529262292 0)
(-0.055072930983 1.25250035881 0)
(-0.064503062825 1.15805292455 0)
(-0.0664596345838 1.07821325883 0)
(-0.0644244355985 1.00640060472 0)
(-0.0603381279308 0.942248468639 0)
(-0.0551334809091 0.891427376827 0)
(-0.0488100099049 0.848560118896 0)
(-0.0416822199586 0.806268529987 0)
(-0.0344164782162 0.764548266072 0)
(-0.0257507588952 0.729977849442 0)
(-0.0136679026405 0.711332508063 0)
(-0.000995070817103 0.694711125869 0)
(0.00663666894404 0.65879268868 0)
(0.00559277127234 0.596180250666 0)
(-0.00510250079864 0.517033815672 0)
(0.0509706826088 1.76799683053 0)
(0.0733320311342 1.77652234395 0)
(0.0243181567683 1.74668902663 0)
(-0.0187352434443 1.64711896824 0)
(-0.0613606578423 1.46615978511 0)
(-0.0954361848589 1.31284978628 0)
(-0.115601706078 1.17828516958 0)
(-0.12075060227 1.06802749055 0)
(-0.115491715087 0.977820555646 0)
(-0.106066389159 0.905370248499 0)
(-0.0954435363918 0.851940661145 0)
(-0.0836554894049 0.811789167242 0)
(-0.0710147052823 0.772706401087 0)
(-0.0585821903377 0.733296270881 0)
(-0.0457529471724 0.69876297155 0)
(-0.030083939265 0.675027534261 0)
(-0.0125539177913 0.657901325838 0)
(2.6572496518e-05 0.633154867749 0)
(0.00366735772458 0.585859871856 0)
(-0.00242789263979 0.508270590192 0)
(0.047169243483 1.70422356492 0)
(0.0787073669939 1.85939144996 0)
(0.0521258432475 1.83689762245 0)
(0.0251629098308 1.76425997128 0)
(-0.0123661429759 1.58532150843 0)
(-0.0537340079016 1.39450103128 0)
(-0.0855862814282 1.20170855615 0)
(-0.102781900091 1.05608680168 0)
(-0.10682294002 0.942729756657 0)
(-0.101846627539 0.860602673002 0)
(-0.092998141407 0.802831492511 0)
(-0.081549007611 0.765092109279 0)
(-0.0681172312071 0.731172305091 0)
(-0.05465709723 0.696237453713 0)
(-0.0416827700403 0.664214318393 0)
(-0.0271026833964 0.63890829835 0)
(-0.0102897409315 0.618797760065 0)
(0.00372544502771 0.601837984892 0)
(0.0100011198946 0.569690181395 0)
(0.00611454148474 0.502708636395 0)
(0.0642681650061 1.51065390047 0)
(0.133226835101 1.82894619239 0)
(0.135896455448 1.85405695188 0)
(0.129022174033 1.82637260309 0)
(0.107362674676 1.71981210211 0)
(0.0585247586875 1.57288069525 0)
(0.00208122450435 1.2995963722 0)
(-0.0342320199424 1.07979021263 0)
(-0.0503346644369 0.929943409624 0)
(-0.0544737525529 0.8322274604 0)
(-0.0524240896748 0.766866892836 0)
(-0.0463523973946 0.727082617225 0)
(-0.0369420988601 0.696377550306 0)
(-0.0266587075961 0.665106532582 0)
(-0.0168128421137 0.635515596316 0)
(-0.00619133216033 0.610250858176 0)
(0.00629104145993 0.58820899632 0)
(0.0179954914599 0.572482847455 0)
(0.022954059092 0.552873781331 0)
(0.0182287223615 0.499347518172 0)
(0.0519451693083 1.3060536657 0)
(0.107167574535 1.71512637315 0)
(0.113856435968 1.80786296232 0)
(0.119659167174 1.81795884231 0)
(0.120794523458 1.7864739888 0)
(0.112868593558 1.72248404608 0)
(0.0734405356609 1.50908412854 0)
(0.0272643741073 1.15111679597 0)
(0.00817812994337 0.950918882531 0)
(0.000873861578618 0.831686303738 0)
(-0.0004961501233 0.75563004228 0)
(0.00159810923299 0.709433299301 0)
(0.00641258392852 0.67788425819 0)
(0.0121654098825 0.647676095892 0)
(0.0176413945219 0.618981208497 0)
(0.023985026703 0.593493306873 0)
(0.0319526410898 0.570022906091 0)
(0.0391473048103 0.551724531533 0)
(0.0398632414601 0.53965825956 0)
(0.0326965872998 0.498066636998 0)
(0.0453169434463 1.20798712097 0)
(0.090841363423 1.63239829664 0)
(0.0929131526424 1.74950052291 0)
(0.0964776863281 1.7830772991 0)
(0.097643201691 1.78469011787 0)
(0.0923372898738 1.7626402756 0)
(0.077558858842 1.67331147742 0)
(0.0589725147302 1.22930220933 0)
(0.0468983451229 0.987103087155 0)
(0.0427118664625 0.849406679783 0)
(0.0426955682566 0.763627642948 0)
(0.0446472120369 0.710659244797 0)
(0.0474837315818 0.675733297336 0)
(0.0501435085377 0.644328652496 0)
(0.0521578067823 0.6150260935 0)
(0.0548903938538 0.588726678218 0)
(0.059261209545 0.563892276619 0)
(0.0622907333842 0.542686514012 0)
(0.0586947649667 0.533037369053 0)
(0.0487683553731 0.500484858457 0)
(0.0421870076721 1.15966589734 0)
(0.0826400231226 1.58076754191 0)
(0.0813810491727 1.70715258235 0)
(0.0829687735631 1.75237712786 0)
(0.0844217089444 1.77300254726 0)
(0.0837487716756 1.77606518225 0)
(0.0788730889637 1.72015611909 0)
(0.0727830757495 1.27243180995 0)
(0.0702082607446 1.01569111213 0)
(0.0710085137186 0.87018807356 0)
(0.0741269392224 0.779489922756 0)
(0.077921458729 0.72265665191 0)
(0.0807842326491 0.684483420745 0)
(0.082011236828 0.651100646225 0)
(0.0819377880366 0.62058456367 0)
(0.0820959820063 0.593341079571 0)
(0.0840339665004 0.567552499264 0)
(0.0844475064806 0.544584208953 0)
(0.0778166367616 0.53414174745 0)
(0.0649352298855 0.507659545726 0)
(0.0405860022924 1.13337827379 0)
(0.0778945328408 1.54979429393 0)
(0.0735206073056 1.67847628707 0)
(0.0722389037289 1.72859023809 0)
(0.0716939805584 1.75702884797 0)
(0.0708525691098 1.76730926366 0)
(0.072068494526 1.71768941664 0)
(0.0774854559794 1.27113591394 0)
(0.0841195439168 1.02802009564 0)
(0.0903889520436 0.886370241494 0)
(0.0974559217696 0.79652368061 0)
(0.103813943299 0.739550594036 0)
(0.107253434177 0.69928668755 0)
(0.10772817918 0.664141734274 0)
(0.106374238636 0.632470190235 0)
(0.104713885555 0.604443104626 0)
(0.104787925622 0.578149748274 0)
(0.103667936655 0.554513110043 0)
(0.0952341792626 0.542225455257 0)
(0.0798950915999 0.519836955029 0)
(0.0384177388364 1.12479052302 0)
(0.0716521040575 1.53888767816 0)
(0.0632022122383 1.66805582169 0)
(0.0575467068909 1.72015086119 0)
(0.0527039060933 1.75161928672 0)
(0.0483011235324 1.75972413123 0)
(0.0591186926165 1.64831140739 0)
(0.0798051348318 1.23696107085 0)
(0.093685703152 1.02635618396 0)
(0.105432688858 0.897098651063 0)
(0.116637274959 0.813047391532 0)
(0.124985033725 0.758631314998 0)
(0.128434913887 0.717259618412 0)
(0.128364460148 0.680909234651 0)
(0.126178908147 0.648350755879 0)
(0.123143944621 0.619713516489 0)
(0.121610568772 0.593278094133 0)
(0.119384510463 0.569586802425 0)
(0.109981199524 0.555961406993 0)
(0.0930746744598 0.536753634052 0)
(0.0369530544521 1.13266464553 0)
(0.0671767763256 1.54693040394 0)
(0.0553616889005 1.67640865686 0)
(0.0460891381627 1.72944862075 0)
(0.037920430779 1.76040708095 0)
(0.0316572109653 1.75699132502 0)
(0.0527791592541 1.49530087098 0)
(0.0859895984779 1.19014611085 0)
(0.103952236589 1.01716067435 0)
(0.119875907843 0.904295471869 0)
(0.133743802341 0.829305405006 0)
(0.142326234816 0.778265383264 0)
(0.145306927059 0.736695691605 0)
(0.145011012969 0.699778501469 0)
(0.14218831176 0.666642369789 0)
(0.138035410599 0.637562599955 0)
(0.135038740734 0.611196910808 0)
(0.131836595614 0.587817733622 0)
(0.121968434093 0.573951878233 0)
(0.104241519614 0.557624369663 0)
(0.0364068892565 1.14772061722 0)
(0.0658493055947 1.5652890825 0)
(0.0536513075158 1.69370619225 0)
(0.0446979612773 1.74361933499 0)
(0.0391073148379 1.76394104861 0)
(0.0480914007935 1.69873143001 0)
(0.0722382300271 1.34995491282 0)
(0.0961288884658 1.14560233142 0)
(0.116297012272 1.00613572115 0)
(0.134764318457 0.910532281594 0)
(0.149248995634 0.845759581305 0)
(0.156709494389 0.797785349311 0)
(0.159097285145 0.756869844943 0)
(0.158604612262 0.719891403889 0)
(0.155154040686 0.686423428621 0)
(0.14996351594 0.656978503956 0)
(0.145623247718 0.630698870851 0)
(0.141355795927 0.607802288708 0)
(0.131139287883 0.594644941093 0)
(0.113194775969 0.581250048957 0)
(0.0338883519952 1.17764093464 0)
(0.0582132464695 1.60125126911 0)
(0.0410204700437 1.7236332421 0)
(0.0277309035819 1.76337219538 0)
(0.0211300927917 1.75050590696 0)
(0.0464803339436 1.52504849455 0)
(0.0851375379114 1.26469183848 0)
(0.108551799879 1.10934123841 0)
(0.130185248372 0.997334210671 0)
(0.149549433831 0.918487409968 0)
(0.162620500803 0.862718700643 0)
(0.16854048736 0.817593303422 0)
(0.170576004892 0.777800275492 0)
(0.169638478151 0.741003182053 0)
(0.165379575765 0.707281568286 0)
(0.159118376134 0.67742190152 0)
(0.153379645304 0.651063300701 0)
(0.147777478667 0.628600476033 0)
(0.137125998378 0.616693725874 0)
(0.118916757199 0.606265899161 0)
(0.0285775361143 1.25468199526 0)
(0.047278454299 1.66252228145 0)
(0.0291582744951 1.770111388 0)
(0.017869689654 1.77834753389 0)
(0.0381616372806 1.62520673393 0)
(0.074173262771 1.36073481625 0)
(0.098743503605 1.20297580996 0)
(0.122151245582 1.08298783498 0)
(0.144717478998 0.993625905696 0)
(0.163112488345 0.929706372819 0)
(0.173436115874 0.880626780099 0)
(0.178064182514 0.838406093924 0)
(0.179781896431 0.799789885125 0)
(0.178043670532 0.763171512696 0)
(0.172775153824 0.729131535766 0)
(0.165320866697 0.698697459011 0)
(0.158004370691 0.672006226972 0)
(0.150646060091 0.649742291471 0)
(0.13904021106 0.639540309059 0)
(0.121116073862 0.632484613825 0)
(0.00706293548711 1.49420576834 0)
(0.0124373137015 1.7036522609 0)
(0.0107539170356 1.78589319263 0)
(0.0312860316357 1.67223921532 0)
(0.0658227124459 1.44728163705 0)
(0.0911063727675 1.28285876537 0)
(0.113818860932 1.16178143937 0)
(0.137058812924 1.06706704021 0)
(0.158798590553 0.996738483424 0)
(0.173861585618 0.944346590318 0)
(0.181651199077 0.900421302555 0)
(0.185678871406 0.860868787159 0)
(0.186632096859 0.823183534911 0)
(0.183764959845 0.786566111316 0)
(0.177187999813 0.752018718518 0)
(0.168418082309 0.720806015403 0)
(0.159356531825 0.693463889456 0)
(0.150001155129 0.670984169313 0)
(0.137658427673 0.662883097895 0)
(0.120846714198 0.659735576979 0)
(0.00806518318659 1.85220506295 0)
(0.0147682951821 1.70666886071 0)
(0.0318025978071 1.67809305111 0)
(0.0629845064743 1.50515033751 0)
(0.0859754143576 1.35207180979 0)
(0.106783841268 1.23319485122 0)
(0.128737923499 1.13677255607 0)
(0.151411023587 1.06186847315 0)
(0.170222683985 1.00683001884 0)
(0.181407393211 0.96253721237 0)
(0.187645227134 0.923022483501 0)
(0.191137426626 0.885557678374 0)
(0.190916391353 0.848352772469 0)
(0.186464309181 0.811368744804 0)
(0.178350808128 0.776023120022 0)
(0.16815804428 0.743732449019 0)
(0.15737506027 0.71532437346 0)
(0.146240831674 0.691972294837 0)
(0.133672927525 0.685764815662 0)
(0.118507315718 0.68667376978 0)
(0.0336125607158 2.04968928635 0)
(0.0679042352207 1.69445257146 0)
(0.0743424813819 1.54792498157 0)
(0.0882435481732 1.41627649099 0)
(0.105218328465 1.30070972646 0)
(0.123907872556 1.20422705258 0)
(0.144746207305 1.12600269834 0)
(0.164830584655 1.06778452934 0)
(0.178776023934 1.02389933874 0)
(0.186910469503 0.985682060492 0)
(0.192304615154 0.949649555027 0)
(0.194448608218 0.91340830051 0)
(0.19221378458 0.875910957008 0)
(0.185585605218 0.83792644442 0)
(0.175508598591 0.80126519093 0)
(0.16375877537 0.767420666027 0)
(0.151467307689 0.737294203027 0)
(0.139106698253 0.712196077951 0)
(0.12706257526 0.706487760427 0)
(0.114286745094 0.711513018778 0)
(0.0433930085051 2.04579132782 0)
(0.0935797150257 1.6666241526 0)
(0.10353614952 1.49903639015 0)
(0.112518515557 1.37599170892 0)
(0.125409801927 1.27669495604 0)
(0.141421054498 1.19494445695 0)
(0.159724732784 1.13129553279 0)
(0.175050841325 1.08612032127 0)
(0.184264023113 1.04973226905 0)
(0.190286306262 1.01615628418 0)
(0.194114122046 0.982214494858 0)
(0.193849406527 0.94583949709 0)
(0.188685074283 0.90675282616 0)
(0.179082962037 0.866679982125 0)
(0.166627110939 0.827927288032 0)
(0.15315743635 0.791753919541 0)
(0.139806026741 0.75896362692 0)
(0.127381551032 0.731184262023 0)
(0.116898845567 0.723101465913 0)
(0.107239546451 0.731841888725 0)
(0.046239474166 1.9754206036 0)
(0.107488361572 1.62884712688 0)
(0.124190708282 1.47618175407 0)
(0.130366503893 1.36612091915 0)
(0.140582802889 1.27773510524 0)
(0.154129439477 1.20558174292 0)
(0.168222622333 1.15384541586 0)
(0.177529361927 1.11742910461 0)
(0.183243890521 1.08631984234 0)
(0.187694441869 1.05572524585 0)
(0.189190250535 1.02208111722 0)
(0.185752320414 0.983656470422 0)
(0.176835375571 0.941127420078 0)
(0.16365335965 0.897360694023 0)
(0.148079534118 0.855191249308 0)
(0.13278123578 0.81582132607 0)
(0.119790786781 0.779746834541 0)
(0.109287450825 0.748520226193 0)
(0.101545937315 0.734386015037 0)
(0.0957637840619 0.744808080523 0)
(0.0452427838813 1.90888528401 0)
(0.111665094161 1.60080282055 0)
(0.132667434968 1.47583058873 0)
(0.135545230867 1.38269655342 0)
(0.143218432443 1.30182020409 0)
(0.153298070796 1.23499808508 0)
(0.161926448117 1.19202963476 0)
(0.167030580773 1.16116649853 0)
(0.171053951737 1.13382166116 0)
(0.174049168215 1.10449439538 0)
(0.17309166662 1.06904418269 0)
(0.166118553879 1.02595834881 0)
(0.152446595384 0.976718030639 0)
(0.133485070595 0.926289526047 0)
(0.114712615451 0.88029203726 0)
(0.10062690531 0.838174447195 0)
(0.0910318344585 0.798877379057 0)
(0.0841513091118 0.763494228421 0)
(0.0799458857569 0.740921537229 0)
(0.0789920178727 0.747494800633 0)
(0.0448282535809 1.8884097985 0)
(0.109283040987 1.61077147117 0)
(0.125047106704 1.50904230528 0)
(0.121393932024 1.4316965668 0)
(0.124809379341 1.35060950213 0)
(0.130849531601 1.28247694344 0)
(0.135389792281 1.2435582434 0)
(0.139110997562 1.21617285052 0)
(0.143191173891 1.19111852818 0)
(0.145369403874 1.1615841086 0)
(0.141908161081 1.12170567213 0)
(0.128660127419 1.06858940516 0)
(0.106236147256 1.00670942783 0)
(0.0842180766243 0.94845079939 0)
(0.0695341382666 0.900330893223 0)
(0.0605928881551 0.856161780361 0)
(0.0549586610797 0.813793314823 0)
(0.0520477841702 0.774164895539 0)
(0.0525492419421 0.743521671526 0)
(0.057175163274 0.738886921103 0)
(0.0510028629253 1.91353597806 0)
(0.112419759049 1.671683647 0)
(0.110551579253 1.58853283362 0)
(0.0919080264791 1.52119987076 0)
(0.0851175838164 1.42775472424 0)
(0.0856144716909 1.34757090043 0)
(0.0883314975657 1.30539637633 0)
(0.0931004702108 1.27889986053 0)
(0.0981580754248 1.25520106258 0)
(0.0978387278967 1.22360820127 0)
(0.0854577220993 1.17341803205 0)
(0.0619029918117 1.1023036458 0)
(0.0394214462267 1.02399509177 0)
(0.0262732924453 0.958636422763 0)
(0.0196566544579 0.909248914149 0)
(0.0160297119351 0.863425791552 0)
(0.0146881516997 0.819074800104 0)
(0.0163122028289 0.776976838772 0)
(0.022171633446 0.740748377349 0)
(0.0324846904509 0.72198614723 0)
(0.0616211166341 1.93198190566 0)
(0.116106525746 1.74045675204 0)
(0.0915982083932 1.67753578317 0)
(0.0626978373427 1.61652801664 0)
(0.0457078818251 1.50800566467 0)
(0.0379269198226 1.41190763954 0)
(0.0360701797292 1.35962513675 0)
(0.0376128053442 1.33150069615 0)
(0.0358294264094 1.30892461415 0)
(0.023867793377 1.2735077384 0)
(0.00317154414174 1.20876945928 0)
(-0.0154975948722 1.11651563124 0)
(-0.0249214525007 1.02227370848 0)
(-0.0276592196875 0.949233873439 0)
(-0.0272059875356 0.898534509681 0)
(-0.0246582587391 0.853314963467 0)
(-0.0206423236177 0.809905294442 0)
(-0.0144688708696 0.768585557368 0)
(-0.00450111441348 0.730431883987 0)
(0.0105302221182 0.701524620808 0)
(0.0588294013662 1.87818232073 0)
(0.103580738369 1.74403531673 0)
(0.080531516423 1.70206324894 0)
(0.0639625531321 1.65185043942 0)
(0.0486833924307 1.54593811775 0)
(0.0333654748792 1.44606052968 0)
(0.0189550663695 1.38554574707 0)
(0.00465788806834 1.3548168632 0)
(-0.0125549437195 1.3334577558 0)
(-0.0319350918932 1.29431347466 0)
(-0.0475695596476 1.21714676164 0)
(-0.0558234712476 1.10888464263 0)
(-0.058607016854 1.00211395733 0)
(-0.0578630094942 0.920934857283 0)
(-0.0535733784532 0.86794079474 0)
(-0.046392021925 0.826209831479 0)
(-0.0382185603255 0.786863988756 0)
(-0.029356845354 0.749405110879 0)
(-0.017342409757 0.713073754485 0)
(-0.000213415300895 0.680134176507 0)
(0.0535187714721 1.75274486826 0)
(0.102680219314 1.68706502095 0)
(0.0973974192948 1.66637819621 0)
(0.0945019508563 1.63403731453 0)
(0.0862410268489 1.55138889219 0)
(0.0704496475168 1.46233594904 0)
(0.0500831530356 1.400254653 0)
(0.0279140014862 1.36638513616 0)
(0.00599948810026 1.343850621 0)
(-0.0127173825914 1.2999257922 0)
(-0.0259384562476 1.21302498708 0)
(-0.0349727254225 1.09522134986 0)
(-0.0418632295205 0.979705418945 0)
(-0.0456183243418 0.889765034181 0)
(-0.0442627797899 0.830803196829 0)
(-0.0379552659293 0.792049781719 0)
(-0.029540735705 0.757833029664 0)
(-0.0210861247262 0.725467999637 0)
(-0.0101036421342 0.693084782934 0)
(0.00507900325471 0.660208935599 0)
(0.0537371406638 1.62450121273 0)
(0.108476962262 1.6192647866 0)
(0.112683694661 1.6158982968 0)
(0.118337091429 1.60233527201 0)
(0.11938077949 1.55244627183 0)
(0.112366776699 1.4863769596 0)
(0.0986837566596 1.43059783727 0)
(0.0818726007543 1.39500970944 0)
(0.0649438267219 1.36828356839 0)
(0.0492242750054 1.31796222415 0)
(0.03509150219 1.22145238317 0)
(0.0222975256984 1.09655256797 0)
(0.0108286858656 0.973615503858 0)
(0.00211098547067 0.874374470867 0)
(-0.00233875849829 0.806193401093 0)
(-0.00160982868247 0.765312746879 0)
(0.00265930926239 0.734184268328 0)
(0.00780841211025 0.705709916678 0)
(0.0147621275605 0.676953718804 0)
(0.0258174540873 0.645904801911 0)
(0.0526249772385 1.51370977245 0)
(0.107899141434 1.54261092479 0)
(0.114546380593 1.5544683432 0)
(0.122768970738 1.5570660055 0)
(0.129604850019 1.53656366282 0)
(0.132168780686 1.49861576148 0)
(0.129604533843 1.45882453427 0)
(0.123397958256 1.42757261067 0)
(0.115178871473 1.4003862808 0)
(0.104382792955 1.35109270925 0)
(0.091201075495 1.24867501385 0)
(0.0781630177965 1.11687492536 0)
(0.0669319260616 0.987893374395 0)
(0.0580257951379 0.880673599025 0)
(0.051767289267 0.803154974912 0)
(0.0485352401358 0.755449086203 0)
(0.0476470345128 0.723594398694 0)
(0.0480120709283 0.696394218168 0)
(0.0503994628872 0.669455111191 0)
(0.057453349289 0.640251254917 0)
(0.050526586617 1.40749481384 0)
(0.102778281429 1.45969057313 0)
(0.107869055114 1.4857513646 0)
(0.115043528664 1.50152177445 0)
(0.122022345145 1.49984735918 0)
(0.127420881116 1.48201735901 0)
(0.131292695755 1.45671070863 0)
(0.133929623137 1.43317680331 0)
(0.134959682607 1.4117933883 0)
(0.133165479673 1.37295313713 0)
(0.126925644899 1.27822128165 0)
(0.118303428159 1.14448623188 0)
(0.110605543759 1.01317799589 0)
(0.104668577879 0.90129993873 0)
(0.100579623919 0.816885191523 0)
(0.0973544109044 0.762001529738 0)
(0.0936465718171 0.72671975005 0)
(0.0899622369205 0.698386864582 0)
(0.0889089668002 0.671391071557 0)
(0.0928169573843 0.643109219599 0)
(0.0460235081773 1.32696169614 0)
(0.0921700149845 1.38841886747 0)
(0.0938015707702 1.42428381089 0)
(0.0978010031166 1.44881611869 0)
(0.102915778141 1.45735049281 0)
(0.109066273448 1.44487206307 0)
(0.117988280565 1.41983701805 0)
(0.128769732002 1.40245242776 0)
(0.138334030924 1.3903793568 0)
(0.144562993786 1.36525317182 0)
(0.146407245004 1.28887201451 0)
(0.144677320681 1.16509963101 0)
(0.141768230336 1.03787741532 0)
(0.139867563708 0.925835160153 0)
(0.139370334209 0.838290148564 0)
(0.13807288569 0.778664706486 0)
(0.13358041919 0.739606565885 0)
(0.1274593798 0.708892324981 0)
(0.124247156337 0.680572437225 0)
(0.126390313561 0.652275024991 0)
(0.0416485531123 1.2865141017 0)
(0.0815002039946 1.33897039762 0)
(0.0784857561297 1.38355774087 0)
(0.0775483856275 1.41102379828 0)
(0.0795692143736 1.41776990671 0)
(0.0875356587611 1.38964569319 0)
(0.10188799335 1.36030468185 0)
(0.117963451272 1.34948859943 0)
(0.132915452058 1.34621471594 0)
(0.14557656009 1.33266037699 0)
(0.154831766039 1.27543828196 0)
(0.159746357965 1.17181220427 0)
(0.162045056183 1.05499553664 0)
(0.164731058267 0.947323319703 0)
(0.168174529185 0.860633778488 0)
(0.169137264772 0.799439901641 0)
(0.16473254267 0.75761567957 0)
(0.157592959011 0.724349526877 0)
(0.153602057561 0.69409824567 0)
(0.155393627875 0.665034936055 0)
(0.0343546856516 1.30493206582 0)
(0.0653097478112 1.32046274792 0)
(0.0597274168715 1.36193918023 0)
(0.05758395556 1.38443525593 0)
(0.061594442066 1.37274282098 0)
(0.0729652355797 1.3277965308 0)
(0.0893875791342 1.30080188252 0)
(0.107328446577 1.29591306829 0)
(0.124452058111 1.29756456056 0)
(0.139974190202 1.28997006207 0)
(0.153279528203 1.24770789755 0)
(0.163449954497 1.16506345974 0)
(0.171367354413 1.06236152548 0)
(0.179344203091 0.96293454695 0)
(0.187124867327 0.880826914787 0)
(0.190272854351 0.820953520059 0)
(0.186043734554 0.777603823273 0)
(0.178703872505 0.742085369173 0)
(0.174921742609 0.709646981427 0)
(0.177171069784 0.679022861708 0)
(0.0297145470067 1.38571008985 0)
(0.0554250257024 1.33254056362 0)
(0.0490169983971 1.35012068149 0)
(0.0477923551723 1.35760438144 0)
(0.0532606019675 1.32620047067 0)
(0.0648321258006 1.27878886411 0)
(0.0810035734913 1.2543884698 0)
(0.0988087634822 1.2517991708 0)
(0.116167331343 1.25532573846 0)
(0.132417561599 1.25025622095 0)
(0.147180855217 1.21687474378 0)
(0.160304310961 1.14965965762 0)
(0.172821185075 1.06133932104 0)
(0.185843097009 0.972739516261 0)
(0.197031389864 0.898065770802 0)
(0.200853241216 0.841356970016 0)
(0.196342462964 0.797459344734 0)
(0.189250765196 0.759983295821 0)
(0.186103879386 0.725353254618 0)
(0.189040551058 0.692677174092 0)
(0.0291272059672 1.49511090936 0)
(0.0543818809555 1.36472385583 0)
(0.0476659669526 1.34905209025 0)
(0.0459756440782 1.33725055325 0)
(0.0511247045646 1.29591623867 0)
(0.0617818654644 1.24710239496 0)
(0.0763021764339 1.22125677867 0)
(0.0923334820928 1.21796373838 0)
(0.108489063334 1.22097702143 0)
(0.124185843671 1.21611249974 0)
(0.139286517462 1.18748948592 0)
(0.154204105422 1.13056187073 0)
(0.170003735284 1.05494324214 0)
(0.186199170081 0.978095029468 0)
(0.197919917417 0.91199720977 0)
(0.200165711965 0.858997790266 0)
(0.194898243919 0.815288305998 0)
(0.188440808404 0.776309826881 0)
(0.186431146868 0.740066726169 0)
(0.189946905829 0.705460046439 0)
(0.0329107091054 1.59021677746 0)
(0.0629126432833 1.40852487001 0)
(0.0552603441449 1.3662749417 0)
(0.0501045797069 1.33799552778 0)
(0.0525029357959 1.28631680015 0)
(0.0607740441614 1.23085713913 0)
(0.0727227712952 1.20066190254 0)
(0.0276874904749 0.491015922121 0)
(0.022621075989 0.490583363911 0)
(0.0182352614454 0.489414465676 0)
(0.0145367450615 0.486992243814 0)
(0.0116072809532 0.482510476874 0)
(0.00951760316572 0.475099031065 0)
(0.0081945182264 0.464430280835 0)
(0.00739620952127 0.451086648966 0)
(0.00686455992154 0.436063602974 0)
(0.00643523792846 0.42013341615 0)
(0.00601691211825 0.403715806608 0)
(0.00554989997975 0.386964346404 0)
(0.00498477471103 0.369841169607 0)
(0.00428087066502 0.352188117767 0)
(0.00340427815256 0.333900793691 0)
(0.00254020969137 0.315290218528 0)
(0.00108094915041 0.297249464091 0)
(0.0299201401172 0.505692327654 0)
(0.0270692702904 0.499859060745 0)
(0.0306666406848 0.498796594054 0)
(0.0250614849613 0.497843286887 0)
(0.0201984338048 0.49649604785 0)
(0.0159313622252 0.494396464222 0)
(0.0123743408997 0.490930934995 0)
(0.00965968051637 0.4852526319 0)
(0.00783399171618 0.476611189765 0)
(0.00676426409274 0.464938214829 0)
(0.00618091134732 0.450972134473 0)
(0.00583732522086 0.435654871867 0)
(0.0055815592769 0.419648699024 0)
(0.00532607642408 0.403298301998 0)
(0.00501187689036 0.386714998321 0)
(0.00458676949501 0.369835970212 0)
(0.00400471662168 0.352482874854 0)
(0.00323931335462 0.33453933458 0)
(0.00254832272448 0.316372279549 0)
(0.00114376445533 0.299006506317 0)
(0.0178471116031 0.508850395298 0)
(0.0165778194923 0.506482011129 0)
(0.0232766384506 0.50657961729 0)
(0.0188122638291 0.504357385946 0)
(0.0144162162544 0.501963055164 0)
(0.0105649430974 0.498797526729 0)
(0.00745929645092 0.494159996533 0)
(0.00525882154886 0.487198257186 0)
(0.00396535030036 0.477323163691 0)
(0.0033891346792 0.464707633051 0)
(0.00324668213296 0.450179200819 0)
(0.0033069665463 0.434599264027 0)
(0.00342984426416 0.418529669488 0)
(0.00353295571302 0.402250469926 0)
(0.00355918467967 0.385836191373 0)
(0.00345360268272 0.369201820008 0)
(0.00316387184636 0.352149150017 0)
(0.00266928330669 0.33454327876 0)
(0.00231377158053 0.316799289342 0)
(0.00112806463633 0.300126984311 0)
(0.0045437385686 0.509297939463 0)
(-0.00289230866131 0.506814586291 0)
(0.00501956037773 0.514089562838 0)
(0.00824920910511 0.510240929862 0)
(0.00471813021137 0.506527785654 0)
(0.00171802973726 0.502090496766 0)
(-0.000522260104371 0.49612966367 0)
(-0.00183532224572 0.487810219262 0)
(-0.00227428488866 0.476722801021 0)
(-0.00207350151782 0.463239187999 0)
(-0.00151546360256 0.448213021433 0)
(-0.000810951400504 0.432409510816 0)
(-8.61206914378e-05 0.416299455166 0)
(0.000584739883695 0.400106142055 0)
(0.00114904313207 0.383871303967 0)
(0.00155136831911 0.367489827541 0)
(0.00173143686157 0.350744396607 0)
(0.00167086211174 0.33347564592 0)
(0.00180770640873 0.316133655551 0)
(0.00101613904378 0.300157437839 0)
(-0.00908374952788 0.506208770003 0)
(-0.0245321842564 0.49994019561 0)
(-0.0187527176826 0.520349857222 0)
(-0.00824913693328 0.514310931897 0)
(-0.00980782960598 0.509084790262 0)
(-0.0111585996953 0.503278654224 0)
(-0.0118926659208 0.495951993311 0)
(-0.0118050045035 0.486307781583 0)
(-0.010978696663 0.474118359677 0)
(-0.00965996540876 0.459900680303 0)
(-0.00810657012898 0.444484473554 0)
(-0.00649787465278 0.428534057136 0)
(-0.00493832352646 0.412439351211 0)
(-0.0034878781397 0.396374218683 0)
(-0.00218992605388 0.380351583878 0)
(-0.0010967751844 0.364248554389 0)
(-0.000275126520154 0.347830298041 0)
(0.000254929175181 0.330909125937 0)
(0.00102622907472 0.313952528097 0)
(0.000800795048749 0.298657695424 0)
(-0.0197391174757 0.498121072871 0)
(-0.036906119408 0.488283142245 0)
(-0.0392480514249 0.509206512666 0)
(-0.0320158272596 0.513968185864 0)
(-0.0288847997224 0.507753840901 0)
(-0.0276988935495 0.500859849726 0)