/*--------------------------------*- C++ -*----------------------------------*\
| =========                 |                                                 |
| \\      /  F ield         | OpenFOAM: The Open Source CFD Toolbox           |
|  \\    /   O peration     | Version:  2312                                  |
|   \\  /    A nd           | Website:  www.openfoam.com                      |
|    \\/     M anipulation  |                                                 |
\*---------------------------------------------------------------------------*/
FoamFile
{
    version     2.0;
    format      ascii;
    arch        "LSB;label=32;scalar=64";
    class       volScalarField;
    location    "0.54/water";
    object      rhom;
}
// * * * * * * * * * * * * * * * * * * * * * * * * * * * * * * * * * * * * * //

dimensions      [1 -3 0 0 0 0 0];

internalField   nonuniform List<scalar> 
6000
(
914.941667634
948.781030004
985.474023176
996.29995876
999.286969491
999.887837406
999.985918413
999.998985256
999.999979192
999.999999821
999.999999999
1000
1000
1000
1000
1000
1000
1000
1000
1000
694.241521781
871.083818596
946.488019914
981.685267357
994.153574377
998.429906308
999.647334101
999.938265481
999.993779342
999.999859952
999.999999505
999.999999999
1000
1000
1000
1000
1000
1000
1000
1000
693.687605829
828.667378849
915.727232638
964.069521929
986.117903138
995.350266855
998.699815341
999.707945616
999.955756478
999.997528136
999.999987877
999.999999984
1000
1000
1000
1000
1000
1000
1000
1000
693.687994557
789.756395135
877.572746665
937.744710775
972.037424331
989.215260457
996.542838365
999.104397572
999.830437927
999.983552226
999.999747594
999.999999692
1000
1000
1000
1000
1000
1000
1000
1000
701.911385621
767.09689039
838.529162389
901.686563444
947.877842434
976.701504641
991.52830136
997.575708465
999.484271796
999.93427889
999.997486638
999.999995886
999.999999997
1000
1000
1000
1000
1000
1000
1000
715.342473887
758.613227271
808.90116701
863.50118558
914.293986255
954.420021406
980.41913257
993.58114289
998.492118738
999.777861352
999.98623909
999.999918817
999.999999954
1000
1000
1000
1000
1000
1000
1000
717.861963269
753.794648972
790.518122144
832.30784035
878.612821047
923.736408871
960.420452485
984.229653269
995.612215599
999.247709927
999.938306692
999.998840516
999.999999254
1000
1000
1000
1000
1000
1000
1000
717.228257746
750.725614753
780.53984037
811.29386123
848.888258052
891.428076804
933.13152865
967.043605319
988.357202334
997.465104104
999.725680256
999.990130596
999.999978918
999.999999992
1000
1000
1000
1000
1000
1000
717.852644464
749.282242548
771.944617254
795.40051379
825.641006751
863.058089946
903.952555389
942.874710555
973.984768
992.312984049
998.823838288
999.931585249
999.999198362
999.99999969
1000
1000
1000
1000
1000
1000
716.460922525
749.217026189
765.072209182
783.0217263
808.019529644
840.854735985
877.785329894
915.909207762
952.138744823
980.763373362
995.700119007
999.601714331
999.9896169
999.999982612
999.999999995
1000
1000
1000
1000
1000
717.892321094
750.408881741
763.169131842
777.515451594
797.897059914
825.733324672
857.343898756
890.957053819
926.426195999
961.706383745
987.786885753
998.235793184
999.918677423
999.99932342
999.999999711
1000
1000
1000
1000
1000
716.552560925
753.97020463
765.439411748
778.984830507
796.784536957
818.289074821
843.185383782
870.774601362
902.39216443
938.826168263
973.872236013
994.372357758
999.574817406
999.992622604
999.999991679
999.999999997
1000
1000
1000
1000
717.941322098
760.294517382
773.362465553
786.046800019
800.026556424
816.136000693
834.234433851
856.380625246
884.279421826
918.497766021
956.827339166
987.034230412
998.509558721
999.957164289
999.999844537
999.99999992
1000
1000
1000
1000
717.25766946
768.463497946
783.197132636
795.686820767
805.261360955
815.513355779
828.492394222
847.149234542
872.398371619
903.402139177
940.582018554
977.014887348
996.252641958
999.834159052
999.998701396
999.999999189
1000
1000
1000
1000
717.941505106
774.56717733
787.566159137
797.885420606
805.49665042
813.426615951
823.914080353
840.922580383
863.903754257
891.155080648
925.335141836
965.082761694
992.344874527
999.487057099
999.992619172
999.999994872
999.999999999
1000
1000
1000
722.665616192
775.771058548
785.827567921
793.865872013
800.450200022
807.645619745
818.532692447
834.992073837
855.043917089
877.644165832
907.886988003
949.210296185
985.241168937
998.465394775
999.95827726
999.999847745
999.999999993
1000
1000
1000
729.590846391
769.252581821
774.562319266
778.929333913
786.14881223
797.100979067
811.084784396
826.867125739
842.945287331
860.491290169
885.514186593
925.205378481
970.398163331
995.011275363
999.737113802
999.996982472
999.999999785
1000
1000
1000
721.087751314
746.523955359
751.52727725
755.864537521
767.018808339
783.981208395
801.559140956
817.019267743
830.310747882
843.286822469
861.534833241
892.941192903
941.560093628
983.944487509
998.443068992
999.96117708
999.99990543
1000
1000
1000
696.553719653
719.35198636
725.508023004
733.525220171
749.558948867
771.505176083
792.714105419
810.907704121
826.850237707
838.358093333
845.065512415
860.80526697
900.655615065
958.062571962
992.885861063
999.649605291
999.996425327
999.999999802
1000
1000
686.293257659
708.542835556
709.019875736
717.663224024
736.763837188
762.653427809
787.916629263
810.017962799
827.963913673
840.19273349
842.59979014
842.797454222
864.663710548
920.57043267
978.000131935
998.030803115
999.957751796
999.999912157
999.999999997
1000
687.532730294
706.711207013
706.823033869
711.622090702
730.009699475
758.495159422
786.981781044
811.290281187
832.632560243
846.032229477
844.129858753
842.824227173
848.463188615
889.21835145
955.064948261
993.282384848
999.739425669
999.998137099
999.999999852
1000
685.292222791
707.542140436
706.906221178
711.167454811
729.148777186
758.335552573
788.469701528
816.960255346
842.452814547
851.61201762
849.362825495
843.503315609
844.397488705
873.1692263
934.652903064
985.452632828
999.083175248
999.988152313
999.999990894
999.999999999
687.53235761
710.551626615
708.032341237
712.992356365
731.351003582
761.579664979
795.315189073
828.735263245
851.207991038
851.692862304
851.616545106
848.202033732
845.619304928
866.656987844
921.667090051
977.485465674
997.977754167
999.961215439
999.999906305
999.999999956
685.305751159
715.855746256
711.524986954
718.445206916
738.93917168
771.625121787
809.015998187
843.833201058
851.712427234
851.616502355
851.915413676
851.616526315
849.463248774
863.550458487
913.235793547
970.982966562
996.669160054
999.915182552
999.99965465
999.999999723
687.532454171
722.213945935
717.629880775
727.558019049
752.199061527
788.148260004
826.586580234
851.558070419
851.61644468
852.035678322
851.616492943
852.012276605
850.034979385
858.260066094
904.927593878
964.666393161
995.071835677
999.840822882
999.999114648
999.999999033
685.552288396
728.587309016
725.737919171
739.169107067
768.271069701
806.613820538
843.026856934
851.616367633
851.999554353
851.616446845
852.345829477
851.616470271
841.046882225
845.261745754
891.857085083
955.105367839
992.315976633
999.681029887
999.997736822
999.999997039
687.532656072
734.506723825
736.49606395
753.369260093
784.299425802
821.49879697
850.965350734
851.845383268
851.616387339
852.406551942
851.61643284
851.235600292
821.389854318
824.099492154
869.151463976
937.414002486
986.488659698
999.244964988
999.993006838
999.999989473
686.645150728
741.520020399
750.967574223
770.663882406
799.703379424
831.86276201
851.664790583
851.616309272
852.296736191
851.616384928
852.439779808
828.106119803
819.827124386
819.595273442
845.527412743
910.002292565
974.891976574
998.051499351
999.974751285
999.999954389
687.800028573
751.707236867
765.475867665
786.429078413
811.491161096
837.361890445
851.616188677
852.090516286
851.616325403
852.439731507
839.849020073
819.827080654
819.366884675
819.827083868
824.47551681
878.809493433
956.817509961
995.209642501
999.902710378
999.999730783
690.825854425
765.310209013
775.739187132
792.763812679
814.46137763
837.534215828
851.799168386
851.616248103
852.416405941
842.870285123
820.251518429
819.366838571
819.827040516
819.458974534
819.827040248
856.202256226
934.64481058
989.413155531
999.638648515
999.998209084
711.172207118
776.257156137
777.25028336
790.912293235
812.142247037
832.771692518
844.334244624
843.086031452
836.316484099
826.769115456
821.734998766
819.826990086
819.562423837
819.826993315
819.691107987
842.864037877
911.613847172
979.217920543
998.81205375
999.989341534
735.750536952
771.923788385
768.107068793
778.047204304
800.662219631
818.845021617
824.691968762
823.26898227
825.183289697
829.328369401
832.784620721
829.548185363
822.724039888
819.704225286
819.826943044
835.264074147
889.009153212
963.019006667
996.540968291
999.943530023
736.655919252
742.908696649
734.995367688
745.029374321
775.703338523
799.118907575
808.885810062
816.166439307
827.875377684
841.085341271
849.194960319
846.173282936
835.122244356
825.949500752
823.368214696
830.933340401
866.904714735
939.462756249
990.957572898
999.728920364
720.335540446
697.428866838
691.667970673
700.131567372
734.433964148
771.71596146
795.499060294
812.654067162
831.034038811
850.631983299
860.317068455
859.313610785
851.098275373
840.323831456
832.162914008
829.288529747
846.979060066
909.372425743
978.959849498
998.872420772
691.355105777
668.44648463
666.658875533
668.240785526
688.412709028
729.758146082
772.083868908
802.59422773
828.280974249
851.037657321
864.722061155
865.279536793
861.795630633
854.565327047
842.127201918
829.307629424
831.13744763
877.131888248
958.102922256
996.099563324
669.439794676
658.367171364
657.093999905
655.373385711
661.713392189
688.508698132
736.741807917
780.977655184
817.19288964
847.564259562
865.364779132
866.596452273
866.033500836
863.123014781
851.935113995
829.590995428
817.194278672
850.809236752
931.547007552
989.500241498
653.752907452
654.128863378
653.193064555
651.555382796
653.109648348
667.970450873
708.296580897
757.885483952
802.655344695
841.13565878
865.013308224
866.850085381
866.772821239
866.221688214
859.13143373
831.787662104
811.685554934
834.263904843
907.296542065
978.621485261
644.420343789
651.871970713
651.273050528
650.840675841
651.158222765
662.45654523
697.425693251
746.333200343
794.780145933
837.715414738
864.675335706
866.797505996
866.94347124
866.797534743
863.994288414
836.78826824
811.684674955
826.628888181
890.250140484
965.85556019
642.130217707
650.769826017
650.605082019
650.748119939
650.878898339
661.993617921
696.521730906
745.005211242
794.263973702
838.319244882
865.119233226
866.938817222
866.797513708
867.087988941
866.659441782
842.261694999
811.685508839
823.677701327
879.450821874
953.82237528
644.261994991
650.311803539
650.491329775
650.652340973
650.810196228
664.442750434
700.899668434
749.49500719
799.455330332
844.22865022
866.383238817
866.797485815
867.114263758
866.797512953
867.116924498
845.344339856
812.200183263
822.154483622
871.386944493
942.643412052
641.122816436
650.640854267
650.636823652
650.804477135
652.761821944
674.243146221
715.600778506
764.992172063
815.133820067
856.310855644
866.797451804
867.052136821
866.797496603
867.305054261
866.797506168
845.518475706
812.339831994
820.266257597
862.850719017
930.744742096
643.823589621
652.271460837
650.789655218
651.101967424
660.860398923
692.710484001
739.300951003
790.162057581
838.533146298
865.678855669
866.944537191
866.797472397
867.28709142
866.797495403
867.389406229
841.495309577
811.451796587
817.032890349
852.145658961
916.845994982
640.774872118
655.99672635
653.632783123
657.247240822
677.331623761
717.335914063
767.688906321
819.704343702
859.992432675
866.893921427
866.797440205
867.275870341
866.809362057
867.491467758
866.292029158
833.750180553
810.651656342
812.947294596
839.723906053
901.347292
643.780644967
662.18222914
663.213504463
673.31065719
701.460558734
745.95396031
798.353433962
847.683446967
866.832781114
866.797400166
867.255410287
866.809339035
867.522540226
866.80935577
862.009551182
828.448981566
810.53866276
807.790611846
828.344330075
886.682675484
640.015960504
671.812088932
679.771320906
697.990424119
731.580102522
778.258159741
829.753138054
864.486272939
866.797348132
867.228289364
866.809309194
867.574921396
867.153396954
867.424116483
856.932125913
825.760199216
810.396929581
807.203453275
821.036504829
873.758646975
643.513662958
686.7054553
703.225678834
729.329489203
766.76141264
813.602866827
856.914683745
866.797268741
867.211476134
866.809271475
867.627135305
867.153374499
867.732747486
867.153384176
852.160943125
825.415235951
811.640604201
807.207474875
815.839619757
862.085729665
640.40326726
710.192629764
736.027311117
768.059486891
805.97739834
847.449417762
866.79712082
867.111691159
866.809221476
867.66539028
867.153344876
867.83947691
867.33169302
867.526378745
848.373547105
827.417921205
814.206591212
807.206614553
811.046673257
850.87275367
643.205814358
744.477331815
780.044790249
813.912450922
845.746320804
866.511493124
867.029933731
866.80914892
867.704837765
867.15330746
867.959509161
867.331667106
867.870011612
865.506065794
848.10792902
832.353704874
817.71289204
807.560827023
805.551829575
836.91583855
642.201930933
787.15445232
826.514377198
854.449943083
866.794415923
867.038755683
866.809035328
867.807921039
867.153260857
868.123385851
867.331633774
868.013607659
867.460412745
863.981147256
852.166051477
840.258105372
823.046559716
808.422719276
801.211631656
818.080316113
649.905259804
830.795669618
855.047822004
866.794420011
867.28868168
866.808835873
868.030382015
867.153201876
868.316958633
867.331592515
868.173704679
867.460379079
867.777019974
863.983796378
859.949439874
851.511841014
831.988791042
810.918868166
801.152116037
803.353561643
703.634838604
851.610362364
857.022111244
865.475931015
866.79653359
867.967120357
867.153122211
868.316896831
867.331537371
868.32186453
867.460330765
867.87438096
867.554811157
866.275640435
867.750718081
864.071992969
845.625969426
817.33194811
801.146812686
798.304290861
767.218078706
840.636182801
837.802261334
842.979906374
860.090047962
866.797052983
868.05317902
867.153119159
868.171182659
866.644144264
865.066988781
866.712505349
867.992373548
870.324099196
872.605916318
873.109622778
861.533710604
829.427480751
803.339037207
797.369877527
763.071673282
772.732091264
767.716344278
778.052611562
811.095208434
838.22339464
850.741637006
857.115508746
858.501354089
859.426440211
864.265504661
868.771432453
871.311561
873.05921733
874.517784894
876.275117055
873.91343027
848.394206456
811.933234042
796.599335049
699.788488793
674.13319617
680.76691286
689.892366425
714.247924355
741.415698231
769.586144177
800.994843587
830.68655263
851.035680274
863.923552489
871.345760798
874.441096704
874.971933333
875.221352038
877.039136716
878.231726024
868.435322248
829.042609724
797.300065698
628.011599168
629.40629123
634.136585509
635.978159182
641.991762558
652.68034927
670.864103114
705.675119454
764.971852386
819.656612978
853.192874907
870.218915736
876.411031199
876.750471591
876.052675952
877.047802859
878.638818383
877.83465904
851.668811484
804.849957909
614.213096607
621.042232783
619.909836064
619.003334521
619.535886545
622.542154327
629.296865382
645.205113013
692.696544178
764.176003824
823.65139097
862.027702953
877.2105111
878.182448561
877.142088086
877.046394256
878.667102504
878.792951212
872.045687291
822.545449214
615.229190914
618.317256161
616.734917704
616.548052541
616.956855978
616.901858208
619.650444068
628.529761693
659.730407668
723.845266252
792.318028631
847.746405061
876.999784868
878.687515557
878.224616344
877.32101061
878.516973851
878.906060893
878.788436966
843.02660139
613.428160354
616.92231869
616.363022493
616.759917183
616.407281277
616.961088478
617.12617302
624.604010435
651.082283263
706.955469141
774.939617311
836.936032418
875.416227399
878.757672938
878.756680132
878.049907878
878.391408789
878.971584156
879.105731453
857.982109952
615.1040213
616.334256429
616.514187008
616.260490389
616.770891115
616.576267943
616.962895349
623.545087244
649.581981011
702.599083945
769.455446562
833.511704242
874.523226737
878.835708974
878.874675004
878.73572492
878.473299559
879.002963841
879.144563616
866.518807476
613.31411469
616.366470866
616.365530092
616.654789252
616.572417977
616.890794875
616.856624403
623.756376701
650.895202148
703.808571463
770.333443801
834.906163646
875.276014544
878.911945183
878.942264966
878.873861755
878.738682503
878.993231988
879.156328373
870.728563578
615.078340577
616.783809423
616.630210851
616.562886901
616.887305065
616.700248805
617.131818832
626.013930551
657.566668919
712.241970449
778.596225779
842.595854109
877.396253161
878.983547125
879.002306422
878.974456485
878.890628953
879.030052541
879.193689743
872.400139973
613.906571883
618.182242871
616.610310434
616.878144163
616.675013399
617.130720434
617.186030985
632.462088939
671.532642521
729.411819962
795.408236631
855.758546018
878.754086442
879.077598946
879.079488058
879.036602207
878.974284985
879.067323601
879.203869733
872.547538016
615.207061806
620.821527663
616.853897307
616.799071652
617.127711196
617.024366887
619.73341013
644.520339504
691.66559481
752.446297116
817.578517945
869.662852684
879.086927904
879.105637367
879.185678964
879.121499372
879.033035957
879.084915693
879.227182451
871.720871362
614.489187898
625.496996736
617.638464217
617.1194432
617.02164595
617.342436758
627.650221892
662.552675085
716.374189227
779.31822421
842.358279639
877.943540093
879.105608098
879.26956262
879.154494594
879.225981179
879.112373028
879.123970907
879.241443464
869.701639093
615.529166645
632.790733037
621.033746035
617.368177702
617.340191365
620.279924172
642.002234716
685.894030681
744.225889592
808.424696543
864.923788214
879.105576395
879.298025564
879.154474067
879.365244571
879.192672232
879.219945135
879.151770881
879.263225473
867.558991603
615.424104716
642.854528863
628.294023171
622.473560591
622.596712744
632.463073753
663.307975451
713.005104766
773.686816102
837.04777141
877.223627687
879.253313522
879.154448263
879.497952323
879.192659566
879.378880375
879.221047377
879.244801803
879.281048203
866.663307004
616.194428451
654.060531392
641.284780309
637.301455124
639.656091228
656.011538518
691.589701215
742.831652758
803.461810277
861.374681451
879.187140091
879.154247149
879.534735792
879.192641567
879.568527399
879.22103746
879.352825493
879.247782749
879.300463976
867.694535318
624.129359564
667.732248507
661.920499465
663.185651305
669.951533275
689.893363169
725.561475676
775.120542885
832.912049595
876.040126093
879.105543099
879.49884719
879.154271018
879.653560206
879.192641669
879.495371531
877.958390822
878.354750528
881.354432781
872.70111515
640.114328027
689.666391704
689.445107522
697.244861699
709.552503693
730.694097053
763.762253755
809.870309959
860.660218543
879.032370275
879.277533065
879.105570052
879.673535222
879.154275004
879.615184819
875.180599567
870.229856811
879.449511982
889.208303631
881.301023979
662.294254718
721.537702779
720.303130636
732.358203214
750.524035565
773.573053205
804.885622573
846.131823554
877.504029629
879.037703841
879.03239678
879.585967816
879.105576332
879.729981723
874.812317724
858.814495385
867.003076879
884.613424958
896.599459911
889.754530855
692.378511199
749.05591001
743.637593884
754.834551109
779.178564413
809.971857901
842.932646526
873.416368048
878.830646211
878.88417924
879.494790263
879.032402122
879.730688397
877.658173147
850.447556155
850.724588662
868.202500244
886.527464941
897.162592131
896.173985285
721.793794854
749.578945358
749.736435382
756.624338729
785.193722497
825.120066589
860.476713903
878.755780228
878.684045822
879.424605322
878.8841786
879.730638949
876.967587631
846.216404416
834.11665254
849.876212128
867.84070269
885.031381508
897.148322333
898.127095649
729.041135782
745.605453275
736.97112003
744.512045238
776.64625299
820.628181008
858.002175152
877.518401852
879.168892476
878.684028299
876.127466857
854.917327567
824.107641404
807.905201345
825.930748642
847.630587387
862.263128234
878.257848901
894.735832691
898.127812032
709.764804171
704.94187114
699.978386548
707.142870692
736.365939387
781.837401578
825.079584533
850.854554776
855.994483886
846.231024204
808.556227773
763.752905843
746.582447883
769.49106967
807.492203031
834.797146211
850.182581273
866.042619247
886.825006764
897.417162028
663.249631952
661.184913395
663.761671049
667.067852746
679.585765288
706.392919421
743.250582563
775.072260931
782.921432002
764.926234522
724.65342831
695.457766386
692.888606682
721.114037383
763.698294958
803.453628588
832.217404504
852.629184238
873.827814947
892.856413011
639.93912996
646.375283957
647.104513571
646.938910031
649.217343243
657.478497886
676.229788412
705.475687356
724.140030685
717.93353972
697.848093908
683.651336773
683.377715728
685.960977617
715.183110397
762.734102781
809.115044822
840.302283362
862.064348916
883.735260388
640.64354118
643.052106275
641.880946753
641.833207653
642.074121809
644.744393655
656.380824351
684.222672698
709.608537457
709.907547104
695.751411862
683.39751176
683.651374205
683.354927459
695.727219784
737.110892575
790.531657096
831.602558076
856.772339516
876.471787079
639.436179847
641.674805385
641.673986604
641.89234285
641.922713286
642.584974152
654.49000531
683.271622242
709.434854396
710.365783639
696.781832272
683.651265918
683.302691162
683.651413266
693.541985652
732.393041264
785.885429211
829.783015488
856.459569161
875.31259496
640.385275399
641.891370292
641.883072801
641.915303944
642.093368998
642.845453618
657.506681142
688.57674764
714.842695103
715.792213876
702.019430971
683.510169752
683.651331941
683.505585074
694.919956181
734.732196299
788.050896447
831.870674638
858.399402948
876.373933628
639.604570759
644.661821812
641.931800557
642.08723019
642.045244247
646.820400669
670.595071421
706.469213859
730.854131005
730.023527601
712.597849702
687.470610089
683.537765214
684.595833726
703.43848699
746.981733388
799.495873637
841.117863049
864.94229402
880.17038406
640.654217351
653.737512626
642.78565887
642.143584274
643.695125835
659.568136759
695.836782431
735.148447068
754.666706839
750.817788792
727.72623009
697.913202613
689.471491684
696.475714817
725.657074508
773.529519446
823.511896139
858.131259911
875.092105584
885.918234957
640.223461608
667.991412593
649.37651489
648.431572725
655.070254642
683.983165891
728.541508999
767.206313868
780.37642122
773.801675018
747.004971759
717.652058696
711.536753994
725.01025017
761.904180253
811.510757041
854.392527257
876.026491198
884.232806702
890.590171178
640.918304948
681.42980887
665.516891972
666.498849831
680.707875625
717.649437776
763.450173518
798.296002463
806.197902046
798.1303416
772.143990008
749.15515417
749.066693269
767.620918956
807.569429582
852.353238663
879.400546259
886.412714923
888.804246918
892.650681226
642.51485695
693.787703722
686.212098552
692.830342752
714.865319279
754.72833105
797.660991282
828.425233322
833.626804522
825.281558675
804.233775066
790.887671181
795.28438712
817.099240736
852.989406887
881.303596295
888.721700424
889.019541399
889.943012906
893.353946762
652.656036326
708.566687927
704.858059663
716.615495894
746.185061753
789.138938443
829.134282719
854.873746202
858.742555493
852.282554606
839.293334177
834.833871245
840.999843453
860.415005294
881.926263932
889.920816379
889.689041067
889.26850371
890.391473645
893.528024625
674.268340717
721.874936063
716.671599833
728.277513332
763.609164094
812.692478326
850.658677828
865.842284556
866.28970454
865.757033168
863.397067071
862.563012535
868.745231734
881.361686366
889.719422509
890.753827382
889.848350022
889.590610992
890.999513651
893.397490783
696.474648078
722.140316359
718.918565668
728.228552341
765.210980502
817.144175647
854.14556703
866.289635855
866.344281315
866.396795562
866.44361352
866.485404512
873.649087367
884.129291133
890.965658495
891.297679693
890.476020384
890.564985689
891.768782685
892.479833173
699.748323122
715.857331408
708.905890619
717.381212969
754.315747218
806.451938626
844.116168263
859.866307567
862.941953685
863.056391347
862.092103076
863.961037852
872.583688222
883.564092848
890.938678247
892.571921341
892.209136348
892.276541931
892.047975006
889.97059557
682.228084453
681.231225041
680.20810245
687.499225512
714.305401796
755.324427278
790.606432429
813.450111841
826.979335766
834.673296584
840.477559644
850.494389497
864.440028444
879.573595351
890.509231045
894.580023018
894.5388066
894.005806489
891.874519912
885.643677139
644.096249568
646.232384822
652.101168989
656.244335154
665.692008832
681.920969087
700.643013004
720.459841784
742.594949327
765.536431543
788.746132592
813.489976166
839.732880539
866.603720308
887.709337106
896.018041681
896.409630464
895.221096925
891.033578149
880.12315376
628.324505603
639.012712994
642.630251407
642.685181923
643.737017233
646.81337209
651.653528708
660.142185706
675.65055123
699.899735433
731.053443787
766.254482756
804.680394077
845.123134373
880.380810851
896.26653763
897.661580653
895.942331925
889.163681197
874.201521377
628.698545363
643.721158806
642.832117474
642.424682571
642.436023591
642.952967027
646.445339082
652.484927722
663.664270619
683.025867376
711.078901684
746.435401973
787.808405576
833.184266879
875.350690524
896.564385139
898.129756642
896.10819772
885.651607799
868.150545824
628.295112719
665.947677788
648.021977122
643.097109072
643.129626336
646.22654327
651.508190489
657.776905623
668.070523361
685.958253506
712.636918512
747.20498396
788.381230097
834.020046601
876.675066398
897.587613556
898.128287714
895.262684137
878.156221295
862.1179618
628.703036008
692.662541469
660.217172146
650.473884724
651.861430499
662.443425068
673.206289606
680.829374119
690.030702179
705.297998604
729.140407447
761.764849457
802.061875998
847.125024696
886.696675228
898.128262542
898.135324957
888.843682242
862.254325493
856.448787113
628.588898616
704.065664682
677.838691445
667.68151173
672.568875842
694.241917403
714.361382655
726.576842265
737.373840528
751.942687373
773.692482408
803.799685894
841.089532101
879.034762747
897.830330959
898.135299434
893.09043905
863.349077802
842.604882151
853.601989664
636.731509216
709.131275567
695.185696601
688.941316074
697.542220965
729.055547138
762.382664096
785.45759672
803.177968695
820.821196936
841.714956798
865.434256832
886.910290871
895.945251697
897.883124356
890.123648596
857.254256005
826.621615931
833.575157414
859.381732439
658.432765669
716.917171577
709.384919228
706.70093026
716.863723786
753.528833112
799.233431184
836.175741822
861.940830924
878.892368105
887.848132202
892.056106452
892.413539697
892.877040447
878.225186053
839.297293401
809.084349235
813.09512248
839.212753969
876.877217686
686.95522847
717.793326877
717.857503023
717.520967252
729.133009872
769.964207617
820.070478769
857.728015194
878.739122679
887.877264245
888.197447977
888.329595337
877.633147831
851.072804976
809.962330789
793.493705895
797.298664359
820.84176329
862.371036296
896.823041499
713.620162221
717.954711638
718.096669037
718.223502595
735.568010386
783.890863441
829.303661726
858.274960698
872.931708921
874.433752353
866.34224272
843.854618901
811.409030177
786.763496122
785.407232134
788.448440273
809.183192377
851.460794704
892.615086533
902.207638092
717.602066021
717.797022119
713.775366724
707.264875747
735.38611356
787.803464533
827.384581891
844.646972165
838.34147987
821.99085847
802.391344548
779.953914292
777.128241692
776.915461241
785.31895691
807.058710459
848.523299703
890.175732016
902.193098662
902.178489637
692.07870778
680.814020748
677.101177753
675.797124099
715.067109149
766.509010279
801.57038172
809.850750495
797.152650243
784.357489789
777.217858514
776.975753496
777.673667388
789.182882967
815.495299736
855.387645466
891.399570019
902.180091491
902.17847795
902.312374605
625.329041972
622.011215736
627.912961014
631.758113925
655.501388015
688.979214742
731.07909408
767.271718026
784.245852271
787.278340365
785.318732671
788.467979642
803.104135421
832.848174679
869.265925292
895.825045985
902.186854697
902.178460739
902.460125165
893.158872421
593.382003901
599.130693295
601.81398555
603.229420444
608.34375491
618.782862989
646.871491512
704.03391483
766.102101251
798.762540023
816.935855798
831.337956279
855.872034849
884.889062629
900.109823695
902.208196225
902.178437577
902.42856813
902.178453352
829.595122133
593.969178715
595.800398459
595.861031023
595.766715771
595.706836125
597.057064316
607.242996343
642.13818807
723.704846456
792.187115349
833.744458051
870.429250028
895.931307303
902.090193349
902.225008193
902.17840942
902.425761788
902.178440619
882.42998415
757.645505452
592.651105421
595.437190508
595.545433591
595.515898905
595.658180508
595.583577478
598.013172919
615.4400592
673.790527345
763.701799209
826.784371233
871.908584959
902.178319278
902.240139784
902.178377394
902.443394887
902.178421673
902.584108182
836.173938151
731.017694981
593.876159369
596.12716359
595.5455103
595.642296433
595.576398904
595.749860624
596.398209136
609.417881742
648.799156399
725.876924032
804.862589669
863.666787194
900.322366643
902.178342527
902.432654781
902.178396013
902.698990765
900.620473413
792.457530459
729.297131318
592.723093999
598.730865538
597.228100505
595.620967586
595.743355052
595.623397496
596.186685786
608.853394926
643.297233464
703.711390203
778.698054268
845.993613414
893.347017375
902.309657501
902.178364427
902.6393471
902.178407421
891.683822278
767.95639904
729.99088288
593.821902602
603.254591203
601.409188173
598.002649333
595.714559748
595.828226656
597.359703392
610.433742819
643.619454777
697.842527139
763.718276196
829.677469306
883.705641277
902.178329453
902.46088781
902.178380486
902.749533899
879.20277468
756.542936591
731.240506126