/*--------------------------------*- C++ -*----------------------------------*\
| =========                 |                                                 |
| \\      /  F ield         | OpenFOAM: The Open Source CFD Toolbox           |
|  \\    /   O peration     | Version:  2312                                  |
|   \\  /    A nd           | Website:  www.openfoam.com                      |
|    \\/     M anipulation  |                                                 |
\*---------------------------------------------------------------------------*/
FoamFile
{
    version     2.0;
    format      ascii;
    arch        "LSB;label=32;scalar=64";
    class       volScalarField;
    location    "0.86/water";
    object      alpha.gas_0;
}
// * * * * * * * * * * * * * * * * * * * * * * * * * * * * * * * * * * * * * //

dimensions      [0 0 0 0 0 0 0];

internalField   nonuniform List<scalar> 
6000
(
0.167616316937
0.103530557841
0.0302849167265
0.00786288669803
0.00151577935939
0.000237215001253
3.02783906373e-05
2.43977303259e-06
6.09832205924e-08
6.06163477903e-10
3.36144857184e-12
1.42022214765e-14
1e-15
1e-15
1e-15
1e-15
1e-15
1e-15
1e-15
1e-15
0.611450697382
0.25485532389
0.107142444315
0.0372250584031
0.0120020807592
0.00325573623319
0.000748708708787
0.000137299620278
1.50307733761e-05
4.00675240377e-07
1.56962194535e-09
2.68355826091e-12
4.24069533546e-15
1e-15
1e-15
1e-15
1e-15
1e-15
1e-15
1e-15
0.613304089033
0.335537496358
0.16481744888
0.0708003385909
0.0276551199267
0.0093955060783
0.00269406829388
0.000629120223448
9.98019919811e-05
5.9655395344e-06
3.64121499487e-08
4.99628518916e-11
5.00768532162e-14
1.00116097794e-15
1e-15
1e-15
1e-15
1e-15
1e-15
1e-15
0.613303650933
0.41482826214
0.239170280051
0.121473928127
0.054852653715
0.02137972511
0.00699126542388
0.00186758975786
0.000365194527313
3.62708846648e-05
6.00760868277e-07
7.92876684468e-10
5.48253782528e-13
1.27015921883e-15
1e-15
1e-15
1e-15
1e-15
1e-15
1e-15
0.597006407356
0.463078769275
0.318597874142
0.193073202818
0.102269906008
0.0458115358238
0.0167920454524
0.00489373291088
0.00106630556185
0.000137977717984
5.32456071898e-06
1.08102488553e-08
5.7489909224e-12
3.67268883537e-15
1.0000424251e-15
1e-15
1e-15
1e-15
1e-15
1e-15
0.569582941119
0.481257635744
0.379868269927
0.270580852904
0.169465347203
0.0898104037687
0.0384614901
0.0126460803485
0.00300908710545
0.000449801925221
2.8004764809e-05
1.84283744745e-07
1.03204978286e-10
4.19771993286e-14
1.00945063727e-15
1e-15
1e-15
1e-15
1e-15
1e-15
0.561632786668
0.48951161843
0.417367047892
0.334335352405
0.24162030137
0.150950651271
0.0776551777463
0.0307293150947
0.00856425311317
0.00148344309289
0.000122877484669
2.33298029243e-06
1.7532549029e-09
5.8167572489e-13
1.16852397281e-15
1.00011637294e-15
1.00006737085e-15
1.00005123972e-15
1.00004206301e-15
1.00000275863e-15
0.561257693503
0.494790979973
0.437305891323
0.376956724904
0.301440957573
0.21517433834
0.13122892501
0.0640892399946
0.0225703709661
0.00493610694178
0.000537475918369
1.92392769858e-05
5.16248721813e-08
1.69088722438e-11
5.46185449093e-15
1.00088456007e-15
1.00010806455e-15
1.00008455124e-15
1.00006836898e-15
1.00002453495e-15
0.562918720184
0.496911136767
0.45403885296
0.408093853184
0.346920499074
0.270785009789
0.188477391482
0.111395334868
0.0505875431446
0.0149448605072
0.00227745826501
0.000129930924456
1.44006604354e-06
7.02999546526e-10
1.70707223014e-13
1.03348580018e-15
1.00025408387e-15
1.00021555988e-15
1.0001783228e-15
1.00009146066e-15
0.561068402511
0.496412011253
0.466205467512
0.430275793166
0.379360776246
0.3131695536
0.239710533978
0.164639783576
0.0935424929791
0.0373969512998
0.00822528186245
0.000732774461268
1.76000235487e-05
3.24625276545e-08
1.10768423746e-11
3.56660189593e-15
1.00141377168e-15
1.00063570662e-15
1.0003946951e-15
1.00027007348e-15
0.563437314164
0.492480460428
0.467092980004
0.437503324365
0.396253622869
0.341501824563
0.280025570473
0.214176012514
0.144008739224
0.0740903215333
0.0229967887034
0.00314463011708
0.000131224236158
8.95071106113e-07
5.55138338386e-10
1.66540804304e-13
1.03495752128e-15
1.00273454322e-15
1.00147848932e-15
1.00054960885e-15
0.560993124741
0.483389968638
0.460342393541
0.433005315106
0.398723040958
0.357168816985
0.309041242225
0.254275042981
0.19043233879
0.117278300564
0.0484119561813
0.00974941346242
0.000651926970417
9.27128372432e-06
1.17677823409e-08
4.9621499175e-12
2.4103876305e-15
1.00598732496e-15
1.00385110779e-15
1.00134286533e-15
0.562662895349
0.468544194163
0.441213082241
0.417789442532
0.393656231778
0.364617210149
0.328834846217
0.282753950095
0.224827699025
0.155382106671
0.0793856207599
0.0220757626054
0.00222704221978
5.39314442056e-05
1.56766048041e-07
9.57924219232e-11
3.4588984904e-14
1.01413802524e-15
1.00458711185e-15
1.00223657873e-15
0.560767114773
0.452902623508
0.424311048457
0.404899403102
0.390037825832
0.370438929484
0.342467893553
0.301273703382
0.248334730513
0.185372976853
0.110267120758
0.0394985873581
0.00570609509457
0.000219235271432
1.44364469267e-06
9.97635947325e-10
2.73249292417e-13
1.04604473098e-15
1.00377053329e-15
1.00200476381e-15
0.557736882969
0.44539592534
0.423928983949
0.407627717115
0.395025596201
0.379563374977
0.353865826556
0.315079157075
0.26783232742
0.212898510313
0.142443040562
0.0627790985705
0.012584892345
0.00077830003025
1.07514942698e-05
6.44201354335e-09
6.8378709419e-13
1.04010023392e-15
1.00142301265e-15
1.00092146515e-15
0.539872803564
0.450183389854
0.437852484613
0.427703198943
0.415180031652
0.395785734971
0.366793592787
0.330398555905
0.290544794655
0.245183771635
0.182480202238
0.0980332336435
0.0275375960426
0.00284000796222
8.02148002926e-05
2.93233943936e-07
8.09520630654e-13
1.2098650073e-15
1.00001973822e-15
1.00002315184e-15
0.543278644474
0.482923199377
0.477235126381
0.469441582852
0.449649715536
0.418621786485
0.384134722717
0.3509890095
0.319008535939
0.283207504904
0.23259302094
0.15323224658
0.0617690520501
0.0107707832821
0.00059574949255
7.13749221999e-06
6.17020392547e-10
1.17615586899e-14
1.00121322513e-15
1e-15
0.588815287108
0.540416567276
0.525338124273
0.512562439245
0.484165707387
0.443212486084
0.403191941929
0.369421874687
0.340587321004
0.314832897735
0.280651726674
0.221756105581
0.125449125115
0.0360391297195
0.00365393665066
9.49809514369e-05
2.76222483341e-07
2.05113214899e-12
1.59793810408e-15
1e-15
0.622566386458
0.57402538939
0.563056957755
0.544626750974
0.509635254019
0.461898184106
0.41514016596
0.374783575723
0.341889872071
0.319347820914
0.309661407336
0.282070343951
0.205404249242
0.0895595705544
0.0157572032714
0.000803578568239
8.51178613457e-06
3.29599378995e-10
3.68966961233e-14
1.00518156854e-15
0.620619443661
0.58138601351
0.581257331554
0.564368772509
0.524786056025
0.470658448544
0.417793730991
0.373661424597
0.337470991077
0.314351245152
0.311840804157
0.311760388035
0.268837596427
0.157944504269
0.0442409148501
0.00401590396532
8.58565826861e-05
1.8556228034e-07
4.83391201884e-12
2.09467548212e-15
0.625001159354
0.581462160003
0.581305347804
0.570311755761
0.530228536305
0.472056118178
0.416002541305
0.366257300424
0.32306811771
0.301568535769
0.308356492468
0.311680093
0.295685114391
0.209703569568
0.0829426966096
0.0121021458417
0.000445412503673
2.8283585124e-06
5.30142617243e-10
1.19294312233e-13
0.620828813272
0.577560747694
0.581166819839
0.569267910972
0.528636455465
0.468253075171
0.405838672045
0.346665154877
0.301466617276
0.296824366626
0.298671192109
0.309910579599
0.302621168752
0.235870190537
0.114966378344
0.0237801538973
0.00134561244565
1.47594903263e-05
1.57757103237e-08
6.23753900976e-12
0.625076400886
0.568259020121
0.575047080854
0.56064382442
0.517644120159
0.452517823398
0.381863755541
0.316655617387
0.296765366777
0.296924434733
0.296533043398
0.299869397692
0.300661601714
0.249369278613
0.13591924695
0.0349484949324
0.00269334743625
4.20670582287e-05
8.95023690208e-08
5.99436587745e-11
0.620828813272
0.555833507447
0.562402451924
0.542409842725
0.493348510019
0.422572004947
0.347877073556
0.297320379215
0.296924434733
0.296162132562
0.296924434733
0.296431038843
0.298103100732
0.26000654434
0.151909481389
0.0449683041849
0.00434129443272
8.75761700361e-05
2.73144302806e-07
2.49414826862e-10
0.624653075663
0.54336475251
0.546763730898
0.518272345912
0.460497989083
0.385432635231
0.313572293174
0.296924434733
0.296160158388
0.296924434733
0.295625993405
0.296924434733
0.308775568842
0.279384357894
0.171347925107
0.057355958991
0.00685209806401
0.000176094700061
7.17766587311e-07
7.72420398274e-10
0.620619443661
0.533106796343
0.528995312848
0.492256864789
0.427930312397
0.353265988853
0.297416022757
0.296449167338
0.296924434733
0.295380173152
0.296924434733
0.297983846128
0.35073499105
0.313165579654
0.205492332712
0.0801834144194
0.0121834619018
0.000414455076457
2.19887183912e-06
2.65170934058e-09
0.623528648888
0.522363822344
0.507411754436
0.465491541052
0.401145793035
0.332771102909
0.296782827539
0.296924434733
0.295513984242
0.296924434733
0.29528291594
0.340008440875
0.359866964871
0.354240444655
0.261898604508
0.122266586684
0.0242810270124
0.00116234554896
8.6158997878e-06
1.14325539121e-08
0.620519979709
0.508412535726
0.480342720864
0.436666755169
0.379600327387
0.322455432254
0.296924434733
0.295873216832
0.296924434733
0.29528291594
0.316938298431
0.359866964871
0.360671431452
0.359866964871
0.313541791204
0.182345399341
0.0481853924899
0.00335849948683
3.80133881927e-05
5.35523215578e-08
0.621238664642
0.489669149233
0.458004040461
0.416780112821
0.369900251133
0.321589863359
0.296457360766
0.296924434733
0.29528291594
0.309801443963
0.358707281801
0.360671431452
0.359866964871
0.360264791425
0.347990016714
0.242193021703
0.0844310576214
0.00884615801177
0.000167506761786
3.74564699663e-07
0.612492838877
0.467160219706
0.448057398206
0.415421402723
0.372782253726
0.330987694058
0.307107352648
0.309423508805
0.323808395524
0.348290629578
0.359614813332
0.359866964871
0.360275703516
0.359866964871
0.359940184409
0.282745051316
0.127369009378
0.0201574290391
0.000658677296877
2.84928597853e-06
0.577340758527
0.451432353382
0.449756130406
0.427970945912
0.394258704178
0.362879435672
0.349550855091
0.355737557034
0.355905286763
0.347638257875
0.341366435715
0.346421621509
0.357754602117
0.360013284384
0.359330931362
0.305211584504
0.170804671608
0.039536068825
0.00214556632771
1.71551281267e-05
0.537446528713
0.456709526951
0.472086700258
0.471044795818
0.440628519017
0.405458260879
0.387210285558
0.373560052272
0.352452822386
0.327748759444
0.309257789016
0.315956063845
0.339133341095
0.353584346785
0.352630202284
0.31774403233
0.213179055217
0.0689573878229
0.00595405882666
8.43692993281e-05
0.531061096073
0.503345214779
0.533430061961
0.541509452156
0.492727819802
0.437983214273
0.40241121409
0.371016366805
0.335816516773
0.300000528593
0.281725717782
0.28799954161
0.310294297121
0.331811489119
0.338534798637
0.327809908858
0.256943489778
0.110816923525
0.0147367442601
0.000373083147651
0.56288918349
0.595428140615
0.60787709868
0.609492867134
0.545179234039
0.468065091164
0.413051372667
0.368486713739
0.321867226684
0.282216807099
0.266097710848
0.270403317587
0.285238312284
0.304191868268
0.32529304854
0.345761899206
0.302718044388
0.165685336332
0.0333601464098
0.00149196593769
0.666376520228
0.665618020701
0.654972397874
0.653669426677
0.601387660173
0.511683821133
0.433888474977
0.373912101254
0.320905391659
0.274848968293
0.257183038383
0.259496508084
0.268846893695
0.283133989537
0.319011984596
0.366564592638
0.354677879368
0.23007183524
0.0676435083823
0.0052946549777
0.728851194719
0.69722611895
0.681969283778
0.680174773069
0.651986213449
0.568579331389
0.472097209072
0.393679240542
0.326969931731
0.274208033
0.251087431942
0.251788201311
0.25836884977
0.270768654982
0.31945506269
0.366284963585
0.366791813775
0.284588888015
0.116864592792
0.015388128429
0.734086891387
0.710993662909
0.701376254189
0.698460342598
0.683970945448
0.616029601846
0.513800855042
0.420088460605
0.339089217254
0.275461420163
0.247260611602
0.246972234354
0.251044884774
0.262913882568
0.317297179094
0.366814660885
0.366284963585
0.318229577815
0.167339693062
0.034277383013
0.729148958485
0.71660703013
0.713842658688
0.710609403884
0.697126662205
0.638319506502
0.538920975539
0.437160307276
0.346405153645
0.275876872909
0.246688486104
0.246699564925
0.246978936974
0.256481798794
0.312846339341
0.366284963585
0.366762145985
0.335298788843
0.206193628617
0.0593824901436
0.73479665186
0.718955063197
0.719858858764
0.715948995986
0.700220253739
0.641939766218
0.54413001011
0.439968217761
0.345433650189
0.271968271661
0.246447733319
0.246336165776
0.246564114161
0.251661768981
0.306673545693
0.366641362853
0.366284963585
0.342978798158
0.232415155797
0.0855849089536
0.729506682785
0.720424150549
0.72063652391
0.716883617192
0.698492038422
0.636615890565
0.537841712861
0.43195786374
0.333865905206
0.261772058572
0.246140127298
0.246137680447
0.246354750814
0.249122643807
0.302623404188
0.366284963585
0.366606203464
0.346655437003
0.251448647316
0.110501597597
0.734754653076
0.721036923557
0.720837178769
0.715685298269
0.689710062209
0.618395054322
0.515944544553
0.408131335563
0.310492452452
0.250596096016
0.24582686346
0.246017452887
0.246090116763
0.248984809106
0.302676366317
0.365144059909
0.366284963585
0.349882970015
0.268870275779
0.135275751777
0.729506682785
0.721223176804
0.72075464967
0.71043081415
0.673074393234
0.591483232588
0.484102281228
0.374700823646
0.282249047854
0.246117417576
0.245829931539
0.245668900471
0.246017452887
0.250634307372
0.306434394186
0.362164054701
0.366418609864
0.354689853668
0.288681577356
0.161637378257
0.733979792871
0.720543772014
0.716849337369
0.699200133652
0.649719527913
0.55906988582
0.446796313442
0.336531289588
0.257742970534
0.245631860797
0.24540034565
0.245829931539
0.245503246669
0.254476979161
0.311957144225
0.358069171344
0.366284963585
0.361612018881
0.31182047129
0.189488433687
0.728851194719
0.717193854793
0.707189165079
0.680471927791
0.617975731385
0.518243676239
0.401818292811
0.29523788501
0.246670511649
0.24532043716
0.245631860797
0.24513131502
0.245829931539
0.259709521133
0.315701413722
0.351553623748
0.365410581108
0.371402571088
0.333902172783
0.214123726289
0.732900686571
0.708692671663
0.69080415331
0.651110521666
0.573641213588
0.464671057009
0.347433629327
0.259730491419
0.245394843027
0.245402301977
0.244896680931
0.245631860797
0.245094437368
0.266948448882
0.316243295386
0.342384629984
0.363244859981
0.381577644099
0.349127386842
0.232326290179
0.728342774985
0.693288585464
0.662267029853
0.604722308843
0.511902930845
0.396451513269
0.289370495159
0.245824026231
0.245402301977
0.244727798035
0.245402301977
0.24470195426
0.245631860797
0.274753383447
0.312720438694
0.33182913664
0.360571451944
0.387039919254
0.358379018139
0.248087378812
0.732186706723
0.662181570522
0.610293663218
0.532499112245
0.429024122622
0.318734200525
0.250878157311
0.245402301977
0.244749136285
0.245223022791
0.244359351854
0.245402301977
0.247057401021
0.28110778008
0.304402457929
0.322592746565
0.358711766011
0.388420861433
0.369025342787
0.268228683942
0.727998801276
0.604205540668
0.52414027733
0.429316959156
0.329784375951
0.256881453553
0.245402301977
0.244724832167
0.245223022791
0.24406290883
0.245223022791
0.244363391454
0.253717108537
0.281984522858
0.294564839399
0.315481247649
0.35784430481
0.389807684427
0.385578447323
0.295212486721
0.731238513528
0.512888506352
0.411008365137
0.313028319856
0.255154691663
0.245402301977
0.244647946185
0.245223022791
0.243893979828
0.244891933883
0.244133177873
0.245223022791
0.260456336186
0.277432224049
0.283690734301
0.308462175453
0.356419382476
0.39229300356
0.396556219548
0.329002642141
0.727464088248
0.398720933831
0.29957255327
0.247816281686
0.245402301977
0.244493087009
0.245223022791
0.243645623714
0.244891933883
0.243758358414
0.244891933883
0.246636305044
0.26378580396
0.267198992533
0.270991087562
0.297800566516
0.351777469413
0.392593447802
0.398776301544
0.372232553619
0.656004251408
0.300976376758
0.253503814476
0.245402301977
0.244169890282
0.245223022791
0.243636600105
0.244891933883
0.243566471991
0.244891933883
0.24412680416
0.25310789882
0.259264753492
0.256019303513
0.256872272354
0.280386938469
0.339762914031
0.390083791502
0.398818940247
0.397070066979
0.510790039305
0.291567090855
0.262805598382
0.248430053475
0.245223022791
0.243690395912
0.244891933883
0.243624903297
0.244891933883
0.244193267518
0.247856972223
0.251661379294
0.249494888831
0.245939062421
0.244058776636
0.257894147416
0.316257574116
0.380339695386
0.398879773939
0.399362809929
0.475062857139
0.377871399291
0.352050439202
0.316079930348
0.278639686027
0.2601896769
0.250946915132
0.247705872814
0.245852508141
0.24490589443
0.244497684917
0.242627140692
0.240278690224
0.238686616644
0.236395144007
0.238727056658
0.281890740864
0.359260098057
0.397604858235
0.399403390785
0.574713327327
0.618428045658
0.573728523928
0.524798870305
0.454781386955
0.38338454254
0.31408865096
0.268036006792
0.247750411636
0.238857451293
0.234857074703
0.233305971733
0.233829001368
0.23414010365
0.232908398319
0.231556957563
0.248478039902
0.323708365199
0.389622452387
0.399409175432
0.771621888984
0.796167701574
0.766543778698
0.745148273947
0.707420940747
0.644208884472
0.525847837503
0.374851586145
0.274810009512
0.239849418382
0.230568586533
0.22956537441
0.229910527519
0.231152238562
0.231522904348
0.230315948252
0.231380134445
0.276350134743
0.364878519603
0.399403390785
0.862354036788
0.839165860164
0.830139183964
0.8244385761
0.814169428943
0.789669028069
0.7245548056
0.577917293287
0.38542837376
0.268081900542
0.23188999483
0.229287106999
0.229314913416
0.229430608266
0.230336780509
0.229916129338
0.229110996393
0.239304419417
0.322591676989
0.395370433523
0.861944540958
0.848108480732
0.844374726481
0.838192128026
0.831588687256
0.815585198598
0.775300117341
0.682179956356
0.51101102773
0.336863259079
0.242240294391
0.229314913416
0.229172643898
0.229191319511
0.229325231426
0.229444559073
0.229026147634
0.229150478259
0.279610565398
0.37943610088
0.864079865715
0.854065227021
0.848321149562
0.840008964882
0.832869198061
0.817009578104
0.77884963314
0.69971319638
0.560858541572
0.396650643005
0.264231183208
0.229066479968
0.229191319511
0.229035776015
0.229066978364
0.229084751002
0.228972173845
0.228847068179
0.247477843651
0.350307794972
0.861944540958
0.858347164021
0.848809146148
0.838047899495
0.829367202994
0.812363526514
0.773643245735
0.696988054278
0.567671910728
0.416283238544
0.280834838455
0.229191319511
0.228758161689
0.229066978364
0.228776547017
0.228932736978
0.228850805581
0.228794809233
0.229231812477
0.319369595051
0.863613825946
0.860126150184
0.845926501284
0.828969512438
0.816146497402
0.796009995563
0.754447757614
0.678643315162
0.558961035725
0.414791199069
0.282258900125
0.228952882033
0.229066978364
0.228429238262
0.228932736978
0.22855740171
0.228794809233
0.228604706306
0.228794809233
0.296223163093
0.861944540958
0.858257003574
0.835214355132
0.810045515141
0.791892332837
0.767457888586
0.721058853559
0.641905851243
0.528281238094
0.394540002042
0.271789655429
0.229066978364
0.228592593181
0.228932736978
0.228206732111
0.228794809233
0.228391735904
0.228684517027
0.228438725838
0.282180448317
0.862812190334
0.849014611499
0.814086804416
0.781677509379
0.75884024524
0.729362051607
0.676578084988
0.591434746396
0.478410596958
0.351702971078
0.248142804925
0.228858101963
0.228932736978
0.228213406634
0.228794809233
0.228091339807
0.228684517027
0.228200778213
0.228684517027
0.274907171847
0.861944540958
0.829383491293
0.782412128987
0.745202330845
0.718650925788
0.681905695375
0.61925847782
0.527248192904
0.412967665092
0.294777116002
0.230647160473
0.228932736978
0.228384134453
0.228794809233
0.227996326728
0.228684517027
0.228065679676
0.22847282768
0.22819232486
0.273281387139
0.861419911144
0.797326289106
0.743599158581
0.703471744988
0.671082208781
0.622141974573
0.546593563664
0.446807152398
0.333640615617
0.243381656128
0.228932736978
0.228472187147
0.228794809233
0.227993227709
0.228684517027
0.227936458
0.22847282768
0.228047856793
0.22847282768
0.273857196399
0.849637347116
0.754694675617
0.704873519908
0.661011799955
0.615398279453
0.549077028271
0.458933435707
0.353070710532
0.257429895104
0.228932736978
0.228553822443
0.228794809233
0.227967870019
0.228684517027
0.227811216395
0.22847282768
0.227958119951
0.228372410501
0.22811630178
0.27559449665
0.814297809876
0.715333557272
0.670817848153
0.617840638199
0.552319253282
0.46589036134
0.362995875525
0.266126541606
0.22907584617
0.228638249204
0.228794809233
0.227924605777
0.228684517027
0.227658958275
0.22847282768
0.227770051575
0.228372410501
0.228003860275
0.229761695223
0.274761294353
0.757759600257
0.690892497268
0.63826585298
0.57053553811
0.483428872135
0.379921353241
0.278475370367
0.230048564779
0.228650235931
0.228794809233
0.227825071693
0.228684517027
0.227466753052
0.22847282768
0.227532333298
0.228372410501
0.227899019329
0.228246309876
0.230665298505
0.269398372306
0.70597931571
0.664606477542
0.599848788875
0.512384367123
0.40759286061
0.301319365329
0.234872420431
0.228670134834
0.228794809233
0.227690459287
0.228684517027
0.227209559722
0.22847282768
0.227293303567
0.228372410501
0.227688027887
0.228246309876
0.228032829258
0.229118209829
0.259909579054
0.665738827913
0.6240154753
0.548835069183
0.442442861415
0.330570399101
0.247766665052
0.228912448112
0.228810311701
0.227739893253
0.228684517027
0.22702368232
0.22847282768
0.22710467822
0.228372410501
0.227483598229
0.228246309876
0.227941727782
0.228114802725
0.226881268016
0.247990756418
0.628393209618
0.557015891257
0.477147563424
0.3654394216
0.269268701359
0.23021118878
0.229066978364
0.228035025844
0.228797961736
0.226911113415
0.228684517027
0.227097635086
0.22847282768
0.227444507375
0.228372410501
0.229100603661
0.23577503312
0.230392235379
0.224612690256
0.234667222704
0.575503254931
0.467738825817
0.395591241222
0.303666540636
0.240555665859
0.229191319511
0.228319479886
0.229066978364
0.22690431968
0.228794809233
0.226972042464
0.228684517027
0.227534194037
0.22847282768
0.228116171107
0.24006792463
0.239659398234
0.229988647984
0.224149040283
0.225358414993
0.511836326043
0.404158278881
0.357843626046
0.291543246867
0.239153458476
0.228787667054
0.229191319511
0.226890130863
0.229066978364
0.226873032318
0.228794809233
0.227624358438
0.228684517027
0.228358875776
0.239084739041
0.240137959972
0.238474525212
0.22872372558
0.224134707345
0.224116726847
0.494485068524
0.427724397716
0.386750623447
0.327925714642
0.274925866412
0.249242134528
0.240851710407
0.240995793294
0.241778716035
0.241093529315
0.235962654662
0.232787243509
0.231328198165
0.234337558137
0.239133798967
0.238994306752
0.23515861199
0.22805534532
0.224141900863
0.224057457543
0.547555268902
0.561549068515
0.542099697744
0.503153326797
0.449343779973
0.408031006449
0.395056939087
0.396620726741
0.389452904128
0.351459290286
0.29640244559
0.256787373428
0.240050110643
0.233980698022
0.232127698496
0.2318543087
0.230853598417
0.227644658273
0.224527292131
0.224088169753
0.695280778438
0.742461700454
0.739029780235
0.72569616777
0.699942261803
0.679181676257
0.673015404371
0.674260211746
0.660316746102
0.598411364598
0.479842563246
0.346747736481
0.2682500841
0.236019012937
0.226093885762
0.225654536987
0.226899846313
0.226724283714
0.224999937362
0.2240387936
0.804960855851
0.8181246644
0.812560207217
0.812484486406
0.81089050366
0.810127089359
0.811219971948
0.812394770673
0.80792055279
0.778028061423
0.69390486048
0.531077533813
0.364374186168
0.262206697903
0.227269686567
0.224126475992
0.224356468467
0.225080653914
0.224936229172
0.224060778618
0.837083733567
0.823759795638
0.819993968127
0.824367405638
0.829095114074
0.831306831756
0.831809687971
0.83204268377
0.831766648836
0.822074246628
0.776467214737
0.664160831741
0.497420941234
0.337284104427
0.242261272443
0.224086792329
0.224088169753
0.224065129897
0.224230855206
0.224097780432
0.841846514941
0.816296967531
0.814486361845
0.82129602487
0.830310543575
0.83193263379
0.832237100461
0.83193263379
0.832147300249
0.827234331346
0.788658081644
0.698626735824
0.56572341725
0.412218910285
0.277970696618
0.224706220745
0.224006808769
0.224060778618
0.223995439322
0.22402785563
0.841742885795
0.793323501975
0.791295108763
0.80342825896
0.824010601548
0.832033811803
0.83193263379
0.832250729778
0.83193263379
0.827024400445
0.787590405473
0.700206226379
0.57857886609
0.439370916822
0.303625624462
0.227876180285
0.224060778618
0.223860765938
0.22402785563
0.223905056448
0.841846514941
0.760154058922
0.754132335185
0.76921279196
0.803205383235
0.8263314504
0.831570228525
0.83193263379
0.831779135486
0.82099416493
0.776775062225
0.692715019858
0.575998430734
0.440150924661
0.306240620129
0.228348642067
0.223896242719
0.22402785563
0.223696530386
0.224002088928
0.822654397913
0.727819981458
0.722539494094
0.734348653244
0.769617620697
0.803424338682
0.818747924931
0.822897708231
0.82026104997
0.799204048961
0.74743060676
0.666295462115
0.557865528859
0.428340131105
0.297888202955
0.226289832046
0.224060778618
0.223662900124
0.22402975681
0.223614923153
0.774280582008
0.703799040593
0.70663220015
0.711642918431
0.730541476861
0.757263524734
0.778210996843
0.787082169074
0.782557814329
0.753563850913
0.696859997525
0.616886112686
0.513716938921
0.389545655003
0.269226466322
0.224088169753
0.223826821787
0.224060778618
0.223591164343
0.22402785563
0.711703532918
0.68969778427
0.700799392853
0.69878646345
0.687624285401
0.686433949046
0.700680173024
0.712685833881
0.709021026537
0.679495943808
0.623032581959
0.543297463252
0.440245905653
0.321003237819
0.233144702098
0.223944377104
0.224088169753
0.223598259257
0.224060778618
0.231559422992
0.659546477188
0.682681735493
0.696218677487
0.695898751756
0.646913020999
0.592509177204
0.58624675667
0.597192972546
0.598113249434
0.57427387788
0.521341254214
0.441931675806
0.340642315509
0.247320815155
0.224032485795
0.224116726847
0.223611428107
0.224088169753
0.228932743311
0.293769601401
0.658173527085
0.668660945775
0.68964065833
0.696405255454
0.636514376449
0.505500850615
0.451145891206
0.450808737815
0.454142914649
0.43708292194
0.390874053904
0.319634452505
0.247808954863
0.224119473085
0.224149040283
0.223620178584
0.224116726847
0.228696108777
0.310162706691
0.371402581568
0.654143855195
0.658173527085
0.682136449463
0.698538751262
0.651072155686
0.501002495534
0.371804094344
0.3185969388
0.305298336589
0.29283473812
0.264682086366
0.233786123201
0.224109817248
0.22417248907
0.223636385691
0.224149040283
0.23988187198
0.34029852438
0.430739370375
0.399851841682
0.658173527085
0.655965829648
0.682497504994
0.706068284356
0.680468325658
0.549227014667
0.389682935822
0.298775464267
0.247241867942
0.225509687148
0.224224242063
0.224029240302
0.224196481225
0.223640450854
0.22417248907
0.263779815192
0.40577108428
0.507547850944
0.486181438833
0.398661806562
0.65413167828
0.658173527085
0.694972097169
0.716078866402
0.70453696087
0.63916070149
0.491295077495
0.347447573678
0.263808395549
0.225441665627
0.223969867601
0.224224242063
0.223640450854
0.224196481225
0.288674503931
0.464633503228
0.587712394285
0.578105704538
0.497994781972
0.395049835883
0.658173527085
0.678594561217
0.715724343737
0.719617176016
0.717177361897
0.698805913927
0.629905642934
0.499666978091
0.36544858579
0.272678995845
0.233376202314
0.22803014197
0.239209844877
0.312888760659
0.491859596386
0.606741223573
0.615068922958
0.589196816187
0.500201025659
0.390143732356
0.692440066511
0.714009713264
0.719950411408
0.71943424166
0.719628399286
0.717738796529
0.70196441837
0.647257871374
0.539583522013
0.411592352891
0.31928225661
0.307597239235
0.352645943724
0.496300677557
0.608476623018
0.615197619918
0.614681506804
0.589392605608
0.497887372785
0.377742468675
0.719972484941
0.7199325205
0.719724369639
0.720008808087
0.71943424166
0.719504286411
0.717934817758
0.702194121699
0.647723439566
0.552045176784
0.463825588325
0.454855642001
0.505619321634
0.596890934872
0.615143468373
0.614681506804
0.615025654973
0.583901745001
0.482479751158
0.350870265543
0.719607093394
0.719570596685
0.719933777669
0.71943424166
0.719776427407
0.719049725801
0.71929229357
0.709679715385
0.670780111254
0.601657594013
0.542733318987
0.537052036913
0.566223879817
0.612856613839
0.614681506804
0.615151884099
0.614681506804
0.563640244101
0.445215151539
0.31043419534
0.719785887935
0.718695053379
0.71943424166
0.719754801993
0.719049725801
0.71930985049
0.718788579514
0.709956559087
0.671244965438
0.605084993243
0.553164672402
0.547630270215
0.571054133221
0.612455335524
0.615058736128
0.614681506804
0.603028316533
0.522073518577
0.38954409476
0.268673507345
0.719302363588
0.714042159876
0.719328512704
0.719049725801
0.71930985049
0.718789803744
0.718782217894
0.706178269697
0.664295921874
0.599605255665
0.55032426485
0.545405044958
0.567864417682
0.606979012982
0.614681506804
0.611723509201
0.569094166417
0.461225772097
0.327356924477
0.243651160006
0.71743832187
0.700919827933
0.718397000152
0.719068811368
0.718789803744
0.718301752906
0.710956823459
0.685277227916
0.635708080581
0.574898238844
0.53339408552
0.531281289548
0.553392571793
0.589639593978
0.601917558805
0.584837451197
0.510614852864
0.38888897614
0.274785073092
0.239814323094
0.694287306929
0.67943374652
0.713360799815
0.71709823485
0.713780247554
0.697954942554
0.672638481044
0.63028379831
0.574574007552
0.521401419273
0.492459919465
0.495095395573
0.519668247455
0.550685828236
0.555766769296
0.521483685756
0.429976989944
0.315797560695
0.249840581407
0.240829226971
0.658036003031
0.661531600341
0.698742063722
0.702506026146
0.677317650406
0.628724435826
0.585266326889
0.533266765673
0.478553874909
0.438161899189
0.425644868814
0.43464724524
0.460939407423
0.481214216759
0.47374655335
0.427250725308