/*--------------------------------*- C++ -*----------------------------------*\
| =========                 |                                                 |
| \\      /  F ield         | OpenFOAM: The Open Source CFD Toolbox           |
|  \\    /   O peration     | Version:  2312                                  |
|   \\  /    A nd           | Website:  www.openfoam.com                      |
|    \\/     M anipulation  |                                                 |
\*---------------------------------------------------------------------------*/
FoamFile
{
    version     2.0;
    format      ascii;
    arch        "LSB;label=32;scalar=64";
    class       volScalarField;
    location    "0.085/water";
    object      T.gas;
}
// * * * * * * * * * * * * * * * * * * * * * * * * * * * * * * * * * * * * * //

dimensions      [0 0 0 1 0 0 0];

internalField   nonuniform List<scalar> 
1504
(
394.610535218
336.33770399
313.753443431
305.178586857
302.022049831
300.870648962
300.435033169
300.253956647
300.16513752
300.112434635
300.075373209
300.046008833
300.022117989
300.006619773
300.001248432
300.000267217
300.000086665
300.000024299
300.00000052
300
394.764792562
336.68462976
314.056646635
305.355349336
302.104377762
300.908258133
300.452410003
300.261777695
300.168549059
300.11402193
300.076183684
300.046165608
300.021346599
300.005525142
300.00118491
300.000278525
300.000101865
300.000034968
300.000002651
300
395.059829707
336.908945557
314.329501292
305.51711977
302.182819761
300.940453857
300.46502565
300.26602314
300.169418185
300.113694524
300.075340236
300.044497438
300.018172691
300.004922508
300.0010922
300.000291601
300.000117959
300.000046611
300.000007586
300
395.415639724
336.892131783
314.368559631
305.609563177
302.238965478
300.965661035
300.473843693
300.267532756
300.168216611
300.111679919
300.07270174
300.040453749
300.015694179
300.004238878
300.001040758
300.000310781
300.000135596
300.00005885
300.000014103
300
395.743081627
336.400652759
313.952606266
305.470941115
302.209047265
300.960263882
300.470587847
300.263395859
300.163690412
300.107037923
300.067364522
300.035290663
300.013516001
300.003843405
300.00102496
300.00033893
300.000153939
300.000070787
300.000021047
300.000000062
395.958965131
336.303848259
313.676835545
305.267650863
302.11588371
300.919837213
300.450170055
300.250635048
300.154115548
300.098598871
300.059988494
300.030855741
300.011872275
300.003548738
300.001039378
300.000366704
300.000170661
300.000081084
300.000027244
300.000001044
394.917693213
335.984481261
313.482763598
305.087003906
301.996215199
300.852134238
300.413124101
300.228663229
300.139653442
300.087965618
300.052803204
300.026902971
300.010487142
300.003326141
300.001032945
300.000387126
300.000181405
300.000088093
300.000031562
300.000002479
391.476947373
334.656434106
312.956020828
304.806892032
301.822572732
300.754121195
300.360489151
300.200078773
300.122848966
300.077531784
300.046430082
300.023549694
300.009365334
300.003056423
300.001007748
300.000391725
300.000185016
300.000090114
300.00003307
300.000003434
387.588614242
332.858094863
311.925302337
304.21123372
301.509342353
300.606025458
300.293049685
300.168437155
300.106765163
300.068525265
300.040946469
300.020727632
300.008274423
300.002776628
300.00094322
300.000381753
300.000181093
300.00008739
300.000031455
300.000003407
385.316357325
330.744031283
310.047488902
303.127273534
301.039528013
300.426922997
300.225501624
300.140544963
300.093434245
300.061071311
300.036372047
300.018204801
300.007266537
300.00243931
300.000856032
300.000355422
300.000170106
300.000080327
300.000027634
300.000002528
383.180414713
328.323294295
307.463442618
301.895258922
300.626070479
300.295306801
300.180013672
300.121836511
300.08401593
300.055519836
300.032799151
300.016153187
300.006310554
300.002111956
300.000749571
300.000320005
300.000153367
300.000069899
300.000022212
300.000001457
383.095151333
325.073489743
304.947692133
301.193977282
300.433407601
300.238673345
300.160269012
300.113086379
300.079150539
300.052612537
300.031007841
300.014856959
300.005596187
300.00182506
300.000653585
300.000282372
300.000133729
300.000057694
300.000016103
300.000000654
393.835280503
323.573044596
304.620245282
301.06601777
300.390140556
300.226446066
300.156869725
300.11203084
300.078669837
300.052391262
300.031082883
300.014823959
300.005358347
300.001664978
300.000587099
300.000252344
300.000115151
300.000045522
300.000010317
300.000000018
408.712242354
332.173479954
308.441102307
301.900427
300.540297915
300.257154487
300.168715673
300.118908242
300.083199063
300.055349911
300.033067494
300.015967118
300.005675872
300.001690985
300.000576817
300.000236523
300.000100556
300.000034612
300.000005689
300
417.224863949
343.442137214
316.313498454
305.333099518
301.298849731
300.395921127
300.20339774
300.135451478
300.093430544
300.06211614
300.037512593
300.018594718
300.006691624
300.001958708
300.000642138
300.000239435
300.000090956
300.000025718
300.000002821
300
422.73408907
349.756089003
320.697876714
308.240776869
303.06028054
300.892034725
300.304141579
300.167083902
300.111175259
300.073901562
300.045234247
300.023265452
300.00872847
300.002593822
300.000799494
300.000268879
300.000088537
300.00001963
300.000001566
300
426.495829875
352.665555078
322.870317676
309.847634196
304.117874147
301.639075997
300.603117843
300.253681256
300.142737042
300.092288351
300.057886041
300.030923072
300.012560752
300.003914404
300.001137081
300.00034592
300.000099102
300.00001804
300.000001348
300
429.88447726
354.492956154
324.12621323
310.902901094
304.934744354
302.242435269
300.937565916
300.398901456
300.199176186
300.119765425
300.07565527
300.043459838
300.019653079
300.006624298
300.001895599
300.000525936
300.000136795
300.000024159
300.000002524
300
432.660205506
355.581974613
324.570733995
311.270000003
305.269345804
302.504992448
301.179632349
300.53171616
300.262711307
300.151757972
300.095753549
300.057851501
300.029300667
300.01134952
300.003433472
300.00090836
300.000223651
300.00004298
300.000005919
300
435.214847749
356.04809285
324.339079315
311.02940267
305.163788771
302.489060009
301.21644334
300.589670459
300.304782035
300.177899305
300.113217188
300.071114823
300.038504857
300.016556622
300.005550016
300.001534873
300.000376239
300.000079176
300.000012717
300.000000937
436.952257279
355.865616993
323.451280623
310.236832149
304.669435823
302.236885776
301.116756386
300.577550526
300.318284785
300.192837874
300.125247518
300.080913484
300.045866626
300.021030131
300.007592932
300.002265834
300.000584674
300.000134008
300.000024828
300.000003516
437.827651895
354.698173217
321.763904455
308.914419647
303.89165141
301.850842651
300.957254295
300.532735296
300.313637772
300.198502438
300.132123719
300.087107526
300.05081639
300.024320483
300.009270205
300.002919455
300.000808299
300.000202445
300.000044421
300.000008058
437.208447351
352.204427896
319.210824598
307.279915985
303.065887118
301.489821776
300.817579049
300.480271222
300.29907308
300.19739944
300.134754835
300.090276344
300.05349842
300.026363859
300.010450624
300.003451653
300.001000106
300.000274699
300.00007189
300.000014658
435.729137833
348.87441734
316.596715755
305.997367385
302.53222778
301.258130207
300.704507837
300.429698478
300.28033729
300.192186572
300.134335741
300.090907285
300.054135009
300.027203662
300.011177089
300.003802067
300.001151769
300.000353849
300.000108205
300.000022719
433.37866683
344.568414962
315.023692596
305.49624948
302.285423271
301.106081792
300.618896354
300.387774992
300.262525265
300.185621129
300.132068682
300.088909864
300.053142261
300.027220705
300.011490952
300.004028455
300.001289227
300.000450951
300.000149114
300.000028832
430.676286828
341.901080968
314.378508766
305.330819251
302.170875858
301.01843389
300.56377224
300.358252747
300.248496252
300.179208691
300.127437661
300.084423661
300.050644364
300.026394461
300.011435542
300.00408331
300.001542522
300.000550854
300.000175663
300.000030814
422.666249874
340.184331376
314.156401716
305.344256403
302.155332158
300.983014562
300.533602882
300.339008933
300.237487265
300.170696231
300.118832671
300.077855429
300.046579633
300.024519302
300.010569094
300.00447919
300.001723484
300.00059003
300.000177727
300.000033268
407.066432374
337.816115948
313.643332247
305.23508396
302.113337983
300.949357076
300.507654998
300.321051823
300.222859717
300.156614607
300.106722493
300.068470842
300.040183676
300.02075812
300.010215367
300.004644564
300.001824967
300.000610576
300.000187631
300.000044199
389.859217569
333.22363928
312.355006306
304.757237442
301.916703997
300.855119812
300.456991124
300.290843031
300.20029356
300.138043783
300.091064545
300.056005216
300.032549136
300.018208729
300.009542831
300.004571956
300.001902033
300.000682172
300.000230792
300.000063509
376.849561063
329.130463737
310.936134489
304.159017639
301.600463684
300.691257483
300.377619155
300.248336127
300.171856105
300.115555751
300.073620344
300.045440003
300.027510876
300.016302664
300.009089291
300.004589298
300.002003814
300.000778201
300.0002816
300.000084768
373.658606962
329.395272431
311.149993288
303.869246518
301.257379907
300.507726315
300.303187551
300.209897177
300.145322766
300.097057553
300.063206855
300.040649948
300.02577817
300.01581794
300.009036502
300.004650297
300.002098518
300.000860186
300.000328634
300.000105595
387.896213373
336.362965326
312.775653276
303.453186153
300.978309136
300.424649982
300.271139913
300.191779959
300.134248201
300.091646732
300.06136501
300.040498572
300.026176604
300.016162663
300.009218248
300.004742679
300.002176966
300.000926455
300.000369329
300.0001246
425.386192907
348.463373878
315.484895976
303.750006208
300.976849416
300.419921808
300.269240944
300.190926099
300.136116896
300.0955267
300.065369431
300.043721717
300.028300592
300.017269941
300.0096722
300.004893876
300.002248031
300.000979404
300.000402355
300.000140609
463.523772271
356.421640796
317.555445491
304.401164148
301.098744259
300.452827922
300.287473543
300.205835933
300.148299349
300.106579343
300.074021386
300.049689512
300.031915025
300.019096466
300.010399648
300.005113988
300.002318309
300.001021458
300.000426573
300.000152275
476.711693637
362.008844017
319.851782293
305.476743115
301.462465026
300.543951906
300.319637975
300.226948523
300.165552818
300.121510368
300.085102349
300.057098544
300.036357348
300.021388832
300.01132755
300.005399223
300.002407756
300.001060459
300.00044287
300.00015847
480.874880001
365.781549359
322.273007324
306.842040585
302.031700916
300.728926959
300.381382583
300.257370808
300.187314404
300.138407955
300.096779479
300.064777104
300.040998898
300.023882091
300.012433595
300.005804364
300.00256305
300.001116239
300.0004601
300.000162979
482.597287423
368.543330553
324.563291026
308.268429752
302.711105723
300.989028256
300.474010151
300.296575523
300.210163821
300.15554177
300.109280425
300.072697677
300.045803291
300.02662662
300.01388966
300.006457707
300.002797761
300.00117361
300.000469662
300.00016449
484.089286087
370.663637857
326.545422718
309.612917259
303.422247362
301.30035538
300.597075196
300
300
300
300
300
300
300
300
300
300
300
300
300
300
300
300
300
300
300
300
300
300
300
300
300
300
300
300
300
300
300
300
300
300
300
300
300
300
300
300
300
300
300
300
300
300
300
300
300
300
300
300
300
300
300
300
300
300
300
300
300
300
300
300
300
300
300
300
300
300
300
300
300
300
300
300
300
300
300
300
300
300
300
300
300
300
300
300
300
300
300
300
300
300
300
300
300
300
300
300
300
300
300
300
300
300
300
300
300
300
300
300
300
300
300
300
300
300
300
300
300
300
300
300
300
300
300
300
300
300
300
300
300
300
300
300
300
300
300
300
300
300
300
300
300
300
300
300
300
300
300
300
300
300
300
300
300
300
300
300
300
300
300
300
300
300
300
300
300
300
300
300
300
300
300
300
300
300
300
300
300
300
300
300
300
300
300
300
300
300
300
300
300
300
300
300
300
300
300
300
300
300
300
300
300
300
300
300
300
300
300
300
300
300
300
300
300
300
300
300
300
300
300
300
300
300
300
300
300
300
300
300
300
300
300
300
300
300
300
300
300
300
300
300
300
300
300
300
300
300
300
300
300
300
300
300
300
300
300
300
300
300
300
300
300
300
300
300
300
300
300
300
300
300
300
300
300
300
300
300
300
300
300
300
300
300
300
300
300
300
300
300
300
300
300
300
300
300
300
300
300
300
300
300
300
300
300
300
300
300
300
300
300
300
300
300
300
300
300
300
300
300
300
300
300
300
300
300
300
300
300
300
300
300
300
300
300
300
300
300
300
300
300
300
300
300
300
300
300
300
300
300
300
300
300
300
300
300
300
300
300
300
300
300
300
300
300
300
300
300
300
300
300
300
300
300
300
300
300
300
300
300
300
300
300
300
300
300
300
300
300
300
300
300
300
300
300
300
300
300
300
300
300
300
300
300
300
300
300
300
300
300
300
300
300
300
300
300
300
300
300
300
300
300
300
300
300
300
300
300
300
300
300
300
300
300
300
300
300
300
300
300
300
300
300
300
300
300
300
300
300
300
300
300
300
300
300
300.000000097
300
300
300
300
300
300
300
300
300
300
300
300
300
300
300
300
300
300
300
300.000000439
300
300
300
300
300
300
300
300
300
300
300
300
300
300
300
300
300
300
300
300.000000362
300
300
300
300
300
300
300
300
300
300
300
300
300
300
300
300
300
300
300
300.00000002
300
300
300
300
300
300
300
300
300
300
300
300
300
300
300
300
300
300
300
300
300
300
300
300
300
300
300
300
300
300
300
300
300
300
300
300
300
300
300
300.000002863
300
300
300
300
300
300
300
300
300
300
300
300
300
300
300
300
300
300
300
300.000008093
300
300
300
300
300
300
300
300
300
300
300
300
300
300
300
300
300
300
300
300.00001442
300
300
300
300
300
300
300
300
300
300
300
300
300
300
300
300
300
300
300
300.000021258
300.000000185
300
300
300
300
300
300
300
300
300
300
300
300
300
300
300
300
300
300
300.00002799
300.000000613
300
300
300
300
300
300
300
300
300
300
300
300
300
300
300
300
300
300
300.000034079
300.000001532
300
300
300
300
300
300
300
300
300
300
300
300
300
300
300
300
300
300
300.000038834
300.000002711
300
300
300
300
300
300
300
300
300
300
300
300
300
300
300
300
300
300
300.000041294
300.000003438
300
300
300
300
300
300
300
300
300
300
300
300
300
300
300
300
300
300
300.000041938
300.000003568
300
300
300
300
300
300
300
300
300
300
300
300
300
300
300
300
300
300
300.0000424
300.000003631
300
300
300
300
300
300
300
300
300
300
300
300
300
300
300
300
300
300
)
;

boundaryField
{
    emptyPatch
    {
        type            empty;
    }
    minY
    {
        type            fixedValue;
        value           nonuniform List<scalar> 0();
    }
    maxY
    {
        type            inletOutlet;
        inletValue      nonuniform List<scalar> 0();
        value           nonuniform List<scalar> 0();
    }
    water_to_cooler
    {
        type            copiedFixedValue;
        sourceFieldName T.liquid;
        value           nonuniform List<scalar> 
38
(
300
300
300
300
300
300
300
300
300
300
300
300
300
300
300
300
300
300
300
300
300
300
300
300
300
300
300
300
300
300
300
300
300
300
300
300
300
300
)
;
    }
    water_to_heater
    {
        type            copiedFixedValue;
        sourceFieldName T.liquid;
        value           nonuniform List<scalar> 
60
(
797.659992035
797.6505674
797.650714682
797.644527123
797.644702866
797.642911638
797.642920277
797.643421782
797.643548066
797.645607145
797.64597616
797.648782105
797.651189881
797.649347274
797.64947769
797.644803384
797.644413684
797.641596086
797.641576058
797.637171203
797.640874838
797.645512522
797.650516236
797.654107986
797.656525834
797.659405139
797.659829659
797.66385245
797.663752374
797.664060022
797.665585953
797.664834695
797.66454307
797.663647989
797.664626326
797.662567493
797.662620961
797.661704613
797.660524822
797.660394506
797.6596266
797.660931625
797.655822021
797.653890624
797.658984729
797.664492666
797.67414666
797.679109564
797.679628805
797.687642309
797.677331566
797.69650593
797.744006254
797.750176167
797.760470285
797.761300736
797.764390789
797.765086252
797.764453011
797.765291635
)
;
    }
    procBoundary3to1
    {
        type            processor;
        value           nonuniform List<scalar> 
41
(
300.347557154
300.235829531
300.171024826
300.120179365
300.080177402
300.050583434
300.029536813
300.015461215
300.007166554
300.003028011
300.001217171
300.000468874
300.000160659
485.428169503
372.409956106
328.218803814
310.80946565
304.113074146
301.636888778
300.347557154
300.744701014
300.000040995
300.000003576
300
300
300
300
300
300
300
300
300
300
300
300
300
300
300
300
300
300
)
;
    }
    procBoundary3to2
    {
        type            processor;
        value           nonuniform List<scalar> 
41
(
394.515265166
336.042033239
313.478985674
305.017915408
301.930381362
300.822732985
300.410132613
300.241604192
300.158891553
300.1087905
300.072773177
300.044114077
300.021106222
300.006628858
300.00118637
300.000244821
300.000070364
300.000015446
300
300
300
300
300
300
300
300
300
300
300
300
300
300
300
300
300
300
300
300
300
300
300
)
;
    }
}


// ************************************************************************* //
