/*--------------------------------*- C++ -*----------------------------------*\
| =========                 |                                                 |
| \\      /  F ield         | OpenFOAM: The Open Source CFD Toolbox           |
|  \\    /   O peration     | Version:  2312                                  |
|   \\  /    A nd           | Website:  www.openfoam.com                      |
|    \\/     M anipulation  |                                                 |
\*---------------------------------------------------------------------------*/
FoamFile
{
    version     2.0;
    format      ascii;
    arch        "LSB;label=32;scalar=64";
    class       volScalarField;
    location    "0.765/water";
    object      alpha.gas;
}
// * * * * * * * * * * * * * * * * * * * * * * * * * * * * * * * * * * * * * //

dimensions      [0 0 0 0 0 0 0];

internalField   nonuniform List<scalar> 
1504
(
0.695509807738
0.675551117351
0.680396988335
0.669730746248
0.62825488626
0.556741889203
0.468540364427
0.374452906623
0.294860830042
0.273023406536
0.27317552731
0.272338266202
0.27317552731
0.272191481678
0.294919378629
0.359886156455
0.366090825193
0.309890744222
0.187525670328
0.0612498557099
0.68911961155
0.661434257696
0.65867957833
0.633578567003
0.578824832584
0.501642002145
0.413311448883
0.325409702295
0.275349368288
0.27317552731
0.272418906602
0.27317552731
0.272015083386
0.27317552731
0.308266511379
0.366880863734
0.367036993372
0.318837878726
0.207712828399
0.076832163303
0.696041030805
0.643068885905
0.625994154394
0.584541414492
0.518907377538
0.437609341212
0.351107280539
0.283513852895
0.27317552731
0.272463112213
0.27317552731
0.271921044597
0.27317552731
0.273556328925
0.330569858766
0.369600023785
0.369922468819
0.336383579426
0.238006275039
0.097885806534
0.689241673346
0.617133629113
0.581093903735
0.523973662465
0.45052214093
0.368195718406
0.293935550615
0.27317552731
0.272464710473
0.27317552731
0.271785191831
0.273079534441
0.27175684866
0.286194820161
0.345198194768
0.370097847468
0.374110791482
0.357454676646
0.27358709384
0.124038077334
0.69567081417
0.577688397532
0.518588771733
0.448644865483
0.375442175696
0.303429475697
0.27317552731
0.272530834233
0.27317552731
0.271632988631
0.273079534441
0.271518662581
0.273079534441
0.299332786713
0.348552426442
0.368206351072
0.374121030562
0.372129025487
0.304019924357
0.152945168549
0.689241673346
0.519566419367
0.442333315316
0.366216599054
0.306222096458
0.27317552731
0.272645567798
0.27317552731
0.27147895805
0.273079534441
0.271272046586
0.272862432396
0.271718109502
0.308123720869
0.343754248834
0.362356188934
0.37412613144
0.380300407235
0.32692923676
0.18533827316
0.691171742067
0.442376965531
0.364253628456
0.303392532354
0.273255382246
0.272691368574
0.27317552731
0.271283668516
0.273079534441
0.270948303474
0.272862432396
0.271280814568
0.277762391399
0.306176837591
0.329434305883
0.353907959227
0.373554622276
0.380572196669
0.349858685408
0.225000526884
0.669507389648
0.356606153121
0.313837043332
0.286301688524
0.272780204876
0.27317552731
0.271124554513
0.273079534441
0.270883321357
0.272862432396
0.271059867462
0.272622481377
0.279097697528
0.293308914319
0.30954639831
0.341612376773
0.369939807768
0.380606309388
0.373139812733
0.26957131026
0.56792200434
0.314023960366
0.308526747232
0.292916926654
0.274253273726
0.271989866557
0.27317552731
0.270885860418
0.27287285006
0.270950249805
0.272622481377
0.271736525236
0.275696134281
0.275967287562
0.287526948726
0.320604654352
0.358502783047
0.380640421713
0.387814893514
0.31499505925
0.462454688393
0.335215956299
0.344082583581
0.339098682576
0.30487384691
0.277388500355
0.27166851279
0.273176826228
0.277751531893
0.282137504037
0.275036972901
0.268935211861
0.264863510636
0.263233157777
0.266806859323
0.289091517865
0.333569345613
0.375120692027
0.394523355805
0.374671166345
0.466752071046
0.460249140169
0.476379339893
0.463380315961
0.403531154878
0.347773729771
0.320384027471
0.307283797866
0.298854101958
0.28621227771
0.271141645741
0.260541935718
0.256662798638
0.255539634804
0.254290475131
0.258964350543
0.294528206631
0.357169765648
0.39594563823
0.396249430331
0.584066404103
0.641131411121
0.630736266723
0.61706482931
0.573326672367
0.521416926769
0.463827923535
0.398502821928
0.339941169218
0.297950995402
0.272009489552
0.256751497158
0.251438944083
0.250790620198
0.249495471456
0.247028769193
0.258937897567
0.325308742619
0.394306342132
0.39594563823
0.727600432177
0.726093916542
0.71477414007
0.710869160433
0.699556259143
0.678627866164
0.638959389981
0.561602526176
0.448982079496
0.354372426883
0.291936061406
0.258368476949
0.247758120819
0.247415907015
0.247526408735
0.245326712767
0.245834053455
0.288525597638
0.379430809252
0.39624905832
0.757555344719
0.743308330621
0.743278844141
0.744461604585
0.742966666584
0.736640422817
0.720888358261
0.680400459812
0.57423772011
0.447205636061
0.340803070082
0.269393121512
0.245617718361
0.245440104287
0.245991011442
0.245011507573
0.244403617723
0.257873498663
0.348852573979
0.39594563823
0.761354310964
0.748515861191
0.752043718838
0.751587726127
0.751673568467
0.74999961818
0.741649528606
0.716327069285
0.633877336285
0.509067870486
0.386336981367
0.286420898394
0.244678233801
0.244634617679
0.245107144646
0.244899711904
0.244229278714
0.245008517065
0.312755945098
0.394075267204
0.758066607103
0.75149132554
0.752048630207
0.752681772852
0.751587726127
0.751662025529
0.747714865092
0.723489678325
0.648955864473
0.530250258348
0.403939103719
0.294426284776
0.244826320231
0.244393340691
0.244581200218
0.244656745777
0.244162537294
0.243907013866
0.283963507945
0.382515855351
0.761520807133
0.752486882789
0.752892917659
0.752048630207
0.752402446045
0.751587726127
0.75015462364
0.723820138035
0.648830429843
0.531072704432
0.403573941739
0.291935206184
0.244677396558
0.244113614015
0.244323522878
0.244491503612
0.244094632019
0.24380610211
0.266307011371
0.369280892591
0.758779163843
0.752690931512
0.752395530754
0.752402446045
0.751816586655
0.752070606902
0.750444471644
0.71923575554
0.637531717751
0.517360691102
0.387356279771
0.277437743286
0.24419347498
0.243942192249
0.24400589271
0.244277971147
0.244039781371
0.243882484292
0.257838609721
0.359056454674
0.761285326164
0.752126427841
0.75237954316
0.751816586655
0.752237305639
0.751367543467
0.747963750243
0.704224058981
0.608964411059
0.483259994855
0.352753250747
0.257344632606
0.243942192249
0.243643164915
0.243913719934
0.244031617592
0.244005479155
0.243747425735
0.254995126544
0.351706953612
0.758191207098
0.750517907054
0.751816586655
0.752198644327
0.751367543467
0.751367884388
0.739190256397
0.677253503133
0.567656967168
0.437378804791
0.311068849535
0.245854647049
0.243704829605
0.243913719934
0.243444495873
0.243887215215
0.243933571888
0.243881867856
0.254698717447
0.346412517378
0.761146518168
0.747577539282
0.752047435624
0.751367543467
0.751357004546
0.750865090217
0.721563285355
0.638528613868
0.518165915013
0.386279509244
0.272772588994
0.243812755166
0.243913719934
0.243271346463
0.243887215215
0.243445543815
0.243882328919
0.243654372099
0.256126242249
0.342966445657
0.757794550747
0.743863821209
0.751367543467
0.751354798686
0.750865090217
0.74495201716
0.691560232787
0.589440595949
0.462500362606
0.332988647329
0.249110299959
0.243913719934
0.243263722793
0.243887215215
0.243027990696
0.243884299452
0.243497278383
0.243804273787
0.259185976566
0.340821223603
0.759171069526
0.738552111863
0.751217563068
0.750865090217
0.749584818476
0.723479096107
0.647196674514
0.532807553914
0.403225327294
0.283768256354
0.243913719934
0.243409649932
0.243887215215
0.242823097201
0.243885304558
0.243053475226
0.243804273787
0.243480795343
0.262929205584
0.338243110517
0.756995641334
0.730303744805
0.745489169558
0.745129253092
0.73348073917
0.683990989445
0.591446064933
0.472075247737
0.344550537548
0.252082019115
0.243596686799
0.243887215215
0.242741830406
0.243886142829
0.242633244312
0.243804273787
0.243210812749
0.243720690642
0.265637703223
0.334321763661
0.757166535519
0.717035164511
0.724996885959
0.719186246466
0.692159103392
0.627126438577
0.528478483166
0.409733267696
0.291539189312
0.2438421703
0.243887215215
0.242834076975
0.243886142829
0.242327804952
0.243804273787
0.242754007197
0.243720690642
0.243407356249
0.266054282014
0.328324364471
0.752639799097
0.692176174436
0.686304259573
0.667544026846
0.626873497373
0.556164066519
0.459685851475
0.347103798969
0.25451248567
0.243887215215
0.242949539195
0.243886142829
0.242134011942
0.243804273787
0.242365315078
0.243720690642
0.243074589011
0.243568370635
0.262670900546
0.318798717629
0.734301809758
0.645805802087
0.628313374394
0.594168995462
0.544244493012
0.474863058835
0.386066632973
0.287300078188
0.243942192249
0.243243620695
0.243887215215
0.2420745705
0.243886142829
0.242083562529
0.243804273787
0.242746551806
0.245596868439
0.241504669857
0.251386475805
0.304339795258
0.703271034288
0.568616479989
0.549581254902
0.508093102763
0.455805939967
0.391211889898
0.313097426504
0.248640371279
0.243494884168
0.243942192249
0.242097878399
0.243887215215
0.241808812137
0.243886142829
0.249016811864
0.260266819762
0.247468701874
0.229692339933
0.232952481636
0.284364016048
0.656694969212
0.476838703531
0.468098873258
0.435011904206
0.385992033841
0.323494290195
0.25895613669
0.243653312721
0.243942192249
0.2421201879
0.243942192249
0.241638200373
0.243887215215
0.256491943328
0.28084433928
0.267181322923
0.24195674483
0.217887384023
0.213319264523
0.258895520346
0.590319829892
0.427194480517
0.42735671879
0.40859578997
0.359156578685
0.292623227984
0.244162698078
0.243987250159
0.242293542696
0.243942192249
0.241638200373
0.243942192249
0.261515879513
0.301908623169
0.289513208734
0.263845022909
0.238704430455
0.215750129238
0.20427976382
0.229993715778
0.525268089483
0.434804963015
0.443049505558
0.423716488249
0.367518748307
0.296557359351
0.248122008312
0.243001560597
0.243987250159
0.241899104309
0.255026210003
0.287071298565
0.325093950523
0.316234679549
0.287277306221
0.262846814722
0.241450218233
0.218065613006
0.204240199061
0.207310163604
0.529883197399
0.511013532241
0.522285108676
0.502093713961
0.439188370487
0.36276527048
0.310844566247
0.292683822192
0.298478670885
0.328049125999
0.371491677262
0.398499217715
0.37849977062
0.328451968234
0.289872983435
0.266718296053
0.252456498603
0.229580650495
0.20636092566
0.203418623171
0.608862049184
0.632908900932
0.633297862255
0.620357945087
0.581521416517
0.529672418782
0.490239837852
0.474722839948
0.491160660623
0.526275365517
0.546391951611
0.524395999637
0.458756344123
0.379278502123
0.315217526755
0.278856520489
0.26703246362
0.251539670923
0.220850053036
0.203379809464
0.702810754184
0.696887600533
0.692707650007
0.689265419719
0.679103789146
0.662736573307
0.648761777069
0.643894091027
0.650706395055
0.661453974436
0.661272462787
0.63336994842
0.572566466003
0.484881038426
0.385149954837
0.30811138343
0.280682161199
0.271782771355
0.247668125532
0.209422549672
0.710464204804
0.70781114659
0.708699688244
0.708829373465
0.707125586259
0.702457755852
0.698126736222
0.69632682579
0.697164434896
0.698940369568
0.699169071636
0.688403358044
0.652094692737
0.578136049585
0.470269940494
0.359460403982
0.299116677734
0.286727883867
0.271733389377
0.231832306989
0.712705073879
0.709979399585
0.71057541625
0.710066050054
0.710056577063
0.709346625499
0.706592158304
0.70342850422
0.703228508
0.703178257476
0.703128000368
0.700834117889
0.677329065055
0.6170774554
0.519579165457
0.404628168556
0.322132445136
0.299626705803
0.287782029191
0.256569922157
0.710835146994
0.710649790764
0.710438007108
0.710277416449
0.710066050054
0.710002996549
0.706625709923
0.701031986527
0.700156319197
0.701380119111
0.703044611975
0.700520690137
0.678692248733
0.623037176917
0.53129340818
0.420035425514
0.334355816525
0.308046368636
0.296879412252
0.271263413954
0.712562345256
0.709233041786
0.710268095949
0.710066050054
0.710264868622
0.709731219454
0.699137488965
1.00014180982e-15
1.00513487498e-15
1.02308822232e-15
1.02249185287e-15
1.02319584955e-15
1.02249185287e-15
1.02260661668e-15
1.01474543414e-15
1.01116257579e-15
1.01064116065e-15
1.01168063468e-15
1.01347988499e-15
1.0162762014e-15
1.02249524037e-15
1.03394176967e-15
1.03171470502e-15
1.67735347063e-15
0.00617795329066
7.17625380209e-05
1e-15
1e-15
1e-15
1.02249185287e-15
1.02344491605e-15
1.02249185287e-15
1.02285723182e-15
1.02249185287e-15
1.01555568216e-15
1.01323673171e-15
1.01307458044e-15
1.01364465083e-15
1.01504870765e-15
1.01762302907e-15
1.02328588912e-15
1.03562018112e-15
1.03117330005e-15
1.70039812254e-15
0.00926184548677
0.000138879965416
1e-15
1e-15
1e-15
1.02280613043e-15
1.02249185287e-15
1.023090635e-15
1.02249185287e-15
1.02158665584e-15
1.01534345111e-15
1.01368308409e-15
1.01357107054e-15
1.01408320418e-15
1.01539647653e-15
1.01783262093e-15
1.02301199235e-15
1.03657047592e-15
1.02897948444e-15
1.72250995182e-15
0.0135770645256
0.000244493992518
1e-15
1e-15
1e-15
1.01592510503e-15
1.0231120322e-15
1.02249185287e-15
1.02261555227e-15
1.01847039339e-15
1.01415938209e-15
1.01319015645e-15
1.01312577759e-15
1.01358627662e-15
1.01477160586e-15
1.01699052214e-15
1.02157085966e-15
1.03701031765e-15
1.02699741489e-15
1.72972155224e-15
0.0197471408557
0.000431838014491
1e-15
1e-15
1e-15
1.01352497813e-15
1.02249185287e-15
1.02265422027e-15
1.02158483218e-15
1.01468461959e-15
1.01218680239e-15
1.01157237884e-15
1.01157061546e-15
1.01198024811e-15
1.01300895809e-15
1.01497990087e-15
1.01915498163e-15
1.03714589289e-15
1.02674004323e-15
1.73275441063e-15
0.0285231426058
0.000792144241789
1.05151645487e-07
1e-15
1e-15
1e-15
1.01849932107e-15
1.02197046788e-15
1.01572441491e-15
1.01097481431e-15
1.00965041791e-15
1.0092384653e-15
1.00929324257e-15
1.00968309023e-15
1.01057537131e-15
1.01229752291e-15
1.01604789967e-15
1.03728146814e-15
1.02673536529e-15
1.73544201675e-15
0.0412700412798
0.00151554179624
1.7926507112e-06
1e-15
1e-15
1e-15
1.00600479839e-15
1.01459880228e-15
1.00994259323e-15
1.00754052101e-15
1.00674409925e-15
1.00651135949e-15
1.00661077946e-15
1.00697328212e-15
1.00774067604e-15
1.00924812398e-15
1.01261275374e-15
1.03741704339e-15
1.03266603819e-15
1.73794025872e-15
0.0609806928177
0.00313233604966
1.30140361445e-05
1e-15
1e-15
1e-15
1.00041603884e-15
1.00690193112e-15
1.00546980097e-15
1.00423649113e-15
1.00374712772e-15
1.00364956715e-15
1.00376823941e-15
1.00407550203e-15
1.00470144447e-15
1.00597931847e-15
1.00891732099e-15
1.03783964757e-15
1.04512377852e-15
1.74009947482e-15
0.0934228567961
0.00737342072188
7.80087484835e-05
1.04881153677e-07
1e-15
1e-15
1e-15
1.00161540843e-15
1.0020030457e-15
1.00144529763e-15
1.00123534121e-15
1.00122468392e-15
1.00131737297e-15
1.00151376006e-15
1.00191672632e-15
1.00284496774e-15
1.00526588978e-15
1.03939610605e-15
1.05924465468e-15
1.7414937395e-15
0.145846454497
0.0189555091258
0.000419500447073
1.87843437758e-06
1e-15
1e-15
1e-15
1e-15
1.00019515842e-15
1.00007301752e-15
1.00004500101e-15
1.00004923318e-15
1.00007178485e-15
1.00012369288e-15
1.00025457958e-15
1.00065549437e-15
1.00209965951e-15
1.04264705711e-15
1.07499487608e-15
1.7421409117e-15
0.219095333667
0.0473491054209
0.00204497296093
2.14342782153e-05
6.31556051588e-09
1e-15
1e-15
1e-15
1e-15
1e-15
1e-15
1e-15
1e-15
1e-15
1e-15
1e-15
1.00054616767e-15
1.04762262742e-15
1.09343573983e-15
1.74462490884e-15
0.289500092382
0.101396238696
0.00883325723344
0.000183241503307
3.24797987025e-07
1e-15
1e-15
1e-15
1e-15
1e-15
1e-15
1e-15
1e-15
1e-15
1e-15
1e-15
1.00530257309e-15
1.05390958451e-15
1.11514902312e-15
1.76326533083e-15
0.34054106213
0.171242189111
0.0291035249683
0.00116151439889
7.0071484239e-06
1e-15
1e-15
1e-15
1e-15
1e-15
1e-15
1e-15
1e-15
1e-15
1e-15
1e-15
1.01477138495e-15
1.06162282629e-15
1.14003616163e-15
1.7633375412e-15
0.371760085314
0.234653274399
0.0672355957623
0.00535187854025
7.81823985137e-05
4.56368314148e-09
1e-15
1e-15
1e-15
1e-15
1e-15
1e-15
1e-15
1e-15
1e-15
1e-15
1.02297765819e-15
1.07080280554e-15
1.16700925918e-15
1.76333546385e-15
0.38928487579
0.281885104214
0.114740276765
0.0167290736582
0.000550123525077
8.40774206254e-07
1e-15
1e-15
1e-15
1e-15
1e-15
1e-15
1e-15
1e-15
1e-15
1e-15
1.03076806641e-15
1.08091629986e-15
1.19339058682e-15
1.76113613683e-15
0.398806428305
0.316329300075
0.161149944943
0.036576522408
0.00233180321736
1.68320243323e-05
1.03220908191e-15
1e-15
1e-15
1e-15
1e-15
1e-15
1e-15
1e-15
1e-15
1.00123314323e-15
1.0390569271e-15
1.09128414836e-15
1.21717917451e-15
1.7618418299e-15
0.410883668036
0.343673383898
0.20252922785
0.0625465456254
0.00658873646154
0.000119003067994
1.14727405798e-15
1e-15
1e-15
1e-15
1e-15
1e-15
1e-15
1e-15
1e-15
1.01945647428e-15
1.04776262144e-15
1.10153322243e-15
1.2368403878e-15
1.76900282781e-15
0.412239764188
0.367986573633
0.240994247814
0.0921692018872
0.0141826174129
0.000487201648007
3.9491397171e-07
1e-15
1e-15
1e-15
1e-15
1e-15
1.00086052729e-15
1.00722548397e-15
1.01819186256e-15
1.02893301579e-15
1.05655902366e-15
1.11154650752e-15
1.25268300365e-15
1.78162506848e-15
0.412056075154
0.387914746772
0.277542034728
0.124448940984
0.0256593881776
0.00145980108493
6.61139408438e-06
1.00058002685e-15
1e-15
1e-15
1.0152791035e-15
1.0196527748e-15
1.0221457453e-15
1.02504911356e-15
1.0293032713e-15
1.03680671789e-15
1.06501624836e-15
1.12115058034e-15
1.26587544963e-15
1.79862752571e-15
0.412136179454
0.401069564858
0.307945792364
0.156620149358
0.0409575849972
0.0035445424388
4.20511123045e-05
1.03225248394e-15
1e-15
1e-15
1.02114175641e-15
1.02960533935e-15
1.0307026833e-15
1.03240796454e-15
1.03582138315e-15
1.0442263185e-15
1.07264139815e-15
1.13002830135e-15
1.27770860075e-15
1.82011055846e-15
0.412056075154
0.407208410705
0.32839671792
0.184732436096
0.0587681461359
0.00728454235747
0.000173300549331
1.58406591397e-09
1e-15
1e-15
1.0142044093e-15
1.03168029848e-15
1.03558892404e-15
1.03705459263e-15
1.04021029972e-15
1.04978734651e-15
1.07847640012e-15
1.13777744657e-15
1.28933201876e-15
1.84493074867e-15
0.411279013875
0.409326654424
0.342166857225
0.208688975943
0.077971716858
0.0130834146717
0.000547891748018
1.09860469754e-06
1e-15
1e-15
1.00158150714e-15
1.02780988908e-15
1.03679718188e-15
1.03897933718e-15
1.04178900846e-15
1.05214298762e-15
1.08146651194e-15
1.14400978411e-15
1.30164044273e-15
1.87041052422e-15
0.408731533001
0.41009161619
0.354583101794
0.23241971497
0.0995964107469
0.0216624768583
0.00152733383333
1.41806891477e-05
1e-15
1e-15
1.00122821005e-15
1.01992895698e-15
1.03399867062e-15
1.03769646719e-15
1.04054112836e-15
1.05126084541e-15
1.08145297974e-15
1.14822744188e-15
1.31506548801e-15
1.89349691662e-15
0.404028448692
0.411707845034
0.368950999747
0.260761833809
0.127253152263
0.0350491758214
0.00398068924339
0.000109131000211
1.22878995225e-07
1e-15
1e-15
1.00036616961e-15
1.02414259588e-15
1.03338714607e-15
1.03589926228e-15
1.04654798105e-15
1.07874719279e-15
1.15070796775e-15
1.32806781362e-15
1.91269505252e-15
0.397804633224
0.414464675401
0.387011207518
0.297236513693
0.165790628479
0.0569868572353
0.00971370052603
0.000620879999063
9.67736134443e-06
1e-15
1e-15
1e-15
1.00799884412e-15
1.02017093136e-15
1.02766626998e-15
1.03904273425e-15
1.07336698484e-15
1.15111676083e-15
1.33845934562e-15
1.93087740575e-15
0.390907504158
0.416243707324
0.406368238999
0.339544288104
0.216047221454
0.0910825670632
0.0217649301521
0.0026215559356
0.000130665408438
1.35601647972e-06
1e-15
1e-15
1.00091707166e-15
1.0118206065e-15
1.0187662942e-15
1.02740729086e-15
1.06386121209e-15
1.14868999429e-15
1.34561133296e-15
1.95522835606e-15
0.383505848996
0.416190492822
0.421441783511
0.377689845068
0.270326668006
0.136685317534
0.0431232242546
0.00798704658596
0.000860066571679
3.69979200543e-05
1.48113204902e-07
1e-15
1e-15
1e-15
1.00493040764e-15
1.01328946e-15
1.0492964817e-15
1.1399733005e-15
1.34013628346e-15
2.00183245313e-15
0.376361313723
0.41552429285
0.427651814949
0.407138855338
0.320744383463
0.187277827164
0.0734474491113
0.0187027300387
0.00325341239378
0.000314479658458
7.06129191959e-06
1e-15
1e-15
1e-15
1.00003142382e-15
1.0015931943e-15
1.02076635052e-15
1.11982506114e-15
1.31118043995e-15
2.10052738555e-15
0.367722612259
0.414036040141
0.428852475942
0.426346619732
0.357864353264
0.232677633366
0.108515081447
0.0352934624857
0.00836507357885
0.00137365322678
8.82474744972e-05
3.67607977736e-07
1e-15
1e-15
1e-15
1e-15
1.0001506343e-15
1.08869161176e-15
1.25455885036e-15
2.28481206315e-15
0.352032385558
0.410829559238
0.42915960044
0.429695175865
0.378171192492
0.267815224302
0.142712613341
0.0557128155476
0.0163761932393
0.00364241789561
0.000426272675836
8.49095708402e-06
1e-15
1e-15
1e-15
1e-15
1e-15
1.02833099937e-15
1.08007633699e-15
2.5018373847e-15
0.322064862068
0.401988756435
0.429032690537
0.430073712403
0.392927587562
0.295799694088
0.173817523416
0.0774847884564
0.0264978803969
0.0070230654006
0.00119755861021
6.18758989618e-05
1.51676871453e-08
1e-15
3.50421448403e-15
8.97097130641e-15
1.03211286262e-14
3.01225186594e-15
1.32977142742e-15
1.5671632364e-14
0.276352852819
0.378723744713
0.427603412532
0.42994250929
0.413605566381
0.325654030477
0.204619823421
0.100716915901
0.0386310150029
0.0115287937392
0.00242983652213
0.000217241480966
1.39327582997e-06
7.86104715052e-11
6.07305056516e-10
1.13872115495e-09
1.08788522897e-09
2.01245357249e-10
1.30495711416e-12
1.34880233358e-11
0.225558850299
0.332004689804
0.419668462796
0.430115860784
0.430024097337
0.356492754398
0.240191349275
0.129780221875
0.0557343863824
0.0187389988914
0.0046651127751
0.000649760422199
2.23101539378e-05
5.57862572921e-07
3.66288090262e-06
8.62889883607e-06
9.59543899898e-06
2.52751914445e-06
1.35628783127e-08
8.34397604876e-10
0.203602934919
0.26994077542
0.392415204132
0.430275921887
0.430821858667
0.393885533822
0.290139427331
0.173933397626
0.0854936523487
0.0341302443401
0.0107527475867
0.00243679016294
0.000346475224862
0.000137227879872
0.000683736255893
0.00223364316543
0.00317564059998
0.00131231454241
3.74822202869e-05
2.82939202065e-08
0.203383979142
0.217563481127
0.331023983152
0.42955843714
0.43051486726
0.430960065286
0.364919816693
0.254029926879
0.147934469892
0.0738372412921
0.0319807057439
0.0121401085694
0.00487894875653
0.00457396925169
0.0121649136807
0.0457120567677
0.0849371490914
0.0557012625537
0.00758604279221
2.23447253533e-05
0.203418623171
0.20338394981
0.263697157877
0.404302757811
0.431708875945
0.430729911322
0.431206896132
0.380030233698
0.285664671618
0.190833188542
0.11820339734
0.070687379088
0.0445724095025
0.0466062165996
0.0656864286915
0.169956964761
0.341845688485
0.333420934275
0.153748639183
0.00145891177823
0.211289169372
0.203418623171
0.222259107472
0.345595887389
0.430729911322
0.432904598708
0.430965783422
0.431995368244
0.429235250191
0.402940623282
0.359374921811
0.313089438948
0.266322927233
0.228839616767
0.215548003949
0.314652402893
0.401857610616
0.403549526851
0.401862849413
0.0117940260647
0.224049447512
0.203333444287
0.204704833255
0.279879732375
0.425481585105
0.430965783422
0.433910044266
0.431267710676
0.434091989807
0.431484511716
0.433434573914
0.431715300953
0.432066585929
0.404955553561
0.331243444349
0.355285941385
0.403634891105
0.401862849413
0.403093615615
0.0255808789411
)
;

boundaryField
{
    emptyPatch
    {
        type            empty;
    }
    minY
    {
        type            fixedValue;
        value           nonuniform List<scalar> 0();
    }
    maxY
    {
        type            inletOutlet;
        phi             phi.gas;
        inletValue      nonuniform List<scalar> 0();
        value           nonuniform List<scalar> 0();
    }
    maxX
    {
        type            zeroGradient;
    }
    water_to_heater
    {
        type            zeroGradient;
    }
    procBoundary3to1
    {
        type            processor;
        value           nonuniform List<scalar> 
41
(
0.684814552695
0.682797398007
0.687015398614
0.693060953382
0.691137739319
0.67174300452
0.618399324554
0.528162038853
0.418311366168
0.334244077268
0.309193539584
0.299537656583
0.275823483289
0.710464204804
0.700085731303
0.710063945759
0.710105430584
0.709731219454
0.70319090301
0.684814552695
0.672530347899
0.230489737957
0.203418623171
0.203334711777
0.237656054607
0.383421738593
0.43281625249
0.431267710676
0.434657815526
0.431484511716
0.434742196854
0.431715300953
0.433921439768
0.431715300953
0.4260699635
0.330952302822
0.239083216298
0.368551576484
0.403093615615
0.401862849413
0.0223926789953
)
;
    }
    procBoundary3to2
    {
        type            processor;
        value           nonuniform List<scalar> 
41
(
0.68911961155
0.685345466506
0.688307118479
0.686680745412
0.662540437491
0.599947450551
0.51276243348
0.416272624041
0.324446965393
0.275293725814
0.272879096583
0.27317552731
0.272397660944
0.27317552731
0.289722041362
0.354982076578
0.365954977886
0.304978098407
0.172430170892
0.0483435741587
1e-15
1.01636493235e-15
1.02249102857e-15
1.02341340844e-15
1.02249185287e-15
1.02290531581e-15
1.02249185287e-15
1.0128893886e-15
1.00379751097e-15
1.0027480429e-15
1.00467598416e-15
1.0084258439e-15
1.01321163312e-15
1.02058821251e-15
1.03180654973e-15
1.0307626869e-15
1.66009830699e-15
0.0038325314654
2.96306563902e-05
1e-15
1e-15
)
;
    }
}


// ************************************************************************* //
