/*--------------------------------*- C++ -*----------------------------------*\
| =========                 |                                                 |
| \\      /  F ield         | OpenFOAM: The Open Source CFD Toolbox           |
|  \\    /   O peration     | Version:  2312                                  |
|   \\  /    A nd           | Website:  www.openfoam.com                      |
|    \\/     M anipulation  |                                                 |
\*---------------------------------------------------------------------------*/
FoamFile
{
    version     2.0;
    format      ascii;
    arch        "LSB;label=32;scalar=64";
    class       volScalarField;
    location    "0.765/water";
    object      k.gas;
}
// * * * * * * * * * * * * * * * * * * * * * * * * * * * * * * * * * * * * * //

dimensions      [0 2 -2 0 0 0 0];

internalField   nonuniform List<scalar> 
1504
(
2.38634163536
1.02233224204
0.456101175323
0.21570322173
0.111360036605
0.0627676690911
0.0379027789277
0.024442070022
0.0169863045619
0.0123938667534
0.00892285993198
0.00576335175214
0.00317087292127
0.00197338165176
0.00179914817629
0.00183115873044
0.00173902224689
0.00150794981008
0.00111498942996
0.000644691135014
2.45642498651
1.04105698722
0.459748678408
0.216090945053
0.111442987344
0.0628740341212
0.0380790077467
0.0247390004967
0.0172114944619
0.0124309517943
0.00885523595567
0.00570265697514
0.00321990487939
0.00208613641249
0.00190497955091
0.00192687925904
0.00187002741159
0.00165972083336
0.0012673057393
0.000690372035622
2.48931849302
1.04787251295
0.462981033914
0.21832619473
0.112618295709
0.063377278874
0.0383984058925
0.0249588578378
0.0171867417643
0.0122670196773
0.00867850132944
0.00560423650967
0.00326846093722
0.00220110290164
0.00199887971081
0.002025098407
0.00200902922786
0.00183389909554
0.00145166208896
0.000830127810241
2.46237617757
1.03458476206
0.460222579757
0.219332288738
0.113670092658
0.0639732633155
0.0387114826002
0.0248542486421
0.0168428767933
0.0119392513367
0.00843203071833
0.00549869811188
0.00332330150262
0.00230292833868
0.00207645990034
0.00212086204732
0.00214115637565
0.00200608839595
0.00165197550125
0.0010034625355
2.39589165329
0.998494572977
0.448641930737
0.217048677864
0.113771959369
0.0643704649478
0.0385469015534
0.0242150690343
0.016233839077
0.0115062881528
0.00816180033755
0.0054137976915
0.00339130062705
0.00238571997115
0.00213863606087
0.00220543548281
0.00225975247994
0.00216517255651
0.00182554641949
0.00119015785455
2.27873483933
0.946366807764
0.429189305229
0.211935976791
0.113423948088
0.0643485120831
0.0376681172661
0.0231819668657
0.0154975581788
0.0110512221192
0.00791703338681
0.00537475725403
0.0034849177344
0.00246329905998
0.00218508263706
0.002267827716
0.00235672019621
0.00230525819893
0.00199729557034
0.00138113428936
2.09842300795
0.867687330451
0.402688487892
0.206863970351
0.113600757402
0.0638437393224
0.0363214429283
0.0220367438128
0.0148008089834
0.0106550374497
0.00773191511656
0.00538790686305
0.00361007349597
0.00255140070732
0.00221314141576
0.00228549486618
0.00240859949764
0.00241179181108
0.00216499222552
0.00157018324414
1.81062429663
0.777467445125
0.386452604103
0.209195526903
0.115753016661
0.0632678408573
0.0350220300013
0.0211656687089
0.0143356083126
0.0103902120008
0.00762251127143
0.00544688879807
0.00375167565586
0.00264430544214
0.00221009898685
0.0022321512115
0.00237768159959
0.00244999993478
0.00228542553188
0.00175242492816
1.52088003966
0.743272268566
0.402855195269
0.222636003559
0.119703487399
0.0636953548084
0.0351066396347
0.0212712373926
0.01431916094
0.0102908598616
0.00757104736516
0.00550700155994
0.00386285485376
0.00269860004579
0.00215733689049
0.00209851121887
0.00223313511903
0.00237642447258
0.00232022688013
0.00187330976166
1.49210480203
0.818159114375
0.45273669672
0.243996253278
0.128842769763
0.0687070444603
0.0381229104481
0.0227588539132
0.0148370224798
0.0103855141388
0.00757790070993
0.00555845270563
0.00394260204258
0.00271456028509
0.00204021640095
0.00189091906917
0.00198646432368
0.00216925050668
0.00224525672915
0.00192217422489
1.80443712608
0.986308789897
0.516220911819
0.269961445197
0.145526835819
0.0812129302821
0.0459787570535
0.026645719358
0.0163996151431
0.0109315729481
0.00777632805377
0.00567943462535
0.00404219057934
0.00272489364526
0.00190832488406
0.00163185072565
0.00168370352107
0.00186763076107
0.0020605621004
0.0018830506787
2.33789722699
1.14865673209
0.557506864744
0.296275442732
0.170889877613
0.102530999194
0.0603430148602
0.034141930767
0.0197015331146
0.0122680470034
0.00834656966765
0.0059894643743
0.00424997071123
0.00279642652204
0.00181100370795
0.00141231137433
0.00138254062846
0.00155880072406
0.00181295872667
0.00177685519119
2.63398509843
1.19226804312
0.596117216218
0.334133161808
0.206769126259
0.132858519297
0.0823006280096
0.0458911720413
0.0248155448712
0.0144205542624
0.00934602977692
0.00656648777129
0.00464888537803
0.00301049301094
0.00180820462524
0.00127194195224
0.00117256395201
0.00131007032132
0.00157316188241
0.00165126320873
2.47882266615
1.13174322986
0.582327409356
0.341890754159
0.226298880336
0.158995586707
0.108979018801
0.0636726087614
0.0313548890445
0.0170312072784
0.0106243470785
0.00736843997466
0.00523574560738
0.0033901502852
0.00193705589597
0.0012322567591
0.0010586552468
0.00114238943626
0.00139745397416
0.00154815085811
2.28482984636
1.04979767474
0.543964330809
0.327427459041
0.226209840655
0.168030816856
0.123414800627
0.0793822177378
0.0384357398493
0.0197945271505
0.0119900574853
0.00825698495579
0.00591458279768
0.00387266033872
0.00217697373975
0.0012867300175
0.00102492099018
0.00106282332828
0.00129725855525
0.00148566540889
2.16336062281
0.989166843402
0.509458019814
0.3094080161
0.219071566384
0.168235758772
0.128343668814
0.0863180368919
0.0426659015028
0.0220716475843
0.013269372915
0.00912353608148
0.00658066061744
0.00436727602584
0.00247504660365
0.00140847567661
0.00104956010691
0.00104061721968
0.0012551148636
0.00146616238401
2.10663758946
0.956198277474
0.487283214017
0.295120468638
0.210760072819
0.164193109809
0.126850028469
0.0846861358063
0.0429023481532
0.0229808700549
0.0141166055502
0.0098337094107
0.00714759594697
0.00478507099211
0.0027546312396
0.0015567751052
0.00111078228967
0.00105477710007
0.00124268585013
0.0014794969427
2.08882092232
0.943369424977
0.475850895806
0.28582490249
0.203595509885
0.158482053474
0.121320690472
0.0762378071959
0.0403951372993
0.0228172557823
0.0145659478951
0.0103798151398
0.00760162198754
0.00510366268335
0.0029726886033
0.00169074463052
0.00118411015124
0.00109202751197
0.00125682768865
0.00150895444739
2.09618185678
0.94588591139
0.474916344763
0.282365449864
0.198672067944
0.152305490595
0.113035819013
0.0666592587193
0.0371320387217
0.0221907994454
0.0148036216507
0.0108081197807
0.00794579369698
0.00532589892175
0.00312656650338
0.00180045459962
0.00125851774304
0.00114112166252
0.00128813942765
0.00154535690526
2.1162196943
0.960512229545
0.482090198499
0.282892966106
0.194639125777
0.14457047575
0.100693810256
0.0583920819149
0.0341460338001
0.0215270590768
0.0149804038415
0.0111532071818
0.00818891443398
0.00546647280526
0.00322837951139
0.00188899795593
0.00133140304928
0.00119662022861
0.0013279190854
0.00158507325041
2.15828303639
0.988851637242
0.497378574165
0.286478471398
0.19055841735
0.134862230319
0.0865302811447
0.051711840869
0.03181637661
0.0210453843693
0.0151701091576
0.01142655418
0.00834891034978
0.00554698066731
0.00329666487389
0.0019653044228
0.00140434718829
0.00125626855517
0.00137204408736
0.00162609358898
2.22859555452
1.0388366828
0.522508014568
0.292166713225
0.185288280896
0.122967964755
0.0762054633437
0.0471223654343
0.0302739700245
0.0208423196455
0.0154023069638
0.0116354223011
0.00844913278109
0.00559165464005
0.00335078823288
0.00203935341333
0.00148010578666
0.00131935920206
0.00141823598404
0.00166865887502
2.36009161338
1.11274915251
0.549266899711
0.293320091107
0.176024419451
0.110501846089
0.069502742112
0.0443437772354
0.0294417254693
0.0208940128149
0.0156530954054
0.0117914147256
0.00851233638431
0.00562326158896
0.00340755206506
0.00211894148981
0.00156055423923
0.00138476753986
0.0014642689829
0.00171304538926
2.61672810582
1.20055008329
0.56541193374
0.288658581747
0.166756588582
0.103505032708
0.065763110091
0.0427823118699
0.0291143064228
0.0210942800792
0.0158760242586
0.0119105584214
0.00855820338071
0.00566034139731
0.00347850193841
0.00220847880514
0.00164484577015
0.00145022598556
0.00150701220656
0.0017576375041
3.03705370614
1.28158399098
0.583122553885
0.293534534834
0.165373702202
0.1003559945
0.0636236706194
0.0418296285072
0.0290496988389
0.021326504665
0.0160496528144
0.0120055084264
0.0086023118711
0.00571561862307
0.0035704642575
0.00230782790966
0.00172886995961
0.00151071060531
0.00154104622917
0.0017980502112
3.34589737455
1.39763139188
0.632000624415
0.308749336175
0.166831834279
0.0986743915922
0.0620616934644
0.0411932753346
0.0291020036069
0.0215220352792
0.0161993937032
0.0121010886578
0.00866517673229
0.00580166118606
0.00368737040488
0.00241534351117
0.0018051125319
0.00155814639663
0.00155713390518
0.00182638549253
3.28137685176
1.39536447527
0.637200645124
0.310532670953
0.165474900327
0.0965305668951
0.0605817903373
0.0407878055127
0.0292192071958
0.0217070159209
0.0163860671194
0.0122445069337
0.0087759713455
0.00592863902688
0.00383350759378
0.00253077424192
0.00186865130515
0.00158218117626
0.00154947369009
0.00183463295004
2.95549839999
1.28055501204
0.598632674123
0.297797283629
0.16015175095
0.093606441829
0.0592997182346
0.0406257003658
0.0294340632145
0.0220449056548
0.0167432628913
0.0125218267447
0.00897153171619
0.00610361544025
0.00401015600572
0.00265525060801
0.00191904967571
0.00158375806299
0.00152045424719
0.00181597040509
2.52005370313
1.12879063583
0.54838120901
0.282375663657
0.154832395009
0.0914056356416
0.0588325394025
0.0410500786269
0.0301677552234
0.0229246203945
0.0175436182524
0.0130830292329
0.00930474215777
0.00631487721352
0.00418553657846
0.00278239885764
0.00197281556323
0.00157955054447
0.00147171931022
0.00172381410331
2.1534828657
1.02305483474
0.521486456971
0.277536833983
0.154347380033
0.0921517900743
0.0604131501626
0.0430306991692
0.0323193967879
0.0249988526704
0.0192261094246
0.0141683883694
0.00984562899307
0.00654420776596
0.00437194142455
0.002928151978
0.00202934886013
0.00156320004622
0.00140739779622
0.00157746854376
2.01043144815
1.02162785538
0.538031181413
0.289592883288
0.162112506755
0.0987058975355
0.0662660905255
0.048206035437
0.0370195520041
0.0290899762495
0.0222913775351
0.0159135474133
0.0106017722594
0.00694218589841
0.00464329609469
0.00309532267104
0.00208608500266
0.00152825022584
0.00131554763445
0.00140278718869
2.14960412539
1.10716124255
0.578305492097
0.311266262279
0.178409206353
0.11182810358
0.076677797174
0.0565686182388
0.0439593475985
0.0346513614023
0.026160176131
0.0182233737873
0.0119553244831
0.00775464348849
0.00510395150549
0.00334363614246
0.00217703582387
0.00150197843519
0.00120997708855
0.00122016260694
2.38616878862
1.17155835847
0.603747578645
0.332115574729
0.197138702295
0.126668559082
0.0877322541056
0.0648620426492
0.0503681092784
0.0398088011472
0.0303152140351
0.0213636078508
0.0141151447811
0.00910507879052
0.00589754057506
0.00379709248755
0.0023822586459
0.00153793295004
0.0011426803824
0.00105654962751
2.29879890123
1.12539699766
0.600545283073
0.343674215008
0.210328913807
0.137488177092
0.0957963292724
0.0709400627308
0.0553282954631
0.0443719160964
0.0347348978709
0.0251248653587
0.0169007290116
0.0109477716035
0.00706685932624
0.00453148789488
0.00280125940688
0.00171360291836
0.00116833693004
0.000972793536468
1.92521266008
0.990250990145
0.553127144268
0.329443054392
0.208328464343
0.139792417667
0.0990757450009
0.0739875601668
0.0582676868939
0.0475906076963
0.0383792057523
0.0284247436495
0.0195755315877
0.0129216911169
0.00843281917313
0.00547300309174
0.00342254730385
0.00205397121996
0.00130650701007
0.000991049403524
1.6863371952
0.884534498476
0.499955032698
0.299920753869
0.191048976875
0.129808123723
0.0932345527817
0.0704807602451
0.0565412181827
0.0472811321285
0.0393506481842
0.0300460403973
0.0212338581751
0.0143616841753
0.00955651219487
0.00632845317973
0.0040534987517
0.00245228150003
0.001506702092
0.00107015802362
1.59344855753
0.834360038798
0.465646820116
0.274397599278
0.172312311849
0.116220556786
0.0828314051464
0.0630368096788
0.0513094498914
0.0436207505589
0.0370932343191
0.029292090587
0.0214199827203
0.014915937751
0.0101752400713
0.00689940023014
0.0045302812217
0.00278931600452
0.00169968439075
0.00116471505659
1.60575265624
0.833042201602
0.452592594694
0.257566065181
0.157272738541
0.103225217089
0.0723943376311
0.0013478375453
0.00133518581617
0.00136387882347
0.00149749283678
0.00186878298077
0.00268310236494
0.00408769445481
0.00596101496171
0.00797180139518
0.00984390231031
0.011450501853
0.0127825306062
0.013924382571
0.0150874947507
0.0167895408851
0.020465595259
0.0301445602071
0.00060808077839
0.00140644553158
0.00138788453842
0.00136225845869
0.0013568565036
0.00140718772839
0.00159398578934
0.00206927268135
0.00302964933949
0.00455317871365
0.00644636987074
0.00838520849055
0.0101387262825
0.0116123198896
0.0128124076871
0.0138279519313
0.0148650895198
0.0164166205213
0.0198421288369
0.0290706794912
0.00052248680534
0.00140425411102
0.00139943062817
0.00137703100817
0.00138286606792
0.00146304564298
0.0017166991122
0.00230967313274
0.00341376216055
0.0050308936463
0.00691681812243
0.00877039466022
0.0104027105196
0.0117459548139
0.0128189601181
0.0137139261206
0.0146316283711
0.0160410163471
0.019223409442
0.0279722002363
0.000500017682075
0.00139752856405
0.00141113866834
0.00139345165834
0.00141534316702
0.00153496754263
0.00186947093445
0.00259003528348
0.00382824108544
0.00551132882151
0.00736675581207
0.00912534828363
0.0106356469113
0.0118519453081
0.0128029678814
0.0135830561467
0.0143876336148
0.0156630009855
0.0186105421458
0.0268467100375
0.000542073650052
0.00138366138922
0.00142562527713
0.00141361869712
0.00145712124021
0.00162681776353
0.00205541424016
0.00290845607225
0.00426488368652
0.00598625887948
0.00779208508048
0.00944894090903
0.0108378008783
0.0119311026867
0.0127654029522
0.0134362652515
0.0141337401102
0.0152827893681
0.0180046127711
0.0256948929959
0.000651891861923
0.00136309340491
0.00144643810074
0.00143953579244
0.00151097562338
0.00174196098992
0.00227595031296
0.00326052210194
0.00471449993452
0.00644822895461
0.00818936232702
0.00974025780438
0.0110094483382
0.0119841971003
0.0127072039087
0.0132744646381
0.0138706008155
0.0149006018218
0.0174069037048
0.0245215614842
0.000824891930205
0.00133498402062
0.00147795701652
0.0014728011906
0.00157912132094
0.00188246401975
0.00252995894835
0.00363911660128
0.0051672154801
0.00689045287779
0.00855566048491
0.00999864982558
0.0111510396658
0.0120121525991
0.0126294541077
0.0130987086647
0.0135990152083
0.0145168146497
0.0168190437239
0.0233363884917
0.000909528938661
0.00124445857529
0.00152699894231
0.00151529688834
0.00166327821408
0.00204890531462
0.00281392259967
0.00403551364934
0.00561383311993
0.00730771239155
0.00888935133401
0.0102244686152
0.0112638286917
0.0120165449656
0.0125337566195
0.0129104684893
0.0133201571012
0.0141321489664
0.0162431203359
0.0221543160245
0.000980656095201
0.000992374327781
0.00160241488477
0.00157033521853
0.00176504113617
0.00224087294523
0.00312316198086
0.00444144483419
0.00604763463297
0.00769751181129
0.0091909754462
0.0104197261894
0.0113503392784
0.0119999114502
0.0124224333711
0.0127117726329
0.0130356973691
0.0137478135744
0.0156817036906
0.0209949677164
0.00119120537946
0.000807436481386
0.00167119776522
0.00164309569174
0.00188614889197
0.00245774073239
0.00345341611447
0.00485100933284
0.00646557043742
0.00806062054867
0.00946351626514
0.0105882032326
0.0114143633064
0.0119656904552
0.0122984477794
0.0125051378455
0.0127477660819
0.0133655154504
0.0151376499616
0.0198808477951
0.00136649162689
0.000939727999478
0.00147464832398
0.00173816828065
0.0020294589877
0.00270000040601
0.00380260880514
0.00526212970771
0.00686874779829
0.00840100644699
0.00971213101616
0.0107350949297
0.0114605882272
0.0119178765662
0.0121651129824
0.0122933317105
0.0124587721518
0.0129872741889
0.0146136097612
0.0188343831442
0.00145573199941
0.000892063064726
0.000853958627425
0.00182497896936
0.00220161089348
0.00297149207086
0.00417255819544
0.00567716884576
0.00726194056866
0.0087249146267
0.00994315929563
0.0108660841404
0.0114937970655
0.0118603734949
0.0120255922286
0.0120789929569
0.0121710645539
0.0126152405175
0.0141118863848
0.0178749990363
0.0014579820074
0.00104003119641
0.00069770188045
0.00166960436454
0.00241060109428
0.00327913252033
0.00456776459807
0.00610077258367
0.0076510188835
0.00903852969303
0.0101622129215
0.010985860763
0.0115177622764
0.0117961874187
0.0118823038712
0.0118641196086
0.0118865039192
0.0122514443058
0.0136341282159
0.0170166866788
0.00144346201374
0.00113405212017
0.000709781673819
0.00101044874522
0.0026337448532
0.00363064007592
0.00499241195853
0.00653670342627
0.00804020651287
0.00934595056517
0.0103727945027
0.0110972236687
0.0115346802912
0.0117270641831
0.0117366473787
0.0116498755851
0.0116063951758
0.0118975604712
0.0131809850995
0.0162665690911
0.00143441327221
0.00120664111589
0.000809784231826
0.000621408246224
0.00266237407008
0.00403276180482
0.0054489583828
0.00698657895069
0.00843129889549
0.00964888003676
0.0105762803289
0.0112012006971
0.0115453187826
0.0116536053637
0.0115890875386
0.0114367804945
0.0113316162766
0.011554767601
0.0127521800074
0.0156249752389
0.00144556196294
0.0012624718309
0.000962404548671
0.00066842058173
0.00212388497664
0.0044765496782
0.0059378002937
0.00744970045411
0.00882380509288
0.00994697771602
0.0107723446324
0.0112974581909
0.0115493775689
0.011575537254
0.0114394728204
0.0112250700247
0.0110626999573
0.0112237332545
0.0123468595715
0.0150864968787
0.00148223842735
0.00133936195682
0.00111699430225
0.000718398337099
0.00136595933156
0.00487849987797
0.00645800825749
0.00792391723258
0.00921596891628
0.0102389505056
0.0109600238714
0.0113852808817
0.0115463279718
0.011492497043
0.0112878817736
0.0110152207585
0.0108002389407
0.0109051288666
0.0119643131544
0.0146416150313
0.00153959868744
0.00143945457366
0.0012854771456
0.000809724956623
0.000991297613959
0.00500902583756
0.00701108692401
0.0084093807643
0.00960783178696
0.0105250008411
0.0111396149643
0.0114650007412
0.0115364670612
0.0114049311998
0.0111350986416
0.0108081757011
0.0105452057276
0.0105999926361
0.0116042829905
0.014277712607
0.00160495255126
0.00155562060383
0.00147511847413
0.00104173509039
0.00096765114726
0.00455958284034
0.0075967091281
0.00891117861762
0.0100024188439
0.0108070767952
0.0113123483178
0.011537325728
0.0115201875012
0.0113133310328
0.0109817442363
0.0106045450323
0.0102981884262
0.0103088073526
0.0112657245554
0.0139777180368
0.00167166174831
0.00168282846623
0.00166680650464
0.00131367037258
0.00113545512702
0.00354609141783
0.00817799742114
0.00943393003366
0.0104006246522
0.0110844312858
0.0114767781171
0.0116005837934
0.0114960526543
0.0112167142092
0.0108271251685
0.0104038948166
0.0100587786105
0.0100306008041
0.0109461054037
0.0137204055339
0.00174025177815
0.00182503592345
0.00187281886669
0.00161908287442
0.00124897571818
0.00254573265605
0.00861161572151
0.00997696575686
0.0107982873225
0.0113522314931
0.0116285916257
0.0116514124029
0.0114619081514
0.0111139114036
0.0106709464462
0.0102063148338
0.00982685565984
0.00976472285024
0.010643285494
0.0134841301994
0.00181451000416
0.00198747486729
0.0021196100248
0.00196840800316
0.00133400815418
0.00200433678069
0.00859081218036
0.0105401974781
0.0111939679414
0.0116084497617
0.0117665215115
0.0116896429436
0.011418776123
0.0110066308435
0.010514945987
0.0100135340748
0.00960408091288
0.00951201327648
0.0103556500272
0.0132469012825
0.00189796809529
0.00217020828527
0.00242847542988
0.00238647150665
0.00168993173999
0.00189233242192
0.00761485614209
0.0111091318186
0.0115948620452
0.0118577516703
0.0118946675051
0.0117192941375
0.0113701592134
0.0108982854742
0.0103617003367
0.00982701594236
0.00939019355013
0.00926972080038
0.0100761849776
0.0129812057527
0.00199234472952
0.00237088585403
0.00280888623615
0.00290122571167
0.00218258094427
0.00211733943488
0.00550093879029
0.0115153284806
0.0120161647759
0.0121098359615
0.0120201885484
0.0117457666279
0.011319256371
0.0107888029308
0.0102091212965
0.00964121865202
0.00917508767438
0.00902208831374
0.00978105933715
0.0126415865343
0.00209846331644
0.00259142110808
0.00323668752635
0.00349451546283
0.00279552596375
0.00234526122821
0.00344268164399
0.0109233197519
0.01245916277
0.0123800693698
0.0121512773925
0.0117718154628
0.0112635050153
0.0106693554101
0.0100398078788
0.00943064515617
0.00892463226584
0.00872337487189
0.00940931489328
0.0121454319917
0.00221474001658
0.00283224859822
0.00367150069724
0.00407136670902
0.00346975048995
0.00241780342019
0.00267414427438
0.00792558813583
0.0126418828281
0.0126755538431
0.0122880282254
0.0117904445138
0.0111896671191
0.0105205136884
0.00982818684392
0.0091630843684
0.00860084740909
0.00833247127499
0.00891685863918
0.0114301261184
0.00233364748888
0.00308896874819
0.00409051743242
0.00464684512371
0.0041433625705
0.00300132714134
0.00288040837211
0.00442350622669
0.0112392410749
0.0128882071317
0.0124172309913
0.0117886808361
0.0110880088087
0.0103384056116
0.00957971340099
0.00885877804043
0.00824736646856
0.0079289556394
0.00842418822748
0.0105962581034
0.00243738224391
0.00334730028434
0.0044805238927
0.00516097216046
0.00464123780461
0.00354278378909
0.00258259676935
0.0030254941083
0.00754124523063
0.0123766606009
0.0125069378744
0.0117674471248
0.0109810290393
0.010176512865
0.00939131122851
0.00867502142716
0.00810583987929
0.00786837518253
0.00838332614588
0.0100325837765
0.00249008971424
0.00356707242503
0.00480766758824
0.00555535759445
0.00502597730123
0.00398047446056
0.00287970268796
0.00295762433889
0.00436862359665
0.0100448011623
0.0123456257698
0.0117467205455
0.0109399209308
0.0101816927439
0.00951750244856
0.00901027530096
0.00874845068804
0.00888660732482
0.0095468129555
0.010397339305
0.00245297006662
0.00368430255302
0.00502479756116
0.00582707726971
0.00535293574254
0.00430896087925
0.00319790726262
0.00291743812238
0.00308969448022
0.00683788630682
0.0114960318395
0.0118593019951
0.0112758065159
0.0108869290768
0.0107660152946
0.0109586695478
0.0114937680376
0.0122627715562
0.013065698491
0.0136335054722
0.00230860630631
0.00361754048814
0.005093727477
0.00597161665194
0.00563533696417
0.00454298787939
0.00344079549997
0.00256303587093
0.00279869130379
0.00465050033577
0.0101346064305
0.0127228294389
0.0130966007494
0.0137829066378
0.0149292548646
0.0162587519161
0.0174928470938
0.0186235305835
0.0198609774879
0.0215360277746
0.00203188643008
0.00334412693409
0.00497820775432
0.00597553901988
0.00583426281891
0.00475391222489
0.0036672459756
0.002728238309
0.00290756364508
0.00366642683985
0.00919393818659
0.0152320171563
0.0175369756354
0.0195065951254
0.0214304232739
0.0232045567651
0.0249397794155
0.0268876140757
0.0295947800626
0.0341340799525
0.00166476450267
0.00291690729293
0.00464725695476
0.00582342148501
0.00593204581027
0.00503798548395
0.00397902390158
0.00303376448915
0.00300154860508
0.00339461274107
0.00802303919197
0.0177174043671
0.02275207636
0.0250993574343
0.0271688097391
0.0291958265767
0.0315027677027
0.0347128616888
0.0400135500209
0.0498127944203
0.00134090429058
0.00235948185273
0.00410366620717
0.00551274722215
0.0059265262989
0.00537263645923
0.0044594330211
0.00351111256015
0.00287643783534
0.0036249016567
0.00555529502695
0.0148554682172
0.0250494729809
0.0286278156975
0.027136266379
0.0211865995362
0.0193798932379
0.0303180322747
0.0482578075596
0.0656555942731
0.00111183081447
0.00180966369533
0.00342493691479
0.00498232890878
0.00569863525734
0.00556372667501
0.00495422979556
0.00425352938201
0.00355564973864
0.00329945085614
0.00446229761637
0.0066285540103
0.0131943461788
0.0148521552797
0.00826498780013
0.00604307815167
0.00472799800046
0.00634017750112
0.0166428716562
0.0790779952959
0.00100606865369
0.0014689551743
0.00273497685806
0.0042601950084
0.00516935461835
0.0054168099423
0.00520355789187
0.00482639921613
0.00449052594305
0.00413286144232
0.00395580593558
0.00425457048441
0.00582104014411
0.00612733531524
0.00529206586621
0.00499626047464
0.00485744725815
0.00481584575853
0.00615641171745
0.064352405944
0.000983389440431
0.00128103952596
0.00218639891063
0.00354534283421
0.00451974001882
0.00496703484538
0.0050549223494
0.00495422346956
0.00480435791717
0.00468381366526
0.00463471708964
0.00464186432981
0.00464246824442
0.00460743584883
0.00473965452636
0.00487946376439
0.00410386757541
0.00379904107895
0.00525777036645
0.0206300881145
0.00100166701056
0.00117999916049
0.00181137019699
0.00293949533986
0.00387211997815
0.00439229568267
0.00463809498206
0.00467657447899
0.00460034847139
0.00447691336721
0.00432811035226
0.00413831981333
0.00388194529383
0.00369694493417
0.00381863424357
0.00414937901779
0.00340026906234
0.00320389357505
0.00469241219817
0.0142111310166
)
;

boundaryField
{
    emptyPatch
    {
        type            empty;
    }
    minY
    {
        type            fixedValue;
        value           nonuniform List<scalar> 0();
    }
    maxY
    {
        type            inletOutlet;
        inletValue      nonuniform List<scalar> 0();
        value           nonuniform List<scalar> 0();
    }
    maxX
    {
        type            kqRWallFunction;
        value           nonuniform List<scalar> 
38
(
0.0301445602071
0.0290706794912
0.0279722002363
0.0268467100375
0.0256948929959
0.0245215614842
0.0233363884917
0.0221543160245
0.0209949677164
0.0198808477951
0.0188343831442
0.0178749990363
0.0170166866788
0.0162665690911
0.0156249752389
0.0150864968787
0.0146416150313
0.014277712607
0.0139777180368
0.0137204055339
0.0134841301994
0.0132469012825
0.0129812057527
0.0126415865343
0.0121454319917
0.0114301261184
0.0105962581034
0.0100325837765
0.010397339305
0.0136335054722
0.0215360277746
0.0341340799525
0.0498127944203
0.0656555942731
0.0790779952959
0.064352405944
0.0206300881145
0.0142111310166
)
;
    }
    water_to_heater
    {
        type            kqRWallFunction;
        value           nonuniform List<scalar> 
60
(
2.38634163536
2.38634163536
2.45642498651
2.48931849302
2.46237617757
2.46237617757
2.39589165329
2.39589165329
2.27873483933
2.27873483933
2.09842300795
1.81062429663
1.52088003966
1.52088003966
1.49210480203
1.49210480203
1.80443712608
1.80443712608
2.33789722699
2.63398509843
2.47882266615
2.47882266615
2.28482984636
2.28482984636
2.16336062281
2.16336062281
2.10663758946
2.08882092232
2.09618185678
2.09618185678
2.1162196943
2.1162196943
2.15828303639
2.15828303639
2.22859555452
2.36009161338
2.61672810582
2.61672810582
3.03705370614
3.03705370614
3.34589737455
3.34589737455
3.28137685176
2.95549839999
2.52005370313
2.52005370313
2.1534828657
2.1534828657
2.01043144815
2.01043144815
2.14960412539
2.38616878862
2.29879890123
2.29879890123
1.92521266008
1.92521266008
1.6863371952
1.6863371952
1.59344855753
1.60575265624
)
;
    }
    procBoundary3to1
    {
        type            processor;
        value           nonuniform List<scalar> 
41
(
0.0551171997847
0.0451341805561
0.0386275829659
0.0331500160778
0.0268605341528
0.0203006929028
0.0145823154083
0.0102414415388
0.00712971358808
0.00478557273439
0.00299452649628
0.0018341128928
0.001241160056
1.72142377352
0.86181787698
0.444994963078
0.242130165237
0.143282165582
0.0914606954037
0.0551171997847
0.0634117047763
0.00102843406055
0.00112570352194
0.00156564387734
0.00241979835194
0.0032856146825
0.00382442126695
0.00411995330856
0.00422882834222
0.0041961560868
0.00406968706341
0.00387161430077
0.00360723369425
0.003313022515
0.00307517574223
0.00310301568753
0.00358776677064
0.00309120259474
0.00296739828741
0.00435034062439
0.0132614160281
)
;
    }
    procBoundary3to2
    {
        type            processor;
        value           nonuniform List<scalar> 
41
(
2.30001776592
1.00545858517
0.456538808483
0.218864276481
0.113008750923
0.0631953847875
0.0378246359234
0.0241277950804
0.0166057878678
0.0121614464457
0.00885551838872
0.00575626026376
0.00310628182868
0.00186693198556
0.00169384409331
0.0017387929488
0.00162506020593
0.00139114819302
0.000996281529833
0.000591275856766
0.00133363565376
0.00131674870976
0.00133036025804
0.00142318520391
0.00170637268071
0.00237964683818
0.00364493985158
0.00546837377246
0.00753367887438
0.00951946666649
0.0112606960261
0.0127291423235
0.0140030359948
0.0152988621984
0.0171593900942
0.0210902679002
0.031195044019
0.000761358986337
0.00140335785786
0.00137519127615
0.00137519127615
)
;
    }
}


// ************************************************************************* //
