/*--------------------------------*- C++ -*----------------------------------*\
| =========                 |                                                 |
| \\      /  F ield         | OpenFOAM: The Open Source CFD Toolbox           |
|  \\    /   O peration     | Version:  2312                                  |
|   \\  /    A nd           | Website:  www.openfoam.com                      |
|    \\/     M anipulation  |                                                 |
\*---------------------------------------------------------------------------*/
FoamFile
{
    version     2.0;
    format      ascii;
    arch        "LSB;label=32;scalar=64";
    class       volScalarField;
    location    "0.095/water";
    object      p;
}
// * * * * * * * * * * * * * * * * * * * * * * * * * * * * * * * * * * * * * //

dimensions      [1 -1 -2 0 0 0 0];

internalField   nonuniform List<scalar> 
1496
(
100279.349848
100279.397435
100279.466562
100279.48333
100279.479001
100279.457589
100279.345977
100279.037547
100278.840729
100278.6444
100277.988078
100277.020285
100276.294933
100275.256347
100275.273525
100276.248531
100276.866199
100277.323022
100277.718617
100277.513292
100277.222579
100277.278159
100277.3886
100277.405234
100277.391336
100277.36116
100277.244416
100276.883072
100276.588102
100276.28247
100275.542658
100274.773467
100273.810316
100272.201605
100272.668477
100273.366366
100273.784992
100274.456327
100274.751666
100274.427675
100275.180235
100275.226598
100275.314274
100275.332171
100275.318162
100275.285452
100275.159302
100274.777432
100274.389444
100274.000081
100273.173699
100272.006707
100271.309854
100269.942453
100269.496328
100270.323586
100270.96095
100271.390628
100271.681617
100271.252662
100273.201539
100273.217754
100273.311593
100273.322712
100273.302498
100273.260579
100273.152823
100272.781679
100272.302346
100271.794855
100270.851601
100269.815256
100268.723691
100267.000812
100266.733657
100267.182591
100267.771659
100268.421624
100268.592176
100267.979374
100271.335509
100271.31428
100271.376922
100271.38392
100271.35878
100271.320629
100271.221288
100270.892441
100270.367554
100269.744284
100268.680805
100267.182382
100266.317176
100264.688786
100263.198176
100263.740285
100264.606707
100265.099145
100265.239601
100264.442627
100269.352666
100269.318301
100269.532461
100269.526833
100269.499006
100269.452947
100269.371677
100269.061231
100268.508931
100267.757861
100266.479136
100264.958256
100263.341749
100261.81612
100260.166053
100259.966427
100260.855142
100261.596349
100261.59541
100260.530442
100267.244645
100267.1148
100267.650313
100267.6746
100267.653825
100267.630142
100267.515662
100267.149094
100266.507916
100265.582278
100264.062766
100261.9909
100260.660917
100258.774492
100255.713065
100255.652758
100256.828865
100257.657158
100257.420787
100255.967821
100264.744421
100264.172737
100265.099999
100265.164526
100265.121186
100265.017752
100264.765569
100264.247151
100263.399671
100262.197204
100260.28772
100258.030609
100255.765453
100254.183813
100251.582995
100250.141214
100251.677514
100252.602437
100252.020476
100250.092303
100260.769772
100259.240008
100260.342887
100260.417879
100260.265444
100260.048362
100259.666484
100258.941196
100257.828845
100256.289145
100253.942877
100251.068509
100249.368374
100247.184807
100243.138607
100242.140798
100244.035238
100244.965705
100244.023721
100241.743147
100252.811445
100249.949098
100250.892144
100250.948922
100250.701299
100250.484558
100250.065724
100249.106059
100247.591649
100245.36173
100242.186407
100239.505806
100236.857962
100235.004903
100231.485485
100229.298822
100231.793424
100232.818599
100231.814308
100229.868848
100235.981756
100232.590794
100234.426785
100234.409384
100234.058938
100233.881684
100233.507342
100232.325919
100230.200559
100227.174745
100224.174533
100221.431671
100219.505571
100216.421163
100209.049533
100209.811663
100213.497555
100215.351534
100215.496806
100214.898415
100211.401131
100209.011726
100211.678083
100211.803491
100211.590503
100211.436789
100211.077989
100209.835828
100207.54723
100205.050838
100202.59591
100200.410818
100197.10625
100190.117283
100187.642203
100191.157175
100193.799563
100195.896789
100197.229333
100198.287593
100183.405563
100182.121094
100184.731371
100185.472213
100185.869525
100186.163113
100186.534485
100186.436155
100185.453612
100184.005738
100182.496059
100180.177718
100175.497817
100172.163365
100175.022867
100177.152433
100178.027334
100179.435239
100180.958998
100182.81682
100154.785188
100153.87055
100156.104165
100157.301334
100158.143914
100158.82053
100160.177345
100162.527354
100164.398092
100165.018975
100164.755004
100163.116078
100161.119773
100163.006612
100165.191659
100166.751521
100167.559503
100168.402794
100169.585227
100171.146774
100142.328832
100142.158768
100142.248078
100142.25417
100142.40956
100142.624221
100143.043607
100144.712033
100148.256466
100151.358519
100153.093091
100153.693848
100154.787112
100156.649447
100158.119843
100159.426142
100160.289957
100160.960532
100161.851398
100162.996979
100140.628549
100140.601874
100140.596464
100140.576761
100140.53875
100140.502107
100140.447632
100140.363399
100141.41937
100144.327348
100147.082665
100148.82455
100150.308281
100151.452548
100152.569025
100153.5379
100154.293551
100154.894092
100155.718333
100156.739516
100139.41848
100139.416006
100139.415476
100139.409857
100139.398364
100139.379984
100139.352743
100139.312205
100139.24852
100140.562289
100142.837702
100144.991426
100146.462584
100147.346371
100148.230253
100149.016371
100149.520622
100150.104098
100150.817465
100151.706107
100138.423439
100138.42013
100138.416286
100138.4113
100138.403818
100138.393352
100138.380611
100138.36587
100138.222901
100138.635589
100140.160732
100141.902004
100143.368206
100144.153947
100144.823196
100145.383578
100145.878915
100146.322685
100146.909705
100147.593724
100137.488614
100137.48633
100137.482534
100137.477967
100137.472053
100137.465039
100137.457034
100137.447461
100137.340916
100137.442776
100138.301166
100139.498491
100140.601423
100141.338404
100141.930932
100142.438661
100142.787445
100143.286305
100143.799129
100144.274331
100136.604643
100136.603248
100136.60008
100136.595569
100136.588762
100136.581061
100136.572505
100136.562492
100136.478189
100136.444247
100136.852537
100137.519849
100137.97213
100138.7083
100139.282423
100139.777415
100140.225844
100140.742213
100141.210723
100141.46582
100135.788978
100135.787601
100135.784173
100135.777785
100135.769391
100135.761145
100135.752951
100135.743785
100135.691101
100135.592679
100135.742411
100135.947639
100135.635668
100135.897771
100136.640117
100137.238776
100137.696505
100138.326315
100138.682101
100138.713126
100134.970389
100134.989435
100135.006638
100135.010846
100135.004081
100134.999438
100134.997936
100134.998743
100134.972984
100134.853683
100134.869029
100134.598771
100133.449727
100132.990205
100133.930945
100134.634912
100135.246173
100135.832473
100135.983294
100135.777583
100133.568871
100133.596279
100133.991022
100134.186525
100134.227946
100134.23057
100134.228358
100134.221786
100134.189378
100134.055142
100133.870952
100133.01942
100131.023862
100129.866733
100131.135283
100131.909338
100132.506467
100133.075451
100133.001695
100132.600821
100131.6663
100131.670623
100132.441846
100132.776519
100132.854337
100132.848468
100132.831511
100132.776874
100132.670992
100132.485365
100132.078312
100130.678164
100128.100384
100126.66163
100128.065988
100128.85327
100129.604859
100130.118996
100129.798323
100129.186184
100129.656309
100129.294107
100130.121634
100130.477864
100130.461362
100130.291159
100130.174375
100130.080152
100129.993749
100129.854027
100129.320435
100127.605627
100124.87046
100123.296788
100124.815103
100125.739476
100126.590593
100126.915401
100126.288441
100125.420154
100127.668192
100126.451202
100127.796801
100128.192262
100128.025116
100127.699761
100127.397616
100127.168687
100127.022949
100126.841177
100126.029063
100124.029533
100121.023354
100119.437684
100121.152141
100122.253443
100123.144311
100123.146332
100122.218729
100121.068567
100125.849959
100122.938666
100124.891602
100125.358154
100124.947504
100124.422728
100123.98463
100123.683011
100123.482271
100123.139011
100121.75018
100119.384104
100115.847056
100115.002034
100116.882926
100118.111814
100118.873783
100118.512598
100117.338728
100115.885413
100124.215318
100118.714362
100121.139567
100121.669033
100120.95389
100120.23959
100119.702593
100119.31312
100118.960445
100118.116084
100115.961614
100112.956355
100109.392183
100110.067176
100111.80706
100112.984362
100113.522964
100112.832125
100111.400788
100109.645109
100122.825169
100114.693144
100117.073677
100117.38702
100116.257005
100115.303497
100114.567531
100113.895938
100112.988524
100111.010916
100108.129324
100104.355333
100102.591373
100103.852129
100105.222838
100106.338514
100106.672039
100105.74917
100104.109363
100102.157349
100121.739708
100112.475845
100113.439912
100113.01519
100111.464743
100110.106997
100108.819718
100107.330184
100105.11096
100102.041536
100098.314584
100095.165975
100095.151882
100096.11252
100097.2495
100098.231794
100098.299108
100097.215053
100095.430893
100093.423748
100120.789328
100110.584355
100109.793477
100109.264534
100107.480214
100105.450879
100103.074126
100100.051374
100096.3454
100092.288752
100088.436308
100086.906807
100087.003879
100087.378474
100088.120338
100088.808552
100088.577005
100087.352415
100085.485731
100083.534518
100123.689184
100110.175014
100108.48607
100107.531019
100104.64615
100101.084528
100096.796743
100092.020148
100087.151843
100082.400412
100078.839429
100077.343965
100076.789471
100076.757451
100077.253259
100077.694407
100077.28807
100076.048672
100074.278597
100072.509615
100101.250138
100085.670076
100090.300833
100091.73864
100089.736505
100086.492148
100082.606179
100078.393175
100074.111468
100069.985637
100066.96278
100065.436254
100064.73047
100064.487966
100064.771197
100064.977265
100064.525381
100063.421311
100061.926587
100060.446223
100043.582557
100035.249328
100044.703074
100049.258049
100052.132963
100053.834655
100054.553593
100054.538123
100054.025437
100053.22748
100052.291567
100051.659149
100051.255054
100050.997775
100051.095815
100051.124211
100050.725705
100049.857621
100048.707615
100047.572455
100004.817695
100004.766635
100007.256417
100009.857202
100012.995988
100017.247198
100021.961375
100026.202085
100029.633002
100032.490236
100034.925991
100036.337555
100036.844242
100036.839915
100036.754091
100036.632267
100036.242512
100035.643387
100034.88799
100034.151175
100002.531329
100002.513747
100002.487833
100003.012829
100003.314445
100004.035772
100005.737533
100008.263095
100011.192278
100014.198343
100017.422734
100020.587889
100022.42475
100022.852213
100022.50135
100022.145995
100021.709875
100021.272987
100020.886642
100020.534276
100000.831827
100000.831579
100000.833853
100001.156719
100001.230574
100001.09064
100001.11948
100001.4273
100001.906793
100002.473996
100003.095821
100004.186962
100005.15823
100005.58844
100005.739264
100006.138247
100006.550363
100006.79511
100006.922924
100006.956691
100279.297853
100279.150612
100279.019057
100278.902025
100278.798834
100278.708815
100278.630829
100278.563665
100278.503026
100278.441761
100278.379306
100278.327724
100278.293006
100278.272867
100278.262649
100278.28155
100277.026782
100276.60665
100276.294227
100276.029708
100275.791497
100275.57746
100275.387219
100275.219132
100275.071808
100274.943933
100274.833923
100274.740074
100274.657352
100274.577951
100274.500857
100274.437927
100274.394783
100274.368698
100274.354678
100274.373112
100273.807397
100273.256916
100272.827828
100272.458949
100272.127063
100271.829875
100271.567087
100271.336313
100271.135225
100270.961598
100270.813149
100270.687497
100270.578711
100270.47818
100270.384231
100270.308269
100270.255403
100270.222404
100270.203943
100270.220606
100270.478053
100269.766984
100269.192983
100268.69436
100268.245922
100267.845941
100267.494575
100267.18813
100266.922651
100266.694541
100266.500643
100266.337753
100266.198806
100266.074186
100265.961253
100265.870625
100265.806735
100265.765826
100265.74228
100265.756644
100266.989367
100266.06959
100265.312424
100264.652411
100264.061305
100263.53788
100263.081758
100262.686959
100262.347167
100262.05679
100261.811524
100261.60702
100261.434826
100261.284114
100261.150923
100261.044669
100260.968947
100260.919446
100260.890252
100260.901472
100263.202723
100262.035759
100261.060833
100260.209121
100259.451093
100258.786682
100258.213206
100257.721077
100257.300688
100256.943846
100256.644641
100256.397098
100256.191127
100256.014513
100255.861626
100255.740233
100255.652932
100255.594885
100255.559939
100255.567169
100258.96133
100257.493985
100256.263753
100255.192596
100254.250474
100253.437064
100252.743561
100252.154638
100251.65602
100251.236272
100250.887331
100250.601031
100250.365491
100250.167044
100249.998165
100249.864589
100249.767817
100249.702592
100249.662638
100249.665281
100253.968935
100252.15672
100250.650754
100249.354639
100248.237539
100247.292369
100246.498614
100245.832896
100245.275027
100244.810008
100244.427152
100244.115771
100243.862355
100243.652013
100243.475464
100243.33626
100243.234848
100243.165777
100243.122851
100243.120905
100247.645155
100245.539099
100243.815851
100242.361062
100241.14086
100240.130974
100239.296476
100238.605735
100238.033214
100237.561134
100237.176305
100236.866051
100236.616059
100236.410999
100236.240614
100236.106599
100236.008612
100235.941397
100235.899106
100235.893511
100239.138967
100237.011696
100235.292623
100233.875007
100232.717128
100231.776342
100231.009909
100230.383054
100229.869089
100229.449768
100229.111002
100228.84007
100228.623585
100228.447262
100228.301442
100228.186931
100228.103133
100228.045491
100228.008826
100228.001639
100227.826843
100226.183472
100224.859796
100223.786256
100222.922399
100222.228672
100221.66998
100221.217981
100220.85106
100220.554263
100220.316289
100220.127449
100219.977467
100219.854964
100219.752983
100219.672949
100219.61472
100219.574938
100219.549361
100219.543561
100214.097037
100213.422175
100212.867901
100212.417547
100212.056267
100211.769093
100211.541494
100211.3605
100211.215668
100211.099824
100211.008095
100210.936415
100210.879504
100210.830449
100210.786995
100210.752872
100210.729082
100210.713792
100210.703806
100210.702718
100199.102708
100199.692995
100200.127821
100200.460325
100200.718402
100200.923048
100201.089464
100201.227059
100201.341286
100201.435117
100201.511448
100201.573205
100201.621083
100201.65337
100201.673749
100201.689676
100201.703818
100201.715894
100201.723639
100201.730151
100184.839516
100186.508372
100187.819208
100188.864908
100189.697541
100190.360032
100190.892378
100191.325258
100191.680209
100191.969798
100192.203045
100192.388952
100192.533622
100192.640024
100192.717735
100192.778646
100192.827307
100192.864691
100192.889121
100192.904953
100173.264437
100175.344536
100177.091002
100178.538201
100179.730931
100180.699873
100181.48443
100182.12356
100182.648296
100183.078556
100183.42644
100183.703601
100183.919154
100184.079009
100184.197257
100184.29003
100184.363638
100184.419776
100184.456867
100184.482201
100164.680762
100166.619476
100168.38017
100169.892993
100171.185486
100172.270283
100173.16413
100173.897642
100174.501882
100175.000444
100175.406727
100175.731477
100175.983775
100176.170329
100176.307731
100176.415532
100176.501499
100176.5675
100176.611593
100176.645284
100158.116007
100159.779194
100161.38499
100162.792751
100164.014444
100165.068274
100165.9562
100166.692317
100167.300828
100167.804758
100168.218574
100168.550967
100168.808635
100168.997325
100169.134301
100169.241555
100169.327999
100169.395277
100169.440782
100169.480951
100152.870156
100154.259048
100155.650543
100156.894115
100157.974799
100158.916219
100159.724487
100160.402428
100160.964983
100161.431259
100161.815932
100162.126436
100162.366152
100162.538726
100162.660798
100162.755913
100162.833823
100162.895726
100162.938219
100162.982795
100148.535763
100149.672421
100150.829962
100151.881079
100152.795459
100153.589646
100154.277406
100154.860152
100155.345725
100155.748119
100156.080451
100156.349586
100156.555906
100156.700386
100156.79824
100156.873803
100156.937328
100156.989436
100157.025912
100157.07292
100144.941457
100145.784575
100146.675055
100147.505678
100148.234565
100148.865552
100149.411895
100149.877605
100150.267202
100150.590155
100150.856663
100151.072605
100151.236029
100151.34523
100151.413533
100151.465426
100151.511265
100151.55101
100151.579665
100151.62733
100141.84034
100142.369211
100142.965159
100143.545864
100144.069017
100144.52595
100144.921325
100145.258963
100145.542479
100145.777843
100145.971836
100146.128532
100146.244134
100146.314533
100146.350955
100146.377522
100146.404295
100146.430506
100146.45046
100146.497238
100138.834616
100139.085638
100139.408845
100139.748158
100140.066118
100140.348558
100140.594089
100140.804084
100140.980987
100141.127949
100141.248704
100141.345199
100141.41205
100141.443201
100141.447808
100141.44928
100141.457049
100141.469606
100141.48067
100141.525271
100135.665737
100135.672216
100135.762122
100135.892638
100136.026254
100136.14731
100136.25145
100136.339066
100136.412552
100136.47324
100136.522547
100136.560382
100136.579748
100136.57292
100136.547103
100136.524743
100136.514361
100136.513727
100136.516104
100136.557437
100132.26576
100132.035875
100131.909683
100131.848804
100131.812527
100131.782343
100131.750835
100131.71961
100131.692387
100131.668938
100131.648524
100131.629082
100131.602279
100131.558904
100131.50422
100131.459434
100131.431894
100131.418659
100131.412652
100131.449733
100128.601109
100128.118547
100127.771011
100127.5148
100127.306144
100127.12339
100126.956705
100126.809443
100126.684827
100126.58014
100126.492252
100126.41724
100126.345997
100126.267894
100126.186162
100126.120513
100126.07692
100126.051768
100126.037755
100126.069706
100124.543545
100123.792647
100123.218552
100122.762218
100122.377319
100122.039394
100121.738519
100121.479248
100121.261514
100121.079419
100120.927421
100120.800042
100120.687539
100120.577599
100120.471404
100120.386975
100120.32881
100120.292701
100120.271254
100120.297381
100119.883168
100118.875919
100118.086892
100117.438866
100116.884514
100116.397714
100115.970942
100115.608325
100115.304971
100115.05191
100114.841452
100114.666969
100114.517974
100114.380283
100114.253115
100114.152651
100114.081901
100114.036182
100114.008145
100114.028008
100114.410694
100113.188003
100112.212326
100111.395418
100110.690755
100110.072976
100109.538274
100109.087857
100108.711831
100108.398636
100108.138903
100107.925261
100107.746449
100107.58654
100107.44298
100107.330035
100107.249313
100107.195817
100107.162377
100107.175875
100107.950906
100106.574787
100105.455054
100104.505165
100103.68141
100102.962381
100102.347037
100101.831349
100101.401293
100101.043391
100100.747295
100100.505226
100100.305309
100100.130223
100099.975979
100099.854951
100099.767534
100099.708608
100099.671316
100099.678747
100100.373495
100098.921594
100097.714631
100096.680057
100095.780603
100095.000704
100094.339096
100093.785962
100093.32481
100092.941152
100092.624478
100092.366808
100092.156013
100091.973868
100091.815438
100091.691331
100091.60099
100091.539381
100091.500076
100091.502146
100091.658323
100090.194186
100088.957153
100087.89146
100086.966816
100086.171227
100085.500206
100084.939587
100084.472159
100084.083387
100083.763256
100083.503687
100083.292822
100083.112086
100082.956195
100082.834195
100082.744882
100082.683499
100082.644146
100082.641911
100081.844322
100080.418621
100079.207747
100078.167289
100077.269869
100076.503092
100075.858512
100075.320028
100074.871
100074.497727
100074.19107
100073.943003
100073.742566
100073.571357
100073.424404
100073.309454
100073.224959
100073.166615
100073.129126
100073.123885
100070.966243
100069.649672
100068.532801
100067.578225
100066.759712
100066.063555
100065.478913
100064.990308
100064.582673
100064.244001
100063.96624
100063.741803
100063.561222
100063.406734
100063.274318
100063.170733
100063.094377
100063.041543
100063.007597
100063.000757
100059.136203
100058.011665
100057.059178
100056.245907
100055.549627
100054.958076
100054.460834
100054.044864
100053.697558
100053.409096
100053.172673
100052.981651
100052.828455
100052.696328
100052.582754
100052.493835
100052.428157
100052.382719
100052.3536
100052.346525
100046.560976
100045.689613
100044.949988
100044.317382
100043.775595
100043.314746
100042.926157
100042.599818
100042.326496
100042.099051
100041.912323
100041.761208
100041.640225
100041.53392
100041.441701
100041.369333
100041.315783
100041.278816
100041.255259
100041.249109
100033.484245
100032.899323
100032.396543
100031.965792
100031.59695
100031.281796
100031.013611
100030.785803
100030.592992
100030.431142
100030.297199
100030.188037
100030.100372
100030.020334
100029.949553
100029.893733
100029.852325
100029.82385
100029.805887
100029.801475
100020.204648
100019.902813
100019.635922
100019.40338
100019.201163
100019.025402
100018.872892
100018.740499
100018.62566
100018.526571
100018.441943
100018.370641
100018.311805
100018.253979
100018.201366
100018.159649
100018.128576
100018.107209
100018.093842
100018.091505
100006.942006
100006.898258
100006.843051
100006.785966
100006.730531
100006.678172
100006.629578
100006.584583
100006.542381
100006.501362
100006.45899
100006.412808
100006.364703
100006.31626
100006.274724
100006.242575
100006.218212
100006.200395
100006.187958
100006.185386
)
;

boundaryField
{
    emptyPatch
    {
        type            empty;
    }
    minY
    {
        type            calculated;
        value           nonuniform List<scalar> 0();
    }
    maxY
    {
        type            calculated;
        value           uniform 100000;
    }
    water_to_cooler
    {
        type            calculated;
        value           nonuniform List<scalar> 
38
(
100278.28155
100274.373112
100270.220606
100265.756644
100260.901472
100255.567169
100249.665281
100243.120905
100235.893511
100228.001639
100219.543561
100210.702718
100201.730151
100192.904953
100184.482201
100176.645284
100169.480951
100162.982795
100157.07292
100151.62733
100146.497238
100141.525271
100136.557437
100131.449733
100126.069706
100120.297381
100114.028008
100107.175875
100099.678747
100091.502146
100082.641911
100073.123885
100063.000757
100052.346525
100041.249109
100029.801475
100018.091505
100006.185386
)
;
    }
    water_to_heater
    {
        type            calculated;
        value           nonuniform List<scalar> 
59
(
100280.107418
100278.133601
100277.4864
100275.445631
100274.953935
100272.97284
100272.593017
100270.615149
100270.118764
100268.135997
100267.517585
100265.019732
100262.676208
100260.503542
100254.265041
100251.911374
100236.898211
100234.325531
100211.673659
100183.682116
100157.082757
100154.388365
100143.759292
100141.471611
100141.274481
100139.748238
100139.615904
100138.591655
100138.383767
100137.402996
100137.251213
100136.274335
100136.194198
100135.229629
100135.145127
100133.743791
100132.565545
100131.594385
100130.301524
100129.351211
100128.079563
100127.107591
100126.016622
100124.378953
100123.719295
100122.749753
100122.524691
100121.378959
100121.51035
100119.770878
100123.986952
100101.543674
100045.940578
100043.214684
100006.092216
100004.193195
100003.096599
100001.896734
100001.052407
)
;
    }
    procBoundary0to1
    {
        type            processor;
        value           nonuniform List<scalar> 
41
(
100281.260407
100281.497527
100281.5872
100281.615281
100281.614785
100281.600648
100281.51633
100281.275026
100281.180346
100281.089565
100280.537628
100279.872442
100278.901232
100277.729794
100278.366776
100279.101332
100279.569797
100280.313085
100280.72033
100280.581285
100282.683674
100282.591935
100282.508995
100282.434228
100282.367695
100282.30925
100282.258079
100282.21333
100282.171352
100282.125569
100282.075733
100282.033954
100282.006471
100281.991337
100281.984197
100282.00349
100280.186713
100279.864613
100279.643312
100279.461301
100279.461301
)
;
    }
}


// ************************************************************************* //
