/*--------------------------------*- C++ -*----------------------------------*\
| =========                 |                                                 |
| \\      /  F ield         | OpenFOAM: The Open Source CFD Toolbox           |
|  \\    /   O peration     | Version:  2312                                  |
|   \\  /    A nd           | Website:  www.openfoam.com                      |
|    \\/     M anipulation  |                                                 |
\*---------------------------------------------------------------------------*/
FoamFile
{
    version     2.0;
    format      ascii;
    arch        "LSB;label=32;scalar=64";
    class       volScalarField;
    location    "0.755/water";
    object      p_rgh;
}
// * * * * * * * * * * * * * * * * * * * * * * * * * * * * * * * * * * * * * //

dimensions      [1 -1 -2 0 0 0 0];

internalField   nonuniform List<scalar> 
1504
(
101043.061838
101184.939094
101191.60404
101195.368132
101195.42352
101194.970153
101193.504349
101191.864781
101192.984956
101197.572964
101202.286907
101203.806237
101199.625754
101187.369327
101168.724458
101150.882184
101143.095615
101183.37125
101264.51653
101324.412095
101092.769469
101195.953066
101193.759629
101192.868158
101190.044634
101190.704645
101191.947176
101192.871534
101198.128822
101207.471661
101214.549298
101214.993584
101207.001071
101188.558021
101160.671701
101137.273945
101133.752259
101156.926137
101232.609827
101311.14008
101150.393944
101185.891003
101171.826371
101169.386212
101177.303282
101186.116845
101190.508456
101196.269166
101205.699943
101213.937321
101216.175029
101213.484427
101204.388342
101183.003105
101149.29834
101124.094047
101121.818556
101125.516687
101194.924874
101287.332304
101099.866108
101080.957782
101076.476277
101100.585718
101135.370172
101157.390885
101171.375678
101182.631584
101192.542443
101198.483316
101199.487602
101198.037362
101193.033258
101175.326611
101138.907837
101110.175066
101106.720476
101107.085275
101158.681316
101252.026674
100942.964614
100889.844702
100922.567757
100962.45373
101021.108938
101074.217657
101111.206496
101135.134491
101152.364599
101164.117718
101169.758182
101172.316619
101173.875406
101168.047308
101136.556248
101100.031998
101091.060133
101091.596954
101126.633095
101209.978321
100797.661337
100789.948956
100816.454865
100838.439755
100874.911018
100936.685245
101014.518819
101074.721131
101110.629091
101132.275138
101143.056198
101148.659963
101153.796506
101157.673119
101144.700003
101100.757181
101076.332369
101078.193156
101098.805255
101168.061911
100746.089348
100772.737188
100787.531878
100795.001727
100806.796306
100838.613372
100911.002478
101003.708392
101071.009656
101112.222065
101129.847687
101135.984246
101141.526632
101146.887569
101149.84439
101114.159684
101069.737653
101067.605165
101070.785718
101130.51125
100746.614248
100770.764123
100779.362117
100783.512876
100790.71129
100810.54492
100859.186138
100948.87631
101034.792389
101096.743564
101127.6445
101132.549246
101137.54174
101142.199166
101146.825198
101133.165121
101076.366594
101061.334291
101062.996371
101101.246872
100745.52502
100771.022211
100777.125084
100781.242379
100788.579517
100807.239574
100847.91349
100925.33617
101013.948313
101087.802632
101130.785255
101134.928006
101138.497451
101142.656833
101146.148981
101149.397318
101093.794583
101057.377946
101059.568142
101081.990507
100747.840395
100772.231975
100777.163425
100781.637096
100789.472492
100808.655448
100848.863318
100921.072964
101008.652603
101088.646314
101137.272823
101139.903009
101143.241854
101145.739834
101149.268493
101151.460616
101117.311972
101056.371184
101057.888545
101072.439251
100746.844353
100774.506604
100778.605922
100783.571461
100792.163866
100812.58795
100854.030235
100925.762177
101013.364292
101096.006147
101144.606943
101146.93875
101148.876693
101151.74713
101153.40181
101156.334351
101135.673435
101063.803706
101058.682427
101069.226092
100749.580098
100778.411778
100781.604198
100787.988532
100798.708049
100822.173725
100866.781884
100938.253276
101025.542235
101109.816705
101152.720607
101154.300111
101156.347323
101157.619852
101160.021386
101160.820949
101149.728791
101078.500356
101060.106711
101069.224134
100748.870733
100782.975394
100788.258181
100797.329065
100811.49672
100839.299429
100888.859947
100962.024725
101049.096819
101130.858679
101161.332346
101162.429251
101163.4919
101165.208119
101165.887949
101167.845202
101157.960479
101094.187456
101062.59747
101069.846976
100751.734323
100787.571065
100799.773755
100812.654468
100831.043519
100864.215572
100919.796285
100996.110372
101082.881827
101155.474376
101169.799085
101170.413778
101171.539115
101171.880168
101173.169692
101173.080109
101164.084299
101105.559485
101067.063328
101068.516332
100750.917441
100794.79186
100816.875111
100834.510046
100858.185485
100898.937181
100961.530842
101041.59852
101125.914854
101176.211721
101178.029133
101178.646814
101178.719687
101179.543296
101179.243796
101180.147229
101166.588228
101114.005208
101071.602566
101059.674658
100753.958909
100808.886153
100840.866719
100864.354887
100895.947504
100946.488592
101016.941934
101099.374244
101170.334865
101186.286399
101186.156295
101185.986418
101186.388127
101185.63125
101186.025088
101185.026865
101166.450284
101117.278564
101072.662597
101059.702284
100751.933335
100837.203945
100874.731775
100906.684139
100949.351492
101010.815759
101087.442056
101162.853494
101194.586235
101193.940417
101193.448338
101193.495077
101192.431858
101192.407163
101191.116699
101190.987641
101161.525473
101119.309965
101074.013061
101061.100255
100755.062799
100883.323631
100923.71431
100967.844895
101022.678427
101092.343159
101164.255652
101201.799223
101201.736636
101200.815262
101200.431796
101199.104031
101198.662194
101196.8834
101196.348895
101189.340775
101158.577727
101121.422436
101075.681037
101061.492714
100752.856811
100940.722763
100993.19272
101051.814378
101114.133092
101177.069831
101208.859368
101208.487987
101207.286405
101206.654086
101204.977316
101204.307292
101202.098579
101201.103943
101198.684993
101184.30499
101159.687764
101123.526771
101076.576309
101060.699339
100755.980264
101002.23389
101082.740868
101153.085375
101199.33443
101215.188436
101213.430031
101212.337559
101211.785374
101209.822758
101209.072131
101206.642683
101205.5002
101202.795142
101200.01405
101180.438811
101164.241898
101127.142746
101077.984483
101058.82626
100755.694626
101077.070735
101178.378172
101220.3447
101219.674936
101218.455694
101217.047825
101216.845755
101214.228441
101213.606533
101210.564327
101209.403365
101206.253707
101204.396313
101192.897338
101183.120871
101173.279873
101135.619219
101082.630624
101055.680491
100786.349136
101174.175497
101226.195008
101225.662622
101225.16304
101222.820299
101223.103565
101219.160375
101218.888552
101214.466441
101213.216071
101209.205012
101207.052692
101200.993469
101191.441029
101188.169707
101183.254548
101150.833123
101092.37462
101052.552022
100882.13061
101234.552295
101233.117986
101234.016439
101230.612079
101231.203915
101225.100317
101224.989374
101218.174361
101216.504622
101210.682016
101207.91569
101203.101987
101193.587541
101187.689028
101189.130384
101188.158955
101168.085988
101109.182645
101053.005298
101003.888897
101238.115611
101239.185402
101236.840012
101236.539325
101227.83721
101226.663609
101217.079015
101214.298994
101206.41083
101202.668198
101197.051598
101191.028776
101183.362426
101181.542244
101182.513182
101182.187391
101176.788078
101133.478899
101062.07597
100946.167444
101060.758586
101097.945894
101124.817589
101141.293497
101154.986958
101164.620624
101175.320108
101178.435204
101178.146102
101175.532803
101174.077358
101169.385347
101167.873324
101168.00039
101168.756153
101169.379123
101168.764084
101155.915698
101082.88673
100765.770531
100733.297074
100777.949162
100818.974602
100859.27046
100899.980779
100966.531839
101044.855974
101101.801738
101128.42771
101138.361636
101142.384508
101145.288614
101148.076626
101149.957387
101152.124561
101154.661755
101156.132467
101157.421081
101115.108267
100612.212188
100583.378066
100604.742457
100627.112049
100649.818846
100676.15289
100734.010641
100844.56821
100978.599697
101070.452146
101108.589898
101121.186753
101126.558154
101131.25848
101135.304399
101138.71436
101142.441499
101145.434871
101147.852813
101143.320628
100553.593539
100558.178632
100566.5311
100582.960983
100596.867162
100611.300296
100640.381736
100707.724325
100834.038577
100981.088362
101077.760124
101113.82047
101118.898614
101123.355727
101127.606538
101131.445367
101135.133833
101138.355702
101141.458278
101143.77431
100553.308599
100556.360323
100563.020153
100581.022625
100594.588231
100607.672575
100631.238048
100679.534139
100770.802259
100901.713075
101028.960435
101113.459399
101118.961198
101122.598955
101125.922357
101129.251269
101132.347702
101135.369083
101137.858466
101140.523981
100555.571253
100557.124236
100565.832405
100586.225694
100600.649307
100613.927513
100636.966757
100683.072075
100766.489981
100880.367328
101001.343936
101106.270421
101123.591307
101125.720296
101128.433731
101130.530398
101132.979382
101135.136602
101137.552468
101139.098932
100555.424259
100561.654555
100576.62392
100601.18355
100617.052775
100631.297119
100654.839788
100699.439064
100778.024851
100886.636032
101004.598832
101106.436331
101129.99044
101131.86318
101132.860843
101134.874714
101135.85935
101137.60803
101138.736715
101140.587418
100557.683957
100576.174494
100597.417999
100622.634689
100638.708801
100654.88859
100682.245549
100731.425683
100809.2312
100910.964502
101023.885039
101118.817203
101137.675186
101138.124361
101139.606158
101139.616007
101141.021778
101141.058381
101142.197351
101142.198718
100558.398002
100601.855441
100623.025187
100643.04652
100657.163916
100675.583001
100709.458341
100768.681467
100853.385843
100955.971516
101065.410993
101139.883469
101145.313868
101145.939883
101145.591217
101146.631844
101145.803725
101146.644936
101145.871836
101146.516262
100574.052565
100631.979278
100647.363056
100659.40402
100670.135144
100690.507868
100732.237453
100803.175447
100898.212139
101007.321211
101113.112467
101153.7203
101153.306975
101152.954234
101153.539363
101152.387264
101152.978416
101151.474656
101151.757537
101150.163435
100616.745992
100658.947164
100668.757274
100673.317787
100680.611319
100702.775535
100752.728358
100834.821671
100940.065474
101055.279046
101148.452377
101162.012353
101161.370617
101161.628378
101160.378754
101160.729961
101158.816367
101158.931572
101156.767634
101156.461891
100644.027315
100683.867031
100691.113494
100689.756598
100694.166929
100718.21079
100776.034648
100867.55406
100980.89413
101098.466539
101169.216947
101170.725739
101170.60309
101169.423812
101169.627672
101167.529425
101167.550622
101165.020894
101164.610483
101161.896441
100646.338743
100722.542861
100722.724119
100716.290956
100718.844055
100745.113
100809.496766
100907.70523
101025.616341
101139.351844
101181.002954
101180.015714
101179.095215
101179.191534
101177.127533
101177.104092
101174.392791
101174.003755
101171.036023
101170.119216
100649.04966
100803.106732
100776.048187
100763.463241
100765.766179
100794.605315
100862.64915
101329.646661
101328.600234
101327.738684
101327.033794
101326.458264
101325.986463
101325.595672
101325.268513
101324.993166
101324.761585
101324.567795
101324.407249
101324.27646
101324.173149
101324.095947
101324.043516
101324.006988
101332.857784
101331.218582
101329.728916
101328.511012
101327.515359
101326.709788
101326.0623
101325.541723
101325.119597
101324.772278
101324.482531
101324.238974
101324.033827
101323.861531
101323.717879
101323.599814
101323.505507
101323.434319
101323.385397
101323.348317
101329.237006
101328.34816
101327.109843
101326.115887
101325.317397
101324.686971
101324.193954
101323.807284
101323.499359
101323.2485
101323.039792
101322.863774
101322.714245
101322.587001
101322.479007
101322.388234
101322.313863
101322.25638
101322.215963
101322.180922
101322.364597
101323.763158
101323.077834
101322.526441
101322.096843
101321.77674
101321.545002
101321.377099
101321.251436
101321.152115
101321.069169
101320.997001
101320.932467
101320.87386
101320.820217
101320.771247
101320.727701
101320.691605
101320.664751
101320.634779
101310.230366
101317.675723
101317.96277
101318.062135
101318.158667
101318.268047
101318.388721
101318.510179
101318.622344
101318.718864
101318.797247
101318.857555
101318.901064
101318.929565
101318.944949
101318.949266
101318.945145
101318.936638
101318.927388
101318.905214
101289.895583
101310.423887
101312.455444
101313.327576
101314.034015
101314.633049
101315.149788
101315.593007
101315.967745
101316.279433
101316.534425
101316.739402
101316.900703
101317.024118
101317.11475
101317.17724
101317.216461
101317.238211
101317.24849
101317.236165
101260.23285
101301.780391
101307.471474
101309.119924
101310.398603
101311.455412
101312.341082
101313.083419
101313.702198
101314.214015
101314.633482
101314.973399
101315.244818
101315.457214
101315.618683
101315.736292
101315.816672
101315.867504
101315.896517
101315.894611
101225.30342
101290.338485
101303.753315
101306.209195
101307.900344
101309.292215
101310.450822
101311.416499
101312.219108
101312.882939
101313.42828
101313.872181
101314.228973
101314.510768
101314.727817
101314.888933
101315.00228
101315.076324
101315.120481
101315.128288
101191.575827
101275.450268
101301.306201
101305.073737
101306.968895
101308.527426
101309.825851
101310.908747
101311.810047
101312.557222
101313.172925
101313.675978
101314.082165
101314.404784
101314.655141
101314.842931
101314.976742
101315.065682
101315.119491
101315.134755
101164.664234
101259.24584
101299.55242
101305.822734
101307.758174
101309.317131
101310.620799
101311.711421
101312.621972
101313.379232
101314.005264
101314.518427
101314.934173
101315.26561
101315.523943
101315.718795
101315.858808
101315.952401
101316.009443
101316.029343
101147.036638
101245.053236
101298.135358
101308.275884
101310.199189
101311.618692
101312.812696
101313.81605
101314.657026
101315.358853
101315.940864
101316.419264
101316.807865
101317.118466
101317.36128
101317.545127
101317.677656
101317.766667
101317.820848
101317.842019
101136.983067
101234.435587
101297.110683
101312.047798
101314.049824
101315.23562
101316.238591
101317.08528
101317.797563
101318.393755
101318.889326
101319.297406
101319.629329
101319.894899
101320.102686
101320.26012
101320.373781
101320.449825
101320.495937
101320.515501
101130.94448
101226.583707
101296.541055
101316.727841
101318.987281
101319.889312
101320.652889
101321.299872
101321.845503
101322.302911
101322.683416
101322.996752
101323.251475
101323.455046
101323.614093
101323.734379
101323.820778
101323.878144
101323.912363
101323.927685
101125.100163
101219.145704
101295.973239
101321.923771
101324.671745
101325.274603
101325.776544
101326.20231
101326.561124
101326.861317
101327.110257
101327.31436
101327.479365
101327.610329
101327.711794
101327.787694
101327.841374
101327.875772
101327.8954
101327.904614
101115.279906
101209.258887
101294.466485
101327.216346
101330.786926
101331.097385
101331.331131
101331.52779
101331.69145
101331.82621
101331.935835
101332.023624
101332.092627
101332.145526
101332.184813
101332.212595
101332.230408
101332.239619
101332.242978
101332.244447
101102.284845
101197.213855
101291.062104
101332.02806
101337.043407
101337.085157
101337.049389
101337.015303
101336.981961
101336.94933
101336.917651
101336.887171
101336.858281
101336.83134
101336.806782
101336.784898
101336.765587
101336.748358
101336.734448
101336.726956
101092.765696
101183.294456
101284.366905
101335.503224
101343.108086
101342.952254
101342.654562
101342.396372
101342.171833
101341.976806
101341.808026
101341.662736
101341.538721
101341.434067
101341.347251
101341.276846
101341.221146
101341.177896
101341.146619
101341.129165
101083.437306
101165.526569
101272.938503
101336.585111
101348.559338
101348.393986
101347.860225
101347.398464
101346.999882
101346.6569
101346.363137
101346.1131
101345.9022
101345.726462
101345.582583
101345.467672
101345.378684
101345.311764
101345.264331
101345.236326
101069.100494
101142.846456
101255.639936
101333.644121
101352.803929
101353.127075
101352.402161
101351.769504
101351.224621
101350.757366
101350.358696
101350.020738
101349.736821
101349.5012
101349.309106
101349.156555
101349.039918
101348.954095
101348.893864
101348.855483
101060.707243
101120.505232
101229.448843
101323.063519
101354.709184
101356.858237
101356.039108
101355.283439
101354.632912
101354.076088
101353.601978
101353.200837
101352.864378
101352.585501
101352.358329
101352.178169
101352.04115
101351.942299
101351.873505
101351.825231
101058.067428
101093.110456
101189.243212
101299.594186
101351.901436
101359.151898
101358.5663
101357.759822
101357.060018
101356.460155
101355.949189
101355.516719
101355.153717
101354.85246
101354.606588
101354.411132
101354.262694
101354.157066
101354.085171
101354.029113
101053.90928
101060.227523
101140.505561
101260.084992
101339.83265
101359.042509
101359.858008
101359.113563
101358.424886
101357.832524
101357.327122
101356.89866
101356.538177
101356.238018
101355.991953
101355.795253
101355.644895
101355.539186
101355.471382
101355.41221
101048.263572
101047.733022
101100.162708
101208.234317
101312.933112
101353.999261
101359.584017
101359.303711
101358.701219
101358.174321
101357.723111
101357.339143
101357.01436
101356.741892
101356.516276
101356.333459
101356.191153
101356.089331
101356.031088
101355.978048
101040.959851
101040.247388
101064.503609
101154.691549
101271.502952
101339.855847
101356.649898
101358.265731
101357.918806
101357.529974
101357.192617
101356.90262
101356.654679
101356.444092
101356.26738
101356.122242
101356.00729
101355.922232
101355.870969
101355.82349
101032.272057
101031.410283
101032.515265
101107.889876
101222.262108
101313.430328
101348.861628
101355.69477
101356.21047
101356.047659
101355.883903
101355.736623
101355.605187
101355.48845
101355.386034
101355.298834
101355.226271
101355.166328
101355.119843
101355.070766
101025.707196
101021.386078
101021.764403
101071.752006
101171.463509
101275.239505
101333.306984
101350.649961
101353.707339
101353.985642
101354.046591
101354.082868
101354.100808
101354.103953
101354.094945
101354.074488
101354.04496
101354.009687
101353.972354
101353.927052
101031.217476
101011.430954
101011.660284
101040.130405
101124.069858
101230.351495
101308.471764
101341.608535
101350.181564
101351.657037
101352.0002
101352.238544
101352.421606
101352.555147
101352.641319
101352.686567
101352.700662
101352.691358
101352.668094
101352.634322
101053.526505
101001.948466
101002.798328
101005.075804
101078.082802
101183.33605
101275.649597
101326.991154
101344.912432
101349.218247
101350.092268
101350.520111
101350.851603
101351.098539
101351.271675
101351.383128
101351.442254
101351.460201
101351.454121
101351.436012
101084.729883
100996.185502
100994.601821
100995.959088
101042.798684
101136.791173
101236.649026
101305.488478
101336.603725
101346.21708
101348.501511
101349.176945
101349.621196
101349.962989
101350.215549
101350.387031
101350.487768
101350.53285
101350.544883
101350.540428
101113.587073
100998.860068
100988.840079
100989.258125
101011.619686
101090.656765
101191.851281
101275.342467
101322.862625
101341.505296
101346.924795
101348.332617
101348.905086
101349.318772
101349.629388
101349.845874
101349.98059
101350.050888
101350.080567
101350.080782
101132.148105
101010.217946
100983.636172
100984.808846
100985.272643
101044.442929
101139.866103
101234.146643
101300.148679
101332.797654
101344.445995
101347.786244
101348.728068
101349.19163
101349.532903
101349.778643
101349.942355
101350.040683
101350.09204
101350.085077
101140.366607
101023.984863
100980.806883
100980.609954
100981.705605
101003.780302
101081.754088
101181.417544
101265.874467
101317.104236
101339.458075
101346.845618
101348.91938
101349.563531
101349.932799
101350.210677
101350.415926
101350.558439
101350.645722
101350.627584
101142.719629
101037.73208
100978.349325
100978.890656
100978.299317
100978.976698
101029.060308
101124.184982
101222.865348
101293.08125
101329.700726
101344.270741
101349.03849
101350.385165
101350.754845
101351.08048
101351.589855
101351.912355
101352.066629
101352.050769
101144.879743
101051.064375
100977.669483
100976.809397
100977.188756
100976.400502
100994.823641
101072.059169
101174.99451
101259.571584
101311.446824
101336.967482
101347.532468
101350.441393
101348.368559
101346.429478
101349.92174
101353.682812
101354.730448
101354.749752
101149.774976
101064.523368
100978.21776
100977.264851
100975.708244
100975.76199
100974.988312
101021.738961
101114.640489
101208.375529
101275.966709
101316.113987
101337.961707
101344.200201
101332.423656
101308.234574
101298.755441
101330.990861
101354.921321
101357.595245
101153.530212
101082.302238
100983.707572
100977.718936
100977.311731
100975.5969
100975.278899
100987.432746
101042.764368
101124.604179
101200.52668
101256.331982
101291.414259
101308.568707
101301.697464
101234.465229
101045.375349
101132.964593
101316.362756
101357.501188
101160.784468
101103.141249
100995.331057
100981.020708
100979.175066
100978.46069
100976.894416
100976.160651
100989.507504
101024.521986
101073.591337
101122.921228
101161.1832
101188.201047
101167.82471
100993.596595
100697.595895
100855.508393
101217.25866
101355.521807
101166.603619
101127.226982
101015.926035
100984.852483
100983.855392
100982.054161
100981.346121
100979.980378
100979.044863
100982.030481
100990.481475
101004.350153
101023.480017
101013.04253
100875.309272
100675.14161
100676.430555
100720.001441
101124.671966
101360.43031
)
;

boundaryField
{
    emptyPatch
    {
        type            empty;
    }
    minY
    {
        type            zeroGradient;
    }
    maxY
    {
        type            prghTotalPressure;
        U               U.gas;
        p0              nonuniform List<scalar> 0();
        value           nonuniform List<scalar> 0();
    }
    water_to_cooler
    {
        type            fixedFluxPressure;
        gradient        uniform 0;
        value           nonuniform List<scalar> 
38
(
101324.006988
101323.348317
101322.180922
101320.634779
101318.905214
101317.236165
101315.894611
101315.128288
101315.134755
101316.029343
101317.842019
101320.515501
101323.927685
101327.904614
101332.244447
101336.726956
101341.129165
101345.236326
101348.855483
101351.825231
101354.029113
101355.41221
101355.978048
101355.82349
101355.070766
101353.927052
101352.634322
101351.436012
101350.540428
101350.080782
101350.085077
101350.627584
101352.050769
101354.749752
101357.595245
101357.501188
101355.521807
101360.43031
)
;
    }
    water_to_heater
    {
        type            fixedFluxPressure;
        gradient        uniform 0;
        value           nonuniform List<scalar> 
60
(
101043.061838
101043.061838
101092.769469
101150.393944
101099.866108
101099.866108
100942.964614
100942.964614
100797.661337
100797.661337
100746.089348
100746.614248
100745.52502
100745.52502
100747.840395
100747.840395
100746.844353
100746.844353
100749.580098
100748.870733
100751.734323
100751.734323
100750.917441
100750.917441
100753.958909
100753.958909
100751.933335
100755.062799
100752.856811
100752.856811
100755.980264
100755.980264
100755.694626
100755.694626
100786.349136
100882.13061
101003.888897
101003.888897
100946.167444
100946.167444
100765.770531
100765.770531
100612.212188
100553.593539
100553.308599
100553.308599
100555.571253
100555.571253
100555.424259
100555.424259
100557.683957
100558.398002
100574.052565
100574.052565
100616.745992
100616.745992
100644.027315
100644.027315
100646.338743
100649.04966
)
;
    }
    procBoundary3to1
    {
        type            processor;
        value           nonuniform List<scalar> 
41
(
100963.383165
101080.853442
101177.630268
101189.928321
101188.880646
101188.948843
101186.975306
101186.98361
101184.188904
101183.873974
101180.800781
101180.002178
101176.778727
100651.61091
100912.680563
100858.280411
100845.296501
100848.44139
100878.613955
100963.383165
100945.244525
101175.424697
101149.211647
101046.717244
100991.263643
100988.651713
100987.951124
100986.248949
100985.651565
100984.195074
100983.224755
100981.800945
100981.495689
100979.881654
100891.257236
100688.232137
100679.313139
100674.751816
100699.056995
101091.605681
101368.996368
)
;
    }
    procBoundary3to2
    {
        type            processor;
        value           nonuniform List<scalar> 
41
(
101037.074592
101153.867628
101175.760501
101190.765135
101196.977084
101203.323487
101206.450974
101203.250029
101199.807687
101198.190259
101197.846075
101191.542816
101185.3706
101178.643206
101170.2156
101161.543525
101164.644725
101208.805136
101286.636996
101330.447397
101329.632925
101328.636381
101327.805173
101327.116069
101326.5471
101326.076955
101325.685717
101325.357052
101325.079772
101324.846286
101324.650989
101324.48948
101324.358383
101324.255308
101324.17865
101324.126971
101324.093118
101334.189929
101332.424325
101330.907903
101330.907903
)
;
    }
}


// ************************************************************************* //
