/*--------------------------------*- C++ -*----------------------------------*\
| =========                 |                                                 |
| \\      /  F ield         | OpenFOAM: The Open Source CFD Toolbox           |
|  \\    /   O peration     | Version:  2312                                  |
|   \\  /    A nd           | Website:  www.openfoam.com                      |
|    \\/     M anipulation  |                                                 |
\*---------------------------------------------------------------------------*/
FoamFile
{
    version     2.0;
    format      ascii;
    arch        "LSB;label=32;scalar=64";
    class       volScalarField;
    location    "0.715/water";
    object      p;
}
// * * * * * * * * * * * * * * * * * * * * * * * * * * * * * * * * * * * * * //

dimensions      [1 -1 -2 0 0 0 0];

internalField   nonuniform List<scalar> 
6000
(
101705.812568
101702.001391
101700.98592
101700.197791
101699.519194
101698.906802
101698.340483
101697.820785
101697.351888
101696.932
101696.559135
101696.230113
101695.940351
101695.685523
101695.462081
101695.267167
101695.098532
101694.954526
101694.834094
101694.736663
101686.82684
101684.957475
101685.100631
101685.090329
101684.781422
101684.491793
101684.210128
101683.931838
101683.650302
101683.372354
101683.1113
101682.871959
101682.652193
101682.449757
101682.263989
101682.095253
101681.944324
101681.812089
101681.699511
101681.607555
101669.796342
101667.889919
101668.652929
101669.220849
101669.349547
101669.434578
101669.479772
101669.4759
101669.428433
101669.345462
101669.240096
101669.127409
101669.01534
101668.905325
101668.797485
101668.692756
101668.59295
101668.500392
101668.417624
101668.347024
101655.301964
101654.004478
101654.824093
101655.192604
101655.171726
101655.193725
101655.256635
101655.316786
101655.355574
101655.36859
101655.356935
101655.32816
101655.290962
101655.249686
101655.205246
101655.157886
101655.108432
101655.058457
101655.010102
101654.965583
101640.785364
101639.953229
101641.069349
101641.475638
101641.429122
101641.401508
101641.440973
101641.506696
101641.565826
101641.608482
101641.632721
101641.640775
101641.638477
101641.630686
101641.619138
101641.603885
101641.584861
101641.562536
101641.537996
101641.512546
101627.228107
101626.37392
101627.474876
101627.934467
101627.94807
101627.900333
101627.896
101627.939516
101627.996664
101628.044138
101628.076018
101628.092355
101628.097535
101628.09669
101628.092513
101628.085539
101628.075572
101628.062575
101628.046948
101628.02927
101614.01
101612.898394
101613.878463
101614.368626
101614.500622
101614.52831
101614.533047
101614.558949
101614.604881
101614.644833
101614.667022
101614.671465
101614.663044
101614.648127
101614.630846
101614.612715
101614.593978
101614.574624
101614.554809
101614.534665
101601.532034
101600.074352
101600.703773
101601.097981
101601.230783
101601.311405
101601.355106
101601.377679
101601.397532
101601.405628
101601.390479
101601.355371
101601.308165
101601.257152
101601.207835
101601.1625
101601.1217
101601.085366
101601.053331
101601.025097
101589.099462
101587.438676
101588.083811
101588.328346
101588.328814
101588.357409
101588.385429
101588.385145
101588.352281
101588.287091
101588.190096
101588.075903
101587.96042
101587.853069
101587.758454
101587.67786
101587.610934
101587.5566
101587.513528
101587.480221
101576.689463
101574.627671
101575.121802
101575.271381
101575.209789
101575.207325
101575.228773
101575.209904
101575.133853
101575.004935
101574.828243
101574.630764
101574.447034
101574.29137
101574.16466
101574.064784
101573.988909
101573.933888
101573.896591
101573.873928
101563.174385
101560.508868
101560.827134
101561.032313
101561.044202
101561.112382
101561.191034
101561.212423
101561.167358
101561.062888
101560.901898
101560.705043
101560.524177
101560.386688
101560.289396
101560.225114
101560.188115
101560.173461
101560.176615
101560.193315
101547.401254
101544.32881
101544.741943
101545.128914
101545.324209
101545.538487
101545.724312
101545.864908
101545.976272
101546.054689
101546.086195
101546.06488
101546.036157
101546.041831
101546.079579
101546.137572
101546.208984
101546.289631
101546.375948
101546.4646
101529.53726
101526.627126
101527.293329
101527.917754
101528.319925
101528.704044
101529.070514
101529.436204
101529.814136
101530.196164
101530.558743
101530.881146
101531.16325
101531.43453
101531.701065
101531.952581
101532.184488
101532.397355
101532.592111
101532.769096
101510.594154
101509.189839
101510.800044
101511.647198
101512.161651
101512.644811
101513.144827
101513.676939
101514.243648
101514.826015
101515.401615
101515.980192
101516.551691
101517.083404
101517.566555
101517.995734
101518.370543
101518.696612
101518.980209
101519.226043
101498.370189
101497.62874
101498.952821
101499.409482
101499.591781
101499.818546
101500.131309
101500.510127
101500.938514
101501.40486
101501.884756
101502.386986
101502.961601
101503.561487
101504.114356
101504.599255
101505.017613
101505.375609
101505.680678
101505.939077
101487.257711
101486.623328
101488.054617
101488.571607
101488.735694
101488.88551
101489.061816
101489.248311
101489.457487
101489.691456
101489.950282
101490.233522
101490.589004
101491.038764
101491.487762
101491.880835
101492.216709
101492.502388
101492.742561
101492.941741
101478.717582
101477.709612
101478.575012
101478.817488
101478.761333
101478.704791
101478.68876
101478.68419
101478.665101
101478.662224
101478.743535
101478.894059
101479.073089
101479.299819
101479.538052
101479.731549
101479.883321
101480.007506
101480.106873
101480.18272
101468.377941
101466.918291
101467.683877
101468.069542
101468.13932
101468.16659
101468.182063
101468.132988
101467.983578
101467.816966
101467.775132
101467.866097
101467.973786
101468.01525
101468.003368
101467.928699
101467.826181
101467.726245
101467.632364
101467.541775
101459.167834
101457.455868
101458.128401
101458.306411
101458.19802
101458.081375
101457.944246
101457.675464
101457.22069
101456.827119
101456.704881
101456.748082
101456.818343
101456.73615
101456.494807
101456.140962
101455.760606
101455.416926
101455.115085
101454.848509
101447.466145
101445.577833
101446.76556
101447.161213
101447.134486
101447.017807
101446.742292
101446.129703
101445.4563
101445.204563
101445.019146
101444.949438
101445.010388
101444.897707
101444.508838
101443.934816
101443.32848
101442.787558
101442.317967
101441.91128
101436.247013
101434.100046
101435.151985
101435.394756
101435.159119
101434.768991
101434.069795
101433.182601
101432.86665
101432.537056
101432.149936
101432.059546
101432.152066
101432.07784
101431.633854
101430.942428
101430.217028
101429.581193
101429.03504
101428.567067
101423.195201
101420.581725
101421.579315
101421.769853
101421.381442
101420.765878
101419.895947
101419.35536
101418.892607
101418.446674
101417.937582
101417.675863
101417.878744
101417.913207
101417.562507
101416.922534
101416.233436
101415.643494
101415.147842
101414.727609
101408.937513
101405.987273
101406.54086
101406.580312
101406.114551
101405.504875
101404.849004
101404.133261
101403.442977
101402.523763
101401.705815
101401.884821
101402.154688
101402.302606
101402.211187
101401.84936
101401.382948
101400.987714
101400.673681
101400.414409
101393.505257
101390.369483
101390.851158
101390.707816
101390.141108
101389.434486
101388.453065
101387.263521
101386.121164
101385.318235
101385.467507
101385.712933
101385.838767
101385.955809
101386.044473
101386.055626
101385.935557
101385.828625
101385.781362
101385.763652
101376.276631
101372.664021
101373.015204
101372.780329
101372.089878
101371.218754
101370.132257
101369.1663
101368.741326
101368.967032
101369.195207
101369.220142
101369.285593
101369.426852
101369.648482
101369.946694
101370.225595
101370.454102
101370.711326
101370.973554
101354.409141
101350.206282
101350.793146
101350.966714
101350.884098
101350.771535
101350.637962
101350.814857
101351.368014
101351.937349
101352.333593
101352.662571
101352.964537
101353.284383
101353.619687
101354.009124
101354.582049
101355.147457
101355.711212
101356.255656
101329.889291
101326.159896
101327.482664
101328.378837
101329.139603
101330.064734
101331.098763
101332.292624
101333.538271
101334.656715
101335.596652
101336.339517
101336.968074
101337.563334
101338.102847
101338.625459
101339.310276
101340.159812
101341.009276
101341.813424
101309.343372
101307.393201
101308.843792
101309.731638
101310.535494
101311.682154
101313.16288
101314.810031
101316.485039
101318.062572
101319.398247
101320.552652
101321.591099
101322.496938
101323.351525
101324.052358
101324.770339
101325.7769
101326.84461
101327.85136
101294.770917
101294.916396
101296.275164
101296.823509
101297.213385
101297.884295
101299.021767
101300.473263
101302.059417
101303.610412
101304.989253
101306.314476
101307.592255
101308.727216
101309.703788
101310.528866
101311.293457
101312.299916
101313.455448
101314.559013
101285.532832
101286.238247
101287.447254
101287.810362
101287.93142
101288.166615
101288.793157
101289.775837
101290.942422
101292.103628
101293.188571
101294.333097
101295.469034
101296.518774
101297.415384
101298.233106
101298.998242
101299.892427
101300.98386
101302.051172
101278.976185
101279.634692
101280.659652
101280.890039
101280.859029
101280.841096
101281.081414
101281.614964
101282.299458
101282.947563
101283.577097
101284.307128
101285.078488
101285.792082
101286.428084
101287.070445
101287.761424
101288.510289
101289.426538
101290.336035
101272.010095
101272.653872
101273.656725
101273.948735
101273.969988
101273.944997
101274.068589
101274.386156
101274.771653
101275.003518
101275.198662
101275.564118
101275.91467
101276.217451
101276.467028
101276.824404
101277.41812
101278.02846
101278.69642
101279.345941
101266.648533
101266.968394
101267.594033
101267.763371
101267.734035
101267.637875
101267.634114
101267.77548
101267.873918
101267.685345
101267.538175
101267.510311
101267.496157
101267.370437
101267.172354
101267.281282
101267.78208
101268.266559
101268.641499
101268.945656
101260.109079
101260.54654
101261.523696
101261.770713
101261.749518
101261.623566
101261.547385
101261.518035
101261.237906
101260.593649
101260.095984
101259.815334
101259.373568
101258.846921
101258.300913
101258.137661
101258.583022
101258.948793
101259.01529
101258.913951
101254.245311
101254.625784
101255.785202
101255.983205
101255.846222
101255.58614
101255.328764
101254.979691
101254.173794
101253.114405
101252.505303
101251.870833
101251.142365
101250.256885
101249.237241
101249.047653
101249.448331
101249.668924
101249.438737
101248.917664
101246.756911
101247.032138
101248.582076
101248.857059
101248.668648
101248.323795
101247.914403
101247.221137
101245.921054
101244.814484
101243.947107
101243.135462
101242.136751
101240.886892
101239.752875
101239.500608
101239.801505
101239.873238
101239.410901
101238.527381
101239.676453
101239.53953
101240.946979
101241.052841
101240.617491
101240.018797
101239.273444
101237.993717
101236.467722
101235.259182
101234.321401
101233.231932
101232.097208
101230.769734
101229.278954
101229.074898
101229.195169
101229.128894
101228.511129
101227.36749
101230.875616
101230.013846
101231.245278
101231.319487
101230.769832
101229.994249
101228.855397
101227.170512
101225.62551
101224.574185
101223.356359
101222.202103
101220.91764
101218.818368
101217.583326
101217.443599
101217.323402
101217.110217
101216.422537
101215.16106
101221.428142
101220.018062
101221.546846
101221.33049
101220.321488
101218.987892
101217.097498
101215.144392
101213.939353
101212.515403
101211.148997
101209.640451
101207.763002
101205.790922
101204.796976
101204.383148
101203.899433
101203.487097
101202.863768
101201.701148
101212.411153
101209.580116
101211.038903
101210.352192
101208.614396
101206.44963
101204.155611
101202.697695
101201.040383
101199.439002
101197.692626
101195.799842
101193.625603
101191.451479
101190.663181
101189.738733
101188.871966
101188.289558
101187.874559
101186.970921
101203.509227
101198.912719
101199.298866
101197.866493
101195.45058
101192.881396
101190.876967
101188.799229
101186.845756
101184.773808
101182.607526
101180.478197
101177.706288
101176.154721
101174.921288
101173.535548
101172.4477
101171.83794
101171.558244
101170.87754
101192.349987
101185.159265
101184.085763
101182.61824
101180.152561
101177.449386
101174.58307
101171.995658
101169.524458
101166.918587
101164.656478
101161.864891
101159.776725
101158.20905
101156.596114
101155.053292
101154.029207
101153.530738
101153.242969
101152.848821
101164.495589
101154.72724
101154.197229
101153.935582
101152.542052
101150.174482
101147.491128
101145.138212
101142.843502
101141.199148
101139.517288
101138.172066
101137.045763
101135.947164
101134.721349
101133.703856
101133.101725
101132.914478
101132.814283
101132.889597
101098.872849
101091.255832
101094.946115
101097.322983
101099.395126
101101.131949
101102.621928
101103.822448
101105.166163
101106.402459
101107.445927
101108.258543
101108.976092
101109.567576
101110.061085
101110.467222
101110.765801
101111.157432
101111.552967
101112.160534
101036.508559
101036.625381
101040.885975
101043.126413
101045.38558
101048.733369
101053.577551
101058.93558
101064.001955
101068.538302
101072.485057
101075.966969
101079.150194
101082.110275
101084.817869
101087.155562
101088.837871
101090.052338
101091.181187
101092.156839
101019.284332
101019.855035
101020.684623
101021.211389
101021.711086
101022.589916
101024.564193
101028.337188
101033.347788
101038.736634
101044.104441
101049.174831
101053.889066
101058.281168
101062.344638
101066.03723
101069.04808
101071.127473
101072.746297
101073.949648
101016.057408
101016.140729
101016.264627
101016.271962
101016.232002
101016.185484
101016.286653
101017.063614
101019.202415
101022.620472
101026.937521
101031.68294
101036.351477
101040.802106
101044.98563
101048.861202
101052.373577
101055.031107
101056.83086
101058.255449
101013.47635
101013.609872
101013.707906
101013.751787
101013.736032
101013.68818
101013.617334
101013.611743
101014.241474
101015.867069
101018.454937
101021.812908
101025.486622
101029.172761
101032.749412
101036.132206
101039.265225
101041.955971
101043.846836
101045.507477
101011.345939
101011.439992
101011.527718
101011.555705
101011.559947
101011.543394
101011.52174
101011.483839
101011.729886
101012.620818
101014.186584
101016.351669
101018.88089
101021.572716
101024.326473
101027.002993
101029.497093
101031.730255
101033.548493
101035.177801
101009.241051
101009.325881
101009.441473
101009.485658
101009.490473
101009.484946
101009.468512
101009.447816
101009.611606
101010.2285
101011.297987
101012.71201
101014.360037
101016.244526
101018.242327
101020.226204
101022.035706
101023.640377
101025.10121
101026.442244
101007.367087
101007.42544
101007.503634
101007.532866
101007.537171
101007.525765
101007.510401
101007.500025
101007.614595
101008.059182
101008.820451
101009.749843
101010.782615
101012.032218
101013.407178
101014.719647
101016.001096
101017.056806
101017.905087
101018.914957
101005.434078
101005.482011
101005.582071
101005.621723
101005.631432
101005.629942
101005.625385
101005.638476
101005.770471
101006.164166
101006.738804
101007.200204
101007.618266
101008.366752
101009.173143
101009.983834
101010.777245
101011.271265
101011.541984
101012.196134
101003.666095
101003.680399
101003.735174
101003.767825
101003.787263
101003.79745
101003.810307
101003.846482
101004.014135
101004.359485
101004.655334
101004.519906
101004.488995
101004.771154
101005.145029
101005.537117
101005.931753
101006.016946
101005.683072
101005.940468
101001.701413
101001.728703
101001.842802
101001.884332
101001.899242
101001.90401
101001.93047
101001.975641
101002.120165
101002.305288
101002.142901
101001.484809
101001.105359
101001.124318
101001.15776
101001.1746
101001.119489
101000.842656
101000.048903
100999.797306
100999.780685
100999.789581
100999.90086
100999.952656
100999.965727
100999.965838
100999.977935
100999.989672
101000.034568
100999.940185
100999.166957
100998.067697
100997.608947
100997.276802
100996.946061
100996.593282
100996.202171
100995.546712
100994.15644
100993.741077
100997.773889
100997.780332
100997.922804
100997.977498
100998.004636
100998.024812
100997.999764
100997.917241
100997.763293
100997.199367
100995.71588
100994.486963
100993.691214
100993.065472
100992.364615
100991.588273
100990.809438
100989.747298
100988.069182
100987.215515
100995.502811
100995.523396
100995.733717
100995.802301
100995.827991
100995.803463
100995.676837
100995.444104
100994.962061
100993.617755
100991.652941
100990.200782
100989.244511
100988.167184
100987.021051
100985.93456
100984.77425
100983.374484
100981.112215
100980.226728
100992.63934
100992.774573
100993.20539
100993.268687
100993.252886
100993.073729
100992.716902
100992.139922
100991.02038
100988.694131
100986.416874
100985.094708
100983.633555
100982.19756
100980.759713
100979.204959
100977.731295
100975.661024
100973.3202
100972.292326
100988.006885
100988.407074
100989.328236
100989.436959
100989.247747
100988.800524
100988.085226
100986.998912
100984.827588
100981.959981
100980.154853
100978.332229
100976.679337
100974.907395
100972.988992
100971.224594
100969.230884
100966.998121
100964.580907
100963.376361
100982.090306
100982.472216
100983.984928
100983.999829
100983.441526
100982.526129
100981.324178
100979.456621
100976.407136
100973.972497
100971.834505
100970.066609
100968.047476
100965.923044
100963.954623
100961.724866
100959.626199
100957.052686
100954.63554
100953.140904
100974.464663
100974.185729
100976.12923
100975.943025
100974.93742
100973.591841
100971.86466
100969.074408
100966.075579
100963.627489
100961.810536
100959.6387
100957.459838
100955.335638
100952.96487
100950.842035
100948.329208
100945.811065
100943.421387
100941.704945
100964.488362
100962.629998
100964.357362
100963.985919
100962.713157
100961.144419
100958.939771
100955.839187
100952.99027
100951.124247
100948.939525
100946.919593
100944.826266
100942.177126
100940.070885
100937.561063
100935.463775
100933.168326
100930.848254
100928.842307
100950.065974
100945.826592
100946.554731
100946.098903
100944.937074
100943.580603
100941.367965
100938.463593
100936.605379
100934.559283
100932.87625
100931.109736
100927.758372
100925.503416
100923.753818
100922.393531
100920.67723
100918.746187
100916.543134
100914.597069
100925.849279
100920.383134
100921.877973
100921.656075
100920.987295
100920.254019
100918.618403
100916.7251
100914.988748
100913.821892
100912.240621
100908.586971
100906.320139
100905.808938
100905.425317
100904.371031
100903.198283
100901.905204
100900.383692
100898.959566
100887.503721
100882.816775
100885.587564
100886.278827
100886.714457
100887.441457
100887.501996
100886.796141
100886.194633
100884.505812
100880.782758
100879.827235
100881.305029
100882.786098
100883.066241
100883.000576
100882.970394
100882.904881
100882.626527
100882.186323
100841.712845
100840.047201
100843.771781
100845.021164
100845.800374
100847.117812
100848.340501
100848.676498
100847.636311
100845.737292
100846.890305
100850.418782
100854.321584
100857.090651
100858.969975
100860.519113
100861.906736
100863.180895
100864.222412
100865.095748
100824.324604
100824.214563
100825.53287
100825.715813
100825.353782
100824.848388
100824.589625
100824.325411
100824.240774
100825.499654
100827.825671
100830.519192
100833.292411
100835.96694
100838.597144
100841.000665
100843.154033
100845.154477
100847.034668
100848.5941
100819.898738
100819.902352
100820.353533
100820.416782
100820.162909
100819.549841
100818.933932
100818.564996
100818.700668
100819.392057
100820.209824
100820.981444
100821.901822
100823.195072
100824.977902
100826.961163
100828.881245
100830.701234
100832.488492
100834.0041
100816.70969
100816.813089
100817.352775
100817.433348
100817.268147
100816.879667
100816.304412
100815.701626
100815.299059
100815.243605
100815.427029
100815.593472
100815.829203
100816.259789
100816.921492
100817.829033
100818.873687
100819.923554
100820.931794
100821.757294
100812.826414
100812.954176
100813.629011
100813.781115
100813.68853
100813.343736
100812.683669
100811.843188
100811.166022
100810.936756
100811.040853
100811.183984
100811.347994
100811.50579
100811.516678
100811.474369
100811.510626
100811.612416
100811.564666
100811.472749
100810.03244
100809.965621
100810.486666
100810.571322
100810.435277
100810.009625
100809.160645
100808.068732
100807.205152
100806.892299
100806.952914
100807.084779
100807.2251
100807.292947
100806.960069
100806.21201
100805.375415
100804.641702
100803.76749
100802.602106
100807.204848
100806.893528
100807.392418
100807.470676
100807.346971
100806.862082
100805.874326
100804.594394
100803.58383
100803.178321
100803.181724
100803.301069
100803.455334
100803.430102
100802.793785
100801.472928
100799.955755
100798.551422
100796.97292
100795.066248
100804.975817
100804.319328
100804.687729
100804.716315
100804.487277
100803.840556
100802.666915
100801.242878
100800.150234
100799.737762
100799.807942
100800.013019
100800.19224
100800.074216
100799.174864
100797.383528
100795.294302
100793.34198
100791.205001
100788.492392
100801.608371
100800.578603
100801.413704
100801.470434
100801.102221
100800.306889
100799.055829
100797.643087
100796.59571
100796.299538
100796.532995
100796.871375
100797.111059
100796.907472
100795.707355
100793.450347
100790.973276
100788.692541
100786.204719
100783.227447
100797.651432
100796.247576
100797.52329
100797.535117
100796.960139
100796.029387
100794.757778
100793.429694
100792.509537
100792.364656
100792.744035
100793.169815
100793.420364
100793.05317
100791.461288
100788.894902
100786.393245
100784.083709
100781.470285
100778.323048
100792.943266
100790.78979
100792.373395
100792.335464
100791.615679
100790.62904
100789.391457
100788.170647
100787.395092
100787.359849
100787.788158
100788.212845
100788.393351
100787.720432
100785.712822
100783.199825
100780.968555
100778.823091
100776.347063
100773.688713
100786.783588
100783.792822
100785.340017
100785.315716
100784.567162
100783.621667
100782.463534
100781.341959
100780.693993
100780.695275
100781.043825
100781.376329
100781.295168
100780.079718
100777.902485
100775.80431
100774.032968
100772.263614
100770.311475
100768.256436
100778.493545
100774.061612
100774.869684
100774.775646
100774.124283
100773.328518
100772.318021
100771.415291
100770.976243
100771.015811
100771.239961
100771.302395
100770.672136
100769.168532
100767.520548
100766.281339
100765.211862
100764.13066
100762.947212
100761.709525
100762.246774
100757.146059
100758.668408
100758.732486
100758.244634
100757.60252
100756.776608
100756.153495
100755.941506
100756.113917
100756.358232
100756.318158
100755.827824
100755.211519
100754.864225
100754.703976
100754.563807
100754.376769
100754.086208
100753.671574
100731.544291
100727.424031
100730.374693
100731.381997
100731.828222
100732.367121
100732.958024
100733.694149
100734.682256
100735.871254
100737.031043
100738.016982
100738.882116
100739.766757
100740.698227
100741.617971
100742.4864
100743.272988
100743.924178
100744.448641
100699.142473
100697.382642
100699.798365
100700.866937
100701.472194
100702.544729
100704.601388
100707.491444
100710.702403
100713.812784
100716.699968
100719.328854
100721.726243
100723.965122
100726.07641
100728.065198
100729.919568
100731.630906
100733.169162
100734.537791
100689.475667
100689.414389
100689.381617
100689.386
100689.32524
100689.208776
100689.484871
100690.699146
100693.105909
100696.312071
100699.790923
100703.277583
100706.626435
100709.783881
100712.744845
100715.521058
100718.113378
100720.508593
100722.703911
100724.745461
100688.218051
100688.195887
100688.17213
100688.134957
100688.093991
100688.060295
100688.00918
100687.920761
100688.207463
100689.315442
100691.218948
100693.736492
100696.635896
100699.655043
100702.606014
100705.456914
100708.203022
100710.806435
100713.278615
100715.625377
100687.374066
100687.357834
100687.345433
100687.333329
100687.318673
100687.299885
100687.274885
100687.254307
100687.26387
100687.664708
100688.566733
100689.981879
100691.800313
100693.838727
100695.97442
100698.232319
100700.491918
100702.755504
100704.982975
100707.154717
100686.632232
100686.620664
100686.61547
100686.613427
100686.612359
100686.613162
100686.615823
100686.61992
100686.608378
100686.788232
100687.28401
100688.072253
100689.039719
100690.056339
100691.222047
100692.595689
100694.099816
100695.625446
100697.175852
100698.689615
100685.876196
100685.872462
100685.872323
100685.881183
100685.898702
100685.914504
100685.918595
100685.886443
100685.757302
100685.696195
100685.814067
100686.098403
100686.398419
100686.524097
100686.68051
100687.216364
100687.809845
100688.463466
100689.053342
100689.792003
100684.785975
100684.724826
100684.927598
100684.945189
100684.948117
100684.857986
100684.655984
100684.420377
100684.166231
100683.962252
100683.850161
100683.757484
100683.290908
100682.234926
100681.445101
100681.0099
100680.713557
100680.344143
100679.973251
100680.40865
100682.764155
100682.108582
100682.541814
100682.518559
100682.267308
100681.947176
100681.658046
100681.361182
100681.084587
100680.826278
100680.452724
100679.476968
100677.470695
100675.381578
100673.920541
100672.814833
100671.578887
100670.202754
100669.814407
100669.92877
100680.14417
100678.353888
100679.291786
100679.089996
100678.407278
100677.632084
100676.911787
100676.232108
100675.522323
100674.443822
100672.420442
100669.424191
100666.640498
100664.544642
100663.030566
100661.308553
100659.146962
100658.145467
100657.830828
100657.530359
100671.851019
100667.067495
100669.122267
100669.044896
100668.12358
100667.02906
100665.760729
100664.169475
100661.873009
100658.775229
100655.374044
100652.986332
100650.996414
100649.567326
100647.950276
100645.358545
100644.015718
100643.697794
100643.283147
100643.018949
100649.579979
100641.969776
100645.53019
100645.930994
100645.292189
100644.167384
100642.332803
100639.769103
100636.865925
100634.371261
100633.043541
100631.767214
100630.870356
100629.539308
100626.821601
100625.428234
100625.584741
100625.680651
100625.671137
100625.940663
100611.532895
100603.2005
100607.513713
100608.808537
100609.219358
100608.922443
100607.983546
100606.792919
100605.66005
100605.147044
100604.562312
100603.525043
100601.573361
100598.705018
100598.351065
100600.058308
100601.813629
100603.09887
100604.434652
100606.004599
100554.869401
100548.626335
100552.800959
100555.749305
100557.770959
100559.449994
100561.047186
100562.28243
100562.916941
100562.728185
100561.25389
100559.61913
100558.95098
100561.352505
100565.396759
100569.596166
100573.410861
100577.056142
100580.680747
100584.340328
100505.772336
100504.528409
100507.26846
100509.142977
100510.250369
100511.098751
100512.494877
100514.480387
100516.739082
100518.723252
100521.276067
100524.798677
100529.244486
100533.813742
100538.33187
100542.83099
100547.629053
100552.922094
100558.434269
100563.935447
100497.896692
100497.858938
100497.840726
100497.81939
100497.829273
100497.813007
100497.954611
100498.942073
100501.297473
100504.577201
100508.138801
100511.643356
100515.044768
100518.457741
100521.959384
100525.726515
100530.08131
100535.245052
100541.114299
100547.284822
100496.747633
100496.742423
100496.737396
100496.725262
100496.70547
100496.688968
100496.685908
100496.706021
100497.281254
100499.058781
100501.475783
100504.025019
100506.522763
100509.013525
100511.698899
100514.807009
100518.586049
100523.208637
100528.65831
100534.593634
100495.907268
100495.903464
100495.901187
100495.898656
100495.895532
100495.892776
100495.890432
100495.890079
100495.899748
100496.412913
100497.635993
100499.199884
100500.9604
100502.933904
100505.184302
100507.939805
100511.347006
100515.279817
100519.606796
100524.484443
100495.092233
100495.089928
100495.088775
100495.086597
100495.081804
100495.074334
100495.064457
100495.052072
100495.038362
100495.074082
100495.472573
100496.358957
100497.657763
100499.32063
100501.331508
100503.632937
100505.895802
100508.096227
100510.711351
100514.311402
100494.323242
100494.321312
100494.321577
100494.321035
100494.317998
100494.31294
100494.305938
100494.297455
100494.288179
100494.177669
100494.188589
100494.594647
100495.386545
100496.465113
100497.396835
100497.738778
100497.745316
100498.279344
100499.719541
100502.021969
100493.590062
100493.590793
100493.59579
100493.600359
100493.602814
100493.602641
100493.599166
100493.591457
100493.586723
100493.460006
100493.125829
100492.895396
100492.76236
100492.153325
100490.481856
100488.556817
100487.467951
100486.864287
100486.684828
100486.90018
100492.844625
100492.848678
100492.857745
100492.872733
100492.891184
100492.914998
100492.930367
100492.926444
100492.853593
100492.497036
100491.841288
100490.934419
100489.358939
100486.214233
100482.485591
100479.832805
100477.271812
100474.777044
100472.114664
100469.324238
100491.797869
100491.823271
100491.885254
100491.931892
100491.954251
100491.955464
100491.867435
100491.623595
100491.273453
100490.654978
100489.658431
100488.022461
100484.581562
100479.543195
100475.276147
100471.231494
100467.170312
100462.576897
100457.492645
100451.886842
100489.807238
100489.830643
100490.302804
100490.07406
100489.620057
100489.209998
100488.884377
100488.552142
100488.034284
100487.24292
100485.90569
100483.042027
100477.769537
100472.239065
100467.269728
100462.454747
100456.933953
100450.923763
100444.153815
100436.519218
100486.880749
100487.3547
100489.011954
100489.036485
100488.443954
100487.631145
100486.729879
100485.786792
100484.730885
100483.249738
100480.430832
100475.274739
100469.347133
100464.002562
100458.951587
100453.059335
100446.815108
100439.783287
100431.931254
100422.608833
100484.112433
100485.562588
100488.154501
100487.73552
100486.435961
100484.967468
100483.474146
100481.883261
100479.763712
100476.293479
100471.07557
100465.557522
100460.387576
100455.476025