/*--------------------------------*- C++ -*----------------------------------*\
| =========                 |                                                 |
| \\      /  F ield         | OpenFOAM: The Open Source CFD Toolbox           |
|  \\    /   O peration     | Version:  2312                                  |
|   \\  /    A nd           | Website:  www.openfoam.com                      |
|    \\/     M anipulation  |                                                 |
\*---------------------------------------------------------------------------*/
FoamFile
{
    version     2.0;
    format      ascii;
    arch        "LSB;label=32;scalar=64";
    class       surfaceScalarField;
    location    "0.445/water";
    object      phi.gas;
}
// * * * * * * * * * * * * * * * * * * * * * * * * * * * * * * * * * * * * * //

dimensions      [0 3 -1 0 0 0 0];

oriented        oriented;

internalField   nonuniform List<scalar> 
2914
(
2.52730853149e-07
7.2286165306e-07
3.00272655427e-07
9.68000979169e-07
3.4944342021e-07
9.56025843439e-07
2.70325244537e-07
8.83185593521e-07
2.19356490118e-07
7.78516982875e-07
1.8432307042e-07
7.25595535243e-07
1.57606956667e-07
7.07730829916e-07
1.45490009504e-07
7.06264473065e-07
1.47701175195e-07
7.14840969811e-07
1.56871332888e-07
7.30256910613e-07
1.62898260741e-07
7.49090488584e-07
1.57229724885e-07
7.68468531067e-07
1.38076890533e-07
7.86963385039e-07
1.13362604296e-07
8.05722084777e-07
1.00121788279e-07
8.2504112378e-07
1.12704726575e-07
8.40558334106e-07
1.47932836554e-07
8.38670481141e-07
1.83823425144e-07
8.12949070909e-07
2.11649798352e-07
7.73128458809e-07
7.33724823023e-07
2.26675439928e-07
1.5498723842e-07
5.57698228814e-07
2.47217667901e-07
8.32122598159e-07
3.11103712038e-07
8.58951886812e-07
3.57182601259e-07
8.12593181047e-07
3.46480500851e-07
7.69116522786e-07
3.02954790406e-07
7.43447021221e-07
2.62106056916e-07
7.15389365676e-07
2.20036185707e-07
7.10211971158e-07
1.81126195443e-07
7.13983899327e-07
1.49524454495e-07
7.23782289893e-07
1.26492357225e-07
7.36881826745e-07
1.11784720208e-07
7.50307449127e-07
1.08219367184e-07
7.62512386841e-07
1.19795853908e-07
7.74321726479e-07
1.48586150509e-07
7.85758071841e-07
1.91326147719e-07
7.91649128132e-07
2.3995504242e-07
7.85153897808e-07
2.8477697514e-07
7.63667944988e-07
3.22603325559e-07
7.33049302101e-07
7.03155976138e-07
3.53852236964e-07
9.05452682702e-08
4.58132784548e-07
1.73735122151e-07
7.28935029699e-07
2.39043719806e-07
7.7555263816e-07
2.81180489455e-07
7.57890784232e-07
3.00020351849e-07
7.37201132031e-07
2.96471795849e-07
7.29631591826e-07
2.58614483727e-07
7.30525263408e-07
2.03713174141e-07
7.35358743836e-07
1.53547890202e-07
7.31192407675e-07
1.22140583949e-07
7.27643861198e-07
1.12648685418e-07
7.29405235752e-07
1.21109866815e-07
7.3401293853e-07
1.42804240507e-07
7.38985161331e-07
1.75292825283e-07
7.43231355434e-07
2.16941600921e-07
7.45773457204e-07
2.66834812073e-07
7.44790189897e-07
3.19963642109e-07
7.37377948144e-07
3.71593734957e-07
7.2152842599e-07
4.21044634811e-07
7.00004473857e-07
6.79302899649e-07
4.70518103861e-07
4.72437891806e-08
4.07490329077e-07
1.0123701758e-07
6.64008666263e-07
1.48516702303e-07
7.19024797328e-07
1.86637096178e-07
7.14618965582e-07
2.06746651898e-07
7.11479082972e-07
2.08645116623e-07
7.19804764929e-07
1.94613773764e-07
7.33658615932e-07
1.68862297439e-07
7.47077309494e-07
1.32690295465e-07
7.52419558725e-07
1.01748342445e-07
7.47532430206e-07
1.12172248305e-07
7.16244438096e-07
1.37998797689e-07
7.11930437193e-07
1.73387912432e-07
7.10752719256e-07
2.15287962082e-07
7.10091821409e-07
2.62781992909e-07
7.09374528991e-07
3.15488074228e-07
7.07592521818e-07
3.71413503815e-07
7.02450346929e-07
4.29183353219e-07
6.92546006967e-07
4.89775985902e-07
6.79483052544e-07
6.6479749082e-07
5.56826307121e-07
2.50698576841e-08
3.81305127777e-07
5.75708897132e-08
6.23943819905e-07
9.19706636807e-08
6.78618500509e-07
1.22131004309e-07
6.81456736418e-07
1.41627243651e-07
6.8900739334e-07
1.50494207747e-07
7.0712567406e-07
1.4939172374e-07
7.29726566153e-07
1.41492156393e-07
7.48694684989e-07
1.31142594559e-07
7.55742471348e-07
1.25704463353e-07
7.46815946073e-07
1.38632189746e-07
7.01427748666e-07
1.65490617639e-07
6.90219915439e-07
2.02815012609e-07
6.85528745187e-07
2.47017054131e-07
6.83299202843e-07
2.96547685806e-07
6.82581515149e-07
3.50697558033e-07
6.82309639683e-07
4.09040147408e-07
6.80841196977e-07
4.7228465028e-07
6.76431361825e-07
5.42977797153e-07
6.67470102625e-07
6.54176194319e-07
6.1510120291e-07
1.59386457101e-08
3.65788520218e-07
3.68857978255e-08
5.9613192526e-07
6.69372919903e-08
6.44051532219e-07
9.61290753675e-08
6.5030780337e-07
1.16892453621e-07
6.65871553267e-07
1.30654180962e-07
6.90427288714e-07
1.39318439378e-07
7.17412549791e-07
1.45194681119e-07
7.38500376591e-07
1.51198509164e-07
7.4492158633e-07
1.6217165351e-07
7.31185286113e-07
1.78199327366e-07
6.84469692569e-07
2.03918925181e-07
6.71999560037e-07
2.39463060931e-07
6.65915785893e-07
2.82680162383e-07
6.63326335229e-07
3.32033729805e-07
6.6377671161e-07
3.86756457553e-07
6.66428365029e-07
4.47544815229e-07
6.67675959406e-07
5.13955574581e-07
6.64902807807e-07
5.80085562561e-07
6.56241946361e-07
6.42714238654e-07
6.44102246012e-07
5.96997163388e-09
3.60454262505e-07
1.98532712199e-08
5.76904202462e-07
4.87835517164e-08
6.12808198617e-07
7.88994679357e-08
6.20310597099e-07
1.02014522093e-07
6.4225286411e-07
1.19725749512e-07
6.71441742258e-07
1.34218972217e-07
7.00875974087e-07
1.4783566876e-07
7.22287281163e-07
1.62942105964e-07
7.27160703492e-07
2.00168083428e-07
6.92780936561e-07
2.22430500348e-07
6.66041479062e-07
2.48885632453e-07
6.56147417811e-07
2.82567978604e-07
6.50222121469e-07
3.23834865578e-07
6.48267601848e-07
3.72346319637e-07
6.50956471668e-07
4.27959759474e-07
6.55112729975e-07
4.85493114237e-07
6.56840430862e-07
5.40596508953e-07
6.5344067644e-07
5.9747904578e-07
6.45257105228e-07
6.36103530452e-07
6.73432519907e-07
-1.10299136039e-08
3.73496536302e-07
-7.50083395975e-09
5.70228931586e-07
1.65416860609e-08
5.89386007579e-07
4.34374592261e-08
5.96321316476e-07
6.83855507482e-08
6.20632474993e-07
9.14241190723e-08
6.51198894423e-07
1.1505602592e-07
6.79408298136e-07
1.42720987494e-07
6.96638603898e-07
1.83864388602e-07
6.89148207046e-07
2.30179520121e-07
6.52251425796e-07
2.58730046258e-07
6.48164337678e-07
2.88388793477e-07
6.4230006055e-07
3.23059367507e-07
6.38216512644e-07
3.64746457116e-07
6.38447635948e-07
4.14106073589e-07
6.42902549379e-07
4.63308022447e-07
6.4743105996e-07
5.07411095614e-07
6.48600368722e-07
5.54967900471e-07
6.46110211445e-07
6.20595467049e-07
6.42144730663e-07
6.43017981412e-07
7.27025669944e-07
-4.98528832455e-08
4.29717839681e-07
-6.61350924468e-08
5.90783179062e-07
-5.6903139491e-08
5.86612724435e-07
-3.2902899206e-08
5.79106748761e-07
-5.47979001508e-09
6.01202104257e-07
2.44300349738e-08
6.29159107777e-07
6.31694996035e-08
6.48139451283e-07
1.39396632075e-07
6.27576854047e-07
2.12356597765e-07
6.26321529534e-07
2.47089045987e-07
6.31833532933e-07
2.81009048406e-07
6.32972954254e-07
3.15900669294e-07
6.31478295561e-07
3.55098093463e-07
6.30966899024e-07
4.00785186566e-07
6.34440863031e-07
4.46729350229e-07
6.40251041673e-07
4.84208612048e-07
6.44683650134e-07
5.22803118098e-07
6.46688709857e-07
5.77907617808e-07
6.47811961036e-07
6.67283439106e-07
6.510025863e-07
6.47124689168e-07
6.85220776995e-07
-1.55047284057e-07
5.96499000148e-07
-2.46832726899e-07
6.98668640338e-07
-1.83247515457e-07
5.31519275469e-07
-1.13944036156e-07
5.1726411675e-07
-3.87355175917e-08
5.35160512688e-07
4.30544895834e-08
5.56917065198e-07
1.2643114548e-07
5.75766568165e-07
1.76038195715e-07
5.91026436356e-07
2.15029505902e-07
6.04924580214e-07
2.54499564031e-07
6.15045337163e-07
2.94133115061e-07
6.21426105326e-07
3.35852396708e-07
6.24992220398e-07
3.81918485055e-07
6.29385321036e-07
4.29436589715e-07
6.35863830273e-07
4.66362467712e-07
6.42385383369e-07
4.98624784502e-07
6.47592863172e-07
5.43727008567e-07
6.52938914993e-07
6.13615799963e-07
6.597316689e-07
6.46825498095e-07
6.58003359895e-07
6.29958325118e-07
4.62815536279e-07
-4.55034835293e-08
6.36839671597e-07
-5.18913239386e-08
7.09912068463e-07
-9.09841684112e-09
4.89728582645e-07
2.09538700164e-08
4.90553996112e-07
5.63162651621e-08
5.06644971406e-07
9.55704925319e-08
5.27306179712e-07
1.35825815466e-07
5.4886747841e-07
1.76480899044e-07
5.68831145673e-07
2.18855773308e-07
5.87459124057e-07
2.62839367755e-07
6.03195211351e-07
3.09138999265e-07
6.14947995607e-07
3.58438353559e-07
6.23977814607e-07
4.0867723874e-07
6.32322067421e-07
4.4823426749e-07
6.40252084828e-07
4.78318930706e-07
6.47383567886e-07
5.16526766498e-07
6.55267702938e-07
5.68531212905e-07
6.64421371392e-07
5.80192587717e-07
6.64551765298e-07
4.64828291832e-07
6.44412825417e-07
6.30455347298e-07
2.88797156693e-07
-5.29624324491e-08
6.98077665027e-07
3.00768276066e-08
6.38083277615e-07
5.12896831955e-08
4.65433583415e-07
7.19268201453e-08
4.73100158451e-07
9.51533207605e-08
4.89925755299e-07
1.22628831458e-07
5.10275147987e-07
1.54901547977e-07
5.32819593826e-07
1.92169552057e-07
5.5604680653e-07
2.35286665071e-07
5.78589510502e-07
2.83661160407e-07
5.98710058681e-07
3.35745646783e-07
6.14542041725e-07
3.86492841791e-07
6.26868512138e-07
4.26160698527e-07
6.36579930639e-07
4.55380436685e-07
6.450037001e-07
4.889906272e-07
6.54089912847e-07
5.25270576772e-07
6.64182125269e-07
5.06824052039e-07
6.66455061963e-07
4.04025548753e-07
6.55655560922e-07
2.92044976445e-07
6.4837138808e-07
6.58224767153e-07
1.87538543857e-07
-8.41817448622e-08
7.5750175754e-07
6.52485070586e-08
4.70269235843e-07
8.45313649197e-08
4.40190474108e-07
1.03977877697e-07
4.57657006082e-07
1.24424707985e-07
4.77207022648e-07
1.48766529705e-07
4.98841542645e-07
1.79145540379e-07
5.23361803853e-07
2.17382451669e-07
5.49932604145e-07
2.63904598448e-07
5.75811894347e-07
3.15031949523e-07
5.98593765684e-07
3.6206606217e-07
6.16430296973e-07
3.98041264084e-07
6.29656422999e-07
4.25679390325e-07
6.4023223813e-07
4.55303261161e-07
6.50437242501e-07
4.79557520124e-07
6.61151803973e-07
4.38792681446e-07
6.66503790099e-07
3.29265003283e-07
6.64977291994e-07
2.37671747145e-07
6.69007725415e-07
1.72467805392e-07
6.77804734809e-07
7.02631704341e-07
8.26056649421e-08
7.05445489373e-08
7.20694182371e-07
1.01117808717e-07
4.2976035313e-07
1.18605191216e-07
4.20910666236e-07
1.37827374257e-07
4.44944693776e-07
1.57286458666e-07
4.6784517341e-07
1.80657950164e-07
4.92086056179e-07
2.1111236091e-07
5.19416525473e-07
2.49857150679e-07
5.48327562094e-07
2.92580406382e-07
5.76034349942e-07
3.31847797976e-07
5.99912836684e-07
3.64149565893e-07
6.1888214448e-07
3.91442220436e-07
6.33690971926e-07
4.17700087839e-07
6.46112941354e-07
4.3580548786e-07
6.57935994396e-07
3.88214984821e-07
6.66140409892e-07
2.7109703153e-07
6.71715648957e-07
1.77541831742e-07
6.87221986584e-07
1.19093204623e-07
7.04790812756e-07
5.39524013337e-08
7.21895804063e-07
7.5820200069e-07
-3.06628495933e-08
9.05784027833e-08
7.44811494329e-07
1.20574477177e-07
4.14549252646e-07
1.41833859544e-07
4.10641330844e-07
1.65030690219e-07
4.36667221022e-07
1.85362762447e-07
4.62981438226e-07
2.08897776511e-07
4.90148765519e-07
2.36544333726e-07
5.19645857018e-07
2.65943971347e-07
5.50010333489e-07
2.96071723077e-07
5.79020925348e-07
3.268786835e-07
6.04648123812e-07
3.56079639802e-07
6.25716774042e-07
3.81394274183e-07
6.42414516517e-07
3.97997897161e-07
6.56506627269e-07
3.60563561388e-07
6.67608790361e-07
2.45335638103e-07
6.75304907151e-07
1.42130279371e-07
6.95777272472e-07
7.83224433429e-08
7.26128093036e-07
1.44399862144e-08
7.51412857572e-07
-5.66202208511e-08
7.7528942755e-07
8.17873765292e-07
-1.30650399926e-07
6.83386078193e-08
7.88994609027e-07
1.21442955901e-07
4.22137113558e-07
1.44666500092e-07
4.09363360434e-07
1.74761000119e-07
4.34623341991e-07
1.96246372089e-07
4.63304264964e-07
2.17001742957e-07
4.92868834447e-07
2.3578472277e-07
5.24019920159e-07
2.57922953144e-07
5.56083993938e-07
2.87063670491e-07
5.87126255129e-07
3.18924624986e-07
6.14943794722e-07
3.47058979492e-07
6.38199772834e-07
3.66123660813e-07
6.56707192283e-07
3.48329145649e-07
6.719630631e-07
2.52006419402e-07
6.81330768201e-07
1.41385783307e-07
6.96909047823e-07
6.98158858813e-08
7.28998372339e-07
9.89171898214e-09
7.67152984816e-07
-5.74522340044e-08
8.00306660581e-07
-1.3069998102e-07
8.31459820764e-07
8.79195535026e-07
-1.99779086947e-07
1.03397864755e-07
7.96945053167e-07
1.39446201507e-07
4.60589195148e-07
1.47203633603e-07
4.23519991908e-07
1.74418372595e-07
4.42741621028e-07
1.91067849507e-07
4.71530098233e-07
2.04848949969e-07
5.02117464495e-07
2.21292044083e-07
5.34706136527e-07
2.46729598433e-07
5.68546468228e-07
2.79137316481e-07
6.01437535632e-07
3.11603564102e-07
6.31391381932e-07
3.36123342172e-07
6.57013731969e-07
3.41954000696e-07
6.77715497198e-07
2.79205903395e-07
6.93556040943e-07
1.70795174291e-07
7.03895333412e-07
8.57182297754e-08
7.25788388745e-07
3.05684656411e-08
7.60934396256e-07
-1.82071580672e-08
8.0238579751e-07
-7.59449362363e-08
8.43405712409e-07
-1.47826747417e-07
8.85226077407e-07
9.3963876605e-07
-2.19151847067e-07
1.87734972378e-07
7.72208114177e-07
1.92130712425e-07
5.13402628695e-07
1.70503369593e-07
4.58048110999e-07
1.78617908851e-07
4.67912779625e-07
1.84515798554e-07
4.93820176244e-07
1.92802894299e-07
5.22953768014e-07
2.11056402556e-07
5.55292978532e-07
2.38958160598e-07
5.89564102161e-07
2.7245302932e-07
6.23372536792e-07
3.03721389741e-07
6.54951855429e-07
3.23299484018e-07
6.83030338945e-07
3.10832952905e-07
7.06700847815e-07
2.27911080153e-07
7.24532705915e-07
1.28087794349e-07
7.36920253116e-07
6.13848801688e-08
7.59349576136e-07
2.13734448034e-08
7.91982146506e-07
-1.22568072238e-08
8.32426417116e-07
-5.1903708191e-08
8.77935623084e-07
-1.10003982075e-07
9.31835970712e-07
9.97584188944e-07
-1.80590161697e-07
2.6268847987e-07
7.45407340027e-07
2.60579474083e-07
5.67899399458e-07
2.0856643516e-07
5.12324904088e-07
1.83639875672e-07
5.15656272632e-07
1.71578068633e-07
5.33959655297e-07
1.70563063986e-07
5.56532367596e-07
1.88502930345e-07
5.84764988811e-07
2.18313001693e-07
6.1707755179e-07
2.5363186234e-07
6.50402128851e-07
2.8694059813e-07
6.83016661269e-07
3.06240607017e-07
7.13945275717e-07
2.88525324178e-07
7.4228816467e-07
2.07947286461e-07
7.64862247593e-07
1.22030816462e-07
7.78807043687e-07
6.70523742231e-08
7.96829252106e-07
2.96571497942e-08
8.22626944841e-07
3.95958849296e-09
8.57317835521e-07
-1.91824369074e-08
9.03165198838e-07
-5.44210418261e-08
9.67650650873e-07
1.04969488685e-06
-1.11802422678e-07
3.08374713918e-07
7.09092605701e-07
2.94875517675e-07
6.05656417672e-07
2.17208776891e-07
5.66729963909e-07
1.53887066869e-07
5.7031337246e-07
1.18670310768e-07
5.79488728352e-07
1.07075847888e-07
5.89699510364e-07
1.26018505252e-07
6.09715377388e-07
1.66748675425e-07
6.38683466689e-07
2.14501844589e-07
6.71744526032e-07
2.60464911782e-07
7.06769732318e-07
2.93290317084e-07
7.4311210218e-07
2.89041024701e-07
7.80539322637e-07
2.18169867018e-07
8.1019584114e-07
1.43264651811e-07
8.24634930924e-07
8.77587936433e-08
8.35231432567e-07
4.4925969242e-08
8.49339901191e-07
1.71397497183e-08
8.73002639506e-07
1.61786486355e-09
9.163710314e-07
-1.32869124441e-08
9.87618198155e-07
1.08411055256e-06
-4.65644122219e-08
3.43777915729e-07
6.48265224691e-07
3.14683408576e-07
6.0435785892e-07
2.32739587937e-07
5.91421098105e-07
1.59680994372e-07
6.01766149654e-07
1.06166662008e-07
6.08001365073e-07
8.2273604652e-08
6.08353504956e-07
9.16123529643e-08
6.18707455057e-07
1.3680371622e-07
6.41157353937e-07
2.03522794585e-07
6.75498695658e-07
2.71315147717e-07
7.16316509535e-07
3.23360935095e-07
7.61449531575e-07
3.11856142673e-07
8.07957059914e-07
2.33547172115e-07
8.42834323436e-07
1.61258789959e-07
8.57861219763e-07
9.99063000943e-08
8.62299896505e-07
4.66112862838e-08
8.65306682556e-07
7.67969769866e-09
8.77077986499e-07
-8.28372254641e-09
9.15519611708e-07
-1.19177827264e-08
9.86391079504e-07
1.08450767161e-06
-2.12690623743e-08
3.33559676542e-07
5.88281115035e-07
3.00745976008e-07
5.76094857007e-07
2.67756678344e-07
5.78254017579e-07
2.43498958951e-07
5.95500349502e-07
2.18963524638e-07
6.07630750887e-07
2.02195131996e-07
6.10738464979e-07
2.11053558033e-07
6.16537758817e-07
2.49208055746e-07
6.32663615595e-07
3.10037478367e-07
6.62908877899e-07
3.63812700828e-07
7.04656057906e-07
3.63758942518e-07
7.51159689808e-07
2.99098688446e-07
7.91904583766e-07
2.28990953976e-07
8.24506229284e-07
1.7364936947e-07
8.45319441329e-07
1.07562587427e-07
8.53693774411e-07
3.11425542108e-08
8.56899503854e-07
-4.05672462725e-08
8.65694996592e-07
-8.40656798374e-08
9.01231954728e-07
-9.87276741758e-08
9.66501565104e-07
1.05505762653e-06
-9.91596874735e-08
3.0750906183e-07
5.37505609263e-07
2.98274022072e-07
5.36433088586e-07
3.06126646141e-07
5.45283926598e-07
3.21680718795e-07
5.63605051007e-07
3.42142645624e-07
5.79505664552e-07
3.67744322935e-07
5.89713638484e-07
4.02194946782e-07
6.01534822022e-07
4.4279294115e-07
6.20097023663e-07
4.67258729713e-07
6.49033816419e-07
4.31252786783e-07
6.92720296339e-07
3.35849506276e-07
7.40621815847e-07
2.51455235671e-07
7.79567099926e-07
2.08819231958e-07
8.07532014856e-07
1.63603683901e-07
8.34831139817e-07
9.38332517769e-08
8.55340333276e-07
-2.86821164018e-09
8.6833695737e-07
-1.10382807389e-07
8.79202739319e-07
-2.00870555886e-07
9.04841775856e-07
-2.37597347522e-07
9.46027004503e-07
1.00312445796e-06
-2.18356596418e-07
2.94998778553e-07
4.90188450753e-07
3.04006679378e-07
4.93595107753e-07
3.24103062634e-07
5.03171143594e-07
3.57101145863e-07
5.19966860727e-07
4.04271166072e-07
5.38371013093e-07
4.60865186225e-07
5.5532362634e-07
5.15949883875e-07
5.72777132744e-07
5.53475290685e-07
5.94406690759e-07
5.44337687651e-07
6.27092425195e-07
4.66540942784e-07
6.9044120979e-07
3.66274218273e-07
7.70948245052e-07
2.92327280875e-07
8.27683302649e-07
2.25457605432e-07
8.63081159067e-07
1.53232079094e-07
8.91856926317e-07
6.90542294942e-08
9.16611183301e-07
-3.4835312792e-08
9.38872369869e-07
-1.58637793125e-07
9.5974848042e-07
-2.89972510019e-07
9.75923949818e-07
-2.97104785186e-07
9.00955687423e-07
9.13682599527e-07
-2.36422566558e-07
2.79261161527e-07
4.56305519627e-07
2.90539818147e-07
4.57817984148e-07
3.14134624661e-07
4.65833935476e-07
3.52797553904e-07
4.81269507308e-07
4.05420007819e-07
5.00456302421e-07
4.64539790156e-07
5.20711007507e-07
5.16687180665e-07
5.41654721972e-07
5.45549237515e-07
5.64596714783e-07
5.30302872989e-07
5.99354403091e-07
4.42401671045e-07
7.25798619418e-07
3.65499348918e-07
8.3263103341e-07
3.05863296396e-07
8.91358832242e-07
2.39856788513e-07
9.31081957912e-07
1.6677457346e-07
9.63098314052e-07
8.73377054949e-08
9.91150202482e-07
1.3068046505e-09
1.01672824583e-06
-8.62771672908e-08
1.03667049952e-06
-1.55101948769e-07
1.02282205772e-06
-1.28487636572e-07
8.4746060253e-07
8.47710923532e-07
-7.89597627372e-08
2.72092582719e-07
4.32258225228e-07
2.82993742067e-07
4.34351015655e-07
2.95821547679e-07
4.42188386201e-07
3.24109640443e-07
4.55884857906e-07
3.64966412442e-07
4.73692182606e-07
4.08462151589e-07
4.94395386486e-07
4.48079614872e-07
5.16550256506e-07
4.65907358729e-07
5.40618609941e-07
4.46828039019e-07
5.77385448481e-07
3.86314933173e-07
7.51597990052e-07
3.41465420678e-07
8.71401964356e-07
2.89127908573e-07
9.42708530122e-07
2.2809284708e-07
9.87196540431e-07
1.60970517744e-07
1.02171838197e-06
8.94882952879e-08
1.05135897965e-06
1.65269947953e-08
1.07579203804e-06
-2.47956164119e-08
1.06707795105e-06
9.06077303764e-08
9.06128089495e-07
1.1405624547e-07
8.24634471214e-07
8.21957801719e-07
1.44404865299e-07
2.68424016991e-07
4.24744716735e-07
2.67332118896e-07
4.26320000206e-07
2.62452800875e-07
4.33140378392e-07
2.73540306894e-07
4.44821031072e-07
2.96113944402e-07
4.60155519496e-07
3.22882720291e-07
4.80171836063e-07
3.50814880423e-07
5.03114767566e-07
3.58084135093e-07
5.28103965307e-07
3.36154639977e-07
5.66520835396e-07
3.70841383811e-07
6.88478846873e-07
3.18292840054e-07
9.12588976016e-07
2.64574626564e-07
9.90359534554e-07
2.0497329366e-07
1.03628813766e-06
1.43279733434e-07
1.06989397177e-06
8.324794809e-08
1.09473606943e-06
6.61644924854e-08
1.08163027313e-06
2.06503337716e-07
9.30320926704e-07
2.76677905423e-07
8.59677283971e-07
3.1666891733e-07
8.14313602371e-07
8.14565339977e-07
3.4498664418e-07
2.61114538251e-07
4.35943562428e-07
2.33945189791e-07
4.36058267638e-07
2.09320032142e-07
4.43126583018e-07
2.02721645595e-07
4.51097023874e-07
2.10237552509e-07
4.6108177396e-07
2.24107302636e-07
4.78885719815e-07
2.39898749117e-07
5.02048723483e-07
2.42098637681e-07
5.27921175284e-07
2.24275724993e-07
5.66969274477e-07
2.20778976345e-07
6.72033716057e-07
2.21482807855e-07
9.02250952926e-07
1.95120420957e-07
1.0095851225e-06
1.57696934528e-07
1.06255130181e-06
1.21920143705e-07
1.09094381771e-06
1.3540189098e-07
1.07312835504e-06
2.82299023172e-07
9.43514160145e-07
3.61452996283e-07
8.82016055658e-07
4.26630383162e-07
8.33418243859e-07
4.67038145667e-07
8.02511911939e-07
8.02592589892e-07
4.94499198756e-07
2.47373459703e-07
4.60162267867e-07
1.810768463e-07
4.67372038673e-07
1.32689087749e-07
4.76194383414e-07
1.1043027313e-07
4.71641640024e-07
1.07065412255e-07
4.71747935255e-07
1.12698605137e-07
4.85544587428e-07
1.19984463266e-07
5.08521940855e-07
1.20242976891e-07
5.36272336253e-07
1.0339773572e-07
5.77739076814e-07
8.85180683835e-08
6.75915284404e-07
1.32153825151e-07
8.57346622843e-07
1.41069813078e-07
1.00268068527e-06
1.37740229538e-07
1.06710966844e-06
2.04729242675e-07
1.02437992826e-06
3.35421088884e-07
9.56708347205e-07
4.07193283617e-07
9.01342046952e-07
4.72274261081e-07
8.47617123018e-07
5.17969576242e-07
8.05761674823e-07
5.49406080362e-07
7.7660270217e-07
7.73411363068e-07
5.80014119946e-07
2.50906438961e-07
4.53200373151e-07
1.00539643773e-07
5.61685466222e-07
3.81338518728e-08
5.21171042208e-07
1.57733605145e-08
4.86928128867e-07
9.64551705383e-09
4.78677815185e-07
1.31780572466e-08
4.88857741905e-07
2.0399978105e-08
5.11339378458e-07
2.13688822855e-08
5.41682606831e-07
7.39472980451e-09
5.87322040021e-07
-1.78209792611e-09
6.80677027352e-07
3.17720875454e-08
8.31710273074e-07
1.16625080625e-07
9.33073968877e-07
2.41125945615e-07
9.60175477076e-07
3.34297686179e-07
9.45828184432e-07
3.96236496082e-07
9.08955338567e-07
4.54152547745e-07
8.53869232444e-07
4.94429002538e-07
8.06080138636e-07
5.25503601458e-07
7.63737187774e-07
5.59251551734e-07
7.32772562167e-07
7.29377171321e-07
5.90211248383e-07
2.29400882724e-07
4.07854153765e-07
1.6579523911e-07
5.71102622753e-07
7.41226693649e-08
5.89827575166e-07
2.3035040186e-08
5.23549688316e-07
2.62545808454e-09
4.88987548468e-07
-6.93317216164e-09
4.92577409034e-07
-9.71617223492e-09
5.11940593648e-07
-1.51603537376e-08
5.42320107976e-07
-2.53572908338e-08
5.88957106065e-07
-2.17759252036e-08
6.72843999174e-07
2.83761113153e-08
7.88267426789e-07
1.18554782015e-07
8.57959689346e-07
2.11688586967e-07
8.76113573605e-07
2.89090262901e-07
8.64472072409e-07
3.55092349131e-07
8.3191423194e-07
3.99177459237e-07
7.92969126582e-07
4.2779956976e-07
7.55369792845e-07
4.6195726771e-07
7.1314961847e-07
5.05107998872e-07
6.86894215499e-07
6.93025616094e-07
5.42701282502e-07
1.42268518733e-07
3.55291822248e-07
1.5144027848e-07
5.28576552824e-07
1.65819227484e-07
5.57756893352e-07
1.25432251343e-07
5.51382074714e-07
6.88566668483e-08
5.32482464469e-07
3.73361235787e-08
5.09581261275e-07
1.36705653471e-08
5.19313248873e-07
-8.35218372171e-09
5.46735289025e-07
-2.61254522819e-08
5.91510168309e-07
-2.41370011373e-08
6.64419270091e-07
1.6321010211e-08
7.49646848829e-07
8.15277195065e-08
7.93970919104e-07
1.45535373928e-07
8.00575128842e-07
2.01327693332e-07
7.89432694469e-07
2.52385808582e-07
7.61938896559e-07
2.89917213911e-07
7.33400130399e-07
3.15697453022e-07
7.10983113991e-07
3.59751887841e-07
6.7040216107e-07
4.10403841894e-07
6.52449816463e-07
6.71292475495e-07
4.48127552735e-07
1.08684595095e-07
3.11146091093e-07
1.31874389596e-07
4.81529582633e-07
1.54477269256e-07
5.2298020825e-07
1.67502087462e-07
5.30093383413e-07
1.53937862765e-07
5.37135139896e-07
1.02752934182e-07
5.49105088177e-07
3.8791971258e-08
5.66753210751e-07
-1.07048862344e-08
5.77780159638e-07
-3.8771037868e-08
6.04140156155e-07
-3.70795905437e-08
6.55245230964e-07
-6.09554495023e-09
7.18355925896e-07
3.8194305792e-08
7.44287800928e-07
7.74120542363e-08
7.43973044167e-07
1.17183505144e-07
7.3092200487e-07
1.52256683702e-07
7.08246833028e-07
1.76350886594e-07
6.91302473236e-07
1.9540979302e-07
6.83949348206e-07
2.45192710867e-07
6.40451269194e-07
2.97249980216e-07
6.33143396831e-07
6.62882373569e-07
3.33637901096e-07
8.49392791065e-08
2.92090473304e-07
8.93939403294e-08
4.56036133191e-07
1.04323908134e-07
4.98507111988e-07
1.1464115628e-07
5.15519527311e-07
1.12631376029e-07
5.35883181752e-07
9.6176598025e-08
5.60959542243e-07
6.49706294573e-08
5.90781188273e-07
1.39095218463e-08
6.20213043605e-07
-3.49903731986e-08
6.45105277186e-07
-3.99676450528e-08
6.55395519699e-07
-1.8007738084e-08
6.94294076928e-07
9.81475338396e-09
7.08720358924e-07
3.30722639838e-08
7.03454905754e-07
5.8439368936e-08
6.88678870513e-07
7.82204306472e-08
6.70439690895e-07
8.74419240879e-08
6.65521700982e-07
9.87607264736e-08
6.71493445835e-07
1.49381197535e-07
6.23892378221e-07
1.9814134336e-07
6.25950262523e-07
6.61813361529e-07
2.32382571654e-07
6.06420723748e-08
2.99117595279e-07
4.63776096016e-08
4.50634020315e-07
5.70624839158e-08
4.84836857761e-07
7.68883596106e-08
4.97676299654e-07
8.9838266292e-08
5.26104811148e-07
8.93103311617e-08
5.64712075116e-07
7.28792328204e-08
6.09280758652e-07
4.31171606185e-08
6.51300749559e-07
7.52052604876e-09
6.81885666006e-07
-2.23298866042e-08
6.86196795268e-07
-8.42036032919e-09
6.78622159441e-07
6.48832253345e-09
6.84789554041e-07
1.9801346231e-08
6.7601864182e-07
3.12710104861e-08
6.61759604726e-07
3.60519275785e-08
6.48209159835e-07
3.21952781526e-08
6.54095553133e-07
3.67530717258e-08
6.69193133285e-07
7.98447822862e-08
6.17973417539e-07
1.21741254496e-07
6.27795617615e-07
6.65939266659e-07
1.55368204442e-07
-8.85045166886e-09
3.89559432543e-07
-7.33419759637e-08
5.20196927018e-07
-1.05300775927e-08
4.31653345231e-07
5.62636819271e-08
4.41471302556e-07
1.14939926597e-07
4.78734910217e-07
1.6228066584e-07
5.27506449788e-07
1.79930639538e-07
5.99731156564e-07
1.11049487782e-07
7.28855020816e-07
2.87806941379e-08
7.71927153535e-07
1.96503446086e-08
7.00387851755e-07
2.44275724054e-08
6.75090151249e-07
3.0296228887e-08
6.7287001026e-07
3.38416390251e-08
6.62029607036e-07
2.99144462387e-08
6.5043429872e-07
1.85231701859e-08
6.42562527634e-07
-4.70902970467e-11
6.58215503122e-07
-2.59188317105e-09
6.74321423002e-07
2.83993063843e-08
6.20225448123e-07
6.72902331453e-08
6.36850106534e-07
6.75430845523e-07
1.04236805605e-07
3.104033541e-08
2.45676060375e-09
7.48734117735e-09
2.1725346866e-08
4.18427361934e-08
6.25513963187e-08
8.5399983626e-08
7.41101140349e-08
5.73806476417e-08
6.60303912943e-08
6.85000729169e-08
6.73590866275e-08
5.90731860921e-08
4.03004837402e-08
1.1299681687e-08
-2.37551812528e-08
-3.66877771675e-08
-1.34222113029e-08
2.73452146547e-08
7.0327669747e-08
4.6417430749e-08
4.89953724443e-07
-3.89243267204e-08
4.67700910211e-07
-1.9016431101e-07
4.78617328965e-07
-2.40631067758e-07
5.19935179701e-07
-3.8761473156e-09
5.56698856485e-07
3.30815144047e-07
5.31849148279e-07
5.97375954756e-07
4.8597264767e-07
7.52612053897e-07
4.58095500006e-07
3.73010617322e-07
3.58454363749e-07
1.80286538705e-07
2.45788613976e-07
1.76081623386e-07
1.86140730517e-07
1.78396356318e-07
1.58866923297e-07
1.03013097343e-07
1.36678237483e-07
1.93449015283e-08
1.1228318301e-07
-5.94867884311e-08
9.70548853544e-08
9.2695423649e-08
2.33271212908e-07
6.80468748771e-07
2.3777725602e-07
6.1684254143e-07
2.39463715996e-07
5.66522474318e-07
2.32809329266e-07
5.27268887868e-07
2.09992489771e-07
5.00859528421e-07
1.56158063709e-07
4.92434634651e-07
4.18827812066e-08
5.14486966485e-07
-8.42491749222e-08
5.75924151293e-07
2.05622439513e-08
6.2530106625e-07
4.1130217323e-07
6.20955357367e-07
7.60304234638e-07
5.84438766211e-07
5.76111824127e-07
5.72139982955e-07
2.16971924801e-07
4.13169688424e-07
1.31295284789e-07
2.38958736719e-07
1.34684944959e-07
1.76147400743e-07
3.93120494874e-08
1.52911871802e-07
-5.72285098167e-08
1.27793407877e-07
-7.10276348609e-08
1.02363787019e-07
-6.98119179396e-08
8.64897536297e-08
8.07833636105e-08
3.82505096579e-07
6.55600582212e-07
4.10632975038e-07
5.94678929996e-07
4.3849871582e-07
5.46936228521e-07
4.62552703624e-07
5.11594930717e-07
4.72657153012e-07
4.92890020064e-07
4.47707780181e-07
4.99627045637e-07
3.70288997413e-07
5.44847271379e-07
2.530990284e-07
6.16259134608e-07
2.56981680188e-07
6.44517060971e-07
5.05017708821e-07
6.29171726495e-07
4.78387523506e-07
5.99090464851e-07
9.88604754849e-08
6.63992802995e-07
-1.55874665329e-08
4.24264251823e-07
-3.61547026696e-08
1.88082704064e-07
-4.56000186246e-08
1.1441371165e-07
-9.60981859916e-08
9.24083007554e-08
-1.40525368385e-07
8.94852413743e-08
-1.28970840353e-07
6.9717527689e-08
-9.99520598599e-08
5.75980528061e-08
5.11588077976e-08
5.23246043987e-07
6.35421050587e-07
5.75116833177e-07
5.73528231628e-07
6.29293909424e-07
5.24226174996e-07
6.84867761729e-07
4.91761261442e-07
7.07879301177e-07
4.83520654705e-07
6.16746314778e-07
5.04952535888e-07
4.69676831111e-07
5.52753096265e-07
3.76149090876e-07
6.10855935736e-07
3.08666349495e-07
6.30120187291e-07
2.20897364776e-07
6.24915139086e-07
8.45042353139e-08
6.05494503456e-07
1.27287650542e-08
6.24349629716e-07
-1.40619368737e-08
4.1055166334e-07
-4.31497542969e-08
1.7054140746e-07
-5.30635811228e-08
8.71624263597e-08
-4.27858193704e-08
5.92287943646e-08
-1.04496017142e-07
5.20102050441e-08
-1.22163292923e-07
4.14638581274e-08
-1.03631263709e-07
3.53598402246e-08
3.05301650922e-08
6.23936757138e-07
6.21617272416e-07
6.88207229063e-07
5.57719432981e-07
7.66070667279e-07
5.1131580878e-07
8.05409392852e-07
4.89112025524e-07
6.49435373815e-07