/*--------------------------------*- C++ -*----------------------------------*\
| =========                 |                                                 |
| \\      /  F ield         | OpenFOAM: The Open Source CFD Toolbox           |
|  \\    /   O peration     | Version:  2312                                  |
|   \\  /    A nd           | Website:  www.openfoam.com                      |
|    \\/     M anipulation  |                                                 |
\*---------------------------------------------------------------------------*/
FoamFile
{
    version     2.0;
    format      ascii;
    arch        "LSB;label=32;scalar=64";
    class       volScalarField;
    location    "0.655/water";
    object      Tf.gasAndLiquid;
}
// * * * * * * * * * * * * * * * * * * * * * * * * * * * * * * * * * * * * * //

dimensions      [0 0 0 1 0 0 0];

internalField   nonuniform List<scalar> 
1504
(
321.973696423
308.755149187
303.634365937
301.590408231
300.808207396
300.496899985
300.338744908
300.243253066
300.174433615
300.119273666
300.07304036
300.034476125
300.009564839
300.001295013
300.000132974
300.000019181
300.00000234
300
300
300
322.141403691
308.492912354
303.411457624
301.486574014
300.775459408
300.500757564
300.348967633
300.252356487
300.181505119
300.124464781
300.076437389
300.036623262
300.010929885
300.001765446
300.000201991
300.000027974
300.000003677
300.000000091
300
300
321.833731589
307.839427489
303.009023633
301.321072024
300.737453825
300.497193713
300.352166416
300.256391363
300.184693499
300.126397073
300.076967335
300.036791821
300.011381127
300.002043388
300.000260528
300.000035134
300.000004865
300.000000205
300
300
320.692445639
306.722528657
302.546724481
301.219751133
300.739971449
300.495254026
300.351854235
300.256837316
300.184747865
300.125328614
300.074895334
300.035341233
300.011097613
300.002125278
300.000292444
300.0000394
300.000005747
300.000000274
300
300
319.324698739
306.426445715
302.515384085
301.275735122
300.753748515
300.494385021
300.34956155
300.254657207
300.181987134
300.121222475
300.070753948
300.032835397
300.01037789
300.002071646
300.000298944
300.000041009
300.00000631
300.000000273
300
300
318.570991556
307.24205723
302.968913765
301.415250555
300.784588739
300.497632106
300.347214716
300.250775974
300.176398753
300.11457063
300.065383597
300.029936144
300.009544045
300.001967074
300.000289771
300.000040939
300.000006507
300.000000202
300
300
318.516367277
307.968946986
303.429536758
301.582727395
300.829628007
300.506110171
300.345723362
300.245080876
300.167998567
300.106486653
300.059766801
300.027264256
300.008875499
300.001892003
300.000279076
300.000040348
300.000006419
300.000000084
300
300
318.741225842
308.408230516
303.735912418
301.716108417
300.872829172
300.516141691
300.343337022
300.236239919
300.157646388
300.09811651
300.054727283
300.02528423
300.008564794
300.001913318
300.000283868
300.000040356
300.000006191
300.000000004
300
300
319.159930286
308.571075384
303.82613176
301.76420473
300.892207003
300.51868893
300.334754102
300.22411864
300.146515829
300.090489805
300.050922641
300.024297158
300.008744865
300.002093157
300.000322903
300.000041432
300.000005906
300
300
300
319.594483352
308.531371117
303.730384199
301.715677595
300.87051761
300.499684807
300.317843563
300.20943548
300.135899748
300.084562456
300.048863557
300.024523537
300.009531246
300.002508827
300.000421007
300.000048418
300.000005489
300
300
300
320.138314631
308.628282522
303.658745968
301.643477943
300.814879703
300.465938065
300.295714618
300.19473036
300.127518712
300.081382029
300.049052378
300.026206385
300.011104267
300.003243702
300.00058371
300.000062366
300.000004739
300
300
300
320.24164406
308.598761311
303.491756364
301.506761821
300.736960057
300.423636965
300.272843591
300.183021223
300.123513376
300.082068163
300.052065801
300.029527426
300.013521617
300.004319299
300.000827981
300.000085337
300.000003584
300
300
300
317.965124948
307.749812363
303.082052167
301.311701855
300.641164487
300.380370919
300.255720376
300.179050933
300.125700176
300.087263778
300.057892658
300.034671923
300.016964631
300.005878326
300.001199862
300.000125838
300.000002353
300
300
300
314.873441495
306.443067821
302.568894837
301.06189701
300.537387485
300.349907852
300.253325778
300.185768286
300.135652941
300.097597195
300.067334032
300.04222194
300.021976246
300.008217728
300.001820278
300.000207539
300.000006277
300.000000417
300.000000107
300
313.389213456
305.736292321
302.207765093
300.857757303
300.489581704
300.359237502
300.274800523
300.208206351
300.15606714
300.115121197
300.081640856
300.053172868
300.029260877
300.011811701
300.002878513
300.000368496
300.000018425
300.000000841
300.000000707
300.000000081
314.723768304
306.443861767
302.428398884
300.939443379
300.565042142
300.419450733
300.325015427
300.249709908
300.189334026
300.140965312
300.101456786
300.068028809
300.039309908
300.017020739
300.004536996
300.000646292
300.000042762
300.000001067
300.000001011
300.000000352
320.054782888
308.505898278
303.497093716
301.489857487
300.803246427
300.538672135
300.404507209
300.309134594
300.233810278
300.173933333
300.125963117
300.086257603
300.05193121
300.023915603
300.006917289
300.001087387
300.000086899
300.000001364
300.000000896
300.000000491
325.699132722
310.237439373
304.405860683
302.01159603
301.073622784
300.684292437
300.495102572
300.373318752
300.281429766
300.209056595
300.15192619
300.105633425
300.065748232
300.031934149
300.009955322
300.001722222
300.000160644
300.000002664
300.00000064
300.000000404
328.091385243
311.119838053
304.81993798
302.251346679
301.202056156
300.755708136
300.54279085
300.414881648
300.318168113
300.238699485
300.174909447
300.123330607
300.078868964
300.040095096
300.013402551
300.002558035
300.000277112
300.00001065
300.000000812
300.000000192
329.067365726
311.438762292
304.918414069
302.306951093
301.237877382
300.780999108
300.562660673
300.432950556
300.337263941
300.257495628
300.191904564
300.137425302
300.089851917
300.047463444
300.016973718
300.003606556
300.000458331
300.000030384
300.000002205
300.000000089
329.651384954
311.576494545
304.922302027
302.292299835
301.230299007
300.780735703
300.566627566
300.438922524
300.344860237
300.26692827
300.202095069
300.146929844
300.097733328
300.053159404
300.020207811
300.004744451
300.000691864
300.000061633
300.000005023
300.000000225
330.010856258
311.649286106
304.889149985
302.245777355
301.198606776
300.764827222
300.560318265
300.437340909
300.346031461
300.270965764
300.207723684
300.152591244
300.102303397
300.056318611
300.022201684
300.005639381
300.000922304
300.000098732
300.000008669
300.00000057
330.399048851
311.67886515
304.83058183
302.178627485
301.152131304
300.738686817
300.546968156
300.430504001
300.343538797
300.271944285
300.210393832
300.15537802
300.104072923
300.057172875
300.022832323
300.006048568
300.001063532
300.000128631
300.000012086
300.000000985
330.643885203
311.66810973
304.755476363
302.102430955
301.098732303
300.70742118
300.529550257
300.420681804
300.339522391
300.271334613
300.211084993
300.155899301
300.103416609
300.056105091
300.022327234
300.006013464
300.001098831
300.000142534
300.000014469
300.000001334
330.877956252
311.634235639
304.690173629
302.037396762
301.051943349
300.678748707
300.512475432
300.411326166
300.33547946
300.269795429
300.210201926
300.154375498
300.100613813
300.05349234
300.020981096
300.005648536
300.001046828
300.000140703
300.000015416
300.000001515
330.998761886
311.555785512
304.607134237
301.979443431
301.015129813
300.656760956
300.499000074
300.4048415
300.331653593
300.267281418
300.207710949
300.150693822
300.095888565
300.04968484
300.019080824
300.005079054
300.000937103
300.00012723
300.000014952
300.000001501
330.930797954
311.015058279
304.259312843
301.833266618
300.957121816
300.631498012
300.486610555
300.39878034
300.327334181
300.263329434
300.203223542
300.144574155
300.089465043
300.045038279
300.01689436
300.004420421
300.000799946
300.000107088
300.000013459
300.000001322
329.53546383
309.177941679
303.466076437
301.578016235
300.884412951
300.610613234
300.480320724
300.393099742
300.321623728
300.257260172
300.196070755
300.13592371
300.081611241
300.039915684
300.014677331
300.003778778
300.000662973
300.000085209
300.000011374
300.000001012
326.318115278
307.574123821
302.814939519
301.351892416
300.8306418
300.601311677
300.475202435
300.385979672
300.313425364
300.248366721
300.185679011
300.125048819
300.072828622
300.034797227
300.012702216
300.003256892
300.000553322
300.000065624
300.000009286
300.000000661
324.645585103
307.93687726
302.804104447
301.333270004
300.824528513
300.596713182
300.466098961
300.375144075
300.301902326
300.236159331
300.172256679
300.11268972
300.063926911
300.030274473
300.011256369
300.002961942
300.000497466
300.000054282
300.000007962
300.000000385
322.690813466
308.857091895
303.26303715
301.443117842
300.834746068
300.586237453
300.451859037
300.360551026
300.287567431
300.221077874
300.157233296
300.100250108
300.056035079
300.027003023
300.010617804
300.003007689
300.000538475
300.000061541
300.000007348
300.000000201
320.326207263
308.889885685
303.543048865
301.531381479
300.833040955
300.566496597
300.432382124
300.343487096
300.271492847
300.204966998
300.142830341
300.089552849
300.050362021
300.02553144
300.011042837
300.003576498
300.000761341
300.000096458
300.000007268
300.00000013
317.892836188
308.116170073
303.418942891
301.502188889
300.801379184
300.53838993
300.411348985
300.326923359
300.256477844
300.191535187
300.132037147
300.08263017
300.047936412
300.026269475
300.012907441
300.005003727
300.001263033
300.000192868
300.000013837
300.000000315
315.839191617
307.116961784
303.07987378
301.390768266
300.752380164
300.51237297
300.396308171
300.316543852
300.24839041
300.185435298
300.128085564
300.081249024
300.049455286
300.029786768
300.016787834
300.007533061
300.002287518
300.000457114
300.000057401
300.000001758
314.820885635
306.581698085
302.875865685
301.333838067
300.740481072
300.511770913
300.399195444
300.320347407
300.252622405
300.190151809
300.133036888
300.086920426
300.056251352
300.036838772
300.022734199
300.011566219
300.004288839
300.001133643
300.000218914
300.000028338
315.45942836
307.121275428
303.262555459
301.568724969
300.871218627
300.578616878
300.435076599
300.343996087
300.271760622
300.20746723
300.149313404
300.102036781
300.06940711
300.047493693
300.030846913
300.017390898
300.007737193
300.002624133
300.000692191
300.000143851
318.676766788
309.006035794
304.323560439
302.125529436
301.15218651
300.715906397
300.504241754
300.385412746
300.30389531
300.236820813
300.177350906
300.127434684
300.089302426
300.061400755
300.040666064
300.024638083
300.012636549
300.005202195
300.001698581
300.000445814
321.961651829
309.995285982
304.844944019
302.443445127
301.338195921
300.820798476
300.56425584
300
300
300
300
300
300
300
300
300
300
300
300
300
300
300
300
300
300
300
300
300
300
300
300
300
300
300
300
300
300
300
300
300
300
300
300
300
300
300
300
300
300
300
300
300
300
300
300
300
300
300
300
300
300
300
300
300
300
300
300.000000003
300
300
300
300
300
300
300
300
300
300
300
300
300
300
300
300
300
300
300
300.000000015
300
300
300
300
300
300
300
300
300
300
300
300
300
300
300
300
300
300
300
300.000000032
300
300
300
300
300
300
300
300
300
300
300
300
300
300
300
300
300
300
300
300.000000037
300
300
300
300
300
300
300
300
300
300
300
300
300
300
300
300
300
300
300
300.000000009
300
300
300
300
300
300
300
300
300
300
300
300
300
300
300
300
300
300
300
300
300
300
300
300
300
300
300
300
300
300
300
300
300
300
300
300
300
300
300
300
300
300
300
300
300
300
300
300
300
300
300
300
300
300
300
300
300
300
300
300
300.000000001
300
300
300
300
300
300
300
300
300
300
300
300
300
300
300
300
300
300
300
300
300
300
300
300
300
300
300
300
300
300
300
300
300
300
300
300
300
300
300
300
300
300
300
300
300
300
300
300
300
300
300
300
300
300
300
300
300
300
300
300
300
300
300
300
300
300
300
300
300
300
300
300
300
300
300
300
300
300
300
300
300
300
300
300
300
300
300
300
300
300
300
300
300
300
300
300
300
300
300
300
300
300
300
300
300
300
300
300
300
300
300
300
300
300
300
300
300
300
300
300
300
300
300
300
300
300
300
300
300
300
300
300
300
300
300
300
300
300
300
300
300
300
300
300
300
300
300
300
300
300
300
300
300
300
300
300
300.000000005
300
300
300
300
300
300
300
300
300
300
300
300
300
300
300
300
300
300
300
300
300
300
300
300
300
300
300
300
300
300
300
300
300
300
300
300
300
300
300
300
300
300
300
300
300
300
300
300
300
300
300
300
300
300
300
300
300
300
300
300
300
300
300
300
300
300
300
300
300
300
300
300
300
300
300
300
300
300
300
300
300
300
300
300
300
300
300
300
300
300
300
300
300
300
300
300
300
300
300
300
300
300
300
300
300
300
300
300
300
300
300
300
300
300
300
300
300
300
300
300
300
300
300
300
300
300
300
300.000000011
300
300
300
300
300
300
300
300
300
300
300
300
300
300
300
300
300
300
300
300
300.000000001
300
300
300
300
300
300
300
300
300
300.000000014
300
300
300
300
300.000000051
300
300
300
300
300.000000008
300
300
300
300.000000095
300.000000532
300.000001151
300.000001908
300.00000283
300.00000389
300.000004578
300
300
300
300
300.000000059
300.000000026
300
300
300
300
300.000000598
300.000001696
300.000003108
300.000004786
300.000006693
300.000008763
300.000010964
300.000013248
300.000015302
300.000016187
300
300
300
300
300
300.000000032
300
300.000000015
300.000001361
300.000003374
300.000006234
300.000009476
300.000012977
300.000016668
300.000020393
300.000023987
300.000027278
300.000030022
300.000031727
300.000031946
300
300
300
300
300
300.000000019
300.000000984
300.00000404
300.000008126
300.00001273
300.00001797
300.000023609
300.000028872
300.000033729
300.000037933
300.000041328
300.000043735
300.000044963
300.000045188
300.000044796
300
300
300
300
300
300.000001421
300.000006388
300.000012858
300.000019639
300.000026283
300.000032725
300.000039156
300.000044123
300.000047846
300.000050401
300.000051727
300.000052117
300.000051928
300.000051328
300.000050395
300
300
300
300
300
300.00000589
300.00001447
300.000023388
300.00003139
300.000038166
300.00004367
300.000048421
300.00005136
300.000053056
300.000053933
300.000054354
300.000054384
300.000054009
300.000053215
300.000052045
300
300
300
300
300.000001309
300.000010614
300.000021276
300.00003085
300.000038316
300.000043765
300.000047582
300.000050401
300.000052014
300.000053073
300.000053985
300.000054769
300.000055201
300.000055163
300.000054437
300.000053157
300
300
300
300
300.000002078
300.000012867
300.000024023
300.000033106
300.000039488
300.000043633
300.000046232
300.000047776
300.000048747
300.000049775
300.000051351
300.000053361
300.000054791
300.000055091
300.00005456
300.000053398
300
300
300
300
300.000001304
300.000011897
300.000022616
300.000030903
300.000036298
300.000039402
300.000041048
300.000041752
300.000042468
300.000043874
300.000046087
300.000049393
300.000052767
300.000054151
300.000053769
300.000051877
300.000000995
300.000000336
300.000000475
300.000000241
300.000000137
300.000008527
300.000018516
300.000026336
300.000031239
300.000033619
300.000034414
300.000034859
300.000035776
300.000037609
300.000040367
300.000044369
300.00004883
300.000051784
300.000052038
300.000049497
300.000022825
300.000001752
300.000000814
300.000000696
300.000000443
300.000004017
300.000012348
300.000020021
300.000025141
300.000027545
300.000028025
300.000028022
300.000029077
300.000031208
300.000034021
300.000038482
300.000044486
300.000049151
300.000050292
300.000047178
300.000099986
300.000018304
300.00000221
300.000000898
300.000000578
300.000001131
300.000006442
300.000012367
300.000016967
300.000019567
300.000020372
300.000020971
300.000022488
300.00002505
300.000028526
300.000033429
300.000041014
300.000047551
300.000049502
300.000046477
)
;

boundaryField
{
    emptyPatch
    {
        type            empty;
    }
    minY
    {
        type            calculated;
        value           nonuniform List<scalar> 0();
    }
    maxY
    {
        type            calculated;
        value           nonuniform List<scalar> 0();
    }
    maxX
    {
        type            calculated;
        value           nonuniform List<scalar> 
38
(
300
300
300
300
300
300
300
300
300
300
300
300
300
300
300
300
300
300
300
300
300
300
300
300
300
300
300
300
300
300
300
300
300
300
300
300
300
300
)
;
    }
    water_to_heater
    {
        type            calculated;
        value           nonuniform List<scalar> 
60
(
789.548080916
789.590400772
789.589763575
789.652154422
789.650872177
789.730050177
789.729994138
789.826863555
789.826028498
789.941824072
789.942332104
790.074213473
790.075109858
790.214259062
790.2139455
790.357702917
790.358512235
790.507552008
790.506535728
790.655956453
790.666396343
790.811399809
790.814931283
790.946506805
790.938671596
791.057845524
791.055122137
791.186791066
791.19375921
791.258398279
791.256657669
791.289715368
791.293618274
791.294541889
791.291710542
791.265071043
791.262109816
791.205782843
791.208150403
791.12217365
791.11927232
791.006859069
791.007501773
790.882340812
790.879836164
790.776290286
790.774014122
790.702985935
790.686724597
790.662170022
790.646860907
790.673191512
790.675837847
790.753567953
790.754709615
790.848805919
790.845656895
790.93587539
790.934556109
791.023279412
)
;
    }
    procBoundary3to1
    {
        type            processor;
        value           nonuniform List<scalar> 
41
(
300.426060317
300.338107429
300.269534999
300.208745389
300.154289878
300.110309298
300.076376286
300.051097774
300.032287062
300.018020164
300.008358325
300.003119961
300.000943701
323.8736922
310.141980464
304.772369132
302.407385928
301.338205128
300.841057842
300.426060317
300.588659844
300.000248716
300.000059237
300.000011844
300.000001699
300.000000555
300.000000469
300.000002604
300.000006465
300.000010092
300.000012628
300.000013955
300.000014536
300.000016043
300.000019317
300.000024176
300.000030461
300.000039266
300.000046941
300.000049503
300.000046903
)
;
    }
    procBoundary3to2
    {
        type            processor;
        value           nonuniform List<scalar> 
41
(
321.388161136
308.841823234
303.709280327
301.593757001
300.795739862
300.471284417
300.317794667
300.227909506
300.162801475
300.110423753
300.066617602
300.030181842
300.007380289
300.000797738
300.000076623
300.000011017
300.000001136
300
300
300
300
300
300
300
300
300
300
300
300
300
300
300
300
300
300
300
300
300
300
300
300
)
;
    }
}


// ************************************************************************* //
