/*--------------------------------*- C++ -*----------------------------------*\
| =========                 |                                                 |
| \\      /  F ield         | OpenFOAM: The Open Source CFD Toolbox           |
|  \\    /   O peration     | Version:  2312                                  |
|   \\  /    A nd           | Website:  www.openfoam.com                      |
|    \\/     M anipulation  |                                                 |
\*---------------------------------------------------------------------------*/
FoamFile
{
    version     2.0;
    format      ascii;
    arch        "LSB;label=32;scalar=64";
    class       volScalarField;
    location    "0.82/water";
    object      alpha.gas;
}
// * * * * * * * * * * * * * * * * * * * * * * * * * * * * * * * * * * * * * //

dimensions      [0 0 0 0 0 0 0];

internalField   nonuniform List<scalar> 
1497
(
0.437896539426
0.365012736023
0.297230984256
0.239604267444
0.21200078083
0.210018256801
0.210047999555
0.210044956671
0.211184166683
0.21321104314
0.213130887757
0.210833573895
0.210047999555
0.700723656685
0.674438444927
0.674012230989
0.67390629902
0.670255487793
0.648121304822
0.590684630978
0.505510524508
0.415015358889
0.329949093462
0.25575185921
0.214057921911
0.210047999555
0.209948635394
0.210047999555
0.210031807941
0.210871620379
0.211953004416
0.2110828196
0.209999857877
0.709385765997
0.671264060902
0.673000058982
0.673800583875
0.673343149961
0.661050082149
0.621540859582
0.550679290747
0.460132452106
0.364180425606
0.273832779814
0.216561805237
0.20995849462
0.210047999555
0.209851589237
0.210047999555
0.209990550589
0.210233728579
0.210583794
0.210065757133
0.709413402385
0.655476923175
0.660900078923
0.664619206845
0.666187238528
0.655126975939
0.619077473472
0.553196942174
0.466694939709
0.370011501666
0.276052085917
0.216249154655
0.210047999555
0.20976962122
0.210047999555
0.209748046984
0.210047999555
0.209943515354
0.210052972006
0.210038751783
0.69804992483
0.625817402794
0.631888807089
0.630467630731
0.631749604126
0.622224404013
0.592653280338
0.535991394745
0.454976609747
0.360128675531
0.267051078035
0.212814072742
0.209880034572
0.210047999555
0.209589122704
0.210047999555
0.209676079265
0.210047999555
0.209887429598
0.210047999555
0.665012677139
0.583972547712
0.589807712823
0.571473178107
0.55812105412
0.54482520289
0.521420122813
0.476648116068
0.40654434435
0.31858384801
0.236962058002
0.210007691627
0.210047999555
0.209603095843
0.210047999555
0.209483179886
0.210047999555
0.209657009724
0.210047999555
0.215659623761
0.618780956431
0.533828694912
0.543221644855
0.50568255177
0.459642168932
0.430906840534
0.407149836233
0.370833945053
0.313745858855
0.246494475392
0.211049516826
0.210047999555
0.209639821909
0.210047999555
0.209480101178
0.210047999555
0.209577618191
0.214968501481
0.22011744399
0.220808425141
0.570247977381
0.498303543532
0.503648804792
0.455831347234
0.377089133677
0.323206966943
0.290732667791
0.259634863761
0.225260195207
0.210188862882
0.210047999555
0.209608193198
0.210047999555
0.212625558787
0.217975688868
0.221108478396
0.225176507869
0.226124326091
0.224636280871
0.2209361419
0.526775681458
0.497974221649
0.497722249321
0.446041497581
0.355485584837
0.290599968819
0.253386588891
0.229022180058
0.213239798018
0.211199612952
0.21494790574
0.223255086315
0.234418449419
0.244278837313
0.245320116208
0.235898427379
0.229942956983
0.226589907994
0.222085593099
0.216939237597
0.524065337474
0.516712973683
0.527817321829
0.467736960552
0.374782296898
0.307829018877
0.269635430387
0.248249647168
0.240118956804
0.24957136469
0.268882170538
0.288279089882
0.296422066469
0.284957154367
0.254800191656
0.233724020712
0.225818478969
0.221177781717
0.216587310628
0.214182248328
0.589769102937
0.629056011349
0.616769690581
0.561023956606
0.483177970998
0.41896676666
0.379830438646
0.360234891894
0.356337007735
0.368957448279
0.384041003197
0.381957076211
0.353089145466
0.303649171068
0.251488711376
0.22474749377
0.217710103035
0.21529299522
0.214199959743
0.214131337531
0.726239690616
0.755000335421
0.726035747003
0.691707205497
0.654836095642
0.619569893487
0.592424137662
0.566186996686
0.535995929674
0.51201896787
0.485875794827
0.443111913411
0.381122183556
0.307855019397
0.244999399106
0.216766885566
0.214303979484
0.214200618639
0.214181649648
0.214096665798
0.822629714424
0.805642257051
0.778703169195
0.760174410602
0.747680924255
0.736738941236
0.724106781987
0.697289391718
0.647755676714
0.589187322135
0.530002997581
0.464959807478
0.389682812566
0.307887852405
0.238199089425
0.214319937115
0.214231616161
0.214230072316
0.214120587079
0.214181649648
0.838271994183
0.808537343811
0.791266914508
0.776838270369
0.767791475228
0.759184531317
0.747358506269
0.722019658958
0.672862495989
0.606893585723
0.538695411285
0.467386825528
0.388660821877
0.302636860258
0.228560105409
0.21426764643
0.21427660552
0.214115554785
0.214230072316
0.213997119471
0.838789754782
0.804979186849
0.792705564861
0.780449536973
0.771283873545
0.760228216234
0.745679431253
0.718816460557
0.669434479265
0.603403685302
0.533456302738
0.458158082098
0.372708928287
0.280865423575
0.217711701761
0.214318782681
0.214118551522
0.21427660552
0.214030055718
0.214230072316
0.838271994183
0.791901387121
0.789045731816
0.78016517968
0.771580105948
0.75732288165
0.732899055409
0.695700333487
0.641448162917
0.575445218118
0.502683075587
0.420769587596
0.328342960404
0.242395405553
0.214359304487
0.214183596331
0.214318782681
0.214015533636
0.21427660552
0.214067438909
0.838434490335
0.766731463347
0.775230975009
0.775763625194
0.769693445381
0.750272920336
0.70790883889
0.647838442033
0.581766796888
0.513155737204
0.437556376149
0.35113276487
0.26297106553
0.216089648724
0.214272676474
0.214359304487
0.214002526492
0.214318782681
0.214045739918
0.230012240852
0.826674957435
0.729204848551
0.752150263419
0.765983199589
0.764136788844
0.742560043987
0.683343019039
0.595804227443
0.510871771156
0.432726566693
0.350928447248
0.267129143406
0.218169475811
0.214316896066
0.214398170946
0.213990728899
0.214359304487
0.213974781242
0.22253676662
0.27557388474
0.803766983646
0.684079443776
0.72777662729
0.752035780071
0.754585277453
0.733020700375
0.664699452237
0.55795871664
0.451448891841
0.355959387334
0.267069431418
0.217722699799
0.214330511882
0.214434696754
0.213913692755
0.214398170946
0.21384983568
0.214359304487
0.253687870541
0.318683972626
0.771655860674
0.653755894465
0.70403607583
0.732388120862
0.737440458902
0.716274186756
0.644613005615
0.530007605941
0.408035559596
0.296497277702
0.221314228441
0.214352000499
0.214473122323
0.213815196316
0.214434696754
0.213647099067
0.214398170946
0.225708030518
0.290206855304
0.328608335064
0.735473653646
0.643393610931
0.677714738006
0.701452397285
0.70528021313
0.683553821621
0.612780160951
0.499608066172
0.372650905691
0.257717802817
0.214513117715
0.21451344805
0.213857381678
0.214473122323
0.2134451577
0.214434696754
0.213764172067
0.255218019533
0.30542647807
0.326467532753
0.707054813324
0.628976107063
0.645438124514
0.653939037097
0.651193459928
0.626654772102
0.561429426847
0.457678906303
0.33645181697
0.23347647465
0.214559013684
0.214023132406
0.21451344805
0.213362821287
0.214473122323
0.213391717237
0.223118793905
0.286133109894
0.304467838145
0.318006566465
0.684368372312
0.59643919661
0.601630869217
0.589170229317
0.572859250639
0.543759963072
0.48729846293
0.398218431374
0.292285903783
0.218190677161
0.214303467413
0.214559013684
0.213434281525
0.21451344805
0.213227118321
0.214473122323
0.259442988275
0.291784275688
0.295478185878
0.301967353927
0.648546628378
0.550101627771
0.555271918169
0.523115345274
0.48410469319
0.445700416712
0.395570461356
0.32234304971
0.242223420011
0.214519162798
0.214606121025
0.213597875797
0.214559013684
0.213227118321
0.21451344805
0.239580829888
0.293552594781
0.287602072005
0.278355503946
0.279864256572
0.591975123458
0.524416968433
0.5280016313
0.491514598677
0.427654664245
0.370471226389
0.318956769296
0.262242895047
0.215858534059
0.214654770703
0.213750237716
0.214606121025
0.21326739598
0.218311894964
0.255050263608
0.305278016059
0.3049590387
0.276969317466
0.258444798803
0.254806831231
0.54232837417
0.524682063585
0.531759212592
0.495918105198
0.425890029439
0.36076839681
0.306109352657
0.256275590649
0.219080112123
0.214793341989
0.216484412689
0.226820878069
0.257024703894
0.313835803813
0.362394064471
0.359270491376
0.315176383162
0.274158029563
0.242520745125
0.230353917616
0.555099092559
0.565733178018
0.579389927457
0.541721116431
0.46628355986
0.393944946746
0.336759576251
0.29155914546
0.268233869461
0.267938158056
0.29271501703
0.345809541819
0.412656166512
0.457265585534
0.44867144523
0.397303811602
0.333936983589
0.277010902866
0.232728500861
0.208931466685
0.644525898347
0.686372888258
0.677880547907
0.648356504651
0.592106455583
0.52806784126
0.476279384874
0.439849398054
0.426102316759
0.43115348091
0.468339593093
0.51075219709
0.531594081958
0.516119095136
0.471801875613
0.410391318052
0.342084582164
0.276784560288
0.22270698613
0.188459573524
0.764888762873
0.782820096579
0.76003489061
0.741368983004
0.718424080028
0.689105990848
0.659500238912
0.628774341625
0.60154693095
0.584661988166
0.578298981821
0.567861487058
0.54819438931
0.516825256163
0.467837581132
0.403275719936
0.330969173166
0.260564918841
0.200277288654
0.169444405174
0.829147659349
0.808001639576
0.782817600656
0.768473553826
0.758754491644
0.747283933836
0.729904718151
0.701995699909
0.664453982495
0.625710657309
0.592969371608
0.567076478121
0.538849537744
0.496652213227
0.436528751709
0.362816041984
0.28342348734
0.212515776109
0.17056774942
0.166610219997
0.839318719352
0.80718045827
0.783217937555
0.767237564548
0.757511253392
0.747532021371
0.731199213576
0.704179500976
0.665721832987
0.622806419148
0.583018093479
0.544095099345
0.497632704962
0.43728127661
0.36340054162
0.281844111658
0.207827500298
0.169551466578
0.166572540289
0.166698962094
0.839376674836
0.798505529016
0.77602719982
0.756080819058
0.742498085944
0.730846580556
0.713233719084
0.684652996696
0.642553959513
0.592248763708
0.540553657599
0.485217270841
0.421951320684
0.348281165213
0.267389727224
0.196967880175
0.167605464285
0.166561562975
0.166698962094
0.165925725357
0.829435344457
0.773287674692
0.759158455559
0.740680012319
0.718004285924
0.688196811619
0.659936049372
0.62749151139
0.580967856933
0.526153899862
0.467536473157
0.403658203083
0.332068039818
0.254105067181
0.188412352209
0.166820434649
0.166570050681
0.166698962094
0.165878711723
0.166698962094
0.7766894551
0.739799710038
0.740938877811
0.734943594698
0.706023726172
0.641599954708
0.584039900246
0.544925244943
0.497418188754
0.443620415639
0.384248368988
0.317604724663
0.244715174877
0.183926104384
0.166698962094
0.166571593262
0.166698962094
0.16593342433
0.166698962094
0.165636659044
0.671448388312
0.712042820998
0.731722085541
0.73492498647
0.708557579675
0.634006538548
0.521584985217
0.461509979918
0.411908738718
0.359378833688
0.300140449808
0.234912195709
0.180921977264
0.166698962094
0.166555622811
0.166698962094
0.166027029362
0.166698962094
0.165636659044
0.197042507553
0.574236748256
0.690578282523
0.730003631988
0.734574015233
0.712840942362
0.641475544489
0.521257455007
0.402943780455
0.332052215773
0.276035976597
0.220162992837
0.176726747741
0.166698962094
0.166529582984
0.166698962094
0.166105072122
0.166698962094
0.165636659044
0.205752957688
0.278651248707
0.547146525696
0.668105645538
0.727314620111
0.734293560498
0.718083290333
0.656822560617
0.537076872781
0.404498921845
0.287500846828
0.209700127276
0.172515651621
0.166698962094
0.166497363912
0.166698962094
0.166149600713
0.166698962094
0.169351981808
0.209054606649
0.281487645489
0.30295077835
0.54436074963
0.635482191909
0.718288463788
0.734058840091
0.723120105206
0.673404973126
0.564869095372
0.422629584154
0.292434628321
0.200426425115
0.167053010441
0.166576480111
0.166698962094
0.16621820845
0.166698962094
0.1675396315
0.206681590709
0.259460191106
0.317579303185
0.310440500024
0.209857062077
0.210963700084
0.23666797749
0.297379588248
0.368631497379
0.402390431923
0.406321783436
0.402792454454
0.393146702269
0.401407117363
0.434068258345
0.444337936384
0.443721808067
0.429403480061
0.282731755529
0.209852537958
0.269764967241
0.28614811327
0.031147899737
2.0743900648e-05
0.210047999555
0.20995158408
0.21855261593
0.253777861476
0.314794925936
0.366163112154
0.374654837224
0.368851788621
0.358092886945
0.358571306776
0.375293544604
0.402592790559
0.398733499443
0.363957988717
0.269167059686
0.287667969385
0.210247298205
0.124076332446
0.00306582104723
3.09757492446e-07
0.209972450648
0.210047999555
0.212401820595
0.229724828385
0.263639530164
0.300649941152
0.307275923883
0.302497372861
0.293234748162
0.2890124542
0.29259616092
0.301902215483
0.291521835147
0.272110075046
0.268737126558
0.331988333111
0.10512372875
0.0206696676369
0.000162319341023
3.0724577128e-07
0.210047999555
0.209970524373
0.212660069231
0.218375307037
0.227608283157
0.238636527166
0.239577464351
0.237160173871
0.232971649786
0.230995802311
0.229818646555
0.225544286294
0.220437145499
0.233929041033
0.282512287914
0.332356524801
0.0347772853389
0.00251309654563
8.74278738369e-06
3.07314260136e-07
0.212130277154
0.213041361492
0.213867049239
0.214219880634
0.214663413506
0.215168615794
0.215046771551
0.214874459077
0.214921874169
0.21488794515
0.214251129713
0.214235104816
0.214240446461
0.266541879119
0.435335549819
0.344503354068
0.0165249651979
0.00144278626518
3.05974656322e-06
3.0724577128e-07
0.217502625429
0.215518218191
0.213912482706
0.213925306286
0.213967630772
0.21393489695
0.214023242464
0.213958651607
0.214077965875
0.213887422198
0.214131337531
0.214117441606
0.30769611372
0.53165099265
0.694675698408
0.534013684571
0.0705905943933
0.00482006677236
1.43275158744e-05
3.07314260136e-07
0.21867863671
0.2144996594
0.213914082963
0.213967630772
0.213850590655
0.214023242464
0.213780267038
0.214077965875
0.213614542992
0.214131337531
0.252735075415
0.493716664264
0.714947334751
0.738315193298
0.74658782697
0.712241506329
0.153651475902
0.0193807532551
0.000592607900559
3.12627941982e-07
0.216227938605
0.213977901489
0.213967630772
0.213818043915
0.214023242464
0.213664007438
0.214077965875
0.213614542992
0.214131337531
0.335394532928
0.651428880258
0.742799679478
0.738608988481
0.748069811784
0.738315193298
0.654144386253
0.133105059164
0.0387010668747
0.00501516830694
6.92440775395e-06
0.214065868084
0.214023242464
0.213837664508
0.214023242464
0.213662242264
0.214077965875
0.213624860856
0.217430880761
0.431998673038
0.722827002889
0.74398360894
0.738608988481
0.747805002633
0.738608988481
0.745932251176
0.498970158215
0.128432410509
0.047724105302
0.00931002886393
2.42350086881e-05
0.214077965875
0.213937252994
0.214023242464
0.213675847713
0.214077965875
0.213638315783
0.221545026085
0.45205464396
0.73738563897
0.743830383912
0.739003801287
0.74685433767
0.738608988481
0.746483772297
0.738608988481
0.38923912704
0.13861196824
0.0473222098169
0.00884812403239
4.67334879183e-05
0.214034740071
0.214077965875
0.213718963334
0.214077965875
0.213664050586
0.226537204927
0.437882291724
0.706801542551
0.743037409182
0.739003801287
0.746518881738
0.739003801287
0.746271106795
0.738608988481
0.740559027731
0.350285954519
0.122287250461
0.034816473329
0.00469837528499
2.46492719727e-05
0.214131337531
0.213844264335
0.214077965875
0.213706620427
0.235906274158
0.410978796856
0.63233082253
0.737929565656
0.738608988481
0.744384683367
0.739003801287
0.745140416705
0.738608988481
0.743418016881
0.682802524631
0.284557748289
0.0864995845525
0.0179641893517
0.0013043938866
7.30355691312e-06
0.213946698578
0.214131337531
0.213742848774
0.242648074619
0.390821227314
0.541148728361
0.636520503918
0.733469744972
0.742274769894
0.738608988481
0.743788078461
0.738608988481
0.742583508336
0.738608988481
0.573284589252
0.222981846034
0.0567438846163
0.0072430626853
0.000332137663721
7.17860549207e-06
0.214181649648
0.213871824233
0.240602035724
0.361127159693
0.479586499939
0.53504708648
0.623295954455
0.727604762103
0.738484967757
0.742420761209
0.738608988481
0.74258023696
0.738608988481
0.739363521893
0.477538019331
0.161941364266
0.0303310311873
0.00200026474039
0.000213779001983
1.2310717186e-05
0.214005517273
0.234569607784
0.323144936831
0.43147829063
0.470762608368
0.505311262752
0.614770501938
0.722935381704
0.740470721647
0.738484967757
0.741849776164
0.738608988481
0.739582845162
0.685294665533
0.357887466315
0.091313704127
0.00936848857791
0.000483642820512
0.000302880391176
4.00314256941e-05
0.23163055817
0.293545005584
0.388185346181
0.425958503349
0.438864416867
0.473810985723
0.604556886096
0.715914447022
0.738315193298
0.740349450629
0.738484967757
0.739637712998
0.707285848437
0.535946569031
0.202656801369
0.0297002608737
0.000967709682204
0.000435225434104
0.000850531996647
0.000197973427759
0.281810345987
0.349227457493
0.391181339123
0.404223653618
0.401971962879
0.448387975227
0.582154630942
0.69913060674
0.7385963675
0.738315193298
0.739210009846
0.707817634585
0.584469523783
0.321746684052
0.0671052174916
0.00353598224626
4.12221309324e-05
0.000720566527276
0.00390999017036
0.00101396394478
0.33297474166
0.365150074709
0.382744331487
0.379482923021
0.375941055905
0.422358454537
0.544876089813
0.663374844665
0.72447834072
0.732675381118
0.703866550054
0.589192344075
0.377110686634
0.119315978386
0.00854966773913
9.85812103292e-05
2.69916486153e-05
0.000505273554826
0.0179583600798
0.00426200409066
0.347848131344
0.362405466294
0.369717726604
0.36275688464
0.360048380086
0.394337570295
0.499005862092
0.611742683026
0.672911215912
0.679493289361
0.594488865684
0.384482386233
0.152121486941
0.0176118049687
0.000246707593423
2.69556270994e-05
2.69310745224e-05
0.000178955484786
0.0555862845027
0.0155331700344
0.346326109832
0.355767031577
0.358009594251
0.35279284419
0.350361664268
0.369865754503
0.453954169401
0.5565459086
0.604301310093
0.585699369922
0.413542323221
0.158531792835
0.0245570592323
0.000585473953529
2.6921527325e-05
2.68567282644e-05
2.70519243614e-05
4.48519545264e-05
0.107713013597
0.0478506116125
0.340559714976
0.346203895076
0.347361541865
0.345035152109
0.343125608616
0.352704231302
0.415118690297
0.505149124076
0.544920552789
0.47397638171
0.206362468703
0.0306268516343
0.000961227686887
2.72598008157e-05
2.68291466268e-05
2.6921527325e-05
2.69080608584e-05
2.7230582561e-05
0.130724972473
0.109736125869
0.32912495186
0.333137135437
0.335234127322
0.335579499935
0.334913823071
0.340103394198
0.382368582626
0.458324283402
0.492677394863
0.338181356866
0.0705991315377
0.00266061479258
2.89337472353e-05
2.68387763866e-05
2.68857001955e-05
2.67378973998e-05
2.6921527325e-05
2.75738121238e-05
0.137546970848
0.155560457094
0.31053288482
0.314461157531
0.318324339405
0.320481063722
0.321741691084
0.325804021195
0.35327289425
0.411757975604
0.429114879185
0.21463353482
0.0213897184673
0.000288997238183
2.67715417505e-05
2.68857001955e-05
2.67378973998e-05
2.68857001955e-05
2.66786792932e-05
0.000139858776069
0.183244638059
0.183937976948
0.284832119977
0.288650284557
0.293603464362
0.296680983125
0.299769179389
0.304378082801
0.322993956208
0.35991176189
0.352032454943
0.140365375048
0.0104502581667
0.000200464943857
2.68857001955e-05
2.67471312188e-05
2.68509919833e-05
2.66900623037e-05
2.68857001955e-05
0.00550471308022
0.30311043934
0.14017058328
0.255297295062
0.25718029904
0.261378926745
0.265101734849
0.268940396593
0.273294800224
0.283970012137
0.302578104617
0.279423734506
0.108400511402
0.0101418889401
0.00026221220314
3.38880030715e-05
4.17774391003e-05
5.41736360806e-05
9.27731225512e-05
0.00181266827838
0.15200226854
0.303620718273
0.0271893054548
0.226357329625
0.225055552871
0.227132050673
0.230658361138
0.232852202982
0.234179721445
0.236430930879
0.242367511497
0.230211707006
0.108125615177
0.0125838260394
0.000672155187064
0.000291301580672
0.000388431768913
0.0010773430247
0.0121648069589
0.157498974516
0.440798308358
0.283952785333
0.00576678784654
0.200242709664
0.196910224793
0.197400103773
0.197395786243
0.194284353839
0.191706996106
0.191230391662
0.213671396067
0.234249516651
0.134696576069
0.0251297766321
0.00375550608068
0.00511393476914
0.020391766192
0.125053209026
0.343937680026
0.494402385455
0.470193381892
0.20036842575
0.00577693043669
0.176072390521
0.173825634263
0.173237409252
0.16977420916
0.169258330832
0.16982694173
0.20122434826
0.275310421206
0.345901067456
0.29951527569
0.150101100087
0.0903117415776
0.181366332882
0.359897245973
0.502094234441
0.544924181409
0.533759519662
0.438522311039
0.225208155025
0.0057652849103
0.16669169478
0.166698962094
0.166602310951
0.166698962094
0.167888036363
0.271208913451
0.472575382318
0.598700266848
0.652806021456
0.654508817921
0.579519046305
0.547712917007
0.598005896209
0.608304459375
0.582279149783
0.545691615053
0.499214331954
0.409917539558
0.275895949956
0.00577525058553
0.166698962094
0.166376253667
0.166698962094
0.172146192238
0.407747823964
0.706665736743
0.809983791327
0.838506738136
0.847093919611
0.850056368305
0.840566932587
0.817899184032
0.764889465436
0.653434566179
0.570595036126
0.523280413282
0.46746083135
0.389523195491
0.294183912928
0.00669316898955
0.166099662908
0.166698962094
0.165636659044
0.457225094273
0.798614528863
0.863003872272
0.867563935809
0.867652948341
0.867563813185
0.867648544102
0.86756090653
0.852371221806
0.777507413713
0.632422419277
0.531706924737
0.47975197845
0.428527658994
0.359806460568
0.287336710605
0.00850810083302
0.166698962094
0.165636659044
0.351660484625
0.786523614643
0.863233893184
0.867561419991
0.867649734448
0.867562672577
0.867648510309
0.867560890385
0.867640610072
0.850289664771
0.770606572645
0.599624661524
0.478090096297
0.420566703082
0.378451488382
0.324938925724
0.272009632011
0.00830279309591
0.165636659044
0.232190064617
0.63811653706
0.829706064974
0.853218269928
0.855755773
0.855049149877
0.854425744257
0.856039044309
0.858102791602
0.857197211826
0.842554515417
0.762145379027
0.573804823825
0.431331373921
0.364138300126
0.331916030348
0.300046439904
0.263075655983
0.00836707680354
0.195342327548
0.406014385389
0.687690312845
0.807945601792
0.821682466865
0.821974130937
0.818331975881
0.816490351678
0.821498421056
0.829837118443
0.8338461737
0.828342476332
0.748889265819
0.551111212502
0.395932997532
0.318255520747
0.302468392861
0.299383063702
0.271271143716
0.0119662671383
0.295184370038
0.439652610444
0.654601765979
0.756870848863
0.771918312546
0.770929904358
0.761379026673
0.757119427874
0.767656605926
0.788467556809
0.80362019132
0.805017325319
0.718915257354
0.521116805935
0.365317711217
0.28408616791
0.294319010666
0.317538216002
0.287319611834
0.00910838036817
0.312015766415
0.400971166067
0.573521983096
0.6796772947
0.703614972879
0.702137275809
0.683579054357
0.674209689765
0.693208386648
0.737376407226
0.767866702023
0.768868055176
0.666233191971
0.478872744631
0.336304977743
0.28387083838
0.304773832281
0.353812100951
0.27865765037
0.00500361839003
0.2963977363
0.324603979254
0.452753909024
0.570555985523
0.608643272404
0.608637533738
0.581729404788
0.566638312716
0.599520015279
0.681307137324
0.728879510383
0.71785450437
0.597371244114
0.425317495614
0.30687575677
0.298940405423
0.366167280703
0.365907073994
0.220909301729
0.00220167966486
0.272698548602
0.257305860663
0.319777073001
0.424329245487
)
;

boundaryField
{
    emptyPatch
    {
        type            empty;
    }
    minY
    {
        type            fixedValue;
        value           nonuniform List<scalar> 0();
    }
    maxY
    {
        type            inletOutlet;
        phi             phi.gas;
        inletValue      nonuniform List<scalar> 0();
        value           nonuniform List<scalar> 0();
    }
    water_to_cooler
    {
        type            zeroGradient;
    }
    water_to_heater
    {
        type            zeroGradient;
    }
    procBoundary1to0
    {
        type            processor;
        value           nonuniform List<scalar> 
41
(
0.546044462566
0.591769521626
0.700533182468
0.734003114055
0.726240711915
0.684802500368
0.590811951837
0.453613417446
0.313298290353
0.208265410862
0.168351075765
0.166698962094
0.166389008222
0.166698962094
0.166052560117
0.184248165118
0.236786560767
0.282701882885
0.324444907647
0.316512227039
0.478121503639
0.482889578034
0.45850480966
0.448621875982
0.519314502349
0.638627875517
0.686207549397
0.654113019803
0.522697874919
0.379434625561
0.312670205646
0.357595700344
0.393501871293
0.343048660774
0.127232368552
0.00049149817598
0.268444316087
0.231668581637
0.236667732951
0.478121503639
0.275278069123
)
;
    }
    procBoundary1to3
    {
        type            processor;
        value           nonuniform List<scalar> 
41
(
0.401066899802
0.344740207295
0.285968084514
0.234708998604
0.211656152349
0.210047999555
0.210037060736
0.210659069116
0.212803188391
0.214714171046
0.213482206992
0.210047999555
0.209848448881
0.652198559938
0.644956560417
0.652939837286
0.655159076015
0.640681823107
0.594235206101
0.518374721995
0.518374721995
0.210047999555
0.221006419764
0.27344543978
0.35457362178
0.404142129606
0.408905211726
0.408444441793
0.408580094856
0.400806353991
0.418216106696
0.444801259311
0.443721808067
0.444795464227
0.443721808067
0.305546624232
0.18018607458
0.286693953773
0.28786455506
0.10534243308
0.00114052458772
)
;
    }
}


// ************************************************************************* //
