/*--------------------------------*- C++ -*----------------------------------*\
| =========                 |                                                 |
| \\      /  F ield         | OpenFOAM: The Open Source CFD Toolbox           |
|  \\    /   O peration     | Version:  2312                                  |
|   \\  /    A nd           | Website:  www.openfoam.com                      |
|    \\/     M anipulation  |                                                 |
\*---------------------------------------------------------------------------*/
FoamFile
{
    version     2.0;
    format      ascii;
    arch        "LSB;label=32;scalar=64";
    class       volScalarField;
    location    "0.705/water";
    object      Ct2;
}
// * * * * * * * * * * * * * * * * * * * * * * * * * * * * * * * * * * * * * //

dimensions      [0 0 0 0 0 0 0];

internalField   nonuniform List<scalar> 
1504
(
1
1
1
1
1
1
1
1
1
1
1
1
1
1
1
1
1
1
1
1.39339089175
1
1
1
1
1
1
1
1
1
1
1
1
1
1
1
1
1
1
1
1.0661874244
1
1
1
1
1
1
1
1
1
1
1
1
1
1
1
1
1
1
1
1.00000027055
1
1
1
1
1
1
1
1
1
1
1
1
1
1
1
1
1
1
1
1
1
1
1
1
1
1
1
1
1
1
1
1
1
1
1
1
1
1
1
1
1
1
1
1
1
1
1
1
1
1
1
1
1
1
1
1
1
1
1
1
1
1
1
1
1
1
1
1
1
1
1
1
1
1
1
1
1
1
1
1
1
1
1
1
1
1
1
1
1
1
1
1
1
1
1
1
1
1
1
1
1
1
1
1
1
1
1
1
1
1
1
1
1
1
1
1
1
1
1
1
1
1
1
1
1
1
1
1
1
1
1
1
1
1
1
1
1
1
1
1
1
1
1
1
1
1
1
1
1
1
1
1
1
1
1
1
1
1
1
1
1
1
1
1
1
1
1
1
1
1
1
1
1
1
1
1
1
1
1
1
1
1
1
1
1
1
1
1
1
1
1
1
1
1
1
1
1
1
1
1
1
1
1
1
1
1
1
1
1
1
1
1
1
1
1
1
1
1
1
1
1
1
1
1
1
1
1
1
1
1
1
1
1
1
1
1
1
1
1
1
1
1
1
1
1
1
1
1
1
1
1
1
1
1
1
1
1
1
1
1
1
1
1
1
1
1
1
1
1
1
1
1
1
1
1
1
1
1
1
1
1
1
1
1
1
1
1
1
1
1
1
1
1
1
1
1
1
1
1
1
1
1
1
1
1
1
1
1
1
1
1
1
1
1
1
1
1
1
1
1
1
1
1
1
1
1
1
1
1
1
1
1
1
1
1
1
1
1
1
1
1
1
1
1
1
1
1
1
1
1
1
1
1
1
1
1
1
1
1
1
1
1
1
1
1
1
1
1
1
1
1
1
1
1
1
1
1
1
1
1
1
1
1
1
1
1
1
1
1
1
1
1
1
1
1
1
1
1
1
1
1
1
1
1
1
1
1
1
1
1
1
1
1
1
1
1
1
1
1
1
1
1
1
1
1
1
1
1
1
1
1
1
1
1
1
1
1
1
1
1
1
1
1
1
1
1
1
1
1
1
1
1
1
1
1
1
1
1
1
1
1
1
1
1
1
1
1
1
1
1
1
1
1
1
1
1
1
1
1
1
1
1
1
1
1
1
1
1
1
1
1
1
1
1
1
1
1
1
1
1
1
1
1
1
1
1
1
1
1
1
1
1
1
1
1
1
1
1
1
1
1
1
1
1
1
1
1
1
1
1
1
1
1
1
1
1
1
1
1
1
1
1
1
1
1
1
1
1
1
1
1
1
1
1
1
1
1
1
1
1
1
1
1
1
1
1
1
1
1
1
1
1
1
1
1
1
1
1
1
1
1
1
1
1
1
1
1
1
1
1
1
1
1
1
1
1
1
1
1
1
1
1
1
1
1
1
1
1
1
1
1
1
1
1
1
1
1
1
1
1
1
1
1
1
1
1
1
1
1
1
1
1
1
1
1
1
1
1
1
1
1
1
1
1
1
1
1
1
1
1
1
1
1
1
1
1
1
1
1
1
1
1
1
1
1
1
1
1
1
1
1
1
1
1
1
1
1
1
1
1
1
1
1
1
1
1
1
8.96785539435
8.96944060006
8.97098737553
8.97207255012
8.97268032707
8.97298183049
8.97313539426
8.97322468102
8.97328375939
8.97332789233
8.97336577422
8.97340312494
8.97344428447
8.9734923636
8.973547257
8.9736039109
8.9736577143
6.22956670593
8.95917552592
8.96784697888
8.96839996128
8.96991120289
8.97132101515
8.9722563386
8.97276077758
8.97301165715
8.97314474568
8.97322544599
8.97328043776
8.97332260972
8.97335964773
8.97339680451
8.97343828808
8.97348732233
8.9735437814
8.9736015758
8.97365550514
3.66240198189
8.88910658813
8.9685073149
8.9689506031
8.97036127058
8.97161894554
8.9724114073
8.97282743005
8.97303752031
8.97315392191
8.97322713275
8.97327836607
8.9733186349
8.97335475797
8.97339158088
8.97343319991
8.97348299587
8.97354094336
8.9735998596
8.97365323729
1.99132963888
8.51577954221
8.96892360846
8.96949800986
8.97078349986
8.97188140034
8.97254253205
8.97288439964
8.973061561
8.97316399001
8.9732304671
8.97327814167
8.97331648817
8.97335157199
8.97338787235
8.97342938379
8.97347967362
8.97353896564
8.97359903829
8.97365123644
1.46148133193
7.23989943554
8.96494436765
8.97003079395
8.97117343438
8.97211105615
8.97265495356
8.972935364
8.97308559691
8.97317592182
8.97323615115
8.97328034422
8.97331667458
8.97335054053
8.97338608415
8.97342719327
8.97347763512
8.97353804138
8.97359934209
8.97364989585
1.33003527743
4.74384566417
8.92236756772
8.97054313407
8.97153007414
8.97231245439
8.97275384394
8.97298340404
8.97311106312
8.97319050117
8.97324474772
8.97328542569
8.97331957765
8.97335200068
8.97338651679
8.97342689099
8.97347707938
8.97353827875
8.97360090572
8.9736496643
1.00227708657
2.47232438351
8.67308813251
8.97106125271
8.97185391088
8.97249033778
8.97284342052
8.97303063128
8.97313878225
8.97320810708
8.97325648631
8.97329354177
8.97332531289
8.97335604568
8.97338925159
8.97342854824
8.97347804696
8.97353964094
8.97360369727
8.97365094701
1
1.58041287927
7.7546160519
8.97021519678
8.97214338472
8.97264789343
8.97292611892
8.97307781425
8.9731687092
8.97322848979
8.97327107551
8.97330439663
8.973333596
8.9733624119
8.97339405227
8.97343196072
8.97348035022
8.97354190031
8.97360747289
8.97365396597
1
1.40795731531
5.86722159017
8.95243387969
8.97239859417
8.97278632867
8.97300245871
8.97312436108
8.97319988871
8.97325070297
8.97328763862
8.97331718501
8.97334369104
8.97337043102
8.97340031988
8.97343660442
8.97348353653
8.97354462046
8.9736117748
8.97365863703
1
1.26551193025
3.79770821967
8.86223700979
8.97263234809
8.97290539579
8.97307159068
8.97316870833
8.97323068552
8.97327324635
8.97330481495
8.97333066944
8.97335447024
8.97337907696
8.97340712776
8.97344165934
8.97348690007
8.9735471727
8.97361597575
8.97366453606
1
1.02690377284
2.46621334451
8.60775604923
8.97281548281
8.97300524471
8.97313206429
8.97320886901
8.97325914296
8.97329432181
8.97332096038
8.97334334295
8.97336455049
8.97338708117
8.9734133193
8.97344608781
8.97348954002
8.97354878139
8.97361934769
8.97367098156
1
1.00009666441
1.82973245012
8.113700001
8.97260032045
8.97308591677
8.97318235429
8.97324282574
8.97328326312
8.97331205775
8.97333433707
8.97335359476
8.97337243873
8.97339306143
8.97341761958
8.97344872804
8.97349042784
8.97354856232
8.97362110965
8.97367717878
1
1.0000000015
1.5492502214
7.3578211342
8.96999378908
8.97314800643
8.97322097726
8.97326869024
8.97330116148
8.9733246632
8.9733432642
8.97335985328
8.97337666748
8.97339564789
8.97341875159
8.97344839573
8.97348848656
8.97354557025
8.97362045831
8.97368235947
1
1
1.43624212731
6.36523060648
8.96167701776
8.97319087024
8.97324688198
8.97328498861
8.97331129364
8.97333062042
8.97334628314
8.97336073002
8.97337591939
8.9733935911
8.97341552645
8.97344395521
8.97348263653
8.97353880522
8.97361654687
8.97368583974
1
1
1.3964735127
5.21191250168
8.94199309521
8.97321435885
8.97325974993
8.9732908334
8.97331256778
8.97332877151
8.973342232
8.9733550875
8.973369093
8.97338582506
8.97340690315
8.97343437031
8.97347182595
8.97352720739
8.97360841402
8.97368700212
1
1
1.29432662252
3.9792459533
8.89217731503
8.97321993345
8.97325911782
8.97328539403
8.97330404726
8.97331816173
8.97333017346
8.97334201894
8.97335531127
8.97337149003
8.97339201128
8.97341871429
8.97345501571
8.97350959696
8.97359490436
8.9736851865
1
1
1.07664856957
2.8749512352
8.76530897344
8.97321091477
8.97324497457
8.97326836494
8.97328534894
8.97329838657
8.97330969816
8.97332111092
8.97333414673
8.97335011989
8.97337030046
8.97339627692
8.97343122578
8.9734846363
8.97357455028
8.97367956022
1
1
1.00141380838
2.09642966942
8.45414696505
8.97319668954
8.97322044092
8.97324160683
8.97325776389
8.97327039616
8.97328152258
8.97329289998
8.97330597583
8.97332192103
8.97334176004
8.97336672565
8.97339961159
8.97345074342
8.97354527065
8.97366888866
1
1
1.00000002457
1.64164237337
7.6986141134
8.96879670027
8.97319036998
8.97320866759
8.97322390219
8.97323624022
8.97324731192
8.97325876635
8.97327196107
8.97328788886
8.9733072405
8.973330684
8.97336019921
8.97340659658
8.97350424255
8.97365116297
1
1
1
1.43634776348
6.01339219721
8.9264460783
8.9731628266
8.97317291503
8.97318626221
8.97319797902
8.97320884517
8.97322028537
8.97323352335
8.97324932158
8.97326788766
8.97328890197
8.97331259828
8.97334935636
8.97344613024
8.97362251411
1
1
1
1.33210276371
3.56476811469
8.6462591556
8.97141709945
8.97313772153
8.97314721925
8.97315753249
8.97316785155
8.97317906355
8.97319215846
8.97320756814
8.97322474797
8.97324162172
8.97325493824
8.97327283837
8.97336048224
8.97357476511
1
1
1
1.00370095909
1.89216910207
7.379851936
8.93893794703
8.97310779357
8.97311007068
8.97311756862
8.97312660214
8.97313715493
8.9731497356
8.97316429125
8.97317929781
8.97319045692
8.97318993314
8.97318064396
8.9732430558
8.97349261463
1
1
1
1
1.42565274916
4.47529211063
8.61895915771
8.97039380922
8.97308200345
8.97308228898
8.97308849282
8.97309743538
8.97310872652
8.97312159089
8.97313353994
8.97313893351
8.97312842292
8.97309992952
8.97311693221
8.97334720121
1
1
1
1
1.13903655486
2.03807555765
6.94753172307
8.90075498269
8.97305412703
8.97305840333
8.97305871733
8.97306464981
8.97307393333
8.97308503963
8.9730952821
8.97310012842
8.97309422629
8.97307401527
8.9730403261
8.97308090402
1
1
1
1
1.00000000113
1.42128127639
3.5781350711
8.18891955069
8.96205394221
8.97305152852
8.97304331776
8.97304444235
8.97305201171
8.97306466065
8.97308245574
8.9731069468
8.97314202798
8.97319190856
8.97323933596
8.973139624
1
1
1
1
1
1.05542273285
1.66621324361
5.42011611789
8.71566619767
8.97240501155
8.97304861399
8.9730434959
8.9730495496
8.97306571557
8.97309387528
8.97313912232
8.97320841604
8.97330369491
8.9734117862
8.9734925373
1
1
1
1
1
1
1.37550729964
2.33239305
6.94649361475
8.88770206584
8.97308121647
8.97307144365
8.97307698464
8.97309874005
8.97313948124
8.97320278588
8.97329154491
8.97340168589
8.97351474378
8.97361141258
1
1
1
1
1
1
1.00056259661
1.45078959869
3.47783765575
7.95101323144
8.95121409382
8.97314596887
8.97316031371
8.97319948881
8.97325706375
8.97332990134
8.97341513036
8.97350540599
8.97358936321
8.97366742004
1
1
1
1
1
1
1
1.21608310919
1.70698324064
4.98910324981
8.52213097677
8.96849270668
8.97331196867
8.9733640423
8.9734195018
8.97347733112
8.97353557037
8.97359144769
8.97364330526
8.97370052345
1
1
1
1
1
1
1
1.00000342007
1.40464129666
2.37304868693
6.54172933967
8.79827981394
8.97289834784
8.97351048198
8.97354833579
8.97358303773
8.97361698383
8.97364988886
8.97368288067
8.97372514669
1
1
1
1
1
1
1
1
1.10508842766
1.52673933674
3.64332757589
7.76759227787
8.92014416656
8.97355614631
8.97363080568
8.97364805306
8.97366753343
8.97368910987
8.97371282108
8.97374549132
1
1
1
1
1
1
1
1
1.00000138351
1.38827123916
1.9466782982
5.25314957326
8.43611742781
8.95982736446
8.97345115466
8.9733785056
8.97348677348
8.97367808681
8.97373324719
8.97376195687
1
1
1
1
1
1
1
1
1
1.03554019597
1.43767529701
2.49939691104
6.25621063321
8.6913910228
8.96156160759
8.95680419566
8.95835127465
8.96915871631
8.97308443937
8.97372506121
1
1
1
1
1
1
1
1
1
1
1.06593004854
1.42497378799
1.98334424399
5.23456128219
8.7560891535
8.67941315385
8.6127375344
8.77254480509
8.91721274798
8.96915873779
1
1
1
1
1
1
1
1
1
1
1
1
1.00000000346
1.31689881505
6.20957386855
7.41271157054
6.81192691438
6.744052867
7.60074329356
8.77006895377
1
1
1
1
1
1
1
1
1
1
1
1
1
1
1.08097373136
4.09455412342
4.91419888854
4.31008175247
4.14965065718
7.08726083746
1
1
1
1
1
1
1
1
1
1
1
1
1
1
1
1.00007043205
3.22770439087
3.76428741696
3.30196951347
4.60183312133
1
1
1
1
1
1
1
1
1
1
1
1
1
1
1
1
1.00242566377
2.74215371361
3.32411714297
3.88540120422
)
;

boundaryField
{
    emptyPatch
    {
        type            empty;
    }
    minY
    {
        type            calculated;
        value           nonuniform List<scalar> 0();
    }
    maxY
    {
        type            calculated;
        value           nonuniform List<scalar> 0();
    }
    maxX
    {
        type            calculated;
        value           nonuniform List<scalar> 
38
(
8.97376688342
8.97377066185
8.97377446722
8.97377826337
8.97378200821
8.97378565701
8.97378916674
8.97379250198
8.97379563966
8.97379857257
8.97380130988
8.97380387573
8.97380630631
8.97380864642
8.97381094677
8.97381326122
8.97381564441
8.97381814705
8.97382081199
8.97382366978
8.97382673551
8.9738300046
8.97383345071
8.97383702165
8.97384063299
8.97384422716
8.97384773833
8.97385108708
8.97385423479
8.97385717622
8.97385992731
8.97386230566
8.97381272056
8.96922874726
8.77011310202
7.0874348473
4.60203626923
3.88566711716
)
;
    }
    water_to_heater
    {
        type            calculated;
        value           uniform 1;
    }
    procBoundary3to1
    {
        type            processor;
        value           nonuniform List<scalar> 
41
(
1
1
1
1
1
1
1
1
1
1
1
1
1
1
1
1
1
1
1
1
1
1
1
1
1
1
1
1
1
1
1
1
1
1
1
1
1
1
1.00000000153
1.54768838575
2.86163435757
)
;
    }
    procBoundary3to2
    {
        type            processor;
        value           nonuniform List<scalar> 
41
(
1
1
1
1
1
1
1
1
1
1
1
1
1
1
1
1
1
1
1
1.54733907727
8.9673260328
8.96895757839
8.97061979255
8.97185589042
8.97258150455
8.97294547031
8.97312466877
8.97322410015
8.97328774267
8.97333397313
8.97337268155
8.97341013289
8.97345083436
8.97349783722
8.97355115203
8.97360664773
8.97365980391
8.0492162845
8.96805957144
8.96720406211
8.96720406211
)
;
    }
}


// ************************************************************************* //
