/*--------------------------------*- C++ -*----------------------------------*\
| =========                 |                                                 |
| \\      /  F ield         | OpenFOAM: The Open Source CFD Toolbox           |
|  \\    /   O peration     | Version:  2312                                  |
|   \\  /    A nd           | Website:  www.openfoam.com                      |
|    \\/     M anipulation  |                                                 |
\*---------------------------------------------------------------------------*/
FoamFile
{
    version     2.0;
    format      ascii;
    arch        "LSB;label=32;scalar=64";
    class       volScalarField;
    location    "0.475/water";
    object      alpha.gas;
}
// * * * * * * * * * * * * * * * * * * * * * * * * * * * * * * * * * * * * * //

dimensions      [0 0 0 0 0 0 0];

internalField   nonuniform List<scalar> 
6000
(
0.172183769531
0.103792530709
0.0294265574917
0.00745407362673
0.00143513058353
0.00023013411487
2.99177611699e-05
2.23612056713e-06
4.52024825958e-08
3.70807130895e-10
1.74888179387e-12
6.88315535218e-15
1e-15
1e-15
1e-15
1e-15
1e-15
1e-15
1e-15
1e-15
0.613295062351
0.260294033709
0.108252407671
0.0370848833966
0.0119091843079
0.00325303215745
0.000746208518852
0.000131418331571
1.30288890646e-05
2.83284456621e-07
9.53880474878e-10
1.62050134445e-12
2.98271402712e-15
1e-15
1e-15
1e-15
1e-15
1e-15
1e-15
1e-15
0.613294019074
0.344959200898
0.17030079584
0.0728032366456
0.0283223772738
0.00962549409589
0.00273336396878
0.000614564635821
9.1456415849e-05
5.01783794444e-06
2.39564979173e-08
3.22748571908e-11
3.57997647031e-14
1.00037987268e-15
1e-15
1e-15
1e-15
1e-15
1e-15
1e-15
0.613295062351
0.422146031755
0.24675773902
0.125840242075
0.0568202481716
0.0221510164723
0.00718282821557
0.00186072049708
0.000347560338577
3.34408108705e-05
5.26271026613e-07
6.45820145248e-10
4.83559904886e-13
1.27058302414e-15
1e-15
1e-15
1e-15
1e-15
1e-15
1e-15
0.59772762004
0.466581227769
0.324095931041
0.1977683656
0.105188763894
0.0473243435826
0.0173515164345
0.0049764636847
0.00105213006358
0.000134184473488
5.30902541997e-06
8.7253842076e-09
5.36789874908e-12
3.9298987839e-15
1.00002694164e-15
1e-15
1e-15
1e-15
1e-15
1e-15
0.569779077696
0.482770301193
0.382244252043
0.273102885892
0.171564180049
0.0914510135242
0.0394773384719
0.0129955089418
0.00305582741316
0.000452965122379
2.88421587152e-05
1.78414384738e-07
9.35638662503e-11
3.90023174001e-14
1.00937167915e-15
1e-15
1e-15
1e-15
1e-15
1e-15
0.555064649904
0.491810683683
0.418890518854
0.334050637259
0.241043597164
0.151307172586
0.078709901884
0.0314920722879
0.00878591616068
0.00151127537981
0.000125413508638
2.3798403564e-06
1.31271334402e-09
4.32925271359e-13
1.13702346364e-15
1e-15
1e-15
1e-15
1e-15
1e-15
0.563733207423
0.500863827395
0.438526240984
0.374231416216
0.297964380774
0.213714248382
0.131932611852
0.0652091037988
0.0229922922609
0.00496198687439
0.000531159193142
1.8808755041e-05
2.97838932018e-08
9.40913545255e-12
3.59926708395e-15
1.00070220614e-15
1.00017994477e-15
1.00008416296e-15
1e-15
1e-15
0.572050241762
0.507021967436
0.455622819412
0.404700348017
0.34274710477
0.269102877407
0.189274518282
0.11248370832
0.0506767730158
0.0146404853519
0.00217896659316
0.000123531470418
1.34896163907e-06
3.39820429966e-10
7.42817462521e-14
1.01821283133e-15
1.0008877319e-15
1.00088309758e-15
1.00076990837e-15
1.00016835692e-15
0.574749163889
0.510369816822
0.47206393474
0.432360447778
0.380940608968
0.316068620649
0.242688917956
0.165644953444
0.0925267113114
0.036200091431
0.00788441094284
0.000720342556327
1.87181783854e-05
2.06317640473e-08
4.647833731e-12
2.06046530021e-15
1.00162909866e-15
1.0014459845e-15
1.00136532637e-15
1.00098504084e-15
0.572178562915
0.511548903947
0.484594119991
0.455324407982
0.412833550423
0.355160464587
0.287963405814
0.216299785296
0.143065791244
0.0733436305706
0.0233152555111
0.00342236829783
0.00016492987826
1.5063788456e-06
3.00679223437e-10
7.27746004093e-14
1.02119259132e-15
1.00230684323e-15
1.00211739621e-15
1.00173401644e-15
0.576037407106
0.509704608017
0.486459468293
0.463109509365
0.428977262403
0.380563957714
0.321466161189
0.258880217552
0.19369960288
0.12270082028
0.0539857401122
0.0122470553527
0.00102074361776
2.13444495276e-05
2.97884851306e-08
4.97808797062e-12
2.15082319013e-15
1.00418130913e-15
1.00364283376e-15
1.00294648372e-15
0.572247842334
0.504226013637
0.482387422686
0.45926079754
0.426819118829
0.384646143473
0.338779604216
0.289594982449
0.236619370717
0.173359736627
0.0972145224952
0.0317888839319
0.00425475829173
0.000158738345011
9.62556979413e-07
2.79645764486e-10
6.58103349818e-14
1.02504805978e-15
1.00639050526e-15
1.0049621833e-15
0.575976581499
0.493285656797
0.473996744779
0.448371770017
0.416640645046
0.379686240962
0.344129257794
0.3086046153
0.26791831291
0.214138454167
0.140712059898
0.0607705773562
0.0120961418845
0.000727309924527
8.70819123096e-06
7.44241222584e-09
2.40844491024e-12
1.6685400274e-15
1.00968079586e-15
1.00754114334e-15
0.572118619295
0.478752209336
0.459737878917
0.430292807569
0.398331500168
0.368308437017
0.343566021051
0.319710553678
0.287701012626
0.240836762053
0.174226117146
0.0913047719042
0.0247145813886
0.00220416959511
4.24720391823e-05
9.02089071232e-08
3.77266241282e-11
1.16980954828e-14
1.01374687708e-15
1.00880265508e-15
0.573976187169
0.464405327495
0.44244901693
0.412052933606
0.382834991902
0.360245715131
0.344037103412
0.32694383604
0.299719701143
0.258155924227
0.199061253372
0.118725918516
0.0402496452527
0.00496427431042
0.000142166958106
6.02280179892e-07
2.85939776732e-10
6.30317205889e-14
1.01675904221e-15
1.00852201958e-15
0.572044877819
0.455490915991
0.429848730423
0.404360602132
0.380628432476
0.361121164128
0.348178574678
0.334166067341
0.30983498354
0.274007950464
0.223303521451
0.147020868518
0.0595602698197
0.00981952214559
0.000426962290761
3.52636267138e-06
8.02567291533e-10
2.70487313516e-14
1.00768408145e-15
1.00653975444e-15
0.572146992332
0.455889122354
0.428489112676
0.407297923473
0.387297534268
0.370766278457
0.358950371727
0.344623267678
0.323299886541
0.295625077584
0.254941441745
0.18489370557
0.0896732884892
0.0203155375588
0.00145428547217
2.42294061212e-05
1.29245661914e-08
3.19626531193e-14
1.01247365676e-15
1.00208528933e-15
0.557999170481
0.467415757414
0.447619484243
0.432447144929
0.414256624135
0.394464061267
0.376811687685
0.359437849525
0.341888735076
0.323093490099
0.294126328303
0.238497238968
0.143591204651
0.0469729583003
0.00571827017213
0.000188299806793
1.01489750787e-06
1.33398941089e-11
2.57762260474e-15
1e-15
0.556681181525
0.50768621576
0.503089697482
0.48927041583
0.460939542224
0.426937655619
0.397868884914
0.374603951951
0.353813931854
0.335162719616
0.323038547603
0.299337321758
0.226044793877
0.10673641088
0.0217243409311
0.00134555425103
1.88686957222e-05
8.84011421772e-09
1.7885434582e-13
1.05813779457e-15
0.587837880891
0.564312282482
0.566908509159
0.551408836604
0.511110469306
0.460759511523
0.417954516215
0.384321322187
0.354034538284
0.332603956798
0.32647601659
0.326378612529
0.298601716935
0.195260283116
0.0643431651854
0.00721434863507
0.000206027970733
9.19301261599e-07
1.88022123006e-11
5.93314714791e-15
0.631277744763
0.594448071039
0.597240379718
0.585847349989
0.548183940691
0.48977588042
0.43410612127
0.387956475781
0.3499927411
0.322287150619
0.321787105086
0.32628652192
0.326194560822
0.267820130446
0.130703116446
0.0251387839445
0.00135688233646
1.55998724941e-05
2.89007268594e-09
4.45299968122e-13
0.635142948832
0.599608015959
0.599532723787
0.59409030985
0.563524312769
0.504872553047
0.441540223092
0.386859334429
0.338975904803
0.30489915047
0.307416780724
0.322464571115
0.326105064295
0.299592947765
0.188614163464
0.0559733997303
0.00519412365059
0.000109055803441
2.67440952898e-07
1.47956987617e-11
0.632070686412
0.599782916809
0.599607367495
0.59658338937
0.567300468238
0.507782428871
0.441057832638
0.378426863636
0.320028535046
0.298383830235
0.298302544227
0.308834534621
0.323622851147
0.306946889539
0.220654824906
0.0880368571343
0.0124874301027
0.000421346458285
2.50671370716e-06
2.71746496339e-10
0.63650928544
0.59719307983
0.599429080029
0.597398404076
0.567043410455
0.505499290347
0.433213899791
0.359593063499
0.301692775394
0.29815941344
0.298383830235
0.298242825636
0.311276124375
0.304366739063
0.23840235229
0.113298371372
0.0215771538471
0.00105325162795
9.9117169251e-06
5.36694730972e-09
0.632688416979
0.590707810584
0.599232998798
0.595360176056
0.560847067526
0.493874288406
0.412978660156
0.332835989223
0.298279937012
0.298383830235
0.29766409694
0.298383830235
0.298160865275
0.300792397311
0.253494847961
0.134883275662
0.0314309742499
0.00203938459672
2.6410492637e-05
3.99170223142e-08
0.637093267751
0.580769349367
0.594882910449
0.585775323746
0.544347634798
0.47055416369
0.383798498105
0.307922341448
0.298383830235
0.297608022075
0.298383830235
0.297286718599
0.298383830235
0.305769887506
0.275236436742
0.159658013535
0.0438730772098
0.00368638022308
6.31942117708e-05
1.68665193244e-07
0.632688416979
0.568601320384
0.580294072249
0.566108033402
0.518300558749
0.439274558486
0.35242204303
0.29844878211
0.297939642506
0.298383830235
0.296984607588
0.298383830235
0.297220131016
0.333787545984
0.307795544313
0.193049951495
0.0637724095479
0.00710806329465
0.0001636404938
6.5665278965e-07
0.636709327295
0.554943179398
0.562852943428
0.541508504145
0.486756162598
0.405409556533
0.323587906803
0.298193733405
0.298383830235
0.297090591194
0.298383830235
0.296478794757
0.304154413386
0.360892008713
0.343069599736
0.240713151633
0.0968150832417
0.0143346112858
0.000452644902413
2.47187291252e-06
0.632078534093
0.541884051227
0.545614427593
0.515583711232
0.453206275117
0.373096451752
0.303539259907
0.298383830235
0.297338408057
0.298383830235
0.296460454518
0.298383830235
0.339464607583
0.362308014676
0.361614280675
0.288944688263
0.140343233276
0.0273847846306
0.00122978728222
9.22437686694e-06
0.635639965035
0.529517140269
0.526229707325
0.488460481292
0.421520368083
0.346302255418
0.298383830235
0.297761428102
0.298383830235
0.29653720492
0.298383830235
0.302127394422
0.362093708375
0.361614280675
0.361991652121
0.318990826588
0.183077337335
0.0465700462066
0.00303724978573
3.26865936218e-05
0.631854719945
0.515664922381
0.502030244983
0.460173597214
0.395781028069
0.329540060521
0.29814306756
0.298383830235
0.296820146797
0.298383830235
0.296448137283
0.345062612526
0.361614280675
0.362228094265
0.361614280675
0.334044990733
0.216845980704
0.0702808840803
0.0066719787685
0.00010717762734
0.633582271892
0.49823072238
0.472999048344
0.431378427339
0.376929359167
0.324257282775
0.298383830235
0.297240957201
0.298383830235
0.296524120415
0.324295297514
0.361614280675
0.362007869906
0.361614280675
0.361827574988
0.340409805532
0.24282967067
0.0974080080813
0.0131056844705
0.000313385553833
0.631446116813
0.478560777517
0.452244698066
0.414823998859
0.371778871443
0.328820617716
0.306634189922
0.310263600007
0.3198005306
0.33082534759
0.339396896225
0.349963166598
0.356511973779
0.361638427181
0.361614280675
0.345385870927
0.268245812261
0.129060796352
0.0232900706488
0.000801723526451
0.626662952244
0.459087014138
0.445263388914
0.415429017098
0.379286211029
0.353034882072
0.347895958678
0.355167131782
0.353981507385
0.337425166891
0.323981239075
0.320567696525
0.333518137513
0.349029244177
0.354643733548
0.353589837895
0.302833033689
0.171009397285
0.0392107099395
0.00187180142553
0.600594097408
0.447550189474
0.446374041258
0.430965077944
0.411393337816
0.396779787029
0.389279479101
0.376489385286
0.353346765951
0.322492412203
0.293109985662
0.288598198238
0.301500735761
0.322819121433
0.344634940712
0.365682471797
0.344599325117
0.224558624847
0.0647602124775
0.00438423948814
0.567803159564
0.447754732064
0.458224210207
0.473038983163
0.462784923334
0.436147302512
0.407196921174
0.375142587361
0.339390922965
0.296092520905
0.267866498689
0.266023026131
0.276513537222
0.301193924821
0.342650995816
0.37255273924
0.372222492528
0.276033081343
0.103352804479
0.0104380004497
0.543637794738
0.449263061929
0.49512782646
0.532197323494
0.509684935789
0.460343090929
0.411596538384
0.367103455733
0.31935944953
0.274285406333
0.251985849938
0.251275354211
0.261736414286
0.292381956456
0.344089593214
0.375197420277
0.376699207832
0.314610654748
0.151820159883
0.0232084503125
0.519224943632
0.48214815642
0.550230820778
0.585679277509
0.541801918724
0.473302786918
0.409272625159
0.354864031169
0.301663702849
0.25890261016
0.240712219955
0.240765319793
0.25303717015
0.288876941469
0.345434815011
0.375666804292
0.376743107622
0.340884711581
0.200094527156
0.0451956276853
0.51933720376
0.544513343207
0.59992889133
0.618160181864
0.557441900439
0.472128088894
0.400292852803
0.339767393978
0.285436597493
0.246532124073
0.23186412102
0.233311264299
0.247260350453
0.285089687681
0.344363611485
0.375249467972
0.376784422398
0.357501964693
0.241553301151
0.0766526116229
0.539045956089
0.636060428274
0.62928728397
0.630443200146
0.563717525255
0.465510119983
0.382145744001
0.319676791093
0.268860964643
0.235643666258
0.224751984533
0.228104881133
0.242493764125
0.278351419661
0.338615902154
0.3734377745
0.376862214155
0.370151743272
0.276585965456
0.116247042735
0.689043326664
0.712129605616
0.663374065263
0.640820927715
0.578707263245
0.469498349569
0.373910354648
0.303871806747
0.252956501299
0.226156534794
0.218587231988
0.223631100717
0.237704130475
0.268696229535
0.326812761768
0.369023306906
0.376892483742
0.376924504027
0.30792285326
0.162356346915
0.817157718589
0.767726779238
0.708143482245
0.672340131925
0.625717987056
0.511774649366
0.389519284144
0.307222724255
0.249800320314
0.218299042065
0.213335986582
0.218225104687
0.232956388809
0.259899167185
0.311572268871
0.359641916146
0.37692310017
0.376943387778
0.335854085954
0.211773005073
0.835859382012
0.794301973216
0.749387240097
0.714421911243
0.68048582171
0.592403188879
0.446532164839
0.331768733791
0.256263367016
0.214712374069
0.213103623382
0.213265890353
0.226403361704
0.255457388012
0.298423097842
0.343423505956
0.371196381459
0.37696541919
0.359438551452
0.259156636185
0.838485634711
0.803461308395
0.77175897271
0.743949826179
0.713178109747
0.652472895971
0.524281276835
0.382663424405
0.277773158069
0.216492553194
0.213265890353
0.21280744931
0.217980506063
0.253788249608
0.291385448227
0.321938638881
0.352149848076
0.376987450424
0.377009481482
0.299300808165
0.836891417641
0.805619095809
0.779159758712
0.755675565604
0.726904878661
0.677192060104
0.57493060507
0.435062097974
0.308619295145
0.223053074135
0.212833615529
0.213183949337
0.212784999599
0.253954235851
0.288857794504
0.300189997312
0.32307439837
0.370805487324
0.390811786161
0.327749510116
0.840749828845
0.805393186478
0.780448169778
0.758086539951
0.730360069674
0.683014538643
0.592303471896
0.463225473131
0.33114125698
0.231011753634
0.213183949337
0.212492288097
0.213183949337
0.255267284433
0.285244294565
0.281818682375
0.295945382404
0.358792189611
0.399887622182
0.346144168364
0.837147501163
0.802994830616
0.779045914619
0.756727262065
0.728979794122
0.68128632633
0.592399111146
0.467764122111
0.336302905813
0.23339036869
0.212857019266
0.213127041482
0.212463729067
0.256308663285
0.277783516624
0.267180122081
0.27813497334
0.351049203103
0.408862396963
0.359103255324
0.840470849231
0.795743348932
0.772144600818
0.748900729275
0.719658250028
0.668845433269
0.580566297805
0.459458253235
0.329761241422
0.229996539304
0.213127041482
0.212441498311
0.213506455561
0.25636498724
0.26875479843
0.256379331417
0.269941284041
0.352526497847
0.413549291776
0.369780412821
0.837309981234
0.783574322623
0.756124867538
0.729908680802
0.695864413245
0.63754868696
0.545725314961
0.427091896765
0.302415958216
0.219656324673
0.212819321793
0.213106016124
0.213841810218
0.252585994763
0.259862371285
0.251442244403
0.269542864391
0.359897333363
0.413410290546
0.378964117136
0.840436454298
0.76595388051
0.730050437704
0.698698697742
0.656070735629
0.586260028085
0.487040624921
0.368797282504
0.256765968788
0.213132858153
0.213106016124
0.212392861976
0.212968011006
0.245377870857
0.252132214004
0.250973473625
0.274494442141
0.372142272032
0.413641217933
0.391018776256
0.836998411585
0.740550548562
0.693926550785
0.65415869527
0.59851682862
0.514888741098
0.407767563656
0.294198990137
0.219352423209
0.213106016124
0.212540156606
0.212968011006
0.212362029811
0.233974783086
0.246806580471
0.250777859335
0.290929605736
0.38590740237
0.413410290546
0.41138710512
0.839521563479
0.704896364535
0.643958431626
0.58889525557
0.517065247157
0.421152667225
0.313241297712
0.229194103702
0.213106016124
0.212587116658
0.212968011006
0.212073586925
0.212873459724
0.222587194794
0.243805224176
0.259127420827
0.312208936718
0.394867909306
0.413666487724
0.413410290546
0.836431488977
0.649807781115
0.573402848209
0.496706033755
0.409395752506
0.310637753098
0.231723151258
0.213050279784
0.212662008331
0.212968011006
0.212050555376
0.212873459724
0.211934110047
0.216838696868
0.243197693493
0.270436047821
0.325747277409
0.394929563782
0.413410290546
0.413666173111
0.838348381391
0.569899987016
0.477184117457
0.379892320953
0.28897659038
0.225014629931
0.212925085251
0.212555725864
0.212968011006
0.211983494471
0.212873459724
0.211800859341
0.2127884181
0.215571187123
0.243681769557
0.273520054476
0.327947171194
0.391583285777
0.413526185995
0.413410290546
0.835805825073
0.4767363621
0.360863674957
0.259257061445
0.216477356119
0.212925085251
0.212139607319
0.212925085251
0.211682591932
0.212873459724
0.211617837255
0.2127884181
0.211821982437
0.216127048892
0.241589850448
0.269558371838
0.323431603264
0.384240274154
0.412021752674
0.413556086993
0.83510081922
0.366112870237
0.246095619467
0.212829641827
0.212925085251
0.211506448379
0.212925085251
0.210758033262
0.212873459724
0.211171359181
0.2127884181
0.211633872003
0.2127884181
0.215381455564
0.232748062319
0.253298224012
0.304636558483
0.370177636977
0.407830956258
0.413410290546
0.775851695561
0.248180392392
0.212608547247
0.212925085251
0.210368045427
0.212925085251
0.209325307347
0.212873459724
0.210103795328
0.2127884181
0.211199279577
0.2127884181
0.211942005289
0.214744155427
0.221099630542
0.229395667509
0.271178660945
0.344759318729
0.399181797878
0.413512600356
0.648988552132
0.21207672423
0.212925085251
0.209276649515
0.212925085251
0.208258359825
0.212873459724
0.20870119364
0.2127884181
0.210490125536
0.2127884181
0.211724260067
0.2127884181
0.214382037509
0.214431778156
0.213558085151
0.23445743028
0.304538053731
0.381586713576
0.413327351498
0.513963101692
0.234495280293
0.216513378548
0.212925085251
0.208480070259
0.212873459724
0.208774495941
0.2127884181
0.210316839646
0.2127884181
0.211973577478
0.2127884181
0.212466545909
0.214183981613
0.212114815081
0.210427995439
0.212661410894
0.255050431906
0.348317638952
0.408666271347
0.520945264424
0.415716814896
0.371305496198
0.335580201175
0.31127988155
0.292600533946
0.273246583049
0.248954123906
0.23194877444
0.2210892755
0.2158563116
0.213426734313
0.212856187555
0.212383617913
0.21110902737
0.210376066873
0.210333979879
0.217384320297
0.295490951461
0.391197721315
0.649341627713
0.705131065819
0.654178674677
0.612395544454
0.57165588954
0.525642044213
0.452723676178
0.364007130112
0.288817434841
0.24383619091
0.222020013835
0.213675319148
0.211481443882
0.210876888576
0.21054036757
0.210348554485
0.210376066873
0.210312486336
0.237405592937
0.354313793514
0.804800286857
0.829725376926
0.792433597374
0.762069943436
0.735780428658
0.701853497236
0.63821128539
0.537039871821
0.413329043474
0.308406386019
0.242409145315
0.214976287685
0.21041874021
0.210376066873
0.210369608024
0.210376066873
0.21019899079
0.210376066873
0.211053592829
0.302789357374
0.862069147527
0.839082313652
0.81112657966
0.782380248905
0.761853786457
0.738805634231
0.697344582713
0.623412389962
0.514936229216
0.396611753428
0.289983407387
0.221909723486
0.210376066873
0.210353993454
0.210376066873
0.21031798322
0.210376066873
0.210043382896
0.210376066873
0.250745830925
0.86512244004
0.834293757494
0.808307005928
0.778939672533
0.758697575748
0.737250070332
0.699987439211
0.633244161384
0.538140154094
0.431674666416
0.323523776573
0.231834097256
0.210311573043
0.210376066873
0.2103092155
0.210376066873
0.210127840848
0.210376066873
0.209899466338
0.216507609003
0.865053036367
0.816103195646
0.792796412448
0.763745559465
0.743897894553
0.72367007398
0.68825496072
0.623170969094
0.533382784021
0.431045015107
0.324496093036
0.233057456894
0.210376066873
0.210148197703
0.210376066873
0.210190128247
0.210376066873
0.209935717567
0.210376066873
0.209960831293
0.845813625108
0.782677390471
0.765791176399
0.744065483115
0.727784389912
0.704851270436
0.663268042995
0.594533025465
0.507634262983
0.40945576907
0.305631742356
0.224186360263
0.210207777403
0.210376066873
0.209987366575
0.210376066873
0.210037357838
0.210376066873
0.209734766071
0.210376066873
0.786538793941
0.745419064623
0.740908868439
0.734023849971
0.724210210248
0.697624956689
0.645157182049
0.566185266287
0.47223613
0.370319357044
0.268823186957
0.212300612641
0.210376066873
0.209959174233
0.210376066873
0.209882859286
0.210376066873
0.209908313316
0.210376066873
0.209656447484
0.729747305424
0.71873356589
0.726136104536
0.732896564501
0.726059090804
0.698788159094
0.639357935472
0.550468069042
0.446021512435
0.336223840451
0.239813283904
0.210376066873
0.210115639843
0.210376066873
0.209791271471
0.210376066873
0.209834673278
0.210376066873
0.209782576872
0.210376066873
0.724886159446
0.709523695757
0.719815057926
0.732648262135
0.728052988377
0.700129098905
0.636644573489
0.541753337659
0.430090055709
0.315403331021
0.227217477769
0.21026603499
0.210376066873
0.209839705513
0.210376066873
0.209715194421
0.210376066873
0.209835005593
0.210376066873
0.209680045605
0.727603914666
0.702838521998
0.714619725588
0.730841416557
0.726860584486
0.698263055606
0.631694446924
0.533336608268
0.418245932338
0.302482042968
0.221896898154
0.210376066873
0.209975474187
0.210376066873
0.209687010635
0.210376066873
0.209723080277
0.210376066873
0.209822135259
0.210376066873
0.725069543257
0.690182283553
0.703674319391
0.721248612525
0.717737768804
0.688283477054
0.620035507877
0.520602531984
0.404740472837
0.290230677249
0.217646089238
0.21019258819
0.210376066873
0.209751976698
0.210376066873
0.209660057347
0.210376066873
0.209787165957
0.210376066873
0.211778152391
0.727137708682
0.658764921363
0.676686587754
0.694133826531
0.691341862432
0.662660722084
0.595740914484
0.497823998289
0.383299320902
0.272507251432
0.212916252067
0.210376066873
0.209900025568
0.210376066873
0.209660057347
0.210376066873
0.209710890194
0.210376066873
0.215575480268
0.219230683914
0.724412944245
0.591200099515
0.624110937746
0.641469628247
0.639837378591
0.613930907278
0.551149645714
0.4571664057
0.346344790637
0.245218266202
0.210376066873
0.210123589775
0.210376066873
0.209727287198
0.210376066873
0.20967169881
0.210376066873
0.221431667872
0.228487912095
0.22118769676
0.726267862719
0.494046990522
0.541693773046
0.556677610332
0.555974835951
0.533552075558
0.476901973146
0.389517911217
0.287996935683
0.216746401232
0.210206334251
0.210376066873
0.20977022532
0.210376066873
0.209670574533
0.210728485925
0.225729606961
0.2345782981
0.231530829556
0.220953082467
0.723454703905
0.395761198592
0.435823504823
0.440883833407
0.438648605328
0.417783289741
0.368822448093
0.294454263987
0.224756117737
0.210217606901
0.210376066873
0.209742622433
0.210376066873
0.209716675409
0.214300805617
0.231138839122
0.2345782981
0.234594792637
0.231590507159
0.221574955946
0.720093543874
0.366441533777
0.343407924261
0.326247973728
0.314121851747
0.291627986735
0.254707633358
0.217125294532
0.210126595845
0.210376066873
0.209672994604
0.210376066873
0.213779330415
0.223101611195
0.233610793025
0.2345782981
0.234594792637
0.2345782981
0.231450054401
0.224018829767
0.677137127933
0.382291208744
0.322643985849
0.290514331543
0.267793418678
0.244288646569
0.220197959711
0.210071875728
0.210376066873
0.20974526269
0.220227992084
0.231499186798
0.240695669028
0.241282854984
0.235710893316
0.234535620851
0.234387112322
0.233797359447
0.23026058479
0.225717152667
0.621245671854
0.432080010833
0.356904643541
0.317758444138
0.289947558279
0.265383065411
0.246065786416
0.241494349691
0.249044883293
0.265945364184
0.280475564615
0.282803166877
0.269185358689
0.248545160404
0.231707256338
0.22742108655
0.227752158151
0.227628010947
0.226423413525
0.224727246953
0.623884711281
0.554228327022
0.501987270788
0.461867742537
0.428038071548
0.407061911738
0.402949181888
0.412063895271
0.425252729539
0.428073519196
0.406506725222
0.361951528408
0.308928005309
0.262352313977
0.232387010278
0.21597021979
0.215689665967
0.216714226861
0.218534728647
0.220120044857
0.684774437415
0.709550582479
0.699453301837
0.680735882339
0.662049210878
0.654348951686
0.658539087577
0.665254405109
0.662275163536
0.632578838003
0.570098001486
0.485791825713
0.39480706623
0.312199957894
0.25054688798
0.216832164837
0.205488924114
0.206039713773
0.208008414854
0.210925055903
0.779015693453
0.796182402606
0.78399288483
0.779793849049
0.780057730507
0.783167179823
0.786395756598
0.78681913598
0.77689515816
0.742553068974
0.679847000532
0.595930968164
0.497700538474
0.394115768805
0.297980307561
0.229012390408
0.201663953723
0.198672639558
0.199531695858
0.201555495505
0.830908178421
0.80961603791
0.789055022311
0.789516454327
0.796554664134
0.804952326799
0.807754511425
0.807745625404
0.798260525964
0.766796363256
0.710860385142
0.635892854838
0.545310970216
0.442735873287
0.336117775127
0.244659702472
0.200624036934
0.194963020926
0.195226134458
0.19586854836
0.839122243542
0.804285456186
0.781513075518
0.781860086881
0.792149532338
0.804339435657
0.808293553931
0.808287247027
0.798373855408
0.766810954271
0.711717055851
0.638347282118
0.549700922977
0.448419579708
0.34090326591
0.24591097565
0.198707509546
0.194026189893
0.193983879549
0.193928971851
0.839077143642
0.787075454729
0.755828395139
0.750987106
0.768851277696
0.791895085221
0.801629156106
0.801022856145
0.789318109495
0.756251766657
0.701192748719
0.628526711857
0.540461819876
0.438928459605
0.330364414392
0.235915446709
0.195394695537
0.193983879549
0.193894176023
0.193870236673
0.837766685295
0.758162940414
0.712071914932
0.698209355513
0.720031378695
0.754661033187
0.773377664021
0.772475836425
0.758547316907
0.722668261941
0.666164449474
0.593096134263
0.504375145155
0.401189950813
0.292877753917
0.211565302447
0.194052255017
0.193945174154
0.193950420281
0.193810190587
0.833174110981
0.724796839403
0.664557423438
0.63900433249
0.654352446546
0.688068972115
0.712379084321
0.712442833894
0.697585100289
0.659719089486
0.601559526847
0.526447080671
0.434994704283
0.330943529801
0.235136967442
0.19503425859
0.194000314427
0.194043889773
0.193906052225
0.194494362826
0.822083366032
0.705793411085
0.633223154784
0.584974011822
0.579604250734
0.597398737142
0.617646005482
0.618679917968
0.603764567512
0.565615768705
0.506609329879
0.429588732362
0.337772141667
0.24635666559
0.197523775422
0.194135182611
0.194140579197
0.19398804646
0.198435015793
0.212073939829
0.799842972586
0.702078646524
0.63361221342
0.553453777065
0.504619973099
0.491484846193
0.496666479459
0.4938164889
0.476494320118
0.438877520024
0.381831188798
0.309539566383
0.236903374265
0.197624671209
0.194247851216
0.194262064442
0.194947493659
0.206572712214
0.219609435402
0.223250288852
0.764301030717
0.697694070557
0.637529769386
0.555574730133
0.455730623535
0.390064413265
0.364187232571
0.346242395435
0.323979187834
0.290954065308
0.249090507899
0.211227418428
0.195032237275
0.194377300223
0.194369431187
0.197139375844
0.216272348738
0.22630735419
0.226918324837
0.227675519261
0.715721345248
0.680824331414
0.636215795099
0.559333376715
0.442728268273
0.326156042744
0.254582653311
0.221441793784
0.20835835203
0.199406693004
0.194893944973
0.194632055356
0.194230539232
0.194527152892
0.194638078193
0.221594763821
0.231845581462
0.229544736157
0.228919730361
0.239963543961
0.661223045649
0.645853086861
0.619988625316
0.552360465128
0.431448925115
0.296934989585
0.20522412112
0.194771268357
0.194865115475
0.19410812623
0.194745497718
0.193628230542
0.194632055356
0.193616763043
0.213073405355
0.235319190752
0.233213319024
0.229614115679
0.236179606302
0.268628969036
0.621890029747
0.602908670395
0.584695652415
0.526323597738
0.408455560409
0.275912328467
0.19594637464
0.194983101528
0.193873930955
0.194865115475
0.19294326108
0.194745497718
0.192934233932
0.198623135364
0.238173864279
0.2368517305
0.228036524427
0.231559576636
0.26119125729
0.305670992515
0.605505040494
0.575108195063
0.559523383611
0.504922990999
0.394170273717
0.269435746189
0.195102013348
0.19425627761
0.194983101528
0.192934233932
0.194865115475
0.192854839815
0.19519223593
0.244406458827
0.245332606696
0.231177235383
0.223378955436
0.243216112888
0.30067278044
0.336164420292
0.613585427932
0.573480135243
0.55862361743
0.508440646447
0.40899748523
0.291155164753
0.212577183239
0.195102013348
0.193217118124
0.194983101528
0.19562610548
0.2219656923
0.258586485372
0.268354151445
0.239720716982
0.221796117504
0.223496427265
0.265248831681
0.332363254481
0.350141403944
0.653781857548
0.578949397359
0.561989540491
0.531516483725
0.475338104628
0.394363998718
0.319344084125
0.278679350162
0.273561623224
0.289459044209
0.325757555937
0.347231638381
0.329774407129
0.274246991626
0.232080768152
0.216787294978
0.222423462774
0.276313628134
0.344433563281
0.352234196639
0.697629478721
0.578401530656
0.55845323755
0.555697951194
0.563346143127
0.561955097597
0.541182480122
0.523364174518
0.531263387106
0.555100117908
0.566438979574
0.517497140684
0.408179080192
0.297459175542
0.234895207879
0.214580889384
0.217545452863
0.274455418484
0.349972999831
0.353019409611