/*--------------------------------*- C++ -*----------------------------------*\
| =========                 |                                                 |
| \\      /  F ield         | OpenFOAM: The Open Source CFD Toolbox           |
|  \\    /   O peration     | Version:  2312                                  |
|   \\  /    A nd           | Website:  www.openfoam.com                      |
|    \\/     M anipulation  |                                                 |
\*---------------------------------------------------------------------------*/
FoamFile
{
    version     2.0;
    format      ascii;
    arch        "LSB;label=32;scalar=64";
    class       volScalarField;
    location    "0.475/water";
    object      nut.gas;
}
// * * * * * * * * * * * * * * * * * * * * * * * * * * * * * * * * * * * * * //

dimensions      [0 2 -1 0 0 0 0];

internalField   nonuniform List<scalar> 
6000
(
3.19304851858e-07
1.20751536699e-07
4.90589441361e-08
3.29742473186e-08
1.30130513911e-07
9.58910258026e-07
4.03473234155e-06
9.08476814918e-06
1.37276530846e-05
1.66873454049e-05
1.82412929895e-05
1.89652574971e-05
1.92683561607e-05
1.93772790319e-05
1.94042107221e-05
1.94005459179e-05
1.93881575406e-05
1.93754911119e-05
1.93652793737e-05
1.93580411745e-05
1.63985476845e-06
9.85007353646e-07
4.71035853972e-07
2.42011129335e-07
9.84006857106e-08
7.47848291331e-08
1.6402028638e-07
9.58910714067e-07
4.14826287043e-06
9.48808587586e-06
1.41334079192e-05
1.69696907078e-05
1.84121759915e-05
1.90613640028e-05
1.93182222393e-05
1.93990504547e-05
1.94087744348e-05
1.93945124997e-05
1.93758044111e-05
1.93598950672e-05
2.27293408809e-06
1.64283897505e-06
1.01289672407e-06
5.42332962398e-07
2.96700527026e-07
1.38507905364e-07
1.00895874147e-07
2.40975955134e-07
1.2981203523e-06
4.67252889932e-06
9.66653703553e-06
1.40130734523e-05
1.68165546036e-05
1.83346917446e-05
1.90572141325e-05
1.93571557835e-05
1.94562128088e-05
1.9470195243e-05
1.94542867392e-05
1.94326097471e-05
2.68443837226e-06
2.04281494378e-06
1.39068688609e-06
8.50834953057e-07
5.4464275796e-07
2.58201623566e-07
1.36435137191e-07
1.32178239313e-07
4.96916100424e-07
2.31599724973e-06
6.32102477898e-06
1.10295841512e-05
1.47956217233e-05
1.72009323451e-05
1.85235713003e-05
1.91643705033e-05
1.94323736948e-05
1.95185616757e-05
1.95267110401e-05
1.95079922295e-05
2.96576823281e-06
2.3329847129e-06
1.66624286087e-06
1.10739290657e-06
6.64218533831e-07
4.40886805034e-07
1.89638433075e-07
1.22405992178e-07
2.39835963587e-07
1.18771403478e-06
4.09892188724e-06
8.49965298836e-06
1.27266682118e-05
1.58354306866e-05
1.77641117851e-05
1.88143045866e-05
1.9318330863e-05
1.95233794603e-05
1.9582704462e-05
1.95805671908e-05
3.12784516806e-06
2.53439409948e-06
1.87239447358e-06
1.30524917584e-06
8.5088806529e-07
4.87792041956e-07
2.99272290684e-07
1.27464573857e-07
1.44389182122e-07
6.14112484941e-07
2.62386253925e-06
6.46635588353e-06
1.07983665667e-05
1.43882110644e-05
1.68505055809e-05
1.83238915707e-05
1.91057580603e-05
1.94689882144e-05
1.96068217427e-05
1.9637058598e-05
3.23140334191e-06
2.65592289081e-06
1.99838445955e-06
1.43751264972e-06
9.89682942719e-07
6.25741087777e-07
3.32316093447e-07
1.74385058104e-07
9.80516372397e-08
3.04861354529e-07
1.60878768398e-06
4.82832968551e-06
9.06079040706e-06
1.29523414329e-05
1.58531154231e-05
1.77279277093e-05
1.88047361421e-05
1.93537484024e-05
1.95937551975e-05
1.9671924562e-05
3.26222028454e-06
2.69417497011e-06
2.06064455236e-06
1.52101123819e-06
1.08946829821e-06
7.35876154979e-07
4.35561900238e-07
2.19807038653e-07
9.57799483471e-08
1.36090513196e-07
8.80302813163e-07
3.46493422327e-06
7.4917846686e-06
1.15681705217e-05
1.48234097984e-05
1.70624878392e-05
1.84329454754e-05
1.91831894114e-05
1.95432541449e-05
1.968291914e-05
3.27660803799e-06
2.71156467877e-06
2.09667916655e-06
1.57555971104e-06
1.16092721165e-06
8.22040091709e-07
5.2922736228e-07
2.7761318787e-07
1.35533443782e-07
7.08128322861e-08
3.68339310668e-07
2.25178112173e-06
6.01606812566e-06
1.02289441478e-05
1.37884361456e-05
1.63567318432e-05
1.80095147849e-05
1.89663809186e-05
1.94581013614e-05
1.96695624025e-05
3.29630685153e-06
2.73551531696e-06
2.12763628338e-06
1.61535517021e-06
1.21287690335e-06
8.88760807799e-07
6.08756404905e-07
3.57252264308e-07
1.53594849404e-07
7.15400878452e-08
1.1542736172e-07
1.14903844005e-06
4.52801135309e-06
8.8853491874e-06
1.27474120788e-05
1.56266718301e-05
1.75494995947e-05
1.87123264441e-05
1.9341638311e-05
1.9631671495e-05
3.30457704899e-06
2.75077717468e-06
2.15016378192e-06
1.64353487257e-06
1.25024861839e-06
9.40160373273e-07
6.75531334044e-07
4.31302331842e-07
2.11251107824e-07
7.27131019011e-08
5.4720484014e-08
3.67976464869e-07
2.94288978734e-06
7.4465024563e-06
1.16623837954e-05
1.48655715162e-05
1.70567394107e-05
1.84254963072e-05
1.91952157448e-05
1.95686244157e-05
3.28664733826e-06
2.75225275747e-06
2.16036455142e-06
1.66012827167e-06
1.27605781033e-06
9.79627399041e-07
7.30666625518e-07
4.96753532403e-07
2.68597312654e-07
9.3824527303e-08
4.64475383218e-08
9.85205359655e-08
1.40909282718e-06
5.8236301767e-06
1.04580695091e-05
1.40353001225e-05
1.65177188466e-05
1.810136973e-05
1.90170089429e-05
1.94791175198e-05
3.26415272766e-06
2.74388102445e-06
2.15939088839e-06
1.66541778292e-06
1.29152241376e-06
1.00971517864e-06
7.75790023334e-07
5.51564177188e-07
3.18926059674e-07
1.17312339048e-07
3.82279230579e-08
5.22540799431e-08
4.36933539109e-07
4.03839088246e-06
9.06087076152e-06
1.3073726892e-05
1.58995608165e-05
1.77247280094e-05
1.88022442817e-05
1.93613583325e-05
3.24352967383e-06
2.73219586227e-06
2.15024316674e-06
1.66282486283e-06
1.30109229601e-06
1.03420988538e-06
8.13101966479e-07
5.95908761977e-07
3.59316815637e-07
1.37841996022e-07
4.08972643885e-08
3.51893249977e-08
1.39777935808e-07
2.3429440628e-06
7.44500512409e-06
1.18942940994e-05
1.51441488988e-05
1.72736027469e-05
1.85434082023e-05
1.92130470585e-05
3.24694525385e-06
2.72969789255e-06
2.14563930494e-06
1.66293174461e-06
1.31290394907e-06
1.05875637099e-06
8.46364689186e-07
6.32150683887e-07
3.90869037201e-07
1.56274356159e-07
4.45541255306e-08
2.60843923048e-08
6.70342417925e-08
1.04106126733e-06
5.54432931226e-06
1.0396133058e-05
1.41946958277e-05
1.67199905814e-05
1.82293957321e-05
1.90310098391e-05
3.26100081884e-06
2.73744930386e-06
2.15344763168e-06
1.67729562856e-06
1.33672763065e-06
1.08901676693e-06
8.78950103804e-07
6.63739841161e-07
4.1816171818e-07
1.76355848828e-07
5.096298779e-08
2.49148639631e-08
4.13591962075e-08
3.62839356141e-07
3.55780829013e-06
8.56701953248e-06
1.29978574726e-05
1.60300708751e-05
1.78451521134e-05
1.88106396599e-05
3.29254070744e-06
2.75956952389e-06
2.18462529937e-06
1.72022127317e-06
1.38152294684e-06
1.12795835241e-06
9.12167216154e-07
6.9333898598e-07
4.46446468961e-07
2.038278495e-07
6.25855968601e-08
2.58909208271e-08
2.88656798588e-08
1.1904202144e-07
1.8678616888e-06
6.48203901296e-06
1.15126222409e-05
1.51672905836e-05
1.73719860834e-05
1.85451954519e-05
3.34449045131e-06
2.82569309561e-06
2.2724462282e-06
1.80593922808e-06
1.44581152064e-06
1.1707214997e-06
9.4292297808e-07
7.20645193504e-07
4.8131849025e-07
2.43832113366e-07
8.01911323724e-08
2.85637814867e-08
2.26727882701e-08
5.19059024522e-08
7.85182109176e-07
4.38516590144e-06
9.74723328228e-06
1.41030072747e-05
1.67901118045e-05
1.82256532704e-05
3.52335870485e-06
3.02554839696e-06
2.44426159565e-06
1.92077237905e-06
1.51011309832e-06
1.20646203152e-06
9.6576464761e-07
7.46929994279e-07
5.25191036792e-07
2.95017380209e-07
1.05244764263e-07
3.28057939026e-08
2.2872523141e-08
3.76506081541e-08
2.29281179875e-07
2.53949847272e-06
7.77789865578e-06
1.28279887105e-05
1.60825982845e-05
1.78413408659e-05
3.83126610675e-06
3.30370454353e-06
2.62301537075e-06
2.0098415528e-06
1.55259622381e-06
1.22786243539e-06
9.81598964808e-07
7.73066493683e-07
5.72052610137e-07
3.53183726872e-07
1.3818121249e-07
3.85268995808e-08
2.33542409003e-08
2.65712679539e-08
7.36694949856e-08
1.12050620159e-06
5.75495272025e-06
1.13547913048e-05
1.52364987411e-05
1.73806597409e-05
4.07442914405e-06
3.44601438163e-06
2.69393415744e-06
2.04884459175e-06
1.57438187138e-06
1.23910574161e-06
9.92607640792e-07
7.96900114447e-07
6.16973593551e-07
4.11413618647e-07
1.76119253068e-07
4.5545255071e-08
2.36872116436e-08
2.58391105598e-08
4.53700102102e-08
3.03375134471e-07
3.81783996027e-06
9.74091530133e-06
1.42509651839e-05
1.68336739553e-05
4.09155456973e-06
3.45490667308e-06
2.71989910953e-06
2.07715955223e-06
1.59201225398e-06
1.24600914345e-06
9.99013564821e-07
8.15349138414e-07
6.5481177444e-07
4.63031709564e-07
2.14025465569e-07
5.36535469369e-08
2.38694846709e-08
2.47252111095e-08
3.54190298103e-08
1.16581437223e-07
1.95581966168e-06
8.02916181452e-06
1.31263155747e-05
1.61903120082e-05
4.11374891024e-06
3.47686999694e-06
2.74326877189e-06
2.10225712723e-06
1.60956171984e-06
1.25425332485e-06
1.00482887887e-06
8.29501388455e-07
6.85411540129e-07
5.0538871323e-07
2.45955970792e-07
6.10245803973e-08
2.41329542694e-08
2.35692535635e-08
3.1418476061e-08
7.62275283598e-08
6.88299218558e-07
6.21820603036e-06
1.18609780268e-05
1.54387431731e-05
4.12994639721e-06
3.48837312018e-06
2.75571371292e-06
2.1166914428e-06
1.62070484462e-06
1.26089469261e-06
1.01065010039e-06
8.42952138401e-07
7.13184042403e-07
5.39954779144e-07
2.71167886225e-07
6.75003571305e-08
2.4532445651e-08
2.28066733112e-08
2.82369358449e-08
4.63991597203e-08
2.6035874734e-07
4.36038992341e-06
1.04589350533e-05
1.45664777177e-05
4.13517869393e-06
3.49946222756e-06
2.76613761188e-06
2.12339231747e-06
1.62482229514e-06
1.2645814253e-06
1.01746362571e-06
8.59377816508e-07
7.40139641683e-07
5.67457721903e-07
2.91317923335e-07
7.41498686204e-08
2.52505095168e-08
2.25931977799e-08
2.62466870475e-08
3.6585581683e-08
1.40776015261e-07
2.69736902997e-06
8.91543786935e-06
1.35563297693e-05
4.1501818186e-06
3.5150956131e-06
2.77844506885e-06
2.12675198755e-06
1.62535834335e-06
1.26745297417e-06
1.02736118763e-06
8.79920022326e-07
7.6544288479e-07
5.88672387428e-07
3.0745008351e-07
8.12654647674e-08
2.64349320349e-08
2.28718383779e-08
2.54045763913e-08
3.11004537603e-08
8.93894017289e-08
1.45826160341e-06
7.24439120281e-06
1.23923593442e-05
4.15354627386e-06
3.53025070058e-06
2.79084042695e-06
2.13083043976e-06
1.62680170199e-06
1.27226814127e-06
1.04106246659e-06
9.02456445334e-07
7.8734454066e-07
6.03913697515e-07
3.18915549906e-07
8.79100774371e-08
2.78690830041e-08
2.34040669485e-08
2.53526370664e-08
2.86270261996e-08
6.1642050798e-08
6.90949778995e-07
5.54409455325e-06
1.10801474045e-05
4.16518452691e-06
3.54004667089e-06
2.7984838369e-06
2.13481157369e-06
1.62971993113e-06
1.27930440872e-06
1.05723513331e-06
9.24040558553e-07
8.04475842541e-07
6.11888431794e-07
3.23727857552e-07
9.22848721402e-08
2.89559696105e-08
2.38708484612e-08
2.58014729917e-08
2.79527506752e-08
4.10206512385e-08
2.90177463878e-07
3.92012127197e-06
9.63715770664e-06
4.17697149977e-06
3.54688260151e-06
2.79964242477e-06
2.13367355495e-06
1.63058561693e-06
1.28659049368e-06
1.07354313163e-06
9.42726159256e-07
8.15899057678e-07
6.10908652656e-07
3.20631337321e-07
9.34459054272e-08
2.9284657216e-08
2.41675685129e-08
2.62981259787e-08
2.80140292118e-08
3.22567580504e-08
1.26298569546e-07
2.46320905623e-06
8.0871885469e-06
4.20756505567e-06
3.55684947262e-06
2.79760570072e-06
2.12759868962e-06
1.62874656697e-06
1.29375972317e-06
1.08916930912e-06
9.58025903309e-07
8.20424041594e-07
6.00260245442e-07
3.10783792127e-07
9.21148179053e-08
2.90899753647e-08
2.43683066502e-08
2.65516789435e-08
2.81765065685e-08
3.05455498169e-08
7.37003854375e-08
1.3294068235e-06
6.50317263142e-06
4.21910954236e-06
3.55537669484e-06
2.78586673524e-06
2.11551821426e-06
1.6254737149e-06
1.30245408363e-06
1.10468860756e-06
9.69949701177e-07
8.16959843728e-07
5.81610673806e-07
2.97857669642e-07
9.0271632948e-08
2.91326069678e-08
2.45475783488e-08
2.6579432071e-08
2.81453928037e-08
2.95945501733e-08
5.48351151243e-08
6.18303510018e-07
4.97806559997e-06
4.21860944767e-06
3.53263817739e-06
2.75693875106e-06
2.09744819246e-06
1.62505675819e-06
1.3159399694e-06
1.12160319634e-06
9.78155188825e-07
8.05140281686e-07
5.58744999691e-07
2.85826286166e-07
9.03911606596e-08
3.01807373164e-08
2.47620956985e-08
2.65156458075e-08
2.79331032299e-08
2.88541706505e-08
3.66046654021e-08
2.62921042571e-07
3.55227099424e-06
4.1822606974e-06
3.48207520996e-06
2.71465343819e-06
2.08217140831e-06
1.63551016963e-06
1.33802296164e-06
1.1404668016e-06
9.80465117871e-07
7.85585005512e-07
5.36079256575e-07
2.78318486055e-07
9.52080913781e-08
3.24049183635e-08
2.50651196926e-08
2.64847665612e-08
2.77393038082e-08
2.82417907265e-08
3.11298352123e-08
1.21246088856e-07
2.30370927191e-06
4.12222356568e-06
3.4036147311e-06
2.67040832145e-06
2.08413355343e-06
1.66460884938e-06
1.36968217575e-06
1.15757469793e-06
9.72238759065e-07
7.60547261845e-07
5.207946962e-07
2.83192281195e-07
1.05606974305e-07
3.56925866269e-08
2.55444076491e-08
2.65972330278e-08
2.76607733098e-08
2.7814092363e-08
2.93137603489e-08
7.20859839529e-08
1.3631726159e-06
4.01309302012e-06
3.33215838458e-06
2.67218452512e-06
2.13338444059e-06
1.72058065224e-06
1.40554822536e-06
1.16258601271e-06
9.52005191237e-07
7.42460211822e-07
5.23338577095e-07
3.01061136709e-07
1.20513270927e-07
4.01170758885e-08
2.62829819126e-08
2.68651893916e-08
2.76383095343e-08
2.75785962486e-08
2.83746116625e-08
5.47477344769e-08
7.40861054986e-07
3.94573547347e-06
3.35502814078e-06
2.76223728933e-06
2.24045089465e-06
1.79224840675e-06
1.42994250854e-06
1.15336830392e-06
9.34587223558e-07
7.4002611545e-07
5.41441213905e-07
3.28023927688e-07
1.38963077414e-07
4.5580272303e-08
2.72838651997e-08
2.71639446565e-08
2.75342265999e-08
2.72937157057e-08
2.78581472992e-08
3.88446227815e-08
3.50583531334e-07
3.97531597567e-06
3.47998835219e-06
2.92635498652e-06
2.37200272873e-06
1.85251582706e-06
1.43941888638e-06
1.14198843343e-06
9.2715653752e-07
7.49787115846e-07
5.67815079112e-07
3.58996858699e-07
1.59460500469e-07
5.17482223446e-08
2.84302096096e-08
2.73460686362e-08
2.73013350852e-08
2.6890096774e-08
2.74363527013e-08
3.19780249388e-08
1.4937948735e-07
4.11150738346e-06
3.69249709845e-06
3.13265007022e-06
2.48821633584e-06
1.89061326091e-06
1.43692944512e-06
1.13236009615e-06
9.27172385291e-07
7.65050796267e-07
5.95158450812e-07
3.8934290227e-07
1.80354146421e-07
5.83727958296e-08
2.96098375436e-08
2.73976699894e-08
2.70218756284e-08
2.64383699856e-08
2.68477719887e-08
3.0274985928e-08
8.16621352336e-08
4.51452066648e-06
4.110330729e-06
3.39665081709e-06
2.5837135417e-06
1.89394061869e-06
1.41942678145e-06
1.12316131978e-06
9.31306338714e-07
7.81064777874e-07
6.19663184655e-07
4.1694795427e-07
2.00891610356e-07
6.55589038229e-08
3.08873510391e-08
2.73953661027e-08
2.67767027116e-08
2.60151569209e-08
2.61065729877e-08
2.87808906858e-08
6.14671841873e-08
5.29859406536e-06
4.80502592016e-06
3.71746601339e-06
2.62062384685e-06
1.85396132246e-06
1.39207859853e-06
1.11878160557e-06
9.39912446695e-07
7.9684889136e-07
6.41915663465e-07
4.43768937087e-07
2.23114718346e-07
7.44014496224e-08
3.25812079669e-08
2.7442967441e-08
2.66142622455e-08
2.56740231027e-08
2.5373000919e-08
2.73115424162e-08
3.90171204187e-08
6.64085395222e-06
5.69247992093e-06
3.92263357079e-06
2.5912236085e-06
1.81789391849e-06
1.38966129536e-06
1.13495782541e-06
9.57715029478e-07
8.14399813445e-07
6.65684083871e-07
4.75284597563e-07
2.52031015482e-07
8.73888479834e-08
3.53422236722e-08
2.77055821569e-08
2.65801458302e-08
2.54736417067e-08
2.47752132272e-08
2.59600334358e-08
3.34088140334e-08
7.31758742705e-06
6.061536268e-06
4.09937634491e-06
2.72413932662e-06
1.91780922643e-06
1.46715024502e-06
1.18995335148e-06
9.89910526046e-07
8.35986733458e-07
6.93838483158e-07
5.15908486581e-07
2.92633707236e-07
1.07875134189e-07
4.02127944918e-08
2.84187218077e-08
2.67127284096e-08
2.54471968457e-08
2.43626435199e-08
2.48769349798e-08
2.99508246671e-08
7.50128875996e-06
6.50267807698e-06
4.7184248179e-06
3.22954467893e-06
2.23611579557e-06
1.64956166349e-06
1.29144426901e-06
1.04158427642e-06
8.63054450401e-07
7.2348522305e-07
5.62003458537e-07
3.44059695911e-07
1.37952893054e-07
4.83747668267e-08
2.98420834642e-08
2.70368546688e-08
2.55914284813e-08
2.41563016894e-08
2.40648321264e-08
2.74318664769e-08
7.74947482641e-06
7.02401627572e-06
5.40338260334e-06
3.88734411494e-06
2.70790206687e-06
1.91150954367e-06
1.43350548681e-06
1.11850492027e-06
9.00860715339e-07
7.51471750675e-07
6.04136135207e-07
3.9808602679e-07
1.75980851357e-07
6.05814738151e-08
3.22061713107e-08
2.75490428657e-08
2.58782311539e-08
2.41378692732e-08
2.34966926802e-08
2.55484957819e-08
7.76175304936e-06
7.32044247889e-06
5.87719141281e-06
4.38601502328e-06
3.1452594117e-06
2.20991996257e-06
1.60772773775e-06
1.21825356646e-06
9.53505863573e-07
7.80311920934e-07
6.36823494726e-07
4.44852389653e-07
2.16447591279e-07
7.64916320969e-08
3.56783925854e-08
2.82313074737e-08
2.62602505595e-08
2.42584087979e-08
2.31273688041e-08
2.41649487973e-08
7.5165510025e-06
7.32329947409e-06
6.08763430766e-06
4.68205545025e-06
3.44319031449e-06
2.46644731556e-06
1.7851347648e-06
1.32895516571e-06
1.0169665277e-06
8.13259744109e-07
6.61122175038e-07
4.775559148e-07
2.50977381255e-07
9.37785277374e-08
4.02218597116e-08
2.90824145389e-08
2.66598614247e-08
2.44589523723e-08
2.29143247619e-08
2.31931689334e-08
7.15635109385e-06
7.14644064703e-06
6.10102020089e-06
4.80414199586e-06
3.60669628255e-06
2.63339039986e-06
1.92330069199e-06
1.42550100439e-06
1.07729580197e-06
8.4680723558e-07
6.8050579254e-07
4.97027408909e-07
2.72667562771e-07
1.069468731e-07
4.453006077e-08
2.99746276183e-08
2.69790450534e-08
2.46735021211e-08
2.28258798651e-08
2.25346883641e-08
6.87690775153e-06
6.9496430713e-06
6.0096383758e-06
4.79077045575e-06
3.64382549682e-06
2.70794823999e-06
2.0022434435e-06
1.48602856561e-06
1.11834221325e-06
8.71766183801e-07
6.92804411682e-07
5.04083047448e-07
2.80462597055e-07
1.1341101665e-07
4.72245311529e-08
3.05428550421e-08
2.71029814426e-08
2.48496513183e-08
2.28353459067e-08
2.21441778322e-08
6.66105980481e-06
6.8008494323e-06
5.89183887997e-06
4.7021811743e-06
3.60085540179e-06
2.709308967e-06
2.01722100345e-06
1.50041341589e-06
1.13177280135e-06
8.81936779089e-07
6.9459898957e-07
4.98150621789e-07
2.74791480947e-07
1.12735030412e-07
4.7740976398e-08
3.05727536742e-08
2.70042013281e-08
2.49259709438e-08
2.28927522331e-08
2.1969193425e-08
6.56091093436e-06
6.70373080121e-06
5.77472721078e-06
4.59356624588e-06
3.52297984453e-06
2.64602205194e-06
1.97012558892e-06
1.47111743789e-06
1.11947863028e-06
8.76386129717e-07
6.83782240879e-07
4.78591064359e-07
2.57186660311e-07
1.05965976097e-07
4.61844688567e-08
3.00212761595e-08
2.66765800379e-08
2.48532894711e-08
2.2965089839e-08
2.19647115365e-08
6.49094433369e-06
6.62853653226e-06
5.67933146083e-06
4.47013334238e-06
3.39058569348e-06
2.52501856703e-06
1.87774192319e-06
1.41371350202e-06
1.09009315664e-06
8.57020859037e-07
6.59994723795e-07
4.45955272135e-07
2.30684731915e-07
9.51904222122e-08
4.31535769989e-08
2.90044834596e-08
2.61350700911e-08
2.46360229469e-08
2.30554393713e-08
2.20572760144e-08
6.45263567427e-06
6.5032155355e-06
5.50707399054e-06
4.30564898427e-06
3.22779452061e-06
2.38187168214e-06
1.7718510114e-06
1.3489507113e-06
1.05155380717e-06
8.2645930519e-07
6.24528842126e-07
4.02566757055e-07
1.99616717964e-07
8.28839071038e-08
3.94410821987e-08
2.76950594503e-08
2.54029578348e-08
2.43019012061e-08
2.31314483255e-08
2.21209160633e-08
6.31067997953e-06
6.25843976543e-06
5.28160697175e-06
4.11468506704e-06
3.06518181128e-06
2.25006871979e-06
1.67814429129e-06
1.28790320891e-06
1.00757093042e-06
7.89054007496e-07
5.79436040318e-07
3.53048276044e-07
1.68868465892e-07
7.12824750115e-08
3.57804359641e-08
2.62618820707e-08
2.45310324942e-08
2.38933917059e-08
2.3130955958e-08
2.21278894129e-08
6.04679666223e-06
5.89955468955e-06
4.99999202192e-06
3.89677803735e-06
2.90306692882e-06
2.13523245543e-06
1.59899417349e-06
1.2298196558e-06
9.64769035598e-07
7.50410686815e-07
5.28011403164e-07
3.04601287829e-07
1.42900057964e-07
6.20066956987e-08
3.27305081586e-08
2.48827022758e-08
2.36103913206e-08
2.34389782149e-08
2.30930913817e-08
2.21930995464e-08
5.66189817627e-06
5.50332317025e-06
4.66949320284e-06
3.64090611786e-06
2.73057362619e-06
2.02596288489e-06
1.52615731206e-06
1.1826507061e-06
9.34565626173e-07
7.12799037029e-07
4.76678335992e-07
2.64932361963e-07
1.24523866684e-07
5.59448266957e-08
3.06912101997e-08
2.37418897563e-08
2.27220739565e-08
2.29475184434e-08
2.30425285144e-08
2.23758217834e-08
5.19415865837e-06
4.98764373913e-06
4.24467132095e-06
3.34239244737e-06
2.5508263784e-06
1.9274598141e-06
1.47950284895e-06
1.16475224e-06
9.19155655359e-07
6.77534128699e-07
4.35346796645e-07
2.39365165733e-07
1.14781797683e-07
5.34511114464e-08
2.99376654639e-08
2.30153180554e-08
2.19321833571e-08
2.24204413153e-08
2.29674115626e-08
2.26811280682e-08
4.62730056129e-06
4.35304572769e-06
3.78964496552e-06
3.08207721144e-06
2.43093777307e-06
1.8962966232e-06
1.48362294376e-06
1.17260034884e-06
9.11088029058e-07
6.52259180048e-07
4.13873283006e-07
2.30663582301e-07
1.14212868184e-07
5.47848550726e-08
3.0617203295e-08
2.28306223814e-08
2.13156708119e-08
2.18923200435e-08
2.2850664782e-08
2.30837786873e-08
4.34213452662e-06
3.97094874402e-06
3.57442515647e-06
3.02543948934e-06
2.46906703817e-06
1.94589882427e-06
1.51288226914e-06
1.1868644474e-06
9.13665300814e-07
6.5162710016e-07
4.18668943384e-07
2.39618135215e-07
1.22437279479e-07
5.95814606905e-08
3.25675533738e-08
2.32620454028e-08
2.0971006904e-08
2.14378596093e-08
2.27081413984e-08
2.35720197841e-08
4.37332742034e-06
4.12073014785e-06
3.80516922131e-06
3.27371836515e-06
2.63752275633e-06
2.02420593977e-06
1.5480889086e-06
1.21430690988e-06
9.41756851319e-07
6.83740994581e-07
4.52036944674e-07
2.67577053718e-07
1.40613683766e-07
6.8463886369e-08
3.59922288786e-08
2.44252013448e-08
2.11288184032e-08
2.11621876072e-08
2.26054624243e-08
2.41266011514e-08
5.10668973121e-06
4.92441360219e-06
4.47184908491e-06
3.70635743879e-06
2.85185002204e-06
2.12292796164e-06
1.61659283835e-06
1.28081283653e-06
1.01186825122e-06
7.5793058172e-07
5.2154127897e-07
3.21669312568e-07
1.73830897646e-07
8.37204170563e-08
4.14746376493e-08
2.63549705754e-08
2.19538712259e-08
2.12474002184e-08
2.26441434041e-08
2.47208255145e-08
6.44286667123e-06
6.15738171492e-06
5.32719828787e-06
4.19761567807e-06
3.11877211224e-06
2.31473999722e-06
1.77855216831e-06
1.42013827158e-06
1.14032430426e-06
8.82710736249e-07
6.3635840929e-07
4.13001502903e-07
2.31548380074e-07
1.1008791853e-07
5.03220778992e-08
2.91745403366e-08
2.32903274117e-08
2.20613380741e-08
2.29337089159e-08
2.53996735126e-08
7.82441495319e-06
7.24630191603e-06
5.98314691815e-06
4.61448822342e-06
3.46328479442e-06
2.63509855302e-06
2.04663285868e-06
1.63748691011e-06
1.32304003289e-06
1.04613418914e-06
7.86538417027e-07
5.41067398496e-07
3.2060955061e-07
1.53519891807e-07
6.45884509704e-08
3.32603219551e-08
2.49137191781e-08
2.34041481198e-08
2.37596333189e-08
2.62734393022e-08
7.92135158602e-06
7.72851467553e-06
6.42682268664e-06
5.02595052455e-06
3.86851683104e-06
2.99885662498e-06
2.33862293687e-06
1.87127355158e-06
1.51034050041e-06
1.20457761384e-06
9.31630315766e-07
6.7537672994e-07
4.27284787018e-07
2.12756585812e-07
8.52655017201e-08
3.89335203742e-08
2.66928588536e-08
2.46167817096e-08
2.51179832373e-08
2.72635042543e-08
7.90157568384e-06
8.0283341744e-06
6.79407815281e-06
5.36723428411e-06
4.19871925343e-06
3.29154062183e-06
2.58120005904e-06
2.05848919121e-06
1.64722416864e-06
1.31373396099e-06
1.033110218e-06
7.78846110541e-07
5.21663755377e-07
2.73545464662e-07
1.09411617546e-07
4.58650000547e-08
2.85323126291e-08
2.53079204548e-08
2.60637128779e-08
2.8061991363e-08
7.92746580556e-06
8.23968742794e-06
7.04848047538e-06
5.60418393766e-06
4.40713580923e-06
3.46427603226e-06
2.72992140247e-06
2.1662939603e-06
1.71982136062e-06
1.36712878433e-06
1.08423668558e-06
8.39702942747e-07
5.87140887804e-07
3.23039383959e-07
1.32802081308e-07
5.34684805636e-08
3.05216629972e-08
2.5614397036e-08
2.62582482763e-08
2.85856094863e-08
7.84764381042e-06
8.28430728376e-06
7.22477458592e-06
5.82106173194e-06
4.58165332489e-06
3.58222523696e-06
2.81216966294e-06
2.21556691005e-06
1.75045743503e-06
1.38677553873e-06
1.10259483326e-06
8.66621992367e-07
6.23201917914e-07
3.57362608985e-07
1.53657744322e-07
6.16689293704e-08
3.29594842973e-08
2.5975841936e-08
2.60365398019e-08
2.8689620484e-08
7.57532266165e-06
8.11314081145e-06
7.31176808087e-06
6.04841997596e-06
4.80379646524e-06
3.73813608166e-06
2.90678872433e-06
2.27310309784e-06
1.7873834433e-06
1.40916908028e-06
1.11644516519e-06
8.78891421801e-07
6.38938239512e-07
3.76260187728e-07
1.68642518424e-07
6.89899719021e-08
3.55560173874e-08
2.65559574961e-08
2.58168317921e-08
2.85254311787e-08
7.35854231173e-06
7.70916736777e-06
7.17265160719e-06
6.14904953999e-06
5.00032818361e-06
3.92708049004e-06
3.04796839834e-06
2.37279866026e-06
1.85705328707e-06
1.45585763849e-06
1.14428195404e-06
8.91571736488e-07
6.45908410659e-07
3.85966508153e-07
1.78744903692e-07
7.49712642512e-08
3.80081093622e-08
2.72647389911e-08
2.57345021505e-08
2.83196089528e-08
7.20059405257e-06
7.34427686494e-06
6.88279681307e-06
6.04080430553e-06
5.04090852921e-06
4.04170123302e-06
3.17343013842e-06
2.48307564754e-06
1.94548222493e-06
1.52179288717e-06
1.18595664377e-06
9.0910835453e-07
6.51720143418e-07
3.9262191042e-07
1.86748876065e-07
8.02979176647e-08
4.04053709192e-08
2.80792710146e-08
2.57986433333e-08
2.81458536522e-08
6.88077414104e-06
6.89410751472e-06
6.42773236153e-06
5.71751647687e-06
4.8872109257e-06
4.01680457803e-06
3.2183020664e-06
2.55355569552e-06
2.01779267461e-06
1.5840028674e-06
1.22862175547e-06
9.29215629934e-07
6.60004390887e-07
4.00185794553e-07
1.94890827151e-07
8.5726872004e-08
4.29269618812e-08
2.90083253017e-08
2.59785496657e-08
2.80097061552e-08
6.57551522376e-06
6.45011183434e-06
5.91001068787e-06
5.269514978e-06
4.58610220203e-06
3.85939497026e-06
3.16268672062e-06
2.55563300309e-06
2.0467969078e-06
1.62092093496e-06
1.25934913418e-06
9.47674873608e-07
6.71010162669e-07
4.10039756677e-07
2.04167535992e-07
9.16668674458e-08
4.56922459988e-08
3.00624048708e-08
2.62315916634e-08
2.78628178671e-08
6.19591761674e-06
5.94989122158e-06
5.35966642628e-06
4.76627764687e-06
4.19590126397e-06
3.60184835269e-06
3.01620429738e-06
2.48522132605e-06
2.02302188734e-06
1.62321403905e-06
1.27182124899e-06
9.61003826905e-07
6.83005993549e-07
4.21391754348e-07
2.14335370606e-07
9.80751635116e-08
4.87033062516e-08
3.12413537651e-08
2.65253401015e-08
2.76495537123e-08
5.71865718065e-06
5.38662396411e-06
4.79304004649e-06
4.24146333019e-06
3.75968508131e-06
3.28262945052e-06
2.80542177813e-06
2.3580012234e-06
1.95537716795e-06
1.59592257698e-06
1.26775767006e-06
9.6815390644e-07
6.9365943156e-07
4.32272835408e-07
2.24511703483e-07
1.04703256567e-07
5.1938404895e-08
3.25725534377e-08
2.6871972099e-08
2.73745785728e-08
5.29593340847e-06
4.87199200374e-06
4.25678912975e-06
3.735830345e-06
3.32625997535e-06
2.9481646694e-06
2.57098964849e-06
2.2082018356e-06
1.87128444763e-06
1.55818784691e-06
1.25694726873e-06
9.72134354531e-07
7.02280371047e-07
4.41933873083e-07
2.34785989117e-07
1.1187982116e-07
5.56592517929e-08
3.42543747289e-08
2.74396489232e-08
2.71806969466e-08
5.02775841537e-06
4.46986448205e-06
3.79406040521e-06
3.28747225748e-06
2.94250429034e-06
2.65400913525e-06
2.36989551529e-06
2.08778644877e-06
1.81280424664e-06
1.53699064928e-06
1.25431517838e-06
9.80542912745e-07
7.12435434973e-07
4.53865768354e-07
2.48151053026e-07
1.21478312222e-07
6.098218495e-08
3.7024359915e-08
2.87013836574e-08
2.73508224153e-08
4.94854467392e-06
4.1882844262e-06
3.45015127419e-06
2.94522792218e-06
2.66718207966e-06
2.46902331921e-06
2.27078121539e-06
2.05624325729e-06
1.82091464771e-06
1.5563497367e-06
1.27781242534e-06
1.00586936973e-06
7.34813117815e-07
4.77834506843e-07
2.71580009473e-07
1.38023139467e-07
7.0850801699e-08
4.25278983402e-08
3.14812690486e-08
2.83328180019e-08
4.93705854586e-06
3.98889618344e-06
3.25356767818e-06
2.78406421959e-06
2.57456164366e-06
2.45681047799e-06
2.32527615347e-06
2.14718213542e-06
1.9121212582e-06
1.63333829178e-06
1.34588392574e-06
1.06443473479e-06
7.86849899064e-07
5.29114318311e-07
3.17235395062e-07
1.70788669448e-07
9.09266546003e-08
5.35954595994e-08
3.71659401933e-08
3.08404809559e-08
4.97369002752e-06
4.0000310962e-06
3.31031907178e-06
2.88669915919e-06
2.71300233661e-06
2.63254373872e-06
2.52707841178e-06
2.34579904308e-06
2.08328947477e-06
1.77587323112e-06
1.46623090152e-06
1.17003199169e-06
8.88436026926e-07
6.29367641619e-07
4.0495308624e-07
2.34922945418e-07
1.30717354385e-07
7.52715780771e-08
4.81596531038e-08
3.59643426771e-08
5.17223031128e-06
4.30006514791e-06
3.63637112037e-06
3.22019478323e-06
3.02184991466e-06
2.92390714692e-06
2.81031905212e-06
2.60923142972e-06
2.31408155536e-06
1.97222711892e-06
1.63791639393e-06
1.33177243621e-06
1.0512873514e-06
7.91775938632e-07
5.52095167976e-07
3.48164700198e-07
2.0448621897e-07
1.15831448247e-07
6.8202600772e-08
4.51815555119e-08
5.55588299976e-06
4.77219872532e-06
4.09143292176e-06
3.60208189606e-06
3.31208640301e-06
3.16821286538e-06
3.05554094181e-06
2.86503394355e-06
2.56389841714e-06
2.20492538163e-06
1.85750380048e-06
1.54431669046e-06
1.25887475134e-06
9.92613199425e-07
7.39984658705e-07
5.10416290869e-07
3.19647441135e-07
1.82380243325e-07
1.00737149211e-07
5.95130997264e-08
5.9284227495e-06
5.17839884641e-06
4.37559874746e-06
3.76628960568e-06
3.41497502066e-06
3.25770755683e-06
3.16483764824e-06
3.01375868826e-06
2.7515994154e-06
2.41669235531e-06
2.07713414983e-06
1.75841170495e-06
1.46086328084e-06
1.18313949888e-06
9.23363402003e-07
6.77932604633e-07
4.50674403518e-07
2.64699927117e-07
1.42058097804e-07
7.71084692428e-08
5.54026601683e-06
5.18627948094e-06
4.45448547086e-06
3.83475011354e-06
3.45614744726e-06
3.28239480088e-06