/*--------------------------------*- C++ -*----------------------------------*\
| =========                 |                                                 |
| \\      /  F ield         | OpenFOAM: The Open Source CFD Toolbox           |
|  \\    /   O peration     | Version:  2312                                  |
|   \\  /    A nd           | Website:  www.openfoam.com                      |
|    \\/     M anipulation  |                                                 |
\*---------------------------------------------------------------------------*/
FoamFile
{
    version     2.0;
    format      ascii;
    arch        "LSB;label=32;scalar=64";
    class       volScalarField;
    location    "0.62/water";
    object      p_rgh;
}
// * * * * * * * * * * * * * * * * * * * * * * * * * * * * * * * * * * * * * //

dimensions      [1 -1 -2 0 0 0 0];

internalField   nonuniform List<scalar> 
1496
(
100620.897393
100621.755049
100661.268389
100732.281911
100863.859843
101108.227153
101326.414838
101440.914307
101502.604034
101533.920988
101542.23427
101548.637093
101553.834467
101559.156161
101528.7856
101358.904623
101235.279486
101220.521386
101244.457242
101234.944734
100631.93133
100629.211633
100642.867174
100670.852274
100734.555995
100898.021138
101165.404915
101358.884907
101463.376094
101517.783297
101532.64717
101538.497935
101544.939791
101550.645886
101518.983281
101346.637205
101226.096414
101213.652163
101276.078849
101310.451907
100692.746739
100651.509836
100637.428448
100641.815762
100674.10651
100767.782547
100977.872013
101220.189434
101384.416568
101483.089412
101527.05537
101534.233377
101539.77785
101545.937278
101523.938369
101356.92717
101222.210303
101206.380041
101257.800447
101334.918913
100763.44351
100668.669388
100629.857759
100619.940137
100636.933299
100693.586525
100827.466616
101047.99238
101259.729145
101410.201387
101501.36635
101533.000721
101538.658765
101543.929387
101539.198741
101399.250023
101231.084006
101201.121385
101213.129021
101315.675567
100772.57903
100675.998772
100620.962799
100603.730649
100612.591827
100646.452977
100729.400731
100892.267478
101105.653506
101297.577325
101438.508261
101518.383316
101539.934912
101545.045083
101549.139215
101463.780393
101266.501825
101198.382777
101200.476245
101266.975739
100776.527825
100673.25374
100612.043204
100592.653405
100597.528839
100617.188127
100669.954003
100782.529268
100962.691302
101164.827496
101341.85811
101471.011555
101535.517449
101548.296829
101552.819256
101517.814101
101337.083378
101200.312809
101200.200684
101208.96586
100747.366669
100657.323067
100602.742494
100585.591509
100589.049686
100601.74547
100638.904559
100721.352836
100863.425493
101046.937491
101235.349316
101399.052773
101509.972652
101551.670752
101557.857242
101545.492676
101422.170431
101227.914271
101201.318483
101203.595116
100662.487043
100618.823309
100592.391471
100584.707701
100585.220441
100595.117683
100627.261449
100697.755685
100814.46383
100971.672375
101151.577839
101329.02168
101474.090884
101549.700681
101564.876704
101560.540158
101489.528894
101288.040945
101204.377967
101206.106571
100522.676704
100571.830424
100585.797301
100586.18832
100586.556083
100594.358144
100626.215724
100695.161429
100801.774585
100942.751506
101110.745386
101288.878447
101449.965977
101549.18927
101573.660527
101572.74239
101529.243774
101351.241823
101211.19239
101210.432751
100471.205641
100552.947281
100586.058023
100588.247329
100588.664816
100597.061115
100629.870561
100699.296628
100804.903414
100942.1054
101105.779345
101283.398426
101449.119633
101556.340471
101584.277833
101584.163245
101547.761222
101389.241815
101230.13228
101227.019475
100469.327972
100550.637061
100589.377528
100593.683034
100594.011384
100604.691049
100641.074211
100711.446161
100814.766335
100950.454087
101113.910434
101292.502682
101459.613938
101567.833829
101596.270571
101595.10799
101556.78486
101409.621354
101262.126659
101270.173449
100473.4845
100548.420217
100597.427536
100606.686233
100608.33862
100624.749656
100668.749594
100741.615243
100843.067606
100975.914804
101138.240786
101317.5364
101484.111856
101587.040849
101608.560807
101604.913709
101561.950009
101421.000965
101310.801743
101336.952531
100472.482006
100548.705714
100615.640128
100633.604468
100639.690203
100665.804426
100719.62689
100797.300821
100900.211101
101033.40798
101196.193683
101374.964778
101532.690854
101611.984157
101619.571291
101612.792548
101557.500079
101427.778774
101371.704513
101415.708619
100475.846844
100559.42796
100652.755149
100681.591942
100695.724829
100733.731168
100797.340183
100882.060105
100990.999782
101128.901102
101293.643632
101465.770445
101594.398826
101630.138047
101629.659111
101614.3382
101539.657697
101436.803994
101431.306492
101493.195456
100474.86886
100601.73761
100721.401774
100754.84573
100781.130029
100832.239422
100906.442213
101000.46011
101117.792364
101261.219331
101423.0888
101569.009231
101636.124035
101639.613385
101636.092994
101603.39857
101515.214697
101458.958651
101483.846975
101564.434144
100476.804915
100701.558357
100814.505058
100854.677091
100900.04352
100967.949808
101054.878419
101158.949246
101282.752341
101424.194847
101560.923969
101640.242922
101649.796361
101647.53487
101632.447357
101573.464759
101508.123442
101494.049056
101537.433657
101621.730828
100470.259503
100846.363767
100914.880108
100983.091133
101055.841535
101144.835897
101246.654651
101358.636623
101477.54047
101586.884542
101650.637815
101661.084661
101657.222574
101647.172561
101609.42642
101543.661261
101514.681715
101531.640445
101593.831059
101644.161556
100473.621365
100928.95106
101026.51951
101138.499935
101243.386383
101355.443201
101468.517829
101568.799929
101638.484257
101668.025241
101670.669086
101666.800243
101658.20821
101629.912801
101570.352148
101541.844849
101536.768692
101575.810149
101637.841493
101644.650816
100466.789599
100998.144388
101154.947801
101311.085176
101443.82215
101563.538228
101644.474342
101674.671513
101677.631525
101675.93564
101674.587026
101671.617645
101650.974907
101595.321408
101558.553098
101550.325151
101572.391082
101623.579491
101647.138027
101641.060219
100471.313674
101084.337401
101302.287673
101492.323596
101618.059985
101676.700129
101683.504813
101682.033424
101682.017282
101679.912983
101679.20374
101676.14628
101636.414407
101574.164404
101562.114747
101573.288122
101613.510314
101649.017182
101644.430267
101590.0245
100468.336813
101214.117852
101464.176745
101648.66126
101689.447001
101689.300699
101687.992768
101688.843731
101686.036531
101686.705135
101681.917281
101680.274998
101618.878145
101575.239585
101576.335867
101607.174243
101641.268957
101649.209202
101632.472581
101507.319234
100471.463403
101371.387949
101607.470338
101698.511395
101696.438903
101694.992383
101696.424178
101693.091697
101694.906731
101688.519063
101689.241581
101681.612481
101602.517155
101580.965976
101602.913943
101634.819834
101648.67605
101647.006851
101615.672353
101478.407133
100546.498664
101456.485141
101648.017359
101706.712544
101704.507155
101705.775235
101701.913879
101704.509052
101696.362487
101699.175063
101688.77434
101663.277588
101585.780219
101599.185623
101629.64531
101644.275471
101647.332137
101643.926632
101612.574466
101492.734072
100738.097073
101436.833772
101634.911722
101711.185572
101714.190076
101710.434799
101713.435458
101703.577454
101705.859472
101693.861693
101671.62283
101579.925351
101571.744777
101609.364105
101632.486919
101640.910117
101642.222081
101640.016264
101622.278478
101558.822632
100895.079886
101302.243519
101478.654314
101580.621931
101634.331125
101653.39033
101645.734441
101625.069943
101574.39365
101512.188419
101448.568234
101454.9251
101532.554153
101587.488857
101614.212572
101626.702107
101632.209921
101633.105374
101630.879294
101621.75037
100872.82
101038.702111
101108.018878
101185.370269
101244.975776
101246.78334
101208.874087
101131.569508
101040.24834
100977.976893
101021.814577
101183.243939
101378.110724
101508.000163
101574.218486
101604.408119
101617.219817
101620.24297
101620.561283
101620.78135
100831.55167
100881.869382
100865.406382
100855.603556
100814.152133
100754.229903
100701.204473
100647.72747
100603.81494
100584.430111
100635.20587
100775.224869
101000.057021
101264.400139
101464.628937
101566.996251
101605.088196
101611.385066
101612.680304
101613.740782
100832.768963
100865.277002
100834.266734
100759.437724
100658.411168
100606.560658
100577.024204
100549.024894
100525.226696
100519.296743
100520.394059
100571.950893
100698.103506
100935.793491
101232.564752
101469.814781
101589.891592
101610.725338
101612.167245
101612.653483
100837.034823
100866.910227
100839.203607
100723.691649
100643.333579
100618.267688
100600.114574
100575.447126
100549.931419
100536.830211
100532.854402
100571.21169
100667.764815
100844.702555
101090.209025
101351.763923
101556.925911
101616.19072
101616.53262
101617.879019
100847.588664
100859.403341
100816.686952
100675.062511
100652.645031
100672.151227
100691.367844
100686.488411
100660.082525
100633.295612
100619.875403
100643.510961
100725.75217
100880.975043
101101.110517
101340.783624
101544.819899
101623.154941
101624.151545
101623.690231
100779.034238
100731.162071
100680.936502
100595.943124
100630.923873
100703.883227
100786.023932
100828.707977
100831.223158
100816.628762
100808.810533
100834.17677
100910.265577
101029.084096
101194.392161
101382.301933
101556.644512
101628.301333
101628.281274
101631.125848
100582.669754
100491.887149
100489.765136
100496.871318
100567.566027
100649.121821
100746.694932
100826.802191
100891.148454
100939.973932
100982.185738
101040.52726
101130.460318
101233.566444
101348.788111
101464.17075
101568.784648
101627.888028
101629.270331
101626.542698
100366.46717
100319.744097
100353.71111
100402.758083
100468.400274
100534.128371
100618.332617
100721.747433
100817.981658
100902.6361
100977.141619
101061.958709
101166.713983
101280.568365
101389.219068
101476.487638
101548.480513
101566.840375
101506.403805
101338.782098
100251.637446
100264.920322
100300.15259
100338.714843
100374.347735
100407.326576
100452.320201
100526.479467
100630.901788
100753.472247
100877.183982
100990.79535
101113.086939
101243.923217
101363.474409
101432.985323
101424.347674
101277.849121
101016.215211
100761.584522
100224.131744
100260.508575
100291.24297
100316.463577
100331.514491
100343.511553
100362.644332
100403.330542
100478.887494
100591.044066
100720.317549
100851.269305
101000.873774
101159.537367
101284.066506
101286.981631
101124.277408
100794.152294
100568.979366
100466.53446
100224.802302
100262.63225
100292.6028
100315.804202
100325.615971
100333.183316
100347.736405
100382.021949
100449.912048
100556.539264
100682.95881
100824.182131
100988.502829
101137.318923
101180.996486
101069.175833
100750.911901
100506.032642
100433.957028
100414.348211
100225.509033
100265.040631
100294.755394
100317.530347
100326.508889
100333.652433
100348.132595
100382.8214
100451.963837
100562.2006
100703.393079
100869.501449
101044.717433
101144.139105
101078.835038
100811.776082
100529.73939
100431.630546
100413.493119
100410.333484
100806.740546
100766.431044
100743.946635
100734.541278
100732.581799
100737.055131
100760.919766
100841.661333
100958.87287
101154.237236
101450.013449
101666.452095
101686.937681
101552.627755
101404.396909
101819.486496
101177.302863
101115.761224
101052.938961
100991.12528
100942.799728
100910.692776
100891.63913
100879.580101
100870.808617
100870.370388
100893.117144
100962.669432
101066.672432
101303.88227
101597.458284
101695.794475
101695.148149
101492.286139
101405.586666
101836.569326
101289.459218
101234.261133
101175.033512
101117.235431
101072.498697
101046.79432
101035.679576
101028.38195
101016.763823
101013.368938
101022.383788
101057.934494
101174.599154
101473.438442
101690.267213
101699.682068
101694.003132
101294.949197
101404.79356
101843.326061
101370.331843
101353.437027
101302.53419
101247.396308
101194.328255
101149.495414
101115.409728
101099.265437
101099.946709
101105.342743
101099.78793
101095.573114
101256.230941
101600.055767
101700.781232
101700.661642
101626.288423
101073.423952
101408.295771
101845.14262
101390.325996
101431.469882
101418.827421
101385.306669
101334.521725
101251.918986
101151.635303
101096.688674
101096.29595
101100.755285
101094.061496
101090.765495
101302.458081
101638.74526
101701.193928
101700.332002
101353.853976
101064.718348
101396.877519
101847.179459
101370.704691
101449.002152
101496.523423
101507.46032
101491.275575
101385.734728
101193.763532
101092.184744
101092.47968
101092.94988
101090.672195
101089.863384
101329.484774
101648.214197
101701.504412
101697.973263
101067.939239
101064.424775
101374.597513
101849.381845
101322.155284
101438.886822
101526.225427
101574.42488
101582.138797
101524.796803
101267.200791
101088.573115
101088.413495
101088.495649
101088.302121
101114.786076
101367.431402
101656.125434
101704.264646
101560.908259
101060.989684
101057.406619
101375.482033
101852.880321
101276.882497
101415.382025
101533.104996
101585.945784
101589.706818
101589.264646
101348.614888
101085.755606
101086.83061
101086.983017
101086.769588
101176.35412
101429.687973
101670.54676
101706.281182
101295.369453
101054.663607
101058.994824
101403.066169
101856.984973
101266.7131
101406.079772
101543.379223
101590.897624
101593.466416
101596.918166
101385.288521
101084.770456
101086.217872
101086.592618
101133.755381
101268.914341
101510.295767
101673.800635
101635.286905
101060.450316
101056.922031
101054.613877
101452.295355
101861.568815
101274.300492
101416.202715
101565.00707
101596.912469
101600.632937
101600.644579
101363.588791
101084.545093
101086.739159
101133.208591
101225.210081
101377.890976
101579.536776
101673.918807
101413.928498
101055.602474
101052.177496
101056.469126
101515.817457
101867.188845
101302.862539
101451.256307
101595.250878
101604.688247
101605.83744
101607.970966
101247.489095
101085.630003
101117.744417
101226.40958
101332.208923
101485.718298
101594.273401
101600.791583
101171.291622
101051.450461
101055.987228
101105.397401
101590.592419
101873.535805
101363.634332
101517.861955
101610.170872
101611.720294
101614.556573
101535.673284
101131.020226
101099.550543
101208.339526
101332.993632
101425.327759
101564.047524
101597.864425
101493.024411
101058.192633
101055.518147
101054.564312
101226.31446
101663.467327
101880.250391
101446.997061
101592.597678
101617.901465
101620.189849
101618.089774
101302.326927
101132.975385
101175.468068
101333.326505
101425.507073
101483.980619
101594.447709
101601.750803
101389.584525
101055.115707
101053.163969
101056.817399
101344.931561
101731.97184
101887.542414
101534.769446
101624.395362
101626.232238
101625.534795
101535.230151
101146.425428
101140.79418
101291.672946
101454.347604
101488.466411
101501.405402
101603.351914
101605.600186
101358.643956
101054.619303
101056.261669
101114.627107
101434.15349
101791.277986
101894.759114
101607.289245
101631.263629
101631.286448
101626.511883
101250.497271
101148.730691
101222.084445
101419.828457
101545.654737
101532.043104
101496.186285
101602.881403
101599.139254
101373.179023
101094.397927
101055.323273
101155.839701
101467.010529
101823.081607
101901.57661
101636.205764
101636.473018
101637.182273
101448.886184
101146.202813
101166.498915
101343.445669
101527.209056
101609.928563
101571.516539
101454.479458
101524.956681
101577.554333
101428.614103
101187.956959
101076.490384
101164.047113
101458.803555
101827.932711
101908.104116
101640.834451
101641.387362
101576.975742
101186.777256
101148.053029
101256.372521
101465.094024
101604.764151
101661.543241
101607.203979
101361.100751
101364.553362
101546.838278
101483.944167
101281.217816
101120.651363
101172.486916
101450.718174
101827.035651
101913.876553
101643.74662
101624.839405
101325.660998
101147.124541
101183.005645
101376.097893
101559.872114
101661.539999
101708.444999
101641.856105
101276.894046
101258.72572
101491.229463
101489.956942
101329.818072
101162.989829
101203.117334
101464.456923
101818.473516
101918.883952
101638.980104
101452.186234
101146.304062
101144.971131
101267.704547
101475.180902
101620.591637
101704.751635
101750.32384
101678.131069
101281.258972
101256.382194
101441.181741
101488.485997
101342.939739
101238.63255
101291.886371
101501.847101
101805.417343
101923.083638
101531.758516
101231.188281
101128.386658
101167.890777
101336.595351
101514.269819
101635.484191
101717.115271
101761.118405
101720.65788
101398.566578
101255.078133
101396.124152
101485.868759
101374.297188
101384.231278
101439.615703
101511.921835
101767.59631
101924.907537
101354.326535
101151.315538
101123.280078
101196.814361
101354.265605
101508.658609
101625.936604
101706.809502
101756.244105
101755.50257
101599.991751
101294.147835
101261.245974
101385.944531
101451.123112
101550.195359
101518.30192
101506.52291
101785.15975
101920.771945
101269.280882
101146.826322
101130.447238
101209.589686
101346.566075
101490.267627
101604.369952
101682.603264
101738.253923
101746.123476
101666.879809
101180.816979
100939.917336
101108.453704
101442.813922
101534.642232
101534.1666
101499.389999
101854.326587
101909.230538
101269.80709
101165.933845
101158.944815
101219.788385
101329.745889
101460.649789
101582.84336
101674.070647
101730.737729
101703.88812
101333.4124
100857.87384
100802.540811
100814.254705
101233.269816
101518.336701
101453.466381
101549.581772
101883.921207
101897.303073
101325.959063
101234.42519
101212.380928
101238.229593
101317.690333
101453.558178
101591.29995
101669.735539
101634.431392
101191.399341
100829.009437
100797.421407
100799.446953
100793.776131
100831.022775
101080.417955
101208.513651
101528.098327
101872.30788
101891.525471
101461.784745
101364.238305
101292.307753
101267.086479
101322.907393
101469.076584
101617.654221
101614.588403
101240.334059
100827.066871
100797.276345
100798.063534
100795.681028
100796.393351
100791.730023
100794.465728
100925.215424
101387.928833
101847.371031
101894.720656
101595.857394
101519.828092
101398.529931
101315.447781
101338.528524
101474.269931
101610.365171
101541.101243
101156.914785
100857.40147
100810.960998
100813.451839
100818.575527
100795.791877
100796.546927
100795.171238
100909.882968
101358.377189
101840.431939
101903.154474
101621.142742
101612.08678
101524.836844
101387.891645
101334.379807
101457.163747
101598.347607
101589.368201
101355.213031
101080.640484
100916.302078
100847.742667
100852.991844
100862.083884
100868.599458
100884.858981
101008.979149
101429.306521
101862.703847
101910.444234
101614.199006
101615.458989
101609.306491
101480.417762
101328.640431
101408.529653
101577.420779
101652.278797
101644.603471
101506.48094
101260.581984
100985.478594
100798.032297
100792.206053
100998.827045
101018.951371
101084.560413
101395.865066
101844.295099
101913.791202
101614.005184
101613.867619
101615.696783
101569.080862
101318.878084
101326.236915
101503.141385
101653.580204
101738.216215
101777.082663
101700.639792
101328.883564
100774.076154
100766.25113
100954.535694
101041.436876
101064.43796
101187.787462
101705.538536
101914.214105
101617.481919
101619.760112
101618.717785
101591.102423
101245.156305
101207.933427
101385.149088
101566.15622
101702.735712
101808.074888
101861.700625
101676.218382
100858.395816
100764.70445
100844.317145
101021.336128
101080.739441
101079.644669
101458.667623
101912.081133
101626.305999
101625.278488
101628.668059
101500.170244
101058.783228
101099.655651
101285.837502
101470.146725
101637.691605
101784.44851
101873.084438
101767.626774
100806.833866
100754.577953
100802.052844
101051.644082
101187.694886
101076.360551
101276.172357
101908.336584
101629.780017
101632.544457
101540.873417
101116.168125
100918.251184
101064.971295
101269.560601
101469.027933
101637.244199
101783.215399
101876.392522
101689.674466
100749.399303
100754.309503
100845.108994
101188.442809
101328.579914
101073.138195
101206.52081
101908.198356
101568.399614
101390.224979
101010.926134
100794.130573
100884.281221
101070.606182
101277.405462
101481.180071
101657.775089
101805.121546
101877.356581
101375.074112
100748.501096
100746.362775
100955.562448
101387.871503
101423.122286
101051.504044
101207.262463
101914.947455
101082.995715
100776.91366
100602.886447
100675.977337
100867.868101
101073.591602
101293.567974
101513.271497
101708.547721
101827.73631
101829.163297
100898.812942
100739.893403
100744.640692
101096.710521
101509.354928
101464.764896
100964.603664
101303.745348
101923.086705
100573.635123
100478.167873
100503.859447
100653.580385
100870.272173
101098.883975
101343.404433
101581.800762
101785.642293
101831.796742
101659.876899
100738.679949
100740.836793
100846.818618
101256.048828
101516.543645
101406.300277
100809.340741
101378.894799
101927.033127
100426.18172
100434.454206
100507.909649
100675.022193
100918.997273
101175.057871
101439.047696
101684.234732
101831.645211
101838.360058
101327.608723
100738.793731
100740.932555
101023.356899
101409.115844
101518.441346
101145.255276
100620.4819
101357.270139
101931.052819
100409.28032
100440.962145
100552.058194
100764.182782
101027.956084
101296.574871
101562.219292
101789.206606
101840.176471
101802.713341
101031.785328
100736.790724
100909.751217
101277.396081
101424.385323
101288.937025
100694.214595
100618.329811
101319.008917
101935.108943
100410.223427
100454.684915
100635.71541
100937.903614
101229.676911
101504.763157
101733.941071
101848.297319
101849.245348
101575.61634
100858.343878
100834.82927
101108.485232
101474.235832
101428.458947
100819.383058
100618.502279
100618.430658
101042.73615
101938.853679
)
;

boundaryField
{
    emptyPatch
    {
        type            empty;
    }
    minY
    {
        type            zeroGradient;
    }
    maxY
    {
        type            prghTotalPressure;
        U               U.gas;
        p0              uniform 100000;
        value           nonuniform List<scalar> 
40
(
100225.887168
100265.551486
100295.365935
100318.216424
100327.224103
100334.390248
100348.917859
100383.723457
100453.101426
100563.715868
100705.447084
100872.212816
101048.03725
101147.988299
101082.986889
100814.989826
100531.225814
100432.779547
100414.576109
100411.405125
100411.296946
100455.916709
100637.709184
100940.720249
101233.195184
101508.834336
101738.331945
101852.576482
101853.106504
101580.44493
100860.68218
100836.039952
101110.216286
101470.866654
101427.021341
100820.540736
100618.936235
100618.912493
100001.136756
101943.058494
)
;
    }
    water_to_cooler
    {
        type            fixedFluxPressure;
        gradient        uniform 0;
        value           nonuniform List<scalar> 
38
(
101819.486496
101836.569326
101843.326061
101845.14262
101847.179459
101849.381845
101852.880321
101856.984973
101861.568815
101867.188845
101873.535805
101880.250391
101887.542414
101894.759114
101901.57661
101908.104116
101913.876553
101918.883952
101923.083638
101924.907537
101920.771945
101909.230538
101897.303073
101891.525471
101894.720656
101903.154474
101910.444234
101913.791202
101914.214105
101912.081133
101908.336584
101908.198356
101914.947455
101923.086705
101927.033127
101931.052819
101935.108943
101938.853679
)
;
    }
    water_to_heater
    {
        type            fixedFluxPressure;
        gradient        uniform 0;
        value           nonuniform List<scalar> 
59
(
100620.897393
100620.897393
100631.93133
100692.746739
100763.44351
100763.44351
100772.57903
100772.57903
100776.527825
100776.527825
100747.366669
100662.487043
100522.676704
100522.676704
100471.205641
100471.205641
100469.327972
100469.327972
100473.4845
100472.482006
100475.846844
100475.846844
100474.86886
100474.86886
100476.804915
100476.804915
100470.259503
100473.621365
100466.789599
100466.789599
100471.313674
100471.313674
100468.336813
100468.336813
100471.463403
100546.498664
100738.097073
100738.097073
100895.079886
100895.079886
100872.82
100872.82
100831.55167
100832.768963
100837.034823
100837.034823
100847.588664
100847.588664
100779.034238
100779.034238
100582.669754
100366.46717
100251.637446
100251.637446
100224.131744
100224.131744
100224.802302
100224.802302
100225.509033
)
;
    }
    procBoundary0to1
    {
        type            processor;
        value           nonuniform List<scalar> 
41
(
100673.741961
100639.827988
100757.578731
100908.652358
101116.71506
101308.591861
101417.793009
101485.012412
101531.517717
101555.740556
101563.144223
101566.734248
101569.87892
101571.870519
101564.909075
101444.679165
101263.322699
101186.479675
101158.778826
101127.430036
100691.498243
100656.168626
100640.741177
100636.357923
100637.012795
100641.850904
100658.226802
100727.221955
100868.215192
101045.407098
101315.843446
101582.180232
101672.75204
101580.093806
101403.164487
101800.353368
101069.812467
101008.165922
100937.01791
100864.856203
100864.856203
)
;
    }
}


// ************************************************************************* //
