/*--------------------------------*- C++ -*----------------------------------*\
| =========                 |                                                 |
| \\      /  F ield         | OpenFOAM: The Open Source CFD Toolbox           |
|  \\    /   O peration     | Version:  2312                                  |
|   \\  /    A nd           | Website:  www.openfoam.com                      |
|    \\/     M anipulation  |                                                 |
\*---------------------------------------------------------------------------*/
FoamFile
{
    version     2.0;
    format      ascii;
    arch        "LSB;label=32;scalar=64";
    class       volScalarField;
    location    "0.09/water";
    object      alpha.gas;
}
// * * * * * * * * * * * * * * * * * * * * * * * * * * * * * * * * * * * * * //

dimensions      [0 0 0 0 0 0 0];

internalField   nonuniform List<scalar> 
1503
(
0.196788868686
0.120340073859
0.0347105782386
0.00905295336283
0.00181281052489
0.000308569049339
4.15844246868e-05
3.20980691179e-06
6.41852331482e-08
4.94119948941e-10
2.35159014095e-12
9.59681629954e-15
1e-15
1e-15
1e-15
1e-15
1e-15
1e-15
1e-15
1e-15
0.613295062351
0.278234685381
0.121812433121
0.0438052684355
0.014705820031
0.00416976840293
0.000962900492934
0.000167835426752
1.93376948025e-05
6.70899414616e-07
3.31968021759e-09
6.17283245042e-12
8.88508545857e-15
1e-15
1e-15
1e-15
1e-15
1e-15
1e-15
1e-15
0.613294019074
0.352862553729
0.180419785112
0.0800854311437
0.0325344269059
0.011489625837
0.00333042266341
0.000770802417395
0.000132181542739
1.08206730372e-05
1.08748744935e-07
1.53246619193e-10
1.48476256558e-13
1.0407613284e-15
1e-15
1e-15
1e-15
1e-15
1e-15
1e-15
0.613295062351
0.423017993474
0.249792256891
0.129330351052
0.0600275196801
0.024303772601
0.0082414011148
0.00229870220014
0.000501425210963
6.32225267781e-05
1.75248571838e-06
2.2512672299e-09
1.53390673004e-12
1.91948343439e-15
1e-15
1e-15
1e-15
1e-15
1e-15
1e-15
0.602079926962
0.467848632136
0.322213829123
0.195397801945
0.104556847577
0.0483671641827
0.018809822462
0.00599472815081
0.00148410731423
0.000226539171871
1.1422460443e-05
2.98509037207e-08
1.54074271377e-11
9.04788829462e-15
1.00007658051e-15
1e-15
1e-15
1e-15
1e-15
1e-15
0.576898038871
0.485522715833
0.379868737636
0.267984419048
0.167713124219
0.0910871499232
0.0416363888282
0.0152569827366
0.00412901965428
0.000684441728759
4.55324729063e-05
3.52644176869e-07
1.72485532262e-10
9.46870979773e-14
1.06080248953e-15
1e-15
1e-15
1e-15
1e-15
1e-15
0.55394138284
0.486094927058
0.415125513485
0.33055328549
0.238637344355
0.152410355793
0.0833579268672
0.0364738658525
0.0113307478569
0.00206788254617
0.000163948242496
3.03860257166e-06
2.1899581701e-09
1.66900545967e-12
2.497480265e-15
1.00057533131e-15
1e-15
1e-15
1e-15
1e-15
0.549790203736
0.487187188684
0.433247324693
0.373538988048
0.300532843338
0.220141362811
0.141959067891
0.075140502374
0.0284828819265
0.00627216423087
0.000622176775891
2.08238629697e-05
7.20692657636e-08
5.46955995782e-11
4.22997893163e-14
1.02451084484e-15
1e-15
1e-15
1e-15
1e-15
0.551836637609
0.48755619782
0.447574352602
0.403824231709
0.348200259954
0.280720558335
0.206039567826
0.129206514429
0.0607458238242
0.0173227765583
0.00234499454489
0.000126308912608
2.02015582363e-06
1.63771338596e-09
9.68018722366e-13
1.45371768922e-15
1e-15
1e-15
1e-15
1e-15
0.578749015346
0.491314160919
0.457057864535
0.423692056391
0.38117902719
0.327271392524
0.263088438655
0.187590837437
0.106335899546
0.0396069455546
0.00764852609099
0.000656155871845
2.26447243164e-05
1.02541244093e-07
3.94354016991e-11
1.41870647147e-14
1.00242971784e-15
1e-15
1e-15
1e-15
0.59472075461
0.494685692066
0.458252729844
0.432552975242
0.401545402193
0.360556205417
0.307535694875
0.238699067426
0.154934120782
0.0724976877738
0.0198497002291
0.00270413115513
0.000164235862362
2.81861773845e-06
1.01939621632e-09
2.5923853966e-13
1.06184460115e-15
1.00281564437e-15
1.00292473843e-15
1.00189925697e-15
0.591527518341
0.492582609396
0.45456304338
0.433453090278
0.413305463272
0.384583762264
0.341551081886
0.278513249747
0.196637807221
0.109357045355
0.0408870454421
0.00868740990231
0.00088601428975
2.95630455659e-05
8.69361035058e-08
5.73530490436e-12
2.33895899719e-15
1.00650164535e-15
1.00575971066e-15
1.00515807323e-15
0.595245427348
0.488175108856
0.446506595066
0.430871706612
0.42007491603
0.403108288657
0.369101090326
0.309091771819
0.228775487965
0.144047140595
0.0701242279162
0.022415649639
0.00365604586631
0.000199142761606
1.81105946006e-06
1.09042755007e-10
2.45780686768e-14
1.01823882104e-15
1.00796750059e-15
1.00614599963e-15
0.591527518341
0.485389940085
0.446672661453
0.431528877265
0.427095530532
0.418539698666
0.390711061771
0.331325413273
0.252159548686
0.174571975284
0.105934964026
0.0481128210728
0.0118136503678
0.00096560034498
1.46840570936e-05
5.90697372786e-09
2.5107611884e-13
1.12061073765e-15
1.02145075084e-15
1.00799976964e-15
0.595377013542
0.485262298597
0.452104927143
0.438515662751
0.436931311314
0.429890454558
0.399819161058
0.339664034848
0.265941457687
0.200637189817
0.146411800712
0.0878255991989
0.0299288951271
0.00338012999027
7.19075581545e-05
1.15646552431e-07
2.76731412292e-12
2.12978730502e-15
1.17202587852e-15
1.02827008324e-15
0.591275261713
0.487396373253
0.464137643903
0.453433572796
0.449707649029
0.436891200479
0.399311613931
0.33784237985
0.271201204942
0.222985680305
0.189947287603
0.139073545859
0.0596953679614
0.00865363087061
0.000244888512648
9.17168356364e-07
4.50786810658e-11
1.68661350863e-14
2.74797873204e-15
1.26558580655e-15
0.595003882788
0.491648242582
0.477801078759
0.470201641161
0.462756784641
0.440030155326
0.394770853017
0.331034027636
0.271849446254
0.245665796325
0.235790772637
0.195108875328
0.0960377445703
0.0171050587275
0.000688240700472
5.67230585435e-06
1.59029556891e-09
3.62912690192e-13
1.76478516051e-14
3.73120153453e-15
0.590936425701
0.496995649653
0.488034080266
0.481842697234
0.470239026462
0.438632357998
0.384783310433
0.319493163747
0.274958145468
0.274143498592
0.283061450804
0.246056183737
0.131208053885
0.0292908118218
0.00196364586327
4.02364266417e-05
1.58224225359e-07
2.24643896544e-11
1.48299978832e-13
2.67147487981e-14
0.594401596433
0.502994346839
0.501236952543
0.493045958297
0.473466921365
0.432424903127
0.370595282315
0.311376665542
0.290565235638
0.309407034476
0.3277626828
0.283252590413
0.162459354058
0.0487230545888
0.00616886862282
0.00029240416653
3.34174461976e-06
5.25673623171e-10
1.18355994709e-12
2.20532707554e-13
0.590936425701
0.511120601234
0.516200597082
0.505481671425
0.476366444295
0.424170040782
0.359842590731
0.313240608814
0.317223563958
0.349385617909
0.354650768617
0.301644385402
0.191715568477
0.0814801614219
0.0190366619649
0.00173598473034
3.51481954915e-05
4.13027845967e-08
9.00178599144e-12
1.70124723494e-12
0.593699382715
0.517860691431
0.528137653428
0.516254084782
0.480191188151
0.420370207376
0.359348643316
0.328798818517
0.345808777812
0.366353753164
0.357625010052
0.305448962545
0.220180391571
0.130177939516
0.0496570762671
0.00738653063669
0.000223477652696
6.78178568684e-07
6.19067956799e-11
1.1966414137e-11
0.590506867427
0.519832232901
0.528195119013
0.520238321403
0.484093131281
0.421469612219
0.36380178603
0.351281158111
0.362835843532
0.366395908592
0.353104640704
0.301990792932
0.246120548825
0.188354013422
0.100204027581
0.0210212185794
0.000873675469577
4.22700009556e-06
4.36112598069e-10
7.64767071267e-11
0.592574874637
0.519298637122
0.526981862055
0.519036736796
0.485493466848
0.426089254231
0.374772926247
0.363885669079
0.364041337434
0.363706363638
0.337676659928
0.291238572252
0.268250551468
0.240159553302
0.15087330982
0.0390816682186
0.00213614747053
1.51996341357e-05
5.97215205305e-09
4.40483353538e-10
0.590177766071
0.519353373075
0.526099967535
0.517779693599
0.485529145094
0.431253281302
0.384526091821
0.366152726215
0.362683712892
0.349688207931
0.3099766012
0.282749178939
0.285412593736
0.272084689638
0.179471601678
0.0529205850572
0.00379972813294
4.06121072973e-05
4.52660902152e-08
2.27199281911e-09
0.590596173597
0.519187404833
0.526157836534
0.518424051292
0.48595530073
0.432560638417
0.386613416648
0.364859021917
0.351696657191
0.321678332598
0.282903921441
0.282583008306
0.301411844842
0.291252413675
0.195147098954
0.0645208712957
0.00632099758364
0.000108929607949
2.41607975438e-07
1.0727015419e-08
0.588888633774
0.519353373075
0.527298285523
0.52103083596
0.487410122342
0.432619397649
0.385418951065
0.356851471839
0.328459829832
0.289083830842
0.278072534207
0.284562523121
0.337108479307
0.321143426281
0.220332124369
0.0864639582927
0.0125792487661
0.000354458005805
1.20225745149e-06
4.98098224654e-08
0.594445809942
0.523145402286
0.534383523159
0.527422334669
0.490449430223
0.432222682957
0.379933220748
0.339611309109
0.300112155904
0.278072534207
0.27811569387
0.3148974248
0.387004407581
0.379537110659
0.289095319411
0.147733301219
0.0320249757223
0.00135391688578
6.10527403822e-06
2.63216921016e-07
0.607413218128
0.542862717694
0.549752050138
0.539724369023
0.496461029385
0.432169287887
0.371936530388
0.321747795075
0.282106344027
0.27811569387
0.288840288312
0.38297403746
0.389350239836
0.387772185002
0.3816509662
0.256516181212
0.081555041177
0.00555534791157
4.0338360519e-05
1.67121392677e-06
0.610273136743
0.567182642211
0.577889660494
0.563493437211
0.511353274468
0.436755896959
0.37054894241
0.316559386865
0.282024554482
0.283703975222
0.343334997331
0.389157449186
0.387772185002
0.38933693367
0.387772185002
0.349139508161
0.165315262605
0.0196693008095
0.000285175459787
9.7082240172e-06
0.607413218128
0.58755436361
0.606386378166
0.592855691319
0.53870619382
0.453814841343
0.376180139512
0.321035500619
0.298132047292
0.318134785974
0.385091437943
0.387772185002
0.389155417072
0.387772185002
0.388989750585
0.387772185002
0.248267992151
0.0497401173423
0.00150289083745
4.4213057973e-05
0.612172860181
0.601094204556
0.608479827072
0.607386189173
0.567518780213
0.484635386884
0.39820802149
0.344895572617
0.343542752046
0.369697075939
0.385963353804
0.386024741787
0.387772185002
0.388703167893
0.387772185002
0.388444948058
0.291770265548
0.0877305920865
0.00500260451254
0.000161034558872
0.607625276198
0.607506306613
0.607386189173
0.607956266374
0.584024101829
0.517354476291
0.43785253063
0.392750011884
0.395801805853
0.402073261496
0.386226281299
0.362884083498
0.359992551658
0.382275909952
0.388630222919
0.387772185002
0.305773370978
0.114693598456
0.0105269810722
0.000453825993943
0.612694723823
0.607532737363
0.60926100206
0.607386189173
0.589431081862
0.536797625546
0.473344353726
0.43511090091
0.4233533059
0.407143044987
0.375390482382
0.325097444174
0.309578711838
0.347005409069
0.387772185002
0.388053233095
0.308415649437
0.128226960539
0.0157766588063
0.000974520987879
0.607625276198
0.608728282788
0.607386189173
0.608286807413
0.59115158287
0.541642680858
0.484047289603
0.446750666445
0.426556524751
0.40348291169
0.355052380289
0.293731640493
0.283544575406
0.307006544408
0.367002457808
0.38242353812
0.306264244858
0.13578309055
0.0195954566797
0.0016950652698
0.611820274433
0.607273919253
0.609721278712
0.607386189173
0.592789661257
0.542904296132
0.483996682236
0.446045074097
0.423478093627
0.390814104394
0.330993807136
0.283125962362
0.283022571555
0.284060156953
0.324216519682
0.356509909655
0.298798572288
0.141754046178
0.0226175359581
0.00259481941783
0.607413218128
0.608677979653
0.607386189173
0.608542930373
0.595332552124
0.545046395135
0.483032195912
0.44102117622
0.411892231657
0.368993376757
0.30737094553
0.283022571555
0.282598396633
0.283022571555
0.287079974821
0.321396775913
0.290601132322
0.149729613784
0.0256545204847
0.00372551388306
0.61061272672
0.606485066316
0.60980124248
0.607386189173
0.600520817512
0.550605522141
0.483678829771
0.433182523014
0.394946435801
0.34687556863
0.292076698378
0.28273395294
0.283022571555
0.282112842317
0.283022571555
0.288930401339
0.289615455998
0.16328362912
0.0292741163392
0.00523504402445
0.607386189173
0.608201887077
0.607386189173
0.608785687919
0.607206694515
0.560106672507
0.488392384414
0.43243791492
0.388222818922
0.3395812729
0.28897731505
0.283022571555
0.28203542222
0.283022571555
0.281595645305
0.283022571555
0.302774425435
0.180806839531
0.0334114763705
0.00738944158578
1e-15
1e-15
1e-15
1e-15
1e-15
1e-15
1e-15
1e-15
1e-15
1e-15
1e-15
1e-15
1e-15
1e-15
1e-15
1e-15
1e-15
1e-15
1e-15
1e-15
1e-15
1e-15
1e-15
1e-15
1e-15
1e-15
1e-15
1e-15
1e-15
1e-15
1e-15
1e-15
1e-15
1e-15
1e-15
1e-15
1e-15
1e-15
1e-15
1e-15
1e-15
1e-15
1e-15
1e-15
1e-15
1e-15
1e-15
1e-15
1e-15
1e-15
1e-15
1e-15
1e-15
1e-15
1e-15
1e-15
1e-15
1e-15
1e-15
1e-15
1e-15
1e-15
1e-15
1e-15
1e-15
1e-15
1e-15
1e-15
1e-15
1e-15
1e-15
1e-15
1e-15
1e-15
1e-15
1e-15
1e-15
1e-15
1e-15
1e-15
1e-15
1e-15
1e-15
1e-15
1e-15
1e-15
1e-15
1e-15
1e-15
1e-15
1e-15
1e-15
1e-15
1e-15
1e-15
1e-15
1.00010757092e-15
1e-15
1e-15
1e-15
1e-15
1e-15
1e-15
1e-15
1e-15
1e-15
1e-15
1e-15
1e-15
1e-15
1e-15
1e-15
1e-15
1e-15
1e-15
1e-15
1.00538393694e-15
1e-15
1e-15
1.02518492626e-15
1e-15
1e-15
1e-15
1e-15
1e-15
1e-15
1e-15
1e-15
1e-15
1.00018044342e-15
1.00022813506e-15
1e-15
1e-15
1e-15
1e-15
1.00274119794e-15
1.00537961161e-15
1e-15
1e-15
1.18134683365e-15
1e-15
1e-15
1e-15
1e-15
1e-15
1e-15
1e-15
1.00004477687e-15
1.00049893367e-15
1.00092943944e-15
1.00096858607e-15
1.00034637865e-15
1e-15
1e-15
1.00053252489e-15
1.00730456523e-15
1.00478512854e-15
1e-15
1e-15
1.20705258889e-15
1e-15
1e-15
1e-15
1e-15
1e-15
1e-15
1.00045853347e-15
1.00123765759e-15
1.00286858936e-15
1.00392791447e-15
1.00296567284e-15
1.00163719709e-15
1e-15
1e-15
1.00409851069e-15
1.0125242433e-15
1.00235259764e-15
1e-15
1e-15
1.20802531972e-15
1e-15
1.00054022843e-15
1.00084102494e-15
1.00102009169e-15
1.00139296316e-15
1.00203963015e-15
1.00266092824e-15
1.00439803447e-15
1.00599405375e-15
1.00653401589e-15
1.00574730169e-15
1.00357480752e-15
1.00063716861e-15
1.00048577287e-15
1.0101903855e-15
1.01652153627e-15
1e-15
1e-15
1e-15
1.20720286785e-15
1.00225618369e-15
1.00385666202e-15
1.00402323901e-15
1.00410964356e-15
1.00435977665e-15
1.00473202765e-15
1.00524877282e-15
1.00654917333e-15
1.00679639948e-15
1.00680351161e-15
1.00668086202e-15
1.00515794943e-15
1.00340362872e-15
1.00487688695e-15
1.0170095851e-15
1.01869244128e-15
1e-15
1e-15
1e-15
1.20773484574e-15
1.00524627649e-15
1.00566500951e-15
1.00568542333e-15
1.00570640725e-15
1.00582759559e-15
1.00607832221e-15
1.00658543435e-15
1.00678446194e-15
1.00679323689e-15
1.0067703608e-15
1.00669740761e-15
1.00587160857e-15
1.00532113875e-15
1.00994421362e-15
1.02322380078e-15
1.02019333648e-15
1e-15
1e-15
1e-15
1.20734309907e-15
1.00599213468e-15
1.00607547842e-15
1.00606345865e-15
1.00606226658e-15
1.00614507324e-15
1.00635832612e-15
1.00679587197e-15
1.00679189866e-15
1.00676435384e-15
1.00672059158e-15
1.00668137356e-15
1.00619245028e-15
1.00649547299e-15
1.01385600747e-15
1.02868680206e-15
1.02197050985e-15
1e-15
1.0013860279e-15
1e-15
1.20759495581e-15
1.00625352101e-15
1.0061709894e-15
1.00615254525e-15
1.00614448345e-15
1.00621602e-15
1.00643510233e-15
1.00682621007e-15
1.00679402647e-15
1.00674245413e-15
1.00669202004e-15
1.00663435567e-15
1.00635995363e-15
1.00741136789e-15
1.01699886569e-15
1.03376973295e-15
1.02457514332e-15
1e-15
1.00549235258e-15
1e-15
1.20747996462e-15
1.007817076e-15
1.00619862478e-15
1.00617886238e-15
1.00617298237e-15
1.00626307233e-15
1.00651480253e-15
1.00682839533e-15
1.00679204407e-15
1.00673422727e-15
1.00661489717e-15
1.00643974773e-15
1.00638102631e-15
1.00834591254e-15
1.0200443912e-15
1.03903083656e-15
1.02922923521e-15
1e-15
1.0070154826e-15
1e-15
1.20755414076e-15
1.03009303284e-15
1.00746462058e-15
1.00618888873e-15
1.00618389219e-15
1.00633435658e-15
1.00665400528e-15
1.00682927319e-15
1.00678903689e-15
1.0066818753e-15
1.00638090597e-15
1.00637773827e-15
1.00638090597e-15
1.00928740955e-15
1.02309698344e-15
1.04548113516e-15
1.03826674609e-15
1.00290077056e-15
1.00701583084e-15
1e-15
1.20762829917e-15
1.29798371652e-15
1.02798883829e-15
1.00762346167e-15
1.00624138943e-15
1.00641138513e-15
1.00667428926e-15
1.00679752429e-15
1.00673780076e-15
1.00650578851e-15
1.00637747726e-15
1.00638090597e-15
1.00637890549e-15
1.00940332009e-15
1.02391895711e-15
1.05199810747e-15
1.04874104579e-15
1.00767647489e-15
1.00668521215e-15
1e-15
1.20770322337e-15
4.11271865593e-15
1.28079228162e-15
1.031183487e-15
1.0086307058e-15
1.00667675306e-15
1.00666641332e-15
1.00666971425e-15
1.00656969212e-15
1.00638299084e-15
1.00638090597e-15
1.00636673438e-15
1.00638090597e-15
1.00922027966e-15
1.02361938103e-15
1.05198586742e-15
1.05197512442e-15
1.01118546374e-15
1.00569878588e-15
1e-15
1.20779313377e-15
3.04944193611e-14
3.99305104269e-15
1.32182480254e-15
1.04243377955e-15
1.01008411916e-15
1.00675366748e-15
1.006461114e-15
1.00638827969e-15
1.0063827105e-15
1.00637205044e-15
1.00638090597e-15
1.00637339368e-15
1.00865886025e-15
1.0225470501e-15
1.05185346278e-15
1.05198586742e-15
1.01514599266e-15
1.00373804437e-15
1e-15
1.21092139097e-15
2.52785504975e-13
2.98566146978e-14
4.45936694635e-15
1.44931561669e-15
1.0561897807e-15
1.00997994052e-15
1.00649791886e-15
1.00638592488e-15
1.00638253278e-15
1.00638092138e-15
1.00635573772e-15
1.00638090597e-15
1.00774849029e-15
1.02054727043e-15
1.04962734813e-15
1.0518013067e-15
1.02037718666e-15
1.00079247347e-15
1e-15
1.23304942406e-15
1.94471362744e-12
2.50610297313e-13
3.45295556329e-14
5.77926037953e-15
1.60286946651e-15
1.05468967907e-15
1.00796110669e-15
1.00638880706e-15
1.00638489944e-15
1.00636707532e-15
1.00638090597e-15
1.00636282999e-15
1.00694114019e-15
1.01755622639e-15
1.04494814436e-15
1.05118259764e-15
1.02657696323e-15
1e-15
1e-15
1.33490631345e-15
1.35675064224e-11
1.94076746785e-12
2.9160351086e-13
4.66899567442e-14
7.31344515227e-15
1.57978118998e-15
1.02891141184e-15
1.00645184197e-15
1.00638407609e-15
1.00638094951e-15
1.0063492152e-15
1.00638090597e-15
1.00642887082e-15
1.01422222153e-15
1.03793994774e-15
1.05020558837e-15
1.03268202087e-15
1.00050891546e-15
1e-15
1.67434549955e-15
8.49878197627e-11
1.35143266138e-11
2.2560664919e-12
3.91650940038e-13
6.0327399369e-14
7.01746705812e-15
1.28134553003e-15
1.00912176432e-15
1.00638750824e-15
1.00636541112e-15
1.00638090597e-15
1.00635003443e-15
1.00640297934e-15
1.01325112836e-15
1.03332027577e-15
1.0500613233e-15
1.03933505204e-15
1.00820759702e-15
1.03108734353e-15
2.61890969336e-15
4.76443618958e-10
8.44533666624e-11
1.5745448028e-11
3.00653560347e-12
5.01848260704e-13
5.73281300294e-14
3.97491750029e-15
1.04652863909e-15
1.00638288258e-15
1.00638090597e-15
1.00633711056e-15
1.00638090597e-15
1.00704387248e-15
1.01410599915e-15
1.03349086935e-15
1.05143332093e-15
1.05101096404e-15
1.04069012367e-15
1.20666328703e-15
5.74754902407e-15
2.43598329277e-09
4.80974753773e-10
1.00247764347e-10
2.1073257858e-11
3.84775159669e-12
4.79749162279e-13
2.99042575342e-14
1.49985479835e-15
1.01053886014e-15
1.00840279656e-15
1.00851638891e-15
1.00929475934e-15
1.01318023703e-15
1.0208370782e-15
1.03910549943e-15
1.06036938417e-15
1.08065460257e-15
1.14527001482e-15
1.75598739637e-15
1.45711933749e-14
1.18256822459e-08
2.57102007769e-09
5.94995883642e-10
1.37095932567e-10
2.73324371777e-11
3.75248182454e-12
2.5865328924e-13
6.41283284753e-15
1.03686436492e-15
1.02933708436e-15
1.03341346705e-15
1.0362735358e-15
1.04090627891e-15
1.04980979911e-15
1.06744782421e-15
1.09641558591e-15
1.1643726335e-15
1.44345098947e-15
3.47166401884e-15
1.75901863118e-14
5.75102196432e-08
1.32524047298e-08
3.35274384806e-09
8.39493029899e-10
1.81873108861e-10
2.74089461416e-11
2.12640447792e-12
5.48801393139e-14
1.24681132566e-15
1.10913705536e-15
1.1185059417e-15
1.12755653649e-15
1.13458538848e-15
1.14594559423e-15
1.16559949016e-15
1.21304365532e-15
1.38928708918e-15
2.19793159353e-15
7.81479694745e-15
1.75534680677e-14
2.93377402715e-07
6.61604593366e-08
1.78838164943e-08
4.828226007e-09
1.1314745241e-09
1.86460704497e-10
1.62068765727e-11
4.89484031612e-13
3.41660481459e-15
1.37186805766e-15
1.35549527382e-15
1.38180097337e-15
1.39889334591e-15
1.416366692e-15
1.44415493473e-15
1.53418914928e-15
1.93380291545e-15
3.73631893836e-15
1.37536550985e-14
1.75946857931e-14
1.57302977871e-06
3.15350090285e-07
8.81490857719e-08
2.55381224375e-08
6.46925931308e-09
1.16415450161e-09
1.12916205216e-10
4.00193432171e-12
2.6171804951e-14
2.05933801727e-15
1.93284896424e-15
1.99828065711e-15
2.04721132045e-15
2.08060893899e-15
2.12672209509e-15
2.29858070971e-15
3.09445323603e-15
6.19623919057e-15
1.67563303149e-14
1.75534680677e-14
7.97926907265e-06
1.42592982549e-06
3.91185742727e-07
1.20945134638e-07
3.31801552179e-08
6.53119277117e-09
7.06515254158e-10
2.92648349084e-11
2.42717548784e-13
3.18550647968e-15
3.17453044408e-15
3.30235199937e-15
3.42590287953e-15
3.49214791022e-15
3.5711530317e-15
3.8699289289e-15
5.22184880834e-15
9.45746075085e-15
1.72621229532e-14
1.75900544662e-14
3.16808862514e-05
5.89511319416e-06
1.54382628447e-06
5.01810214582e-07
1.49305644e-07
3.2226334881e-08
3.89562581871e-09
1.88416315872e-10
2.04048687145e-12
5.05726252376e-15
5.5363019633e-15
5.67807764258e-15
5.94645831158e-15
6.07634049893e-15
6.19267395836e-15
6.60639631317e-15
8.44146336134e-15
1.28649130744e-14
1.7496882726e-14
1.75534680677e-14
9.5702697072e-05
2.05748071574e-05
5.34835856394e-06
1.8038654592e-06
5.79868640588e-07
1.37420299551e-07
1.85991576078e-08
1.05179420096e-09
1.48149122374e-11
1.5600284621e-14
9.32875225258e-15
9.26855974209e-15
9.73073018088e-15
9.9328829471e-15
1.00618541348e-14
1.03996577552e-14
1.21171387319e-14
1.51193082306e-14
1.75534680677e-14
1.75859125929e-14
0.000232263921815
5.80221931149e-05
1.613242867e-05
5.60329029775e-06
1.93048208512e-06
5.00619481352e-07
7.6045649779e-08
5.04483942578e-09
9.19883058692e-11
1.24591433802e-13
1.32017080594e-14
1.32258224324e-14
1.36849709319e-14
1.39117206694e-14
1.3940084851e-14
1.39555620369e-14
1.46975637238e-14
1.57661399479e-14
1.75729112114e-14
1.75534680677e-14
0.000473512181322
0.000136113585346
4.24246163483e-05
1.54434560831e-05
5.53144616943e-06
1.55582953616e-06
2.65763966015e-07
2.08443672646e-08
4.92156892329e-10
1.10952382913e-12
1.39497688679e-14
1.56036676508e-14
1.57633524099e-14
1.58836039723e-14
1.58274271867e-14
1.55889449981e-14
1.5484607086e-14
1.58131056772e-14
1.75534680677e-14
1.7581329429e-14
0.00084759209224
0.0002787930152
9.99696084123e-05
3.89167345754e-05
1.42326655741e-05
4.17035207732e-06
7.98166529646e-07
7.46354608073e-08
2.28179350794e-09
8.28946898704e-12
1.31631249339e-14
1.60645886885e-14
1.6108666127e-14
1.61177485448e-14
1.61095886925e-14
1.58044759375e-14
1.55482734119e-14
1.58125863677e-14
1.75781895089e-14
1.75534680677e-14
0.00139544873014
0.000525050509276
0.000217574769701
9.20005162977e-05
3.45110842327e-05
1.01684416594e-05
2.10336854711e-06
2.34519104844e-07
9.25348740827e-09
5.14689513894e-11
1.21361832823e-14
1.60628439259e-14
1.61103386843e-14
1.61177792776e-14
1.61089202242e-14
1.5796133201e-14
1.5548844203e-14
1.58125004599e-14
1.75534680677e-14
1.75752290542e-14
0.00219895398797
0.000945684278405
0.00044790926355
0.000206719398021
8.13434584511e-05
2.41780169453e-05
5.10235167167e-06
6.61674835455e-07
3.34575377165e-08
2.75318851906e-10
1.212889861e-14
1.60041865729e-14
1.60761302741e-14
1.61062314642e-14
1.60643988528e-14
1.57423596066e-14
1.55493139804e-14
1.58206594677e-14
1.75837822226e-14
1.75534680677e-14
0.00339232401564
0.00165111554713
0.000880210203387
)
;

boundaryField
{
    emptyPatch
    {
        type            empty;
    }
    minY
    {
        type            fixedValue;
        value           uniform 1e-15;
    }
    maxY
    {
        type            inletOutlet;
        phi             phi.gas;
        inletValue      nonuniform List<scalar> 0();
        value           nonuniform List<scalar> 0();
    }
    maxX
    {
        type            zeroGradient;
    }
    water_to_heater
    {
        type            zeroGradient;
    }
    procBoundary2to3
    {
        type            processor;
        value           nonuniform List<scalar> 
41
(
0.609399193826
0.606199329027
0.609740281611
0.607206694515
0.607779849546
0.571376439178
0.501465616783
0.438158133483
0.390508926441
0.34090053857
0.289606942737
0.282538138202
0.283022571555
0.28107602294
0.283022571555
0.286593663187
0.35821360906
0.206232704555
0.0396703185037
0.0106937375374
0.000444897187593
0.000187145043531
5.81020034314e-05
1.23851600163e-05
1.72359388669e-06
1.09626641327e-07
1.30613575664e-09
2.30995888469e-14
1.58520462026e-14
1.5985896337e-14
1.60397005595e-14
1.59341425993e-14
1.56504739743e-14
1.55497837579e-14
1.585494243e-14
1.75534680677e-14
1.75671074201e-14
0.00513592382157
0.00276236011445
0.000444897187593
0.00163638820549
)
;
    }
}


// ************************************************************************* //
