/*--------------------------------*- C++ -*----------------------------------*\
| =========                 |                                                 |
| \\      /  F ield         | OpenFOAM: The Open Source CFD Toolbox           |
|  \\    /   O peration     | Version:  2312                                  |
|   \\  /    A nd           | Website:  www.openfoam.com                      |
|    \\/     M anipulation  |                                                 |
\*---------------------------------------------------------------------------*/
FoamFile
{
    version     2.0;
    format      ascii;
    arch        "LSB;label=32;scalar=64";
    class       surfaceScalarField;
    location    "0.95/water";
    object      phi;
}
// * * * * * * * * * * * * * * * * * * * * * * * * * * * * * * * * * * * * * //

dimensions      [0 3 -1 0 0 0 0];

oriented        oriented;

internalField   nonuniform List<scalar> 
2916
(
2.34029541031e-07
7.20591695804e-07
2.53313237736e-07
7.35493906491e-07
2.71370104944e-07
7.64078911958e-07
2.86042883946e-07
7.96583022804e-07
2.95744810633e-07
8.18280306589e-07
2.98976045755e-07
8.16469170009e-07
2.94103302771e-07
7.87779462406e-07
2.84025637526e-07
7.44625798527e-07
2.72413076645e-07
7.04464876734e-07
2.62080923782e-07
6.78119976961e-07
2.53881857068e-07
6.65901216055e-07
2.471520115e-07
6.58258340488e-07
6.47327294397e-07
2.40829216794e-07
1.59762806708e-07
3.45757888008e-07
1.46065617259e-07
4.89311546468e-07
1.41300579643e-07
5.71425283934e-07
1.41095795183e-07
6.31354873179e-07
1.43450770727e-07
6.84684203045e-07
1.58632833904e-07
7.19961540697e-07
1.87972431488e-07
6.96004983682e-07
2.14696132429e-07
6.93701952274e-07
2.38628531897e-07
7.11446933536e-07
2.60637930721e-07
7.41974079607e-07
2.79961286305e-07
7.77169343486e-07
2.95600268168e-07
8.02552809784e-07
3.0605031564e-07
8.0593249432e-07
3.08436518584e-07
7.85311914881e-07
3.04257755138e-07
7.48732721004e-07
2.96346702466e-07
7.12317145463e-07
2.87154651452e-07
6.87265268046e-07
2.78272147093e-07
6.74742963391e-07
2.70310657284e-07
6.66180488773e-07
6.54439316675e-07
2.6316050872e-07
1.53571196412e-07
3.49404069179e-07
1.33361575508e-07
4.90558378204e-07
1.16630361142e-07
5.8089954688e-07
1.05572042339e-07
6.39856578117e-07
1.00301991237e-07
6.89010120399e-07
1.39689178894e-07
6.80160722019e-07
1.66551900919e-07
6.689273555e-07
1.91879096693e-07
6.68248081062e-07
2.14662541394e-07
6.8857074914e-07
2.36186931897e-07
7.20367790851e-07
2.56694550014e-07
7.56580821266e-07
2.75521100303e-07
7.83644789299e-07
2.90767183208e-07
7.90605726801e-07
2.9984431429e-07
7.76158707938e-07
3.02096663676e-07
7.46413674798e-07
2.98734822288e-07
7.15625293674e-07
2.91663559021e-07
6.94294371082e-07
2.83300466861e-07
6.8306937347e-07
2.75271140821e-07
6.74174628769e-07
6.61640001195e-07
2.68036622346e-07
1.25294595004e-07
3.84466049057e-07
1.01744529926e-07
5.01751786025e-07
8.68785622895e-08
5.91727509166e-07
7.9504358391e-08
6.45792175922e-07
1.06034754807e-07
6.61827897533e-07
1.30145028124e-07
6.55728593271e-07
1.52931839661e-07
6.45974447788e-07
1.72297306729e-07
6.48784038806e-07
1.89605378109e-07
6.71188121502e-07
2.06819573872e-07
7.03085420514e-07
2.25183675452e-07
7.38147667168e-07
2.44291008413e-07
7.64466801697e-07
2.61725331538e-07
7.73101101921e-07
2.75179727287e-07
7.62638199601e-07
2.8246524619e-07
7.39071065202e-07
2.83048026846e-07
7.14997457295e-07
2.78148396592e-07
6.99158444836e-07
2.71149448578e-07
6.9003670496e-07
2.64172170525e-07
6.8112178668e-07
6.67780386704e-07
2.58003415348e-07
7.30677173122e-08
4.74174358488e-07
5.50631491492e-08
5.10976113169e-07
6.2268199645e-08
5.81686848489e-07
8.50197979498e-08
6.21889321532e-07
1.0643487307e-07
6.39878466986e-07
1.26841850623e-07
6.35063804398e-07
1.43359761668e-07
6.29327014225e-07
1.55349824371e-07
6.3671762345e-07
1.66029443444e-07
6.60449599829e-07
1.77706217331e-07
6.91353749817e-07
1.92291658365e-07
7.23506151536e-07
2.09669182907e-07
7.47031802143e-07
2.27210243774e-07
7.55503054099e-07
2.42365850296e-07
7.47429816977e-07
2.51757811534e-07
7.29634827899e-07
2.53789626942e-07
7.12931193754e-07
2.50297517712e-07
7.02622310303e-07
2.45251500024e-07
6.95057109571e-07
2.40235071905e-07
6.86114077892e-07
6.72004837088e-07
2.35988411204e-07
9.32979523696e-08
5.39790079074e-07
7.31369690722e-08
5.20109991831e-07
7.45093511763e-08
5.76604284507e-07
8.52131240065e-08
6.09860076956e-07
1.02356395835e-07
6.22215165295e-07
1.1882777938e-07
6.18374267626e-07
1.29491820078e-07
6.1856245892e-07
1.35542438415e-07
6.30609126284e-07
1.40902817553e-07
6.55044302883e-07
1.48052420774e-07
6.84162213069e-07
1.59150059126e-07
7.12366116803e-07
1.74006926885e-07
7.32132078806e-07
1.90379680124e-07
7.39088481095e-07
2.04798803128e-07
7.3297332209e-07
2.13198007991e-07
7.21205231652e-07
2.14607145781e-07
7.11498019875e-07
2.12531536771e-07
7.04677379078e-07
2.09878503555e-07
6.9769153658e-07
2.07499060453e-07
6.88476240815e-07
6.73820238991e-07
2.05667963788e-07
1.26448558865e-07
5.70989494306e-07
9.57381890801e-08
5.36761288425e-07
8.44174096708e-08
5.83045228915e-07
8.20812225258e-08
6.10568186601e-07
9.08276091994e-08
6.12943995472e-07
1.00657716845e-07
6.08366774913e-07
1.05726060736e-07
6.13422799016e-07
1.07242077432e-07
6.29053904308e-07
1.08896481183e-07
6.53359792838e-07
1.13150305896e-07
6.79880649821e-07
1.21921149059e-07
7.03567842244e-07
1.34617095839e-07
7.19409141513e-07
1.49035553158e-07
7.24644659658e-07
1.60869164411e-07
7.21117781553e-07
1.66748148966e-07
7.15308451009e-07
1.6800316267e-07
7.1022839609e-07
1.68193123167e-07
7.04474881133e-07
1.68569231755e-07
6.97304325394e-07
1.69409677157e-07
6.87625935997e-07
6.72816323258e-07
1.70405031183e-07
1.42185204735e-07
5.86886502275e-07
9.72152815189e-08
5.67566559839e-07
7.24693446493e-08
6.02970426639e-07
5.67607674404e-08
6.24776932428e-07
5.79495436162e-08
6.11344508771e-07
6.26024274588e-08
6.03602515594e-07
6.41504936024e-08
6.11837609781e-07
6.33394740109e-08
6.29846475631e-07
6.35401706565e-08
6.53145528752e-07
6.7078019105e-08
6.76330710919e-07
7.51281668131e-08
6.95506032338e-07
8.67805812878e-08
7.07745394165e-07
9.92779515124e-08
7.12136484677e-07
1.08574529296e-07
7.11811945444e-07
1.13542624146e-07
7.10332665039e-07
1.16983194674e-07
7.06781637435e-07
1.20597356533e-07
7.00855815363e-07
1.24790525404e-07
6.93107456413e-07
1.29395137294e-07
6.83018565464e-07
6.6868148301e-07
1.33528020889e-07
1.42415282213e-07
6.01996661344e-07
9.15945810518e-08
6.0534730493e-07
4.76242256627e-08
6.42782989087e-07
1.70846441232e-08
6.54219388135e-07
9.19785282974e-09
6.190243967e-07
7.99021444056e-09
6.04780168939e-07
7.09229093967e-09
6.12733248506e-07
6.14256677048e-09
6.3079834534e-07
7.11304345749e-09
6.52177840551e-07
1.1603561697e-08
6.71842844482e-07
2.0069340977e-08
6.8704236921e-07
3.14930725554e-08
6.9632312625e-07
4.30814698264e-08
7.0054891751e-07
5.23030182201e-08
7.02591089138e-07
5.97912734457e-08
7.02845507818e-07
6.71899877064e-08
6.99384763626e-07
7.49796923382e-08
6.93068843543e-07
8.32268043901e-08
6.84863916156e-07
9.16609991485e-08
6.74588672389e-07
6.61147983765e-07
9.91993408554e-08
1.29082590417e-07
6.32561906128e-07
6.89247687985e-08
6.55120492283e-07
4.47798796612e-09
7.04794640381e-07
-3.4762952705e-08
6.93393775716e-07
-5.14641858249e-08
6.3586902698e-07
-5.82058305006e-08
6.11582725851e-07
-5.97719119443e-08
6.14331105028e-07
-5.79115223364e-08
6.28960658191e-07
-5.30080617998e-08
6.47293982182e-07
-4.50260517024e-08
6.63878486327e-07
-3.42363028367e-08
6.76268274818e-07
-2.16166071506e-08
6.83716862119e-07
-8.8059813505e-09
6.87749617158e-07
3.18311312384e-09
6.90612209346e-07
1.46365571569e-08
6.91401972823e-07
2.59685791261e-08
6.88062655721e-07
3.74909838823e-08
6.81556731506e-07
4.90410481581e-08
6.73324730495e-07
6.02541961579e-08
6.63387126743e-07
6.50517435388e-07
7.08975713622e-08
1.38733341567e-07
6.66481757269e-07
5.19749692742e-08
7.35254643963e-07
-1.65053910386e-08
7.747345495e-07
-5.50586451059e-08
7.33627111181e-07
-8.4734635561e-08
6.66285031516e-07
-1.04585971933e-07
6.31688040632e-07
-1.12519799724e-07
6.22350535315e-07
-1.10322107632e-07
6.26810401263e-07
-1.02091346665e-07
6.39100801368e-07
-9.01950013042e-08
6.52014727956e-07
-7.57237877414e-08
6.61825338028e-07
-5.98538435905e-08
6.67870640608e-07
-4.38224710257e-08
6.71738757562e-07
-2.84059920748e-08
6.75214284052e-07
-1.39662188156e-08
6.76979994291e-07
-1.79012700664e-10
6.7429289483e-07
1.32781448015e-08
6.68117126239e-07
2.63114850634e-08
6.60309457719e-07
3.87066607507e-08
6.51010873733e-07
6.38531767153e-07
5.07114094731e-08
2.03228043671e-07
6.16117606232e-07
1.32979915915e-07
7.88576015619e-07
7.70829392196e-08
8.25768746092e-07
3.34550869811e-08
7.75909191275e-07
-1.89733360997e-08
7.18575201649e-07
-6.59297424828e-08
6.78765558463e-07
-9.67454995294e-08
6.5330447483e-07
-1.07499889934e-07
6.37643078631e-07
-1.05060118358e-07
6.36715477016e-07
-9.57330554248e-08
6.42732542838e-07
-8.24976622067e-08
6.48628078151e-07
-6.68338984866e-08
6.52239149942e-07
-5.04578005436e-08
6.55390263884e-07
-3.47487609648e-08
6.595302498e-07
-2.04837010438e-08
6.6273923237e-07
-7.28975664885e-09
6.61123149686e-07
5.16520487991e-09
6.55686355369e-07
1.70421014261e-08
6.48457603542e-07
2.83612609954e-08
6.39717314474e-07
6.27840096003e-07
3.90802998095e-08
1.81474028412e-07
5.33931616647e-07
2.17072313724e-07
7.26799537872e-07
2.4393536549e-07
7.8418644344e-07
2.16641015129e-07
7.9637060542e-07
1.37721712699e-07
7.94837686954e-07
4.93228752827e-08
7.66414498915e-07
-1.07211553142e-08
7.13277907478e-07
-3.99531890428e-08
6.66939587201e-07
-5.02679107629e-08
6.47100056825e-07
-5.02231045646e-08
6.42746201563e-07
-4.44750513218e-08
6.42928887014e-07
-3.55286978545e-08
6.43332218608e-07
-2.49727019289e-08
6.44866566341e-07
-1.43784694847e-08
6.48965234875e-07
-4.75986155403e-09
6.53150007404e-07
4.07085860835e-09
6.52321599233e-07
1.22828193711e-08
6.47504849067e-07
2.01132894531e-08
6.40658096186e-07
2.75724795885e-08
6.32291094959e-07
6.20969333237e-07
3.4476365023e-08
1.52486447737e-07
4.7404620542e-07
1.79399958104e-07
6.73195480959e-07
2.01752190804e-07
7.46869237197e-07
2.084773844e-07
7.8237928158e-07
1.9435775847e-07
8.05907041851e-07
1.46279482139e-07
8.13496457549e-07
6.67899578468e-08
7.92591305909e-07
3.93272838617e-08
6.94443503283e-07
2.56166375881e-08
6.60877666657e-07
1.94500965165e-08
6.48975963643e-07
1.76770181988e-08
6.44756394233e-07
1.82500711727e-08
6.42803672087e-07
2.00791803197e-08
6.43072583379e-07
2.23250811292e-08
6.46750455547e-07
2.4610368406e-08
6.50896256708e-07
2.67926642787e-08
6.50172863581e-07
2.88239260571e-08
6.45507914406e-07
3.07655521065e-08
6.3875342686e-07
3.26313241563e-08
6.30463100045e-07
6.19673126122e-07
3.39680390758e-08
1.15577865388e-07
4.55375400846e-07
1.21861534096e-07
6.4455215637e-07
1.3192237757e-07
7.25020414009e-07
1.36862994581e-07
7.72075947325e-07
1.30595190792e-07
8.1005339523e-07
1.16242265309e-07
8.27179055262e-07
1.07257823401e-07
8.01465401881e-07
9.74965937358e-08
7.04233550506e-07
8.84660682292e-08
6.69965262243e-07
8.11346484188e-08
6.56365757852e-07
7.50849672215e-08
6.50857893243e-07
6.96970696275e-08
6.48234427926e-07
6.45943979488e-08
6.48209143364e-07
5.94532931341e-08
6.5192214694e-07
5.49952349158e-08
6.55388168616e-07
5.08968476207e-08
6.54306012304e-07
4.68990653739e-08
6.49544137804e-07
4.29986739559e-08
6.42694098847e-07
3.90601814865e-08
6.34445008315e-07
6.24312604194e-07
3.44650037777e-08
9.04833854213e-08
4.65401771868e-07
7.79201690582e-08
6.3986836002e-07
7.44367082807e-08
7.21180827196e-07
7.36281894313e-08
7.70053584984e-07
7.2649356775e-08
8.09997268562e-07
8.17136299977e-08
8.17813750676e-07
1.34213519474e-07
7.48914914131e-07
1.37806212732e-07
7.00666879757e-07
1.3278803335e-07
6.75034266294e-07
1.25381839698e-07
6.63825226272e-07
1.17154832251e-07
6.5913293699e-07
1.08313699679e-07
6.57115692737e-07
9.85031064029e-08
6.58052059293e-07
8.79385016354e-08
6.62518869698e-07
7.84369559629e-08
6.64922648744e-07
6.95170590643e-08
6.63264140219e-07
6.08573173515e-08
6.58244171888e-07
5.2299674875e-08
6.51296012865e-07
4.35385011145e-08
6.43253090222e-07
6.34062716468e-07
3.38383961679e-08
6.70642839209e-08
5.02542368607e-07
3.84158583539e-08
6.59197969563e-07
2.43431161002e-08
7.33792352854e-07
2.0360693208e-08
7.73392097696e-07
3.78324412516e-08
7.9219770423e-07
1.13278552292e-07
7.42253675959e-07
1.46402634969e-07
7.15775130773e-07
1.57247921857e-07
6.8985492474e-07
1.56853196896e-07
6.75477780128e-07
1.5135831225e-07
6.69369312083e-07
1.43249285001e-07
6.67285477203e-07
1.32329915327e-07
6.68070606295e-07
1.1841674099e-07
6.719953337e-07
1.0450690058e-07
6.76458617482e-07
9.17709498133e-08
6.77695575466e-07
7.9775753976e-08
6.75297724873e-07
6.80850344268e-08
6.69978456763e-07
5.65425787082e-08
6.62885662515e-07
4.45049940507e-08
6.55341270881e-07
6.47647459835e-07
3.09747665752e-08
4.18262376289e-08
5.66835220671e-07
1.01372849288e-08
6.9196719012e-07
-7.90700497571e-09
7.54074650096e-07
1.36392779772e-08
7.52766997694e-07
8.80287832811e-08
7.17799035494e-07
1.26804831334e-07
7.03446566984e-07
1.5295692905e-07
6.89637803569e-07
1.64564836344e-07
6.782856453e-07
1.66733733405e-07
6.73353333663e-07
1.63232685159e-07
6.7291153037e-07
1.54400184615e-07
6.76151791651e-07
1.40328223587e-07
6.82170770765e-07
1.24031472572e-07
6.88318897168e-07
1.08686000046e-07
6.91839688197e-07
9.45189955492e-08
6.91898712691e-07
8.10874796445e-08
6.88771764677e-07
6.80444860752e-08
6.83067204666e-07
5.50219838123e-08
6.75957625899e-07
4.11359850314e-08
6.69282006217e-07
6.65059198827e-07
2.37747727348e-08
4.53452834005e-08
6.52724010379e-07
3.86430686397e-08
6.93614401218e-07
5.88714829834e-08
7.33176546394e-07
9.68126498546e-08
7.14555000717e-07
1.22297864422e-07
6.92238271791e-07
1.47465887631e-07
6.78262583764e-07
1.64638828569e-07
6.72485161313e-07
1.72065165829e-07
6.70894400417e-07
1.72517428283e-07
6.72936667016e-07
1.66008094803e-07
6.79450307815e-07
1.52451749725e-07
6.89733771516e-07
1.35395281083e-07
6.99251615226e-07
1.18425827209e-07
7.05323284531e-07
1.02729800105e-07
7.07570347695e-07
8.8174993929e-08
7.06495449826e-07
7.44305611244e-08
7.0256041964e-07
6.10228921218e-08
6.96522966104e-07
4.74660719525e-08
6.89568530125e-07
3.10535785656e-08
6.85741923194e-07
6.85607873653e-07
1.05736049936e-08
1.32586082713e-07
6.67143105891e-07
1.35015072946e-07
6.73631899838e-07
1.43250021666e-07
7.18681063688e-07
1.49042594643e-07
7.06693689634e-07
1.59659578065e-07
6.81041313726e-07
1.7172270954e-07
6.66068478109e-07
1.79171730838e-07
6.65029725246e-07
1.80088005003e-07
6.70001775032e-07
1.73842918382e-07
6.7920663018e-07
1.59312898835e-07
6.94004182017e-07
1.40767309152e-07
7.08302470206e-07
1.22111011543e-07
7.17943196038e-07
1.04695113025e-07
7.22773367787e-07
8.87214268784e-08
7.23586385754e-07
7.41226067976e-08
7.21137852788e-07
6.03662740835e-08
7.16363867529e-07
4.71182931293e-08
7.0982456586e-07
3.17679147368e-08
7.04962489456e-07
1.36551967625e-08
7.03923313545e-07
7.0674992417e-07
-7.40532026036e-09
1.66116921892e-07
6.55460910299e-07
1.74054517841e-07
6.45483267588e-07
1.79524186376e-07
7.04166247647e-07
1.79207107957e-07
7.03525549343e-07
1.80047634504e-07
6.79106170975e-07
1.82746105994e-07
6.63106122087e-07
1.82259347609e-07
6.6548104972e-07
1.75592330451e-07
6.76681916325e-07
1.59683434581e-07
6.95137788061e-07
1.3910608696e-07
7.14604817675e-07
1.18534762736e-07
7.28910756184e-07
9.91686499177e-08
7.37344231988e-07
8.13697499512e-08
7.40616699425e-07
6.54442047789e-08
7.39556538612e-07
5.09937350448e-08
7.35635837451e-07
3.75366595381e-08
7.29876088349e-07
2.27505136159e-08
7.24650943468e-07
7.10264323256e-09
7.20679379273e-07
-9.04611430419e-09
7.20152075865e-07
7.26445398968e-07
-2.8647452816e-08
1.62824623794e-07
6.51109104895e-07
1.60672089841e-07
6.29979036709e-07
1.67019380226e-07
6.89216364298e-07
1.66931062097e-07
6.99996021085e-07
1.65508256264e-07
6.79340809293e-07
1.63682164654e-07
6.64646663134e-07
1.57940675596e-07
6.71183376561e-07
1.43212177124e-07
6.91424601791e-07
1.22351126105e-07
7.16022825313e-07
1.01138053494e-07
7.35857875841e-07
8.08471260489e-08
7.49238080871e-07
6.19609678238e-08
7.56277462483e-07
4.50266395997e-08
7.57597305223e-07
2.99511617369e-08
7.54681397041e-07
1.58224238476e-08
7.49823781897e-07
1.00863558015e-09
7.44729073354e-07
-1.35077682637e-08
7.3923860694e-07
-2.50906939242e-08
7.32339922976e-07
-3.65214111416e-08
7.31670999651e-07
7.41744929782e-07
-5.17162557371e-08
1.56239604371e-07
6.54833421411e-07
1.32874617152e-07
6.39440835355e-07
1.29235575148e-07
6.86107712693e-07
1.21362779076e-07
7.05044524474e-07
1.15559527213e-07
6.84249613098e-07
1.09714227591e-07
6.7030126223e-07
9.97018048932e-08
6.81182694179e-07
8.24228779772e-08
7.0872835522e-07
6.3764257422e-08
7.3472644486e-07
4.52628743977e-08
7.54399715485e-07
2.73352127719e-08
7.6721595936e-07
1.06616101722e-08
7.73000511425e-07
-4.99158785397e-09
7.73302576869e-07
-2.05737892007e-08
7.70331995748e-07
-3.52988172177e-08
7.64592971696e-07
-4.81541214167e-08
7.57662723823e-07
-5.66646722808e-08
7.47829128207e-07
-6.20439594871e-08
7.37800999489e-07
-6.70563485676e-08
7.36776664856e-07
7.48741085949e-07
-7.39398452002e-08
1.52380128619e-07
6.61310200452e-07
1.22009369845e-07
6.58098029962e-07
9.46225007153e-08
7.08516155903e-07
6.6942828483e-08
7.30901013076e-07
4.91371761789e-08
7.01604300495e-07
3.65907907038e-08
6.82811134541e-07
2.36145675341e-08
6.94198048222e-07
1.00265445557e-08
7.22376353684e-07
-3.96965733405e-09
7.4878103484e-07
-1.87089195924e-08
7.69201575156e-07
-3.50042630076e-08
7.83580779881e-07
-5.28551361142e-08
7.90913789601e-07
-7.1429096452e-08
7.91967982622e-07
-8.71027603285e-08
7.86074254603e-07
-9.68673018791e-08
7.74449012558e-07
-9.94064654963e-08
7.60288498753e-07
-9.8789942642e-08
7.47295041448e-07
-9.6595316086e-08
7.35689663605e-07
-9.35047428794e-08
7.33781582e-07
7.45496542895e-07
-9.01436602366e-08
1.51743363703e-07
6.69428688829e-07
1.15850402015e-07
6.8452526645e-07
6.77156085238e-08
7.54176159291e-07
2.75968629188e-08
7.7067807081e-07
-1.78150381023e-09
7.31074979449e-07
-2.34711089477e-08
7.04626835495e-07
-4.07407290626e-08
7.11564887433e-07
-5.42929811714e-08
7.36007849643e-07
-6.7669488768e-08
7.6222967126e-07
-8.38913961837e-08
7.85507244651e-07
-1.03886721956e-07
8.03654850179e-07
-1.2651892235e-07
8.13651656224e-07
-1.44330682527e-07
8.09878367089e-07
-1.50664439119e-07
7.9251796534e-07
-1.45688133808e-07
7.69572678113e-07
-1.36269888271e-07
7.50957219272e-07
-1.26353432406e-07
7.37460297396e-07
-1.16699681011e-07
7.26117797763e-07
-1.05097828748e-07
7.22275307701e-07
7.31757172258e-07
-9.12399246428e-08
1.66671814008e-07
6.7675081745e-07
1.28277363907e-07
7.16998724815e-07
1.02510465266e-07
7.77921456455e-07
7.45718647964e-08
7.9719745354e-07
3.69086101805e-08
7.67958137389e-07
-3.28249071399e-09
7.44595885687e-07
-4.04888818278e-08
7.48799318262e-07
-7.33966462306e-08
7.69007528438e-07
-1.04883667341e-07
7.93827830986e-07
-1.35426368447e-07
8.16168767654e-07
-1.60822132061e-07
8.29196436361e-07
-1.75698014336e-07
8.28683740352e-07
-1.75856136612e-07
8.10194532779e-07
-1.65038170335e-07
7.81839155811e-07
-1.49842204954e-07
7.54490367751e-07
-1.3359293818e-07
7.34801920343e-07
-1.18647653847e-07
7.22599535779e-07
-1.0574154112e-07
7.13294691195e-07
-9.03292505768e-08
7.06956941409e-07
7.12089020942e-07
-7.05401479016e-08
2.65978608112e-07
5.78198569457e-07
2.31502772579e-07
7.24275745346e-07
2.24537075392e-07
7.69643978397e-07
2.16754029729e-07
7.97120056475e-07
1.73326803391e-07
8.0763013481e-07
1.08989059014e-07
8.07528003186e-07
3.86841358768e-08
8.18860937249e-07
-3.01316148848e-08
8.38001757893e-07
-9.06329060906e-08
8.54599989394e-07
-1.33197246369e-07
8.59009762813e-07
-1.47103775367e-07
8.4337172026e-07
-1.39950967274e-07
8.21783418809e-07
-1.2341836186e-07
7.9388364823e-07
-1.06155441719e-07
7.64759804953e-07
-9.11299869544e-08
7.39609052199e-07
-7.7190898304e-08
7.20974300364e-07
-6.44871141528e-08
7.09988093008e-07
-5.41859674334e-08
7.03079834756e-07
-4.26291572699e-08
6.95489732064e-07
6.95422489202e-07
-2.58519960541e-08
1.31401090709e-07
5.05920889483e-07
1.55927600243e-07
6.79427822999e-07
1.8011784045e-07
7.31358444559e-07
1.96088150494e-07
7.73287524983e-07
1.93290994718e-07
8.06578520597e-07
1.60844926183e-07
8.38461531773e-07
1.05577294021e-07
8.73806894946e-07
3.96435821449e-08
9.04097909417e-07
-2.12208746999e-08
9.15750061358e-07
-5.77973084018e-08
8.95886687163e-07
-5.18997476667e-08
8.37760367689e-07
-3.34145951142e-08
8.0356347711e-07
-1.45832976411e-08
7.75290026681e-07
-9.76985142124e-11
7.5047823681e-07
9.87393315242e-09
7.29803241191e-07
1.70922724437e-08
7.13882900405e-07
2.31236953135e-08
7.04053965416e-07
2.74103424388e-08
6.98881602163e-07
3.17553529969e-08
6.91232372731e-07
6.87614429992e-07
3.96646015708e-08
5.73521375273e-08
4.67631392766e-07
8.61057791028e-08
6.3751360077e-07
1.09881608852e-07
6.97290998534e-07
1.31101817283e-07
7.46293914967e-07
1.42873363931e-07
7.92030806889e-07
1.42028241086e-07
8.38231669209e-07
1.29225193107e-07
8.8640140961e-07
1.07778318413e-07
9.25712281559e-07
8.83679531345e-08
9.35443985682e-07
7.25632280385e-08
9.11986631412e-07
7.88133958796e-08
8.3178658173e-07
9.17385959641e-08
7.90894997699e-07
1.0394041841e-07
7.63321369229e-07
1.12716600639e-07
7.41906791758e-07
1.17855980743e-07
7.24834112556e-07
1.20099230168e-07
7.11770764426e-07
1.20499055437e-07
7.03752888847e-07
1.19408736246e-07
7.00061877789e-07
1.18138965435e-07
6.92591281794e-07
6.87951451348e-07
1.17904485352e-07
3.90097483857e-08
4.45440019415e-07
5.84796818308e-08
6.07714373292e-07
7.99539046774e-08
6.67539449206e-07
1.03151218429e-07
7.18534823507e-07
1.2197182202e-07
7.71095334976e-07
1.35036981845e-07
8.24386663583e-07
1.44243780227e-07
8.77069843957e-07
1.51472914278e-07
9.18649832003e-07
1.60457127475e-07
9.26723863854e-07
1.75362432497e-07
8.97357506644e-07
1.8541010642e-07
8.21999375263e-07
1.95123553104e-07
7.81425186406e-07
2.03745117882e-07
7.5492282887e-07
2.10012823797e-07
7.35836371938e-07
2.13512777229e-07
7.2149829551e-07
2.14178519951e-07
7.11230563072e-07
2.11733185314e-07
7.06292786422e-07
2.07966272412e-07
7.03917679917e-07
2.04184456991e-07
6.96463031039e-07
6.92675882859e-07
1.99562848322e-07
2.60843078065e-08
4.38305046719e-07
3.38540657078e-08
5.92593857875e-07
5.80687172061e-08
6.38307950255e-07
8.69825353032e-08
6.86347152082e-07
1.12620558846e-07
7.43921707409e-07
1.34190353491e-07
8.02278266059e-07
1.55536282748e-07
8.5567215958e-07
1.79549641124e-07
8.94804068513e-07
2.05482949045e-07
9.01035977005e-07
2.4540200368e-07
8.57691693535e-07
2.60544069566e-07
8.07098985352e-07
2.70882142099e-07
7.71313643337e-07
2.79570966531e-07
7.46440669996e-07
2.86690753333e-07
7.28897604444e-07
2.91678985439e-07
7.16657098572e-07
2.9306482154e-07
7.0995318357e-07
2.90111746431e-07
7.09333653083e-07
2.87052990581e-07
7.07066603787e-07
2.84012309724e-07
6.99591797532e-07
6.99274659976e-07
2.77516882898e-07
-3.17384462871e-09
4.67103802113e-07
-9.82593019132e-09
6.00795536878e-07
1.86981574317e-08
6.09720480717e-07
5.83748696326e-08
6.45238044747e-07
9.71356130774e-08
7.0426891508e-07
1.33565612725e-07
7.6553280963e-07
1.71664858069e-07
8.1757512341e-07
2.13536048679e-07
8.53089146672e-07
2.62284524228e-07
8.52500241889e-07
3.00058043695e-07
8.2013795509e-07
3.17449319787e-07
7.89922786929e-07
3.28622480696e-07
7.60342565716e-07
3.3774002639e-07
7.37504972254e-07
3.46087480108e-07
7.20704397115e-07
3.53005380709e-07
7.09857361792e-07
3.55542860183e-07
7.07504258027e-07
3.55681558066e-07
7.09282574916e-07
3.56521275787e-07
7.06310958446e-07
3.5703453578e-07
6.99163064985e-07
7.06500917219e-07
3.4992399353e-07
-8.28549512221e-08
5.89430396154e-07
-1.20136814917e-07
6.57286231936e-07
-5.47337002881e-08
5.52722546118e-07
7.97695133056e-09
5.83411901034e-07
7.28011521384e-08
6.39118246621e-07
1.36916980967e-07
7.0124058937e-07
2.01080799351e-07
7.53424124023e-07
2.66022047273e-07
7.88269105961e-07
3.19724440809e-07
7.98965307842e-07
3.47245881129e-07
7.92806381886e-07
3.64841818576e-07
7.72516789033e-07
3.76125152312e-07
7.49238155609e-07
3.85050035912e-07
7.28738999477e-07
3.93302208805e-07
7.12582065671e-07
4.00445897431e-07
7.02808474019e-07
4.05626314552e-07
7.02406282332e-07
4.11584703959e-07
7.03405126961e-07
4.18581123066e-07
6.99399830513e-07
4.2276705099e-07
6.95068690613e-07
7.10420383243e-07
4.1897465348e-07
-1.13684099463e-07
7.44107412246e-07
-3.52242369745e-09
5.66327548837e-07
3.31467165149e-08
5.17055311552e-07
7.3930197366e-08
5.41875448572e-07
1.22838043083e-07
5.89761006413e-07
1.80490708173e-07
6.4341944413e-07
2.40786732022e-07
6.93126201668e-07
2.96877626175e-07
7.32268538583e-07
3.40984174316e-07
7.54996045661e-07
3.73644368476e-07
7.60305327914e-07
3.94980560421e-07
7.51344446657e-07
4.0913812072e-07
7.35237858289e-07
4.19854910116e-07
7.18162419808e-07
4.28774194059e-07
7.03777106836e-07
4.36819444248e-07
6.94851131441e-07
4.4645396952e-07
6.92850312979e-07
4.5863431817e-07
6.91311167274e-07
4.71530345845e-07
6.8658954844e-07
4.79761630811e-07
6.86926377045e-07
7.00585038757e-07
4.89747697297e-07
-1.2241528112e-08
7.82452620514e-07
4.00770445356e-08
5.1541231051e-07
7.11964351624e-08
4.84558527524e-07
1.0864897324e-07
5.03527114223e-07
1.51725550431e-07
5.46278961457e-07
2.00138890917e-07
5.94880075435e-07
2.50878112983e-07
6.42402602809e-07
3.00683215081e-07
6.82551695129e-07
3.45029625708e-07
7.10775138346e-07
3.80196440543e-07
7.25282534753e-07
4.05827694336e-07
7.25862291189e-07
4.24300007629e-07
7.16909297311e-07
4.38478954007e-07
7.04112436134e-07
4.50251473601e-07
6.92113451124e-07
4.61871919543e-07
6.83319124552e-07
4.756978874e-07
6.79106350695e-07
4.93269968703e-07
6.73822769125e-07
5.11957787119e-07
6.67991032106e-07
5.31275433298e-07
6.67735211138e-07
6.72685867789e-07
5.5933321805e-07
4.86412424748e-08
7.45626996855e-07
7.32776036598e-08
4.81651514826e-07
9.75692358298e-08
4.56785024545e-07
1.27521422332e-07
4.72355345736e-07
1.62501771786e-07
5.10891594224e-07
2.02415443368e-07
5.54864997924e-07
2.45521999635e-07
5.99319035383e-07
2.88977097754e-07
6.39178367877e-07
3.29899057353e-07
6.6996501418e-07
3.65802268243e-07
6.89507866082e-07
3.94868964464e-07
6.96930675267e-07
4.1785071372e-07
6.94059876224e-07
4.36863047165e-07
6.85222051049e-07
4.54146989642e-07
6.74937731433e-07
4.71508920583e-07
6.66053405328e-07
4.91585216814e-07
6.59128446052e-07
5.14803351405e-07
6.50711851145e-07
5.40569733603e-07
6.42345007612e-07
5.7232677488e-07
6.36114803436e-07
6.34799116487e-07
6.10362588068e-07
9.89379227448e-08
6.46549905252e-07
1.09865850855e-07
4.50669528767e-07
1.26026158232e-07
4.34233535001e-07
1.45001286812e-07
4.51541293727e-07
1.67535862736e-07
4.87852325525e-07
1.94447138447e-07
5.27843403158e-07
2.26064860044e-07
5.67720293994e-07
2.6079730299e-07
6.04517868938e-07
2.95735529285e-07
6.35125821244e-07
3.2905660971e-07
6.56301724458e-07
3.59745377535e-07
6.6636576318e-07
3.86652240084e-07
6.67278554254e-07
4.10977160401e-07
6.61018199621e-07
4.34397997674e-07
6.51632021152e-07
4.58146429369e-07
6.42418742103e-07
4.8491769506e-07
6.32474383732e-07
5.15287240252e-07
6.20464940721e-07
5.50217700332e-07
6.07545439594e-07
5.87168149091e-07
5.99302707387e-07
5.99646829964e-07
6.22443065979e-07
1.37861072944e-07
1.42873719925e-07
1.51202955588e-07
1.58440987431e-07
1.67678665648e-07
1.80877991325e-07
1.99663860775e-07
2.23969497072e-07
2.51308812452e-07
2.80371113282e-07
3.10547479329e-07
3.40125485963e-07
3.68743326475e-07
3.97114498902e-07
4.27234229285e-07
4.60432391405e-07
4.96562180164e-07
5.31317173601e-07
5.61584320725e-07
5.68058682555e-07
2.34842023301e-07
6.00521124451e-07
2.30273737827e-07
5.27895455843e-07
2.26561071553e-07
4.6043443559e-07
2.28306023055e-07
3.95845507943e-07
2.37142576186e-07
3.42007454204e-07
2.40169618289e-07
2.99002572931e-07
2.36752594196e-07
2.51632660115e-07
2.31165729227e-07
2.04054228379e-07
2.22816695301e-07
1.62163437148e-07
2.12820706715e-07
1.23839755328e-07
2.02231604084e-07
8.37226898876e-08
1.81894341505e-07
5.51144668675e-08
1.43480137948e-07
6.14713031104e-08
1.10114475262e-07
7.9151436109e-08
7.90915471769e-08
7.59701031576e-08
5.19347434466e-08
6.8580818792e-08
2.87424919313e-08
5.68312587495e-08
9.2733856415e-09
3.84557903212e-08
8.34467363189e-09
-4.2421554449e-08
-6.69562173981e-08
2.56747990506e-07
6.06900198188e-07
2.51242040287e-07
5.33372577634e-07
2.46392881775e-07
4.65253206684e-07
2.42885748833e-07
3.99325172584e-07
2.45460386268e-07
3.39402623052e-07
2.49912239266e-07
2.94506137767e-07
2.45647285481e-07
2.55842504964e-07
2.36978132831e-07
2.12673260834e-07
2.25514165168e-07
1.73586875456e-07
2.13679983453e-07
1.3563398964e-07
2.00240454902e-07
9.71329614217e-08
1.76232298832e-07
7.90973363076e-08
1.3591994266e-07
1.01718277352e-07
1.00668445832e-07
1.14344526866e-07
6.71781215379e-08
1.09405259571e-07
3.83523213315e-08
9.73536550322e-08
1.64312942914e-08
7.87033102413e-08
1.28139889938e-08
4.20248503725e-08
8.04095652363e-09
-3.76822654761e-08
-5.89166814122e-08
2.61813861322e-07
6.13093450655e-07
2.56176232036e-07
5.38984027139e-07
2.51186312094e-07
4.70221104895e-07
2.46400093722e-07
4.04086445868e-07
2.43836281633e-07
3.41940609238e-07
2.46330788703e-07
2.91980337637e-07
2.44209332335e-07
2.57925274659e-07
2.33442396659e-07
2.23401111447e-07
2.20020762812e-07
1.86966833381e-07
2.0628866219e-07
1.4933038365e-07
1.87546726038e-07
1.15846759434e-07
1.59811610598e-07
1.06793912337e-07
1.17333443878e-07
1.44152252049e-07
7.74266799479e-08
1.54201311746e-07
4.12381757398e-08
1.45545322404e-07
1.18464867566e-08
1.26701207732e-07
1.52493517418e-09
8.89803433905e-08
1.42525571659e-08
2.92559461771e-08
8.12099635821e-09
-3.15756021416e-08
-5.07964103812e-08
2.52756694787e-07
6.18315921284e-07
2.47664922179e-07
5.44055428988e-07
2.43240724204e-07
4.74621616848e-07
2.38998436959e-07
4.08309892595e-07
2.34626640146e-07
3.46292041924e-07
2.33594848778e-07
2.92988668317e-07
2.32147100029e-07