/*--------------------------------*- C++ -*----------------------------------*\
| =========                 |                                                 |
| \\      /  F ield         | OpenFOAM: The Open Source CFD Toolbox           |
|  \\    /   O peration     | Version:  2312                                  |
|   \\  /    A nd           | Website:  www.openfoam.com                      |
|    \\/     M anipulation  |                                                 |
\*---------------------------------------------------------------------------*/
FoamFile
{
    version     2.0;
    format      ascii;
    arch        "LSB;label=32;scalar=64";
    class       volScalarField;
    location    "80";
    object      alpha.air_0;
}
// * * * * * * * * * * * * * * * * * * * * * * * * * * * * * * * * * * * * * //

dimensions      [0 0 0 0 0 0 0];

internalField   nonuniform List<scalar> 
1875
(
0.287074
0.25465
0.238779
0.235843
0.236639
0.238956
0.24279
0.247712
0.253296
0.259039
0.264821
0.270092
0.274509
0.278152
0.281025
0.280465
0.277658
0.270384
0.259457
0.245995
0.230279
0.221649
0.224464
0.249276
0.273402
0.228646
0.204138
0.18847
0.181136
0.1815
0.183171
0.186369
0.190983
0.197008
0.204506
0.213268
0.222944
0.233029
0.243458
0.253484
0.261043
0.265599
0.26672
0.263338
0.252768
0.236558
0.22162
0.215841
0.219296
0.199986
0.153508
0.145119
0.14303
0.141998
0.142857
0.145047
0.148348
0.152586
0.157922
0.164604
0.17291
0.183159
0.194971
0.208769
0.224275
0.2405
0.253472
0.265862
0.264181
0.256223
0.240035
0.220251
0.207019
0.202699
0.199032
0.0883309
0.103188
0.117947
0.11976
0.121683
0.125586
0.131677
0.139561
0.148196
0.157528
0.167983
0.180088
0.195036
0.210324
0.226677
0.244181
0.258811
0.269491
0.268817
0.26158
0.245584
0.222043
0.207933
0.203824
0.199986
0.0612284
0.0884777
0.108608
0.108081
0.109966
0.11563
0.124817
0.137469
0.150455
0.161972
0.173802
0.187215
0.20322
0.220365
0.237719
0.255113
0.267749
0.269493
0.267427
0.258162
0.240605
0.219059
0.207037
0.202889
0.203943
0.059688
0.0925481
0.11171
0.108081
0.112887
0.124042
0.137638
0.153285
0.169357
0.184024
0.198414
0.213815
0.229989
0.245786
0.259077
0.267036
0.268362
0.268365
0.261662
0.249008
0.230987
0.214073
0.205223
0.202821
0.233097
0.0582051
0.104156
0.121712
0.115509
0.135316
0.156996
0.176834
0.195862
0.212864
0.22741
0.24037
0.251765
0.260025
0.264666
0.266071
0.266115
0.264462
0.259155
0.247653
0.233516
0.218424
0.207329
0.202157
0.202471
0.230152
0.059688
0.12348
0.146612
0.149361
0.185058
0.211151
0.231144
0.245636
0.255343
0.261251
0.26388
0.264342
0.264342
0.263388
0.261721
0.257464
0.25063
0.240557
0.228349
0.216726
0.207117
0.201291
0.198549
0.202581
0.233786
0.0579842
0.153276
0.182488
0.197817
0.232032
0.250325
0.261674
0.266438
0.267097
0.265033
0.263658
0.262659
0.258768
0.253194
0.24652
0.238091
0.228448
0.218516
0.209729
0.202991
0.19856
0.196135
0.194573
0.20246
0.230152
0.059688
0.198336
0.212036
0.229374
0.25165
0.261669
0.266684
0.267705
0.267705
0.263412
0.25831
0.250835
0.242208
0.233376
0.224052
0.215081
0.20716
0.200934
0.196599
0.193892
0.192327
0.191314
0.190173
0.202719
0.232984
0.0804865
0.255814
0.229095
0.242016
0.25682
0.26395
0.267304
0.267705
0.263391
0.254427
0.243789
0.23228
0.221707
0.212144
0.203905
0.197475
0.192845
0.189769
0.187845
0.186669
0.185864
0.185194
0.184511
0.202399
0.230152
0.101983
0.25525
0.247465
0.245515
0.258963
0.26465
0.266961
0.264409
0.253756
0.240534
0.226966
0.214816
0.20484
0.196916
0.191031
0.186827
0.18388
0.181814
0.180354
0.179324
0.17862
0.178325
0.17872
0.201451
0.231215
0.11397
0.255985
0.25525
0.248738
0.260321
0.26438
0.265576
0.257295
0.242759
0.227833
0.214149
0.203124
0.19475
0.18861
0.184168
0.180894
0.178462
0.176686
0.175503
0.174948
0.174949
0.175549
0.17753
0.198904
0.230152
0.121341
0.25525
0.255835
0.251305
0.261204
0.263728
0.262986
0.249208
0.233887
0.219627
0.207635
0.198432
0.191481
0.18622
0.182207
0.179172
0.176945
0.175507
0.174856
0.174823
0.175883
0.179321
0.182087
0.190017
0.206997
0.121342
0.255377
0.25525
0.252584
0.261506
0.263427
0.262308
0.249251
0.234319
0.220421
0.208737
0.199694
0.192764
0.187423
0.183273
0.180074
0.17767
0.176015
0.175095
0.174823
0.177616
0.184162
0.190287
0.180131
0.159463
0.121416
0.253278
0.255288
0.252828
0.260894
0.263216
0.262898
0.251674
0.237485
0.224034
0.212578
0.203526
0.196429
0.190801
0.186283
0.182642
0.179722
0.177401
0.175715
0.174864
0.176103
0.181466
0.192903
0.182509
0.12787
0.125333
0.243185
0.254475
0.253296
0.259032
0.262587
0.262883
0.256509
0.244419
0.23134
0.219706
0.210223
0.202647
0.196513
0.191436
0.187137
0.183437
0.18013
0.177198
0.175124
0.17437
0.175311
0.192903
0.193436
0.123044
0.131962
0.224818
0.251249
0.253255
0.256793
0.260858
0.262551
0.260701
0.253465
0.242341
0.230589
0.220159
0.211525
0.204444
0.198531
0.193424
0.188844
0.184541
0.180325
0.176587
0.174371
0.172596
0.192026
0.203575
0.122183
0.145367
0.205439
0.242687
0.252127
0.254926
0.258199
0.261251
0.261075
0.25943
0.253696
0.244462
0.234011
0.224074
0.21539
0.207964
0.20155
0.195839
0.190525
0.185299
0.180172
0.176284
0.172598
0.191292
0.206918
0.123044
0.206694
0.193667
0.224706
0.24582
0.251914
0.255088
0.258387
0.260276
0.260212
0.259299
0.255803
0.248974
0.239972
0.230295
0.221019
0.212594
0.205049
0.198225
0.191861
0.185654
0.180798
0.174888
0.191574
0.207786
0.121041
0.210666
0.186955
0.203074
0.229957
0.244559
0.250751
0.254644
0.25789
0.259403
0.260286
0.260287
0.258352
0.253603
0.246048
0.236779
0.226971
0.217396
0.208456
0.200302
0.192601
0.187001
0.179267
0.193332
0.210199
0.123044
0.208213
0.180745
0.185157
0.207616
0.229276
0.242259
0.249265
0.254092
0.257272
0.259831
0.260289
0.259991
0.258662
0.255614
0.249828
0.241493
0.231576
0.2211
0.211003
0.201199
0.194337
0.184717
0.197067
0.219639
0.12018
0.209995
0.177777
0.177831
0.188814
0.20854
0.227137
0.239884
0.248136
0.253678
0.257715
0.259677
0.261118
0.261757
0.260488
0.257448
0.251975
0.243933
0.233842
0.222866
0.211346
0.202693
0.191333
0.203017
0.235902
0.123044
0.208213
0.17787
0.177402
0.179805
0.191138
0.208876
0.226011
0.239085
0.248183
0.25449
0.258288
0.260847
0.261776
0.261723
0.260613
0.257653
0.25216
0.243961
0.233683
0.221767
0.211523
0.198978
0.21212
0.237586
0.120074
0.208399
0.177402
0.177831
0.178469
0.182568
0.19444
0.211271
0.227712
0.240794
0.250178
0.256181
0.259925
0.261776
0.261776
0.26119
0.259617
0.256231
0.250314
0.241778
0.230796
0.220051
0.206975
0.227393
0.236556
0.123044
0.200303
0.178651
0.18049
0.18017
0.180055
0.186359
0.19968
0.216231
0.232485
0.245183
0.253625
0.258696
0.261597
0.261722
0.261134
0.259587
0.257142
0.253173
0.24674
0.237456
0.227583
0.214669
0.236944
0.237709
0.120114
0.173597
0.187657
0.211102
0.18628
0.180055
0.183438
0.193159
0.20785
0.225399
0.240293
0.250967
0.257378
0.26119
0.261529
0.260945
0.259386
0.25699
0.253715
0.249078
0.241708
0.233547
0.221385
0.237536
0.236821
0.123044
0.136481
0.199031
0.237468
0.191629
0.180102
0.184111
0.193606
0.207906
0.222337
0.237037
0.248872
0.256111
0.260585
0.261059
0.260472
0.258931
0.256599
0.253527
0.249767
0.244075
0.237661
0.226707
0.236944
0.237466
0.120267
0.104968
0.211811
0.237466
0.191263
0.182199
0.186299
0.195561
0.209256
0.223313
0.237482
0.248324
0.255207
0.259842
0.26031
0.259707
0.258204
0.25596
0.253101
0.249636
0.245151
0.24006
0.230553
0.237201
0.236898
0.123044
0.0922985
0.22569
0.237468
0.19039
0.185744
0.189723
0.199239
0.212425
0.225911
0.238916
0.248687
0.255081
0.258909
0.259317
0.258694
0.257244
0.255125
0.252471
0.249264
0.245072
0.241247
0.233105
0.236944
0.237036
0.120404
0.0918519
0.236576
0.237077
0.190889
0.189948
0.194035
0.204347
0.217101
0.229742
0.241144
0.249513
0.254984
0.257822
0.25816
0.257539
0.256154
0.254165
0.251658
0.248551
0.244914
0.242752
0.23498
0.236971
0.236319
0.123044
0.0922985
0.242398
0.235606
0.192741
0.194837
0.199336
0.210504
0.222603
0.234016
0.243649
0.250505
0.254714
0.25665
0.256937
0.256337
0.255018
0.253119
0.250636
0.247545
0.245087
0.246428
0.2368
0.236891
0.231621
0.120823
0.0914665
0.244923
0.234621
0.195479
0.200031
0.205544
0.217076
0.22807
0.237911
0.245651
0.251012
0.254188
0.255459
0.255728
0.255152
0.253869
0.25197
0.249439
0.246832
0.245881
0.248007
0.238883
0.236144
0.223025
0.123044
0.0922985
0.249009
0.236834
0.198468
0.204979
0.212056
0.223197
0.232757
0.240887
0.246869
0.250946
0.253478
0.254348
0.254609
0.254016
0.2527
0.250726
0.248397
0.247095
0.247649
0.247816
0.241753
0.234131
0.21134
0.121932
0.0911848
0.25964
0.247551
0.2025
0.209861
0.218127
0.228235
0.236417
0.243065
0.247874
0.250876
0.25261
0.253392
0.253594
0.252927
0.251511
0.249551
0.247925
0.247798
0.247816
0.248007
0.245833
0.230485
0.198979
0.123044
0.0922985
0.26437
0.264964
0.207878
0.215499
0.223375
0.232119
0.239106
0.24456
0.248273
0.250579
0.251857
0.252537
0.252684
0.251863
0.250366
0.248687
0.247816
0.247816
0.247869
0.247816
0.247867
0.225311
0.188686
0.126984
0.0910987
0.265166
0.264446
0.214382
0.221627
0.227694
0.235065
0.240929
0.245307
0.248173
0.25007
0.251207
0.251741
0.251838
0.250813
0.249354
0.248147
0.247805
0.247826
0.247816
0.247881
0.247816
0.218827
0.181185
0.133844
0.0922985
0.264396
0.265405
0.221098
0.227157
0.231011
0.237251
0.242097
0.245622
0.248011
0.249628
0.250609
0.251011
0.251027
0.249818
0.248526
0.247796
0.247757
0.247816
0.247824
0.247816
0.247666
0.213044
0.176327
0.140745
0.0910954
0.265116
0.264446
0.227221
0.231574
0.23338
0.23883
0.242833
0.245741
0.247803
0.249235
0.250068
0.25037
0.250238
0.248936
0.247891
0.247506
0.247656
0.247789
0.247816
0.247602
0.247214
0.213119
0.174441
0.146186
0.0922985
0.26441
0.265421
0.232429
0.234951
0.235027
0.239965
0.243306
0.245787
0.247624
0.248886
0.249586
0.249813
0.249494
0.248204
0.247416
0.247244
0.247516
0.247729
0.247663
0.246672
0.246361
0.215461
0.174953
0.145881
0.0911104
0.265092
0.264446
0.236554
0.237464
0.236334
0.240814
0.243627
0.245807
0.247463
0.248582
0.249163
0.249311
0.248827
0.247619
0.24704
0.246994
0.247308
0.247568
0.247239
0.24434
0.244973
0.224611
0.176014
0.143871
0.0922985
0.264421
0.265321
0.239776
0.239345
0.237455
0.241513
0.243908
0.245831
0.24734
0.248327
0.248828
0.248812
0.248255
0.247138
0.246692
0.246723
0.247005
0.247112
0.246414
0.241405
0.24366
0.245794
0.17843
0.139872
0.0911239
0.264998
0.264446
0.242364
0.24075
0.238438
0.242053
0.244151
0.245888
0.247249
0.248141
0.248535
0.248394
0.247815
0.246748
0.246377
0.246468
0.246698
0.246338
0.24549
0.240272
0.243217
0.258434
0.183818
0.134741
0.0922985
0.26443
0.265169
0.244542
0.241752
0.239187
0.242327
0.244269
0.245984
0.247176
0.247957
0.248199
0.248337
0.247565
0.246462
0.24621
0.246211
0.24645
0.2458
0.245021
0.240274
0.242672
0.259055
0.192225
0.128769
0.0911318
0.264894
0.264446
0.24618
0.242605
0.239613
0.242699
0.244324
0.245981
0.247021
0.24764
0.248022
0.248191
0.247347
0.246332
0.245922
0.245879
0.246158
0.24585
0.244816
0.240428
0.241741
0.258434
0.202289
0.123044
0.0922985
0.264436
0.265044
0.24729
0.243407
0.24009
0.243211
0.244379
0.245876
0.246778
0.24739
0.247854
0.247753
0.247014
0.246138
0.245463
0.245646
0.245845
0.245643
0.244362
0.240815
0.240814
0.259034
0.214744
0.122773
0.0911373
0.264826
0.264446
0.248463
0.243906
0.240676
0.243168
0.244436
0.245744
0.246805
0.24739
0.247508
0.247459
0.246713
0.245735
0.245464
0.245518
0.245616
0.24527
0.243769
0.24081
0.240831
0.258434
0.233758
0.123044
0.0922985
0.26444
0.264941
0.249605
0.244421
0.241011
0.243299
0.244426
0.245768
0.24691
0.247263
0.247514
0.247512
0.246777
0.245758
0.245555
0.245288
0.245255
0.244962
0.243776
0.240963
0.240796
0.259052
0.258434
0.122251
0.0911441
0.264746
0.264446
0.250388
0.245172
0.241416
0.243633
0.244494
0.245914
0.24685
0.247308
0.247514
0.247467
0.246754
0.245984
0.245435
0.245175
0.245062
0.244777
0.243807
0.241705
0.240847
0.258434
0.259023
0.123044
0.0922985
0.264443
0.264867
0.251358
0.245636
0.242004
0.24361
0.24458
0.245952
0.246863
0.24738
0.24738
0.247411
0.246797
0.245895
0.24536
0.245233
0.245131
0.244797
0.244145
0.242609
0.240991
0.258993
0.258434
0.122105
0.0911436
0.264673
0.264446
0.252341
0.246092
0.242003
0.24359
0.244708
0.245921
0.246997
0.247244
0.247434
0.247458
0.247022
0.245715
0.245636
0.245211
0.245103
0.244898
0.24467
0.243663
0.241727
0.258434
0.258813
0.123044
0.0922985
0.264443
0.264799
0.252952
0.246733
0.242059
0.243674
0.244946
0.246038
0.246962
0.247318
0.247634
0.247704
0.247001
0.245824
0.245622
0.245223
0.245206
0.244955
0.244671
0.244761
0.242741
0.25888
0.258434
0.12204
0.0911515
0.264618
0.264446
0.253787
0.247062
0.242322
0.243917
0.244963
0.246112
0.247026
0.247581
0.24759
0.247709
0.246968
0.246072
0.245394
0.245313
0.245489
0.245051
0.244788
0.245426
0.243882
0.258434
0.258806
0.123044
0.0922985
0.264444
0.264764
0.254636
0.24748
0.242369
0.244259
0.245007
0.246211
0.247273
0.247488
0.247777
0.247663
0.247097
0.24631
0.245601
0.245405
0.24574
0.245306
0.245059
0.246129
0.245056
0.258816
0.258434
0.121993
0.0911582
0.264559
0.264446
0.255115
0.248081
0.242563
0.244247
0.245176
0.246449
0.247246
0.247531
0.247795
0.247795
0.247209
0.246243
0.246006
0.245537
0.24574
0.245564
0.245128
0.24698
0.246076
0.258434
0.258689
0.123044
0.0922985
0.264445
0.264708
0.255805
0.248341
0.242983
0.244352
0.245234
0.246472
0.24725
0.2477
0.2477
0.248448
0.247317
0.2463
0.245971
0.245739
0.24574
0.24546
0.245316
0.247401
0.247109
0.258745
0.258434
0.12196
0.0911573
0.264483
0.264446
0.25653
0.248734
0.243189
0.244642
0.245313
0.246488
0.247335
0.247615
0.2479
0.249692
0.247525
0.246452
0.245993
0.245812
0.245701
0.245538
0.245622
0.247836
0.248089
0.258434
0.258646
0.123044
0.0922985
0.264443
0.264674
0.256978
0.249326
0.243571
0.244639
0.245567
0.246583
0.247222
0.247799
0.248577
0.250107
0.247515
0.246408
0.246134
0.245895
0.245757
0.246052
0.245715
0.248508
0.248826
0.258679
0.258434
0.121942
0.0911678
0.264476
0.264446
0.257675
0.249544
0.244133
0.244716
0.245776
0.246523
0.247178
0.248678
0.24978
0.250162
0.247556
0.246447
0.246477
0.246091
0.245961
0.246519
0.245998
0.248854
0.249601
0.258434
0.258591
0.123044
0.0922985
0.264442
0.264614
0.258417
0.249839
0.244133
0.244963
0.245773
0.246544
0.247373
0.250107
0.250159
0.250107
0.24782
0.246622
0.246622
0.246239
0.24609
0.246519
0.246442
0.24904
0.250437
0.258631
0.258434
0.121924
0.0911532
0.264389
0.264446
0.258855
0.250291
0.244137
0.245064
0.245834
0.246779
0.247526
0.250152
0.250107
0.250157
0.248278
0.246833
0.246607
0.24639
0.246163
0.246519
0.246442
0.249428
0.251051
0.258434
0.258535
0.123044
0.0922985
0.264276
0.264579
0.259752
0.250628
0.244483
0.245285
0.24613
0.247045
0.247846
0.250107
0.250147
0.250107
0.249265
0.247176
0.246717
0.246644
0.246362
0.246504
0.2466
0.250048
0.251893
0.258581
0.258434
0.121905
0.091146
0.264105
0.264446
0.261257
0.25148
0.245489
0.246099
0.246893
0.247788
0.24875
0.25015
0.250107
0.25015
0.250107
0.248042
0.247331
0.247075
0.24683
0.246968
0.247459
0.25128
0.253548
0.258434
0.258535
0.123044
0.0922985
0.264025
0.264485
0.262558
0.252822
0.24693
0.247416
0.247819
0.248988
0.24985
0.250107
0.250123
0.250107
0.250119
0.249129
0.248237
0.247739
0.247475
0.247969
0.248799
0.252864
0.255444
0.258481
0.258434
0.121815
0.0911814
0.262755
0.263687
0.261328
0.252021
0.246213
0.246426
0.24676
0.247776
0.248566
0.248747
0.24883
0.248741
0.248781
0.2479
0.247059
0.246634
0.246361
0.247076
0.248399
0.251883
0.254353
0.257845
0.258449
0.123044
0.0922985
0.253395
0.25414
0.251618
0.244168
0.23878
0.238418
0.238531
0.239129
0.239683
0.239783
0.239875
0.239757
0.239834
0.239275
0.238725
0.238457
0.238239
0.239584
0.24228
0.242973
0.244803
0.248365
0.253348
0.121799
0.0944777
0.238752
0.236572
0.23657
0.23351
0.229208
0.228738
0.228738
0.228738
0.228738
0.228738
0.228738
0.228738
0.228738
0.228738
0.228738
0.228738
0.228738
0.230897
0.235364
0.228747
0.228747
0.228747
0.243324
0.123044
0.226719
0.299544
0.290457
0.297051
0.300054
0.297358
0.292995
0.28998
0.288873
0.287755
0.286701
0.286803
0.288461
0.289909
0.286967
0.282583
0.283046
0.288933
0.300274
0.305923
0.290597
0.256263
0.271035
0.304784
0.247237
0.743392
0.667454
0.634555
0.643791
0.65335
0.652085
0.643946
0.637556
0.634303
0.631341
0.628729
0.628435
0.631341
0.634303
0.630197
0.623417
0.625473
0.636957
0.654527
0.662456
0.647011
0.57829
0.614894
0.671397
0.742414
0.982524
0.966102
0.954878
0.953027
0.953149
0.952328
0.95063
0.94915
0.948133
0.947296
0.946654
0.946469
0.946851
0.947343
0.947039
0.946526
0.947317
0.94947
0.952309
0.953958
0.953123
0.947105
0.953732
0.965928
0.981629
0.999864
0.999445
0.998655
0.998263
0.998189
0.998152
0.998104
0.998051
0.998
0.997958
0.99793
0.997919
0.997926
0.997941
0.997958
0.997984
0.998033
0.998102
0.998167
0.998209
0.998233
0.998271
0.9987
0.999461
0.999864
1
0.999999
0.999993
0.999983
0.999981
0.99998
0.99998
0.999979
0.999978
0.999978
0.999978
0.999978
0.999979
0.999979
0.99998
0.99998
0.99998
0.99998
0.999981
0.999981
0.999982
0.999985
0.999994
0.999999
1
1
1
1
1
1
1
1
1
1
1
1
1
1
1
1
1
1
1
1
1
1
1
1
1
1
1
1
1
1
1
1
1
1
1
1
1
1
1
1
1
1
1
1
1
1
1
1
1
1
1
1
1
1
1
1
1
1
1
1
1
1
1
1
1
1
1
1
1
1
1
1
1
1
1
1
)
;

boundaryField
{
    inlet
    {
        type            fixedValue;
        value           uniform 0.5;
    }
    outlet
    {
        type            inletOutlet;
        phi             phi.air;
        inletValue      uniform 1;
        value           nonuniform List<scalar> 
25
(
1
1
1
1
1
1
1
1
1
1
1
1
1
1
1
1
1
1
1
1
1
1
1
1
1
)
;
    }
    walls
    {
        type            zeroGradient;
    }
    defaultFaces
    {
        type            empty;
    }
}


// ************************************************************************* //
