/*--------------------------------*- C++ -*----------------------------------*\
| =========                 |                                                 |
| \\      /  F ield         | OpenFOAM: The Open Source CFD Toolbox           |
|  \\    /   O peration     | Version:  2312                                  |
|   \\  /    A nd           | Website:  www.openfoam.com                      |
|    \\/     M anipulation  |                                                 |
\*---------------------------------------------------------------------------*/
FoamFile
{
    version     2.0;
    format      ascii;
    arch        "LSB;label=32;scalar=64";
    class       volScalarField;
    location    "67";
    object      pMean;
}
// * * * * * * * * * * * * * * * * * * * * * * * * * * * * * * * * * * * * * //

dimensions      [1 -1 -2 0 0 0 0];

internalField   nonuniform List<scalar> 
1875
(
107147
107135
107106
107084
107065
107050
107038
107029
107022
107018
107016
107015
107016
107019
107022
107026
107030
107036
107043
107052
107062
107074
107088
107108
107118
106936
106923
106904
106889
106877
106867
106858
106852
106848
106845
106843
106844
106845
106848
106851
106856
106861
106867
106873
106880
106888
106896
106906
106918
106929
106798
106791
106782
106774
106766
106759
106752
106746
106741
106737
106735
106735
106737
106741
106747
106753
106761
106768
106775
106783
106790
106796
106802
106808
106814
106670
106664
106657
106649
106642
106634
106627
106620
106615
106612
106610
106610
106612
106616
106622
106629
106637
106645
106653
106661
106668
106674
106679
106684
106687
106568
106563
106559
106553
106547
106541
106536
106531
106527
106524
106523
106523
106526
106530
106535
106541
106548
106555
106561
106566
106572
106577
106581
106585
106586
106466
106462
106459
106454
106448
106442
106437
106433
106429
106427
106426
106426
106428
106431
106436
106441
106446
106452
106457
106461
106466
106471
106475
106478
106479
106370
106366
106364
106360
106355
106350
106346
106342
106339
106337
106336
106336
106337
106339
106342
106345
106349
106352
106356
106359
106363
106368
106371
106375
106375
106268
106263
106262
106258
106254
106250
106245
106242
106239
106237
106235
106235
106236
106237
106238
106241
106243
106246
106248
106252
106255
106258
106262
106265
106264
106165
106161
106160
106157
106154
106150
106146
106142
106138
106135
106133
106132
106132
106132
106133
106134
106136
106138
106140
106142
106145
106149
106152
106154
106154
106055
106052
106052
106050
106047
106043
106039
106034
106030
106027
106024
106022
106021
106021
106021
106022
106023
106025
106027
106029
106032
106035
106038
106040
106040
105945
105942
105942
105940
105937
105933
105929
105925
105921
105917
105913
105911
105909
105909
105908
105909
105910
105912
105914
105917
105919
105922
105925
105927
105927
105831
105830
105828
105827
105824
105821
105817
105812
105808
105804
105801
105799
105797
105796
105796
105796
105798
105799
105802
105804
105807
105810
105812
105814
105815
105717
105715
105714
105712
105710
105707
105703
105700
105696
105692
105690
105688
105686
105686
105686
105687
105688
105690
105692
105695
105697
105699
105702
105704
105705
105602
105601
105599
105597
105595
105592
105590
105587
105584
105582
105580
105578
105578
105578
105579
105580
105581
105583
105585
105587
105589
105591
105594
105596
105598
105489
105488
105486
105484
105482
105480
105478
105476
105475
105473
105472
105472
105473
105473
105475
105476
105478
105479
105481
105482
105484
105486
105488
105490
105493
105378
105377
105375
105373
105371
105370
105368
105368
105367
105367
105367
105368
105369
105370
105371
105373
105374
105376
105377
105379
105380
105382
105384
105385
105387
105271
105270
105268
105266
105264
105263
105262
105262
105262
105262
105263
105265
105266
105267
105269
105270
105272
105273
105274
105276
105277
105278
105280
105281
105282
105167
105166
105164
105162
105160
105159
105158
105157
105157
105158
105159
105161
105162
105164
105165
105167
105168
105170
105171
105172
105173
105175
105176
105176
105178
105063
105062
105061
105059
105057
105055
105054
105053
105053
105053
105054
105056
105058
105059
105061
105062
105064
105065
105066
105068
105069
105071
105072
105072
105074
104960
104959
104958
104956
104954
104952
104950
104949
104948
104948
104949
104950
104952
104954
104955
104957
104958
104960
104961
104962
104963
104965
104966
104967
104968
104857
104856
104855
104853
104851
104849
104847
104845
104844
104844
104844
104845
104847
104848
104850
104851
104852
104853
104854
104855
104856
104858
104859
104860
104861
104754
104753
104752
104751
104749
104747
104745
104743
104741
104740
104740
104741
104742
104743
104744
104745
104746
104747
104748
104748
104749
104750
104751
104752
104754
104650
104649
104648
104647
104645
104643
104641
104639
104637
104636
104635
104636
104636
104637
104638
104639
104640
104641
104641
104642
104643
104644
104644
104646
104647
104546
104545
104544
104542
104540
104538
104536
104534
104532
104531
104530
104530
104531
104531
104532
104533
104533
104534
104535
104535
104536
104537
104538
104539
104540
104441
104440
104439
104437
104435
104433
104431
104429
104427
104426
104425
104425
104425
104425
104426
104426
104427
104427
104428
104429
104430
104431
104432
104433
104434
104336
104335
104333
104332
104330
104328
104326
104324
104322
104320
104319
104319
104319
104319
104319
104320
104320
104321
104322
104323
104324
104325
104326
104327
104328
104230
104229
104227
104226
104224
104222
104220
104218
104217
104215
104214
104213
104213
104213
104214
104214
104215
104216
104217
104218
104219
104220
104221
104222
104223
104123
104122
104121
104120
104118
104116
104114
104112
104110
104109
104108
104108
104108
104108
104109
104109
104110
104111
104113
104114
104115
104116
104117
104118
104119
104016
104015
104014
104013
104011
104009
104007
104005
104004
104003
104003
104003
104004
104004
104005
104006
104007
104009
104010
104011
104012
104013
104014
104015
104015
103910
103909
103908
103907
103905
103903
103901
103900
103899
103899
103898
103899
103900
103901
103902
103903
103904
103906
103907
103908
103909
103910
103911
103911
103912
103804
103803
103802
103801
103799
103797
103796
103795
103794
103794
103794
103794
103795
103796
103798
103799
103801
103802
103803
103804
103805
103806
103807
103807
103808
103698
103697
103696
103694
103693
103692
103691
103690
103689
103689
103689
103690
103691
103692
103693
103695
103696
103697
103699
103700
103700
103701
103702
103702
103703
103593
103591
103590
103589
103587
103586
103585
103585
103584
103584
103585
103585
103586
103587
103589
103590
103591
103592
103593
103594
103595
103596
103596
103597
103597
103488
103486
103485
103483
103482
103481
103480
103480
103479
103480
103480
103481
103482
103483
103485
103486
103487
103488
103489
103489
103490
103491
103491
103492
103492
103383
103381
103380
103379
103378
103376
103376
103375
103375
103375
103375
103376
103377
103379
103380
103382
103383
103383
103384
103385
103385
103386
103386
103387
103387
103278
103277
103276
103275
103273
103272
103271
103271
103271
103270
103271
103272
103273
103274
103276
103277
103278
103279
103279
103280
103281
103281
103281
103282
103282
103174
103173
103172
103171
103169
103168
103167
103167
103166
103166
103167
103167
103168
103169
103171
103172
103172
103173
103174
103175
103175
103176
103176
103176
103177
103070
103069
103068
103067
103066
103065
103064
103064
103063
103063
103063
103063
103064
103065
103065
103066
103067
103067
103068
103068
103069
103070
103070
103071
103071
102967
102966
102965
102964
102963
102963
102962
102961
102960
102960
102960
102960
102960
102961
102961
102961
102962
102962
102962
102963
102964
102964
102965
102965
102966
102864
102863
102862
102861
102860
102860
102859
102858
102857
102857
102857
102856
102856
102857
102857
102857
102857
102858
102858
102858
102859
102859
102860
102860
102861
102760
102759
102758
102758
102757
102756
102755
102754
102754
102753
102752
102752
102752
102752
102753
102753
102753
102753
102754
102754
102754
102755
102755
102756
102757
102656
102655
102655
102654
102653
102652
102651
102650
102649
102648
102648
102648
102647
102648
102648
102648
102649
102649
102649
102650
102650
102651
102651
102652
102653
102552
102551
102550
102549
102548
102547
102546
102545
102544
102544
102543
102543
102543
102543
102543
102543
102544
102544
102545
102546
102546
102547
102547
102548
102549
102447
102446
102446
102444
102444
102442
102441
102441
102440
102439
102439
102438
102438
102438
102438
102439
102439
102440
102441
102441
102442
102443
102443
102443
102444
102342
102341
102340
102340
102339
102338
102337
102336
102335
102335
102334
102334
102334
102334
102334
102334
102334
102335
102336
102337
102337
102338
102339
102339
102340
102236
102236
102235
102234
102234
102233
102232
102231
102230
102230
102229
102229
102229
102229
102229
102229
102229
102230
102231
102231
102232
102233
102234
102234
102235
102131
102131
102130
102129
102128
102128
102127
102126
102125
102125
102124
102124
102124
102124
102124
102124
102125
102125
102126
102127
102128
102129
102130
102130
102131
102026
102025
102025
102024
102023
102022
102021
102021
102020
102019
102019
102018
102018
102019
102019
102020
102021
102021
102022
102023
102024
102025
102026
102026
102027
101921
101921
101920
101919
101919
101918
101917
101916
101915
101915
101914
101914
101914
101915
101915
101916
101917
101918
101919
101920
101920
101921
101922
101922
101923
101817
101816
101816
101815
101815
101814
101813
101812
101811
101810
101810
101810
101810
101811
101812
101813
101814
101815
101816
101817
101817
101818
101818
101819
101820
101713
101712
101712
101711
101710
101709
101708
101707
101707
101706
101706
101706
101707
101708
101709
101710
101711
101712
101713
101713
101714
101714
101715
101715
101716
101609
101608
101608
101607
101606
101605
101604
101603
101603
101602
101602
101603
101603
101604
101605
101606
101607
101607
101608
101609
101610
101610
101611
101611
101612
101505
101504
101504
101503
101502
101501
101501
101500
101499
101499
101499
101499
101499
101500
101500
101501
101502
101502
101503
101504
101504
101505
101506
101506
101507
101402
101400
101400
101399
101399
101398
101398
101397
101397
101396
101396
101396
101396
101396
101396
101396
101397
101397
101398
101398
101399
101400
101401
101401
101402
101299
101298
101298
101297
101297
101296
101296
101295
101295
101295
101294
101294
101294
101293
101293
101293
101293
101293
101294
101294
101295
101296
101296
101297
101298
101197
101197
101196
101195
101195
101194
101194
101193
101193
101193
101193
101192
101192
101192
101191
101191
101191
101190
101191
101191
101192
101192
101193
101193
101194
101096
101095
101095
101094
101093
101093
101092
101092
101091
101091
101091
101091
101090
101090
101090
101089
101089
101089
101089
101089
101089
101090
101091
101092
101093
100994
100993
100993
100992
100991
100991
100990
100990
100989
100989
100989
100988
100988
100988
100988
100988
100988
100988
100988
100988
100988
100989
100990
100991
100992
100892
100891
100891
100890
100889
100889
100888
100888
100887
100887
100887
100887
100887
100887
100887
100887
100887
100887
100887
100888
100888
100889
100890
100891
100892
100790
100790
100789
100789
100788
100787
100787
100787
100787
100786
100786
100786
100786
100785
100785
100785
100785
100786
100787
100788
100789
100790
100791
100791
100792
100691
100690
100689
100689
100688
100688
100687
100687
100687
100687
100686
100686
100685
100685
100685
100685
100685
100686
100687
100688
100689
100690
100691
100692
100693
100591
100590
100589
100589
100588
100588
100588
100587
100587
100587
100586
100586
100585
100585
100584
100585
100585
100586
100587
100588
100590
100590
100591
100592
100593
100493
100492
100491
100491
100490
100490
100490
100489
100489
100489
100488
100487
100487
100487
100487
100487
100487
100488
100489
100490
100492
100492
100493
100493
100495
100394
100392
100392
100392
100392
100391
100391
100390
100390
100389
100389
100389
100388
100388
100388
100388
100389
100390
100391
100392
100393
100393
100394
100394
100395
100299
100298
100298
100298
100297
100297
100297
100297
100296
100296
100295
100295
100295
100295
100295
100295
100296
100296
100297
100297
100298
100298
100298
100298
100300
100199
100198
100198
100198
100198
100198
100198
100198
100197
100197
100197
100197
100196
100196
100196
100197
100197
100197
100197
100197
100197
100197
100198
100197
100199
100093
100095
100096
100096
100096
100095
100095
100095
100095
100095
100096
100096
100096
100095
100095
100095
100095
100095
100095
100095
100094
100094
100094
100092
100091
100017
100020
100021
100022
100022
100022
100022
100021
100021
100021
100021
100021
100021
100021
100021
100021
100021
100021
100021
100021
100021
100021
100020
100019
100016
100002
100003
100003
100003
100003
100003
100003
100003
100003
100003
100003
100003
100003
100003
100003
100003
100003
100003
100003
100003
100003
100003
100003
100003
100002
100001
100001
100001
100001
100001
100001
100001
100001
100001
100001
100001
100001
100001
100001
100001
100001
100001
100001
100001
100001
100001
100001
100001
100001
100001
100001
100001
100001
100001
100001
100001
100001
100001
100001
100001
100001
100001
100001
100001
100001
100001
100001
100001
100001
100001
100001
100001
100001
100001
100001
100001
100001
100001
100001
100001
100001
100001
100001
100001
100001
100001
100001
100001
100001
100001
100001
100001
100001
100001
100001
100001
100001
100001
100001
100001
100000
100000
100000
100000
100000
100000
100000
100000
100000
100000
100000
100000
100000
100000
100000
100000
100000
100000
100000
100000
100000
100000
100000
100000
100000
100000
100000
100000
100000
100000
100000
100000
100000
100000
100000
100000
100000
100000
100000
100000
100000
100000
100000
100000
100000
100000
100000
100000
100000
100000
100000
100000
100000
100000
100000
100000
100000
100000
100000
100000
100000
100000
100000
100000
100000
100000
100000
100000
100000
100000
100000
100000
100000
100000
100000
)
;

boundaryField
{
    inlet
    {
        type            calculated;
        value           nonuniform List<scalar> 
25
(
107174
107163
107134
107112
107093
107077
107065
107055
107048
107044
107042
107041
107042
107044
107047
107051
107056
107062
107069
107078
107089
107101
107115
107135
107145
)
;
    }
    outlet
    {
        type            calculated;
        value           uniform 100000;
    }
    walls
    {
        type            calculated;
        value           nonuniform List<scalar> 
150
(
107147
106936
106798
106670
106568
106466
106370
106268
106165
106055
105945
105831
105717
105602
105489
105378
105271
105167
105063
104960
104857
104754
104650
104546
104441
104336
104230
104123
104016
103910
103804
103698
103593
103488
103383
103278
103174
103070
102967
102864
102760
102656
102552
102447
102342
102236
102131
102026
101921
101817
101713
101609
101505
101402
101299
101197
101096
100994
100892
100790
100691
100591
100493
100394
100299
100199
100093
100017
100002
100001
100001
100001
100000
100000
100000
107118
106929
106814
106687
106586
106479
106375
106264
106154
106040
105927
105815
105705
105598
105493
105387
105282
105178
105074
104968
104861
104754
104647
104540
104434
104328
104223
104119
104015
103912
103808
103703
103597
103492
103387
103282
103177
103071
102966
102861
102757
102653
102549
102444
102340
102235
102131
102027
101923
101820
101716
101612
101507
101402
101298
101194
101093
100992
100892
100792
100693
100593
100495
100395
100300
100199
100091
100016
100002
100001
100001
100001
100000
100000
100000
)
;
    }
    defaultFaces
    {
        type            empty;
    }
}


// ************************************************************************* //
