/*--------------------------------*- C++ -*----------------------------------*\
| =========                 |                                                 |
| \\      /  F ield         | OpenFOAM: The Open Source CFD Toolbox           |
|  \\    /   O peration     | Version:  2312                                  |
|   \\  /    A nd           | Website:  www.openfoam.com                      |
|    \\/     M anipulation  |                                                 |
\*---------------------------------------------------------------------------*/
FoamFile
{
    version     2.0;
    format      ascii;
    arch        "LSB;label=32;scalar=64";
    class       volScalarField;
    location    "0.35/water";
    object      alpha.gas_0;
}
// * * * * * * * * * * * * * * * * * * * * * * * * * * * * * * * * * * * * * //

dimensions      [0 0 0 0 0 0 0];

internalField   nonuniform List<scalar> 
1503
(
0.170953559509
0.102991830295
0.0290658812883
0.00719803274676
0.001336086085
0.000205361140316
2.62949452554e-05
2.05430760417e-06
4.91690776057e-08
4.76908027625e-10
2.55769643913e-12
1.06232910397e-14
1e-15
1e-15
1e-15
1e-15
1e-15
1e-15
1e-15
1e-15
0.609314134763
0.257805542068
0.106693301132
0.0360735694446
0.0112844505334
0.00299888317382
0.000683441178676
0.000123908557587
1.2869625114e-05
3.03779490191e-07
1.08515909896e-09
1.79569292666e-12
3.06756135072e-15
1e-15
1e-15
1e-15
1e-15
1e-15
1e-15
1e-15
0.613304089033
0.34213354932
0.168250303985
0.0714532462214
0.0272971911175
0.00907405917495
0.0025573932625
0.000585666076213
8.91963638965e-05
4.83380777899e-06
2.49040903331e-08
3.22893952691e-11
3.19480047387e-14
1.00056966997e-15
1e-15
1e-15
1e-15
1e-15
1e-15
1e-15
0.613303650933
0.420851172925
0.245457992367
0.125115304665
0.0560609759695
0.0215219371279
0.00690322230562
0.00179828582468
0.000338042837261
3.13791967586e-05
4.46770475563e-07
5.03368584037e-10
3.35635045078e-13
1.1531780046e-15
1e-15
1e-15
1e-15
1e-15
1e-15
1e-15
0.598228112488
0.469120847188
0.325764355898
0.198983756153
0.105706437175
0.0471936282825
0.0171150366055
0.00488616347277
0.00102791736145
0.000126157803993
4.45497337405e-06
7.72987961912e-09
4.07293034327e-12
2.90660972455e-15
1.00002881793e-15
1e-15
1e-15
1e-15
1e-15
1e-15
0.571934903529
0.4886851151
0.38879836174
0.278362677616
0.175060812842
0.0931783601747
0.0400291690792
0.0131231174781
0.00306820935993
0.000441798524813
2.61654488596e-05
1.67687065099e-07
9.40719208742e-11
3.90440082727e-14
1.00907563333e-15
1e-15
1e-15
1e-15
1e-15
1e-15
0.554181246805
0.491634921599
0.425688002321
0.342820030389
0.248355802093
0.156286008156
0.0815837905334
0.0328558754321
0.00923781965757
0.00157945359491
0.000127020008322
2.42506083863e-06
2.08431742502e-09
7.65294875454e-13
1.23122012498e-15
1.0002607713e-15
1.00004637937e-15
1.00001427039e-15
1.00000270083e-15
1e-15
0.554762337832
0.491769241469
0.439598592573
0.380058116868
0.30509472649
0.220393647382
0.137466029425
0.0690287000175
0.0248554585338
0.00545035440102
0.000581746166835
2.04208686074e-05
6.668709564e-08
2.86193930455e-11
8.99480116721e-15
1.00280644845e-15
1.00058865706e-15
1.0002336232e-15
1.00006069096e-15
1e-15
0.554779054756
0.487223655966
0.444493421431
0.39920971602
0.342774181042
0.273017602952
0.194862375292
0.117739243154
0.0540874116568
0.015870834213
0.00234652335096
0.000126905261002
1.30314675106e-06
9.01906747655e-10
2.76294467862e-13
1.05479831843e-15
1.00235356318e-15
1.0013225363e-15
1.00058035216e-15
1.00010440934e-15
0.551172463179
0.473336316358
0.44196844682
0.409700541722
0.368467679748
0.312346355529
0.24335112567
0.167281452964
0.0935715991985
0.0362226459105
0.00752960599152
0.000607080405255
1.22223431352e-05
1.81725904394e-08
5.74247976008e-12
1.9542894381e-15
1.003630487e-15
1.0022506918e-15
1.0011526812e-15
1.0003882554e-15
0.536889781584
0.451933271219
0.436447302561
0.418178729383
0.389032717548
0.342174396
0.279719237618
0.208188814915
0.13431815703
0.0654674511916
0.0186626244662
0.00221556193582
7.52821873258e-05
3.38102383277e-07
1.28699306765e-10
2.12853147096e-14
1.004507242e-15
1.0019719253e-15
1.00101324875e-15
1.00038586584e-15
0.520986679992
0.440151839898
0.436657522617
0.429417769861
0.408749446458
0.365875086827
0.306694819219
0.241080071696
0.172411460733
0.100548713173
0.0376944217164
0.00651194037728
0.000365300126965
4.329721959e-06
9.50044662399e-10
3.50248289373e-14
1.00153023831e-15
1.00068909623e-15
1.00032673793e-15
1.00012524659e-15
0.520292159746
0.450102391345
0.447458263509
0.445968723304
0.427764791496
0.385725278828
0.330386759263
0.271760123083
0.210534694456
0.141583274376
0.0676027408313
0.0168636055383
0.00158609828394
4.12985362625e-05
8.59284323106e-08
7.0261052017e-14
1.01029621348e-15
1e-15
1e-15
1e-15
0.538797368989
0.48784830565
0.478546913236
0.470405320853
0.44726617565
0.406251269311
0.356721788675
0.305254948654
0.251676978852
0.189528409723
0.112705271189
0.0405334745177
0.00642086346667
0.000336361963913
3.7170793193e-06
9.77203627656e-11
5.88589415736e-15
1e-15
1e-15
1e-15
0.595047096522
0.53769534459
0.516311211059
0.497881325345
0.468517926741
0.428061570097
0.383912195072
0.338859363735
0.291894538559
0.239217573743
0.170787423915
0.0862059489361
0.0224601236585
0.00219256952382
5.75011011664e-05
1.21059191704e-07
1.53767993367e-12
1.4873005163e-15
1e-15
1e-15
0.61512506082
0.558385184528
0.541044021207
0.520550261506
0.4870530389
0.443180729572
0.398205178716
0.357206657543
0.319520996348
0.279199986194
0.227762614256
0.150036700812
0.0601687124761
0.0101956690311
0.000523798089089
5.39555470169e-06
1.24229193589e-10
4.35936426382e-14
1.00980266334e-15
1e-15
0.61233215451
0.560424529654
0.548373560966
0.529555331016
0.494381194205
0.446593808787
0.39879163199
0.357383228742
0.324512579783
0.299610550054
0.269596706512
0.212320053736
0.1171773072
0.0318095559628
0.00289889703747
6.30820276527e-05
1.2403713112e-07
1.3229712927e-12
1.54064126277e-15
1e-15
0.616527187918
0.558085397291
0.546979023006
0.528092509244
0.492778682947
0.444291850953
0.39494797091
0.352148681905
0.320648696104
0.305799689784
0.293555865368
0.257066599616
0.173017004779
0.0670188184511
0.00995548137984
0.0003808347446
2.4955857587e-06
6.04514237141e-10
1.34864513931e-13
1.03059250175e-15
0.61233215451
0.550161977737
0.543516793033
0.52258924448
0.484864053007
0.433983607345
0.38169295298
0.336330797619
0.307784124993
0.303618538835
0.303580335544
0.283177066669
0.211786466733
0.10280573375
0.0221637557981
0.0013458947023
1.59203016433e-05
1.96829562445e-08
8.91235987911e-12
4.21627264124e-15
0.616480047272
0.537323070897
0.534832798642
0.510190825259
0.466651989992
0.411144190575
0.355202672801
0.310284497082
0.300978926046
0.301009753419
0.303524672242
0.293447528644
0.233618160271
0.128452349646
0.0353050613309
0.00301502309065
5.26694968531e-05
1.25869084321e-07
8.93977950411e-11
4.50045548449e-14
0.612140256097
0.524104132521
0.519461992709
0.489415340795
0.438742721035
0.377315453747
0.320358653186
0.300924720977
0.301009753419
0.300565609005
0.300926857429
0.299083232958
0.248353778614
0.14569829159
0.0464870704816
0.00506243608909
0.000116583185327
3.94867934641e-07
3.60123473719e-10
2.09775231045e-13
0.615203632592
0.512529030776
0.498221443831
0.462376325821
0.407741709946
0.345662869648
0.301525680524
0.301113436681
0.300523664401
0.301009753419
0.301149973496
0.309657787283
0.264976587029
0.163579885038
0.058685937645
0.00781531358351
0.000229398364112
1.02725726635e-06
1.05971464373e-09
6.33998493951e-13
0.612140256097
0.501976704633
0.473112827163
0.433140858517
0.38137257728
0.32739236138
0.301237891957
0.300523664401
0.301113436681
0.300447067915
0.317840836765
0.335498956902
0.292751014883
0.194395952768
0.0799855290789
0.0133565914442
0.000531984080331
3.38871791169e-06
3.27250589291e-09
1.46796595364e-12
0.612601441073
0.490372892598
0.455885121035
0.415533320364
0.370237213801
0.32389069426
0.300925352148
0.301237891957
0.300498314609
0.310799814612
0.355561017253
0.36009531821
0.334673001085
0.249156959095
0.12329690275
0.0274116378799
0.00162763061167
1.66922580311e-05
1.23591159216e-08
3.06943918814e-12
0.604457836762
0.47593191941
0.450741498558
0.415578762943
0.37230269148
0.328380859584
0.302738592854
0.303072889317
0.31774203797
0.353906967419
0.360379590383
0.360406302069
0.360353745867
0.316376094725
0.196821920611
0.0607064627666
0.0056376792208
0.000102362259298
2.02947753684e-07
6.95913622125e-12
0.573526379317
0.464307930391
0.455633413182
0.430209854043
0.391143386487
0.351427510876
0.330914034908
0.337558308856
0.356159810001
0.360364089535
0.360397566724
0.360360554839
0.360389592268
0.359345755105
0.276594029935
0.120148582209
0.0180466934135
0.000614698539969
3.54743958831e-06
1.37483612804e-10
0.545537171529
0.473667664113
0.483402220195
0.474904923032
0.43940694159
0.396668557961
0.376555712071
0.373714371718
0.365851262689
0.354074181622
0.347530566749
0.35493576002
0.360315012718
0.360269377647
0.328044970397
0.191562805099
0.0461410884162
0.00291362499808
3.64048967876e-05
1.99835691268e-08
0.548454481087
0.516394814476
0.543069424537
0.54464805841
0.504227253226
0.447906097681
0.413217657107
0.389885955172
0.362626771406
0.334845681451
0.319588344719
0.331561279133
0.354144510195
0.3602392878
0.34383090998
0.246288213621
0.0900159458542
0.0101498518284
0.00024629698379
7.3283856938e-07
0.564850934967
0.578475896088
0.614319018554
0.611753562764
0.56517781008
0.495936804701
0.44147914684
0.398929575907
0.355371295259
0.313820626184
0.297195573929
0.306771876461
0.333266529562
0.352497108539
0.34209060713
0.279855312616
0.139688152548
0.0259348751112
0.00114081400928
8.66940651098e-06
0.591018252095
0.626042257762
0.660988723588
0.656184066602
0.611597595933
0.539752058059
0.469030638634
0.409273676641
0.351467554952
0.302138150742
0.290266135965
0.293690576437
0.30972644889
0.330653029186
0.334032628641
0.299363172596
0.186666393112
0.0517644908167
0.00380412769155
5.26596782846e-05
0.616411294751
0.653551968638
0.664434793055
0.662658073966
0.638701075102
0.574122132145
0.494514927458
0.420467100273
0.350714950773
0.297241330838
0.288831470419
0.289779297172
0.295266373992
0.309236324597
0.322854037561
0.311115912774
0.231097565207
0.0877423060823
0.0100410665998
0.000230870902845
0.637400312437
0.663995943257
0.662658073966
0.664019990934
0.649930208933
0.59329844224
0.510937550933
0.427170485699
0.349025012114
0.294372835252
0.288625494579
0.288605281094
0.29020573225
0.296137879969
0.312910101511
0.32500430965
0.273806825302
0.132213019562
0.0222838693397
0.000841952999321
0.653400731881
0.662658073966
0.664470806042
0.662658073966
0.652636890939
0.598509615843
0.515386328506
0.427202385286
0.343528835784
0.2918223908
0.288605281094
0.288305403413
0.288605281094
0.29078489019
0.308339734276
0.343797426189
0.313007333259
0.181060411683
0.0427773384641
0.00257794769998
0.66025088965
0.663776511841
0.662658073966
0.663943228842
0.652342854619
0.597144220161
0.512649291016
0.420097996468
0.332197377805
0.289447274056
0.288336181682
0.288605281094
0.288042406402
0.288605281094
0.306638964877
0.357141133167
0.341259601196
0.227020883448
0.0713367441652
0.00654557352354
0.661731524225
0.662658073966
0.664075444825
0.662658073966
0.647738540521
0.586732627265
0.498464121983
0.401490544161
0.315898766764
0.288479790725
0.288605281094
0.287892262094
0.288605281094
0.287907635549
0.305887896573
0.359973583795
0.355705558762
0.261450578753
0.102844812373
0.013587114354
0.662343901195
0.660789426736
0.662658073966
0.663037546682
0.634430823688
0.563721581132
0.471183700752
0.373858156449
0.299516301187
0.288605281094
0.287951337588
0.288605281094
0.287552541338
0.288605281094
0.30648192421
0.360820019642
0.3608423481
0.281518506608
0.130605596252
0.0235174184811
0.665197413756
0.653678475519
0.661415418475
0.654502605969
0.611308869607
0.532150989738
0.43614931904
0.34184692237
0.289935864931
0.288235102598
0.288605281094
0.287491392689
0.288605281094
0.287444077052
0.311016089581
0.361789098885
0.361062378746
0.29264481772
0.153638211068
0.035887262654
0.668926643286
0.646174320173
0.648600120973
0.632394098219
0.580110574869
0.495135506327
0.397451721087
0.311436125753
0.288430337078
0.288605281094
0.287554911332
0.288605281094
0.287300700605
0.288605281094
0.31930812294
0.362470893245
0.36033717314
0.301468305652
0.175807851815
0.0510499421223
1e-15
1e-15
1e-15
1e-15
1e-15
1e-15
1e-15
1e-15
1e-15
1e-15
1e-15
1e-15
1e-15
1e-15
1e-15
1e-15
1e-15
1e-15
1e-15
1e-15
1e-15
1e-15
1e-15
1e-15
1e-15
1e-15
1e-15
1e-15
1e-15
1e-15
1e-15
1e-15
1e-15
1e-15
1e-15
1e-15
1e-15
1e-15
1e-15
1e-15
1e-15
1e-15
1e-15
1e-15
1e-15
1e-15
1e-15
1e-15
1e-15
1e-15
1e-15
1e-15
1e-15
1e-15
1e-15
1e-15
1e-15
1e-15
1e-15
1e-15
1e-15
1e-15
1e-15
1e-15
1e-15
1e-15
1e-15
1e-15
1e-15
1e-15
1e-15
1e-15
1e-15
1e-15
1e-15
1e-15
1e-15
1e-15
1e-15
1e-15
1e-15
1e-15
1e-15
1e-15
1e-15
1e-15
1e-15
1e-15
1e-15
1e-15
1e-15
1e-15
1e-15
1e-15
1e-15
1.0000086567e-15
1.00108249251e-15
1e-15
1e-15
1e-15
1e-15
1e-15
1e-15
1e-15
1e-15
1e-15
1e-15
1e-15
1e-15
1e-15
1e-15
1e-15
1e-15
1e-15
1e-15
1e-15
1.00108378822e-15
1e-15
1e-15
1.02863241819e-15
1e-15
1.00000213814e-15
1.00001125807e-15
1.00001759625e-15
1.00003293244e-15
1.00006146439e-15
1.00012297405e-15
1.00027525886e-15
1.00041704508e-15
1.00086025335e-15
1.00045545666e-15
1.00017946903e-15
1e-15
1e-15
1e-15
1.00337251995e-15
1.00108508394e-15
1e-15
1e-15
1.0720736517e-15
1e-15
1.00003695438e-15
1.00005263867e-15
1.00005748419e-15
1.00007331194e-15
1.00010632632e-15
1.00026410456e-15
1.00052324247e-15
1.00098051229e-15
1.0012068793e-15
1.00091006545e-15
1.00009575855e-15
1e-15
1e-15
1.00078364512e-15
1.00668174754e-15
1e-15
1e-15
1e-15
1.11204578933e-15
1.00007509953e-15
1.00013271478e-15
1.00011789051e-15
1.0001099794e-15
1.00013172975e-15
1.00018905762e-15
1.00039380228e-15
1.00082459438e-15
1.00121080111e-15
1.00120607142e-15
1.00089019048e-15
1.00001399695e-15
1e-15
1e-15
1.00263189515e-15
1.00667603547e-15
1e-15
1e-15
1e-15
1.14839238889e-15
1.00017466379e-15
1.00016765015e-15
1.00014495477e-15
1.00012246845e-15
1.00012964141e-15
1.00017650929e-15
1.00035865353e-15
1.00082421281e-15
1.0012155308e-15
1.00121080111e-15
1.00069604819e-15
1e-15
1e-15
1.00013592267e-15
1.00873763464e-15
1.00602934653e-15
1e-15
1e-15
1e-15
1.18026787257e-15
1.00015773372e-15
1.00012707034e-15
1.00009685153e-15
1.00007693971e-15
1.00007483456e-15
1.00009118802e-15
1.00016025515e-15
1.00066482512e-15
1.0012202605e-15
1.00121226888e-15
1.00025372378e-15
1e-15
1e-15
1.00093142634e-15
1.01115377584e-15
1.0041774767e-15
1e-15
1e-15
1e-15
1.20855624435e-15
1.00003073869e-15
1.0000101278e-15
1.00000094192e-15
1e-15
1e-15
1.0000016522e-15
1.00001508665e-15
1.00059573264e-15
1.00131325831e-15
1.00119902982e-15
1e-15
1e-15
1e-15
1.00216403273e-15
1.011153371e-15
1.00103277155e-15
1e-15
1e-15
1e-15
1.23369557968e-15
1e-15
1e-15
1e-15
1e-15
1e-15
1e-15
1e-15
1.00102950814e-15
1.00213759693e-15
1.00159856031e-15
1e-15
1e-15
1.00001706988e-15
1.0041029147e-15
1.01030452097e-15
1e-15
1e-15
1e-15
1e-15
1.2569207908e-15
1e-15
1e-15
1e-15
1e-15
1e-15
1e-15
1.00020533754e-15
1.0026327761e-15
1.00406536956e-15
1.00293836043e-15
1.00008386719e-15
1e-15
1.000293774e-15
1.00901946459e-15
1.00810408646e-15
1e-15
1e-15
1.00004643811e-15
1e-15
1.27824758149e-15
1e-15
1e-15
1e-15
1e-15
1e-15
1e-15
1.00232742567e-15
1.00510805224e-15
1.00625031036e-15
1.00496570819e-15
1.00131706468e-15
1e-15
1.00102606605e-15
1.01113440276e-15
1.0051835448e-15
1e-15
1e-15
1.0010651234e-15
1e-15
1.29745016458e-15
1e-15
1e-15
1e-15
1e-15
1e-15
1.0018734527e-15
1.00567655055e-15
1.00746030143e-15
1.00791253792e-15
1.00692122902e-15
1.00347980584e-15
1.00003763785e-15
1.00336384162e-15
1.01112926243e-15
1.00181145065e-15
1e-15
1e-15
1.00572687743e-15
1e-15
1.31480970889e-15
1e-15
1e-15
1e-15
1.00129020922e-15
1.00383035385e-15
1.00709499406e-15
1.0088167037e-15
1.00940124742e-15
1.00927238995e-15
1.0085630981e-15
1.00617705856e-15
1.0030237104e-15
1.01097968289e-15
1.01057763364e-15
1e-15
1e-15
1e-15
1.01697194692e-15
1e-15
1.32869633444e-15
1.0020644356e-15
1.00566566473e-15
1.00753143742e-15
1.00890167689e-15
1.01040575742e-15
1.01118541061e-15
1.0113039455e-15
1.01108345967e-15
1.01061841962e-15
1.0099971967e-15
1.00875233546e-15
1.00958711357e-15
1.01249236993e-15
1.00929742228e-15
1e-15
1e-15
1e-15
1.01718141529e-15
1e-15
1.34446047435e-15
1.01542540097e-15
1.01654558298e-15
1.01547359438e-15
1.01448356216e-15
1.01379547052e-15
1.01327067194e-15
1.01284503446e-15
1.01234597237e-15
1.01173839519e-15
1.01107673888e-15
1.01061415736e-15
1.01249236993e-15
1.01252507486e-15
1.00741840637e-15
1e-15
1e-15
1e-15
1.01723151846e-15
1e-15
1.38181213655e-15
1.0238187855e-15
1.02044643079e-15
1.01786854494e-15
1.01588149092e-15
1.01452686629e-15
1.01368821816e-15
1.01319470294e-15
1.01273941101e-15
1.01209934399e-15
1.01141456257e-15
1.01148212766e-15
1.01258222814e-15
1.01249236993e-15
1.00422698167e-15
1e-15
1e-15
1e-15
1.01718141529e-15
1e-15
1.52884394295e-15
1.0258372391e-15
1.02033801817e-15
1.01765542504e-15
1.01553226141e-15
1.01399610249e-15
1.01299154249e-15
1.01225161298e-15
1.01183430044e-15
1.01176290356e-15
1.01112195128e-15
1.01155037905e-15
1.01249236993e-15
1.01181055036e-15
1.00001425279e-15
1e-15
1e-15
1.00000297763e-15
1.01719882129e-15
1e-15
1.65511594603e-15
1.0258370391e-15
1.01735813541e-15
1.0148630628e-15
1.01268783004e-15
1.0109008228e-15
1.0094816418e-15
1.00946239087e-15
1.01004096686e-15
1.00976542939e-15
1.00967396334e-15
1.01107344303e-15
1.01252315512e-15
1.00966207822e-15
1e-15
1e-15
1e-15
1e-15
1.01700750683e-15
1e-15
1.65457300271e-15
1.02024648994e-15
1.00995016355e-15
1.00831884512e-15
1.00665218947e-15
1.00523648133e-15
1.00512419586e-15
1.00995908384e-15
1.01099804458e-15
1.00731344711e-15
1.00736751129e-15
1.00987501922e-15
1.01209354208e-15
1.00612969976e-15
1e-15
1e-15
1e-15
1e-15
1.01581703452e-15
1e-15
1.65559029721e-15
1.01052143637e-15
1.00279030796e-15
1.00235096059e-15
1.00173672018e-15
1.0012848866e-15
1.005104845e-15
1.0164993203e-15
1.01795927992e-15
1.00789434036e-15
1.00642154994e-15
1.00846303691e-15
1.00987713013e-15
1.00035770796e-15
1e-15
1e-15
1e-15
1e-15
1.01437442336e-15
1.00000968814e-15
1.65470424917e-15
1.0072733751e-15
1.00017368579e-15
1.00018517495e-15
1.00013786143e-15
1.00022398319e-15
1.01132838949e-15
1.02593125553e-15
1.02687672824e-15
1.01302727762e-15
1.00638894511e-15
1.00746223198e-15
1.00731974558e-15
1e-15
1e-15
1e-15
1e-15
1e-15
1.01335771024e-15
1e-15
1.65533912385e-15
1.16132319488e-15
1e-15
1e-15
1e-15
1.00032800882e-15
1.02133192284e-15
1.02704772409e-15
1.02705630704e-15
1.02223054422e-15
1.00807765143e-15
1.00735608993e-15
1.00485917936e-15
1e-15
1e-15
1e-15
1e-15
1e-15
1.01298355611e-15
1e-15
1.65484218088e-15
5.22297707175e-15
1e-15
1e-15
1e-15
1.0030347852e-15
1.02377307063e-15
1.02607585027e-15
1.02683985465e-15
1.02668744345e-15
1.01626678256e-15
1.00822426404e-15
1.00231162536e-15
1e-15
1e-15
1e-15
1e-15
1e-15
1.013203416e-15
1e-15
1.65534073845e-15
1.99065236445e-13
1e-15
1e-15
1e-15
1.0111984992e-15
1.02312724781e-15
1.02530501495e-15
1.02657796832e-15
1.02677801421e-15
1.02374471262e-15
1.01035068679e-15
1e-15
1e-15
1e-15
1e-15
1e-15
1e-15
1.01439418135e-15
1e-15
1.65495341159e-15
1.87821718698e-11
1e-15
1e-15
1e-15
1.01764843052e-15
1.02261385219e-15
1.02608957063e-15
1.02739943027e-15
1.02697555892e-15
1.02485566154e-15
1.01265564817e-15
1e-15
1e-15
1e-15
1e-15
1e-15
1e-15
1.01660949548e-15
1e-15
1.6551548614e-15
3.2374038586e-09
1e-15
1e-15
1.00048940192e-15
1.01959742578e-15
1.0232793351e-15
1.02764063496e-15
1.02881308245e-15
1.02799005397e-15
1.02487592855e-15
1.01453426746e-15
1e-15
1e-15
1e-15
1e-15
1e-15
1e-15
1.0196746727e-15
1.00001563848e-15
1.65499140508e-15
2.85946115721e-07
1e-15
1e-15
1.00518323198e-15
1.02076348878e-15
1.02535973992e-15
1.02949500759e-15
1.03008061591e-15
1.02898671633e-15
1.02528021418e-15
1.01625564784e-15
1e-15
1e-15
1e-15
1e-15
1e-15
1.00045508922e-15
1.02299298694e-15
1.01617928619e-15
1.65502600105e-15
3.32315588664e-06
1e-15
1e-15
1.00403757702e-15
1.02248985438e-15
1.02795150234e-15
1.03131970245e-15
1.03158188562e-15
1.03018517082e-15
1.02625736449e-15
1.01811385056e-15
1e-15
1e-15
1e-15
1e-15
1e-15
1.00657537716e-15
1.02651525164e-15
1.02445970803e-15
1.65505998992e-15
2.14612400731e-05
1.03322042098e-15
1e-15
1.00039614498e-15
1.02508015693e-15
1.02983407684e-15
1.03225970899e-15
1.03230500252e-15
1.03113243607e-15
1.02790408717e-15
1.01995789114e-15
1.00100017165e-15
1e-15
1e-15
1e-15
1e-15
1.0102078753e-15
1.03030040989e-15
1.02870773618e-15
1.65599751131e-15
9.70059095161e-05
1e-15
1e-15
1.00064786116e-15
1.02780931541e-15
1.03186796761e-15
1.0326094451e-15
1.03253744252e-15
1.03213665682e-15
1.0293559052e-15
1.02140386745e-15
1.00330524532e-15
1e-15
1e-15
1e-15
1e-15
1.01286864698e-15
1.03394473407e-15
1.03239129276e-15
1.65783838157e-15
0.00033357407687
1.58412112816e-08
1e-15
1.00191378784e-15
1.03033284451e-15
1.03240596209e-15
1.03258102668e-15
1.03267673613e-15
1.03235301074e-15
1.0304196122e-15
1.02217748521e-15
1.00483650407e-15
1e-15
1e-15
1e-15
1.00285347733e-15
1.0153360743e-15
1.03713413244e-15
1.0359757573e-15
1.6603410982e-15
0.000914072674338
1.23489218996e-06
1e-15
1.00142601476e-15
1.03158592301e-15
1.03257614687e-15
1.03282155796e-15
1.03258102668e-15
1.03247337289e-15
1.03135497596e-15
1.02205119901e-15
1.00659799963e-15
1e-15
1e-15
1.002202239e-15
1.0102809374e-15
1.01758979967e-15
1.03990864101e-15
1.0396154761e-15
1.66370571249e-15
0.00208597810527
8.43971167245e-06
1e-15
1.00034558419e-15
1.02841524436e-15
1.03267532521e-15
1.03258102668e-15
1.03275924597e-15
1.03254985085e-15
1.03195779222e-15
1.02076398447e-15
1.00833997208e-15
1.00456715423e-15
1.00609898392e-15
1.00955241377e-15
1.01303024302e-15
1.01951754237e-15
1.04236270026e-15
1.04400699951e-15
1.66822754426e-15
0.00412746363508
3.20617186171e-05
1e-15
)
;

boundaryField
{
    emptyPatch
    {
        type            empty;
    }
    minY
    {
        type            fixedValue;
        value           uniform 1e-15;
    }
    maxY
    {
        type            inletOutlet;
        phi             phi.gas;
        inletValue      nonuniform List<scalar> 0();
        value           nonuniform List<scalar> 0();
    }
    water_to_cooler
    {
        type            zeroGradient;
    }
    water_to_heater
    {
        type            zeroGradient;
    }
    procBoundary2to3
    {
        type            processor;
        value           nonuniform List<scalar> 
41
(
0.669010748167
0.638275611195
0.630740644238
0.603965958079
0.543375387415
0.453872040709
0.357303804888
0.292045502738
0.288605281094
0.287696267426
0.288605281094
0.287199662057
0.288605281094
0.287320557548
0.332214751353
0.362481901334
0.359263193951
0.31269145839
0.201863684317
0.0699066657056
1e-15
1.00981017125e-15
1.03258102668e-15
1.03286194282e-15
1.03258102668e-15
1.0325959891e-15
1.03232375523e-15
1.01852840311e-15
1.00965657668e-15
1.00940002338e-15
1.01026433666e-15
1.01189724458e-15
1.01467835889e-15
1.02091430827e-15
1.04447710818e-15
1.05008064193e-15
1.67363268475e-15
0.0073030164464
8.75460830678e-05
1e-15
1e-15
)
;
    }
}


// ************************************************************************* //
