/*--------------------------------*- C++ -*----------------------------------*\
| =========                 |                                                 |
| \\      /  F ield         | OpenFOAM: The Open Source CFD Toolbox           |
|  \\    /   O peration     | Version:  2312                                  |
|   \\  /    A nd           | Website:  www.openfoam.com                      |
|    \\/     M anipulation  |                                                 |
\*---------------------------------------------------------------------------*/
FoamFile
{
    version     2.0;
    format      ascii;
    arch        "LSB;label=32;scalar=64";
    class       volScalarField;
    location    "0.45/water";
    object      Tf.gasAndLiquid;
}
// * * * * * * * * * * * * * * * * * * * * * * * * * * * * * * * * * * * * * //

dimensions      [0 0 0 1 0 0 0];

internalField   nonuniform List<scalar> 
6000
(
314.47607701
306.188659149
302.665222938
301.081890036
300.455505229
300.092876534
300.004008365
300.000023407
300.000000019
300
300
300
300
300
300
300
300
300
300
300
320.38248982
308.391398915
303.050108237
301.116899792
300.403972305
300.147027097
300.047785499
300.005388565
300.000077832
300.000000079
300
300
300
300
300
300
300
300
300
300
320.412621542
307.949937969
302.74123548
300.922862574
300.305790728
300.101201314
300.033386384
300.008446668
300.000596401
300.000006358
300.000000002
300
300
300
300
300
300
300
300
300
319.55684427
307.927929285
302.850231747
300.961578185
300.313712642
300.099590834
300.030497707
300.008991786
300.001487315
300.000057058
300.000000481
300
300
300
300
300
300
300
300
300
318.686181322
307.754904221
302.952303689
301.043987236
300.354081567
300.116843882
300.036318248
300.010410074
300.002828524
300.000262198
300.00000612
300.000000001
300
300
300
300
300
300
300
300
317.7302994
307.425759471
302.933143735
301.086828312
300.385871028
300.134841785
300.045051264
300.013385367
300.003625543
300.000700258
300.000032648
300.000000555
300
300
300
300
300
300
300
300
317.332746146
307.205611455
302.868580053
301.093595737
300.403123063
300.148074609
300.053423761
300.01716739
300.004679492
300.001239538
300.000131495
300.000003566
300
300
300
300
300
300
300
300
317.195622755
307.04712257
302.790467866
301.076434341
300.410029624
300.157737449
300.060955384
300.021425308
300.006070191
300.001530649
300.000344753
300.00001585
300.00000001
300
300
300
300
300
300
300
317.151158503
307.017768744
302.785526135
301.084516636
300.423230733
300.169571507
300.069261519
300.026343775
300.007950382
300.001918459
300.000492116
300.000060766
300.000000348
300
300
300
300
300
300
300
317.187755133
307.039297907
302.804817428
301.10542527
300.441497494
300.183577487
300.078686258
300.03186572
300.010276937
300.002444686
300.000563636
300.000153811
300.000005418
300.000000005
300
300
300
300
300
300
317.246108201
307.041100532
302.805578921
301.117619719
300.457114899
300.196927325
300.088101211
300.037596233
300.012895374
300.003072191
300.000644104
300.000169394
300.000024542
300.000000207
300
300
300
300
300
300
317.340934571
306.979258254
302.758354268
301.105623938
300.462266321
300.205792738
300.09565187
300.042727425
300.01564636
300.003814894
300.000728086
300.000171058
300.0000553
300.000002386
300.000000002
300
300
300
300
300
317.388988008
306.827410753
302.643671007
301.058046972
300.451396317
300.207576748
300.099816297
300.046419041
300.018083997
300.004729907
300.000838779
300.00017097
300.000051048
300.000007424
300.00000004
300
300
300
300
300
317.384278002
306.737565977
302.567080689
301.015660556
300.43573862
300.204691003
300.101412097
300.048880774
300.020117
300.005694612
300.001000151
300.000173901
300.000045465
300.000013014
300.000000253
300
300
300
300
300
317.318094057
306.728467956
302.540775993
300.993312556
300.42408559
300.201696868
300.102382981
300.050963827
300.022022071
300.006737761
300.001216103
300.000181913
300.000040037
300.000014519
300.000000704
300.000000001
300
300
300
300
317.175200763
306.743335477
302.54191518
300.98793322
300.419739063
300.201162173
300.104326631
300.053623123
300.024270131
300.0080144
300.001523393
300.000198468
300.000035025
300.000010714
300.000001123
300.000000004
300
300
300
300
316.72901848
306.629646488
302.512807966
300.976656284
300.415817262
300.202286168
300.108055613
300.057642883
300.027375523
300.0097577
300.001988534
300.00023294
300.000031602
300.000007549
300.000001524
300.000000018
300
300
300
300
316.439538354
306.525176567
302.464412174
300.954329835
300.410860029
300.206150735
300.114675044
300.063748749
300.031770026
300.012167508
300.002687978
300.000302085
300.000032889
300.000006235
300.000001389
300.000000057
300
300
300
300
316.850441593
306.797473166
302.591457987
300.997855238
300.430153806
300.220209635
300.126171732
300.0723955
300.037516926
300.015233713
300.003620927
300.000417956
300.000042223
300.000007119
300.000001336
300.000000155
300
300
300
300
317.786397032
307.286702577
302.845216271
301.117824718
300.482537259
300.246481861
300.142218596
300.082950286
300.044064981
300.01858573
300.004694427
300.000570393
300.000060438
300.000009948
300.000001747
300.000000253
300
300
300
300
318.05713022
307.517841351
303.019111446
301.226387049
300.540659135
300.276396022
300.159515042
300.093921987
300.050821694
300.021938153
300.005784122
300.00074142
300.000081095
300.000013638
300.000002321
300.000000338
300
300
300
300
318.166202979
307.563285622
303.074369452
301.277130707
300.577452674
300.299374863
300.174316033
300.104046428
300.057534461
300.025249068
300.006804374
300.000917045
300.000104381
300.000017784
300.000002948
300.000000416
300
300
300
300
318.19166516
307.467190326
303.022421378
301.268256837
300.586798836
300.311780613
300.185082518
300.112619646
300.063777442
300.028603714
300.007798566
300.00108681
300.000128058
300.000021855
300.000003564
300.000000482
300
300
300
300
318.202083221
307.38284331
302.964197312
301.243949627
300.583783708
300.31760798
300.192791449
300.119697679
300.06894124
300.031661123
300.00882957
300.001267426
300.000148649
300.000025188
300.000004103
300.000000546
300
300
300
300
318.168358571
307.316952518
302.908595113
301.217378752
300.5765154
300.320002108
300.198301181
300.125110777
300.072598764
300.034061413
300.009968913
300.001467127
300.000167504
300.000027728
300.000004582
300.000000621
300
300
300
300
318.134030653
307.261991136
302.863029259
301.197355687
300.571333519
300.32173255
300.202208199
300.128449544
300.074723084
300.035697195
300.011081418
300.00171148
300.000185557
300.00002995
300.000005077
300.000000713
300
300
300
300
318.064881632
307.201964371
302.82065325
301.18199036
300.569013606
300.32357011
300.204462609
300.129520207
300.075335439
300.03649933
300.011927815
300.001979462
300.000205117
300.000032101
300.000005585
300.000000788
300.000000012
300
300
300
317.982229264
307.06868843
302.741352125
301.151735252
300.561748816
300.322846097
300.204006651
300.128299778
300.074425969
300.036383836
300.0123869
300.002208152
300.000232719
300.000034046
300.000005568
300.000000763
300.00000002
300
300
300
317.867662093
307.020006099
302.715799277
301.137225913
300.556222918
300.320316409
300.201016174
300.125336837
300.072448023
300.035694193
300.012634499
300.002456746
300.000276555
300.000035649
300.000005248
300.000000675
300.000000001
300
300
300
317.795573504
307.045227696
302.743153613
301.147938907
300.557413737
300.317759672
300.196841257
300.121631254
300.070244661
300.035134119
300.013021196
300.002914927
300.000332187
300.00003688
300.000004739
300.00000044
300
300
300
300
317.750148712
307.104630863
302.788895519
301.171269791
300.563812213
300.316099139
300.19294574
300.118643488
300.069093159
300.035433266
300.014346276
300.003546655
300.000414898
300.00003866
300.000004538
300.000000206
300
300
300
300
317.558911635
307.07488484
302.786612245
301.176619666
300.564128207
300.312568961
300.189941303
300.117673888
300.070141769
300.037852865
300.016468093
300.00444079
300.000535772
300.000041963
300.000004527
300.000000049
300
300
300
300
316.997358012
306.81803648
302.680870987
301.132999186
300.542700839
300.30211935
300.186927968
300.119271903
300.074135771
300.042160601
300.019491959
300.005634427
300.000703984
300.000047361
300.000004505
300
300
300
300
300
316.221884799
306.566529294
302.593653072
301.079360817
300.510601022
300.289564957
300.187183359
300.125102159
300.081190178
300.04824264
300.023407372
300.007206048
300.000937612
300.000054371
300.000004399
300
300
300
300
300
315.686004724
306.429983047
302.563051586
301.052605381
300.48825259
300.284788583
300.194368835
300.135586134
300.091055064
300.055961201
300.02826839
300.009217808
300.001263204
300.000067779
300.00000478
300
300
300
300
300
315.607181847
306.431036571
302.610938681
301.077029727
300.494947807
300.293980518
300.208929597
300.150092968
300.103178259
300.065055942
300.034004077
300.011665621
300.001691527
300.000090756
300.000005913
300.000000168
300
300
300
300
315.968394544
306.581154861
302.71467921
301.140096376
300.532662116
300.317073039
300.228020614
300.166637712
300.116549694
300.07491551
300.040256611
300.014408388
300.002209863
300.000126029
300.000008396
300.000000555
300
300
300
300
316.570165831
306.76740906
302.783043444
301.185792646
300.571776259
300.344320692
300.247577133
300.182669421
300.129419505
300.084433372
300.046313431
300.017127545
300.002768487
300.000174527
300.000012898
300.000001184
300
300
300
300
316.867882702
306.889270611
302.799929561
301.183470058
300.583509434
300.361828029
300.263287769
300.195888769
300.140070809
300.092271666
300.051253142
300.019374887
300.00327648
300.000230472
300.000019187
300.000002038
300
300
300
300
316.883445755
306.841041831
302.683804679
301.099358706
300.555663239
300.363743086
300.271731645
300.204529698
300.147290708
300.097478011
300.054374158
300.020811012
300.003656295
300.000282933
300.000025767
300.000002958
300
300
300
300
316.590194722
306.467960273
302.295807131
300.919704682
300.511588245
300.356886043
300.274507628
300.209379351
300.151548973
300.100222431
300.055801446
300.021537547
300.003932225
300.000326899
300.000031055
300.000003826
300.000000096
300
300
300
316.408556752
305.184369769
301.712101319
300.777148778
300.478185308
300.352691299
300.277412523
300.213835662
300.155135526
300.1021976
300.056773197
300.022214347
300.004271736
300.000379037
300.000036082
300.000004849
300.000000304
300
300
300
319.906729881
304.727855396
301.471327764
300.70724289
300.466913075
300.357937721
300.285994575
300.221884129
300.161210027
300.105986417
300.059087431
300.023762093
300.004950388
300.000486299
300.000045526
300.000006731
300.000000677
300
300
300
326.110478063
307.06253731
302.087149761
300.771218456
300.492502093
300.378369806
300.301991377
300.23497628
300.171458797
300.113236838
300.063917585
300.026866047
300.006250385
300.000723492
300.000069993
300.000010781
300.000001385
300
300
300
329.637499222
309.452502346
303.125788645
301.128140245
300.610572792
300.427920414
300.327723917
300.252520249
300.184927515
300.123100271
300.070774453
300.031469258
300.008360264
300.001187019
300.000128009
300.00001899
300.000002744
300
300
300
331.959442498
311.139865803
304.072988831
301.598457129
300.798391411
300.505683317
300.363375801
300.272705154
300.199030596
300.133326545
300.077848431
300.036185496
300.010944641
300.001932288
300.000244697
300.000033771
300.000005253
300.000000116
300
300
333.751317054
312.016053648
304.553157084
301.85751547
300.951643567
300.582474628
300.40084681
300.292572756
300.211480269
300.141820734
300.083583513
300.039964917
300.013204672
300.002797197
300.000428192
300.000058011
300.000009137
300.000000568
300
300
334.703568883
312.121130854
304.54592301
301.91468888
301.036762993
300.637036762
300.430106333
300.307824228
300.219965291
300.146824747
300.086696134
300.042035926
300.014734338
300.003548036
300.000631288
300.000091322
300.000013829
300.000001201
300
300
335.092114891
311.701180695
304.288975165
301.96272562
301.086794935
300.667719691
300.446524682
300.315644902
300.222934353
300.147307663
300.086549711
300.042139717
300.015396683
300.004060908
300.000803911
300.000122267
300.000018184
300.000001827
300
300
334.813865969
311.127567153
304.202798347
302.045052945
301.121842813
300.681418377
300.451586315
300.316011836
300.219768836
300.143009542
300.083354879
300.040631877
300.015325757
300.004310918
300.000907345
300.00014131
300.000021288
300.000002292
300
300
334.402581224
310.839614703
304.536874018
302.162087593
301.155286516
300.686996186
300.449366911
300.309475247
300.210231337
300.134646933
300.078014002
300.038164898
300.014792889
300.004338382
300.00093385
300.00014535
300.000022376
300.000002437
300
300
334.35673606
311.921822144
304.877812987
302.260310189
301.17272189
300.683345776
300.438869441
300.294091933
300.195591272
300.123906027
300.071859341
300.035531301
300.014107455
300.004229888
300.00091198
300.000139645
300.000021876
300.000002144
300
300
335.05974402
312.395296626
304.960547145
302.249740949
301.148604103
300.658416634
300.411837905
300.271119288
300.17836374
300.113078758
300.066259974
300.033481975
300.013583291
300.004144446
300.000896811
300.00013702
300.000019714
300.000001464
300
300
336.024672691
312.731946167
304.980387615
302.208722295
301.090680422
300.6041514
300.374008176
300.24515866
300.162213021
300.104446073
300.062515764
300.032500646
300.013612546
300.00431582
300.000959364
300.000143414
300.000016177
300.000000664
300
300
337.286549201
313.294438417
305.016619699
302.091743959
300.975858346
300.533769478
300.331934843
300.22124631
300.150073941
300.099668173
300.0615858
300.033233122
300.01453695
300.004803498
300.001086119
300.000154209
300.000011841
300.000000102
300
300
334.404745213
312.861644015
304.608102912
301.794027534
300.822424467
300.455905166
300.294318586
300.204039122
300.144395103
300.099586516
300.063865205
300.035815001
300.016365585
300.005601007
300.001276205
300.000172494
300.000007646
300
300
300
324.993953495
310.44658457
303.69555996
301.431078842
300.663726056
300.390960023
300.268050321
300.196685916
300.145375646
300.104269379
300.069284682
300.040458734
300.019284097
300.006825119
300.001572523
300.000209408
300.000007938
300.000000147
300
300
317.906520666
307.795153569
302.880212739
301.111493611
300.541565455
300.347747027
300.259026401
300.200156185
300.154085492
300.114226261
300.07862465
300.047764036
300.023816368
300.008761565
300.002086027
300.00028875
300.000014232
300.000000531
300.000000612
300
314.750321778
306.718301858
302.532290708
300.893025307
300.468940375
300.34392883
300.272476014
300.21836213
300.172621952
300.131333512
300.093175484
300.058852122
300.030684676
300.011826073
300.002953114
300.000438591
300.000028918
300.00000086
300.000001254
300.000000449
316.033907546
308.005818693
302.918153983
300.921290999
300.50992001
300.385943359
300.311793143
300.253048481
300.202257918
300.156104078
300.113294403
300.074023211
300.040240338
300.016211435
300.004237947
300.000674517
300.000054785
300.000001065
300.00000136
300.000001054
325.336908317
310.929525489
303.868980289
301.191606376
300.625465946
300.463879976
300.372642587
300.300935494
300.240043156
300.186012098
300.136868507
300.091918854
300.051913311
300.021818767
300.005978194
300.001021188
300.000098239
300.000001351
300.000001027
300.000001207
338.454201035
312.573993345
304.226312777
301.410230899
300.729313645
300.535330226
300.431693185
300.349144253
300.277858695
300.215414599
300.159789135
300.109505705
300.063968734
300.028042371
300.008115247
300.001505555
300.000171051
300.000005027
300.000000605
300.000000845
343.124406792
313.210381439
304.293083738
301.488848603
300.768252354
300.563564727
300.461202907
300.37944379
300.305244795
300.238306334
300.178248003
300.124061587
300.074545462
300.034107364
300.010565609
300.002177032
300.000296604
300.000018956
300.000000839
300.000000343
343.908025206
313.186468415
304.262113531
301.517442261
300.779024118
300.570708428
300.472298873
300.393231502
300.320247718
300.252750202
300.190939961
300.134608618
300.082743945
300.039628029
300.013359151
300.003122381
300.000510175
300.000051074
300.000002518
300.000000093
343.203368333
313.248233712
304.482761614
301.668522678
300.831193671
300.5869224
300.481127947
300.401052872
300.329092226
300.26187186
300.199278085
300.141421998
300.087901983
300.043636381
300.015934897
300.004195869
300.000800383
300.000104229
300.000006655
300.00000028
337.485446785
313.246455378
304.959053625
301.986647776
300.96392698
300.635797489
300.497888663
300.409310299
300.336141902
300.26891313
300.205526964
300.14575747
300.090677535
300.046047113
300.017804755
300.005123892
300.00109441
300.000167525
300.000015349
300.000000924
327.484028158
311.686319397
305.028955366
302.234630836
301.119110082
300.710610464
300.528263463
300.42227207
300.343958542
300.275441329
300.210669278
300.148423113
300.092137629
300.047578589
300.019212447
300.005904964
300.001368493
300.000232439
300.00002636
300.0000019
321.629788928
310.14453791
304.75868656
302.31781153
301.234383445
300.786020153
300.566204607
300.439900291
300.35334187
300.281858021
300.214779922
300.15014517
300.093179351
300.04890321
300.020486705
300.0066342
300.001634268
300.000299061
300.000038665
300.000003223
319.471872915
309.015983729
304.413605145
302.299211305
301.302364688
300.845811268
300.60202214
300.458452407
300.363119309
300.287624022
300.217782696
300.151465764
300.094347416
300.050426419
300.021855344
300.007393314
300.001913418
300.000370668
300.000052721
300.000004935
319.998806361
308.888743266
304.29312066
302.285306122
301.349606706
300.88893335
300.629288743
300.473455585
300.37098986
300.291659956
300.219446019
300.152394073
300.095709353
300.052233647
300.023386294
300.00822068
300.002216701
300.000451326
300.000068921
300.000007513
321.165550842
308.975248258
304.235235103
302.265984916
301.370130282
300.90555358
300.640594002
300.480098359
300.374189491
300.292535624
300.219040701
300.152436096
300.09694243
300.054154735
300.025027028
300.009102921
300.002546627
300.00054233
300.000088391
300.000011073
321.850731458
308.792681973
304.017533185
302.149966854
301.311809723
300.877676656
300.627776394
300.473850139
300.370079472
300.288682355
300.21559575
300.150993425
300.097685964
300.056018234
300.026721843
300.010039763
300.00291023
300.000651049
300.000116297
300.000016859
321.844462052
307.802166994
303.421003819
301.849157908
301.160602169
300.801498469
300.589396715
300.453732003
300.357865184
300.279363474
300.208975451
300.148261029
300.098202892
300.058071979
300.028678724
300.011160424
300.003376958
300.000821115
300.00017162
300.000031125
321.128453142
306.984601382
302.794412297
301.502236328
300.976601363
300.704950983
300.538952223
300.426262527
300.340480909
300.266492812
300.201421442
300.146224689
300.099986737
300.061405392
300.031640342
300.012905613
300.004213719
300.001177725
300.000301326
300.000071864
320.406227918
307.02040552
302.462915075
301.254256003
300.829792958
300.62334075
300.494413189
300.400396276
300.322923681
300.255622795
300.197621235
300.14835909
300.105575313
300.067940418
300.037089603
300.016275717
300.005914961
300.001930461
300.000595433
300.000174469
319.579842968
307.701851668
302.583088861
301.183063145
300.756415231
300.575325805
300.46602391
300.383150301
300.313545547
300.25350177
300.202403131
300.158141019
300.117840203
300.080213262
300.046829185
300.022270745
300.009068003
300.003369675
300.00117429
300.000384518
317.898433006
307.957937022
302.882628404
301.268658557
300.76696104
300.571215694
300.46250688
300.383311312
300.318703467
300.26457818
300.218639501
300.177448766
300.137944482
300.098935516
300.061483503
300.031719231
300.014224163
300.005733974
300.002124319
300.000729544
316.681447294
308.018296784
303.476118976
301.659582945
300.953314799
300.651983514
300.499845995
300.40695066
300.341158307
300.289666543
300.245827059
300.204715414
300.163530382
300.12153426
300.079792347
300.044473281
300.021365684
300.008991836
300.00340404
300.001178648
317.799458937
309.959761954
305.507556277
302.91360163
301.545528788
300.894516252
300.599131464
300.45922084
300.381147281
300.326379132
300.279901552
300.235433038
300.190499586
300.144545607
300.098807175
300.058575053
300.0294105
300.012614253
300.004760419
300.001619229
326.2787196
314.908763123
308.03540207
304.081128962
302.066475016
301.130318833
300.716135647
300.528856757
300.4312125
300.366330185
300.312678659
300.262503297
300.212897405
300.163461524
300.114956728
300.070520707
300.036231154
300.015570485
300.00576095
300.001889819
346.31483134
318.591738537
308.691206918
304.226691354
302.166929615
301.225802852
300.794036642
300.585789391
300.471511907
300.395547524
300.334478762
300.279144629
300.226080989
300.174289398
300.123900728
300.076991401
300.039686818
300.016814495
300.006015364
300.001878266
356.450185646
319.834577618
308.390778094
303.927024769
302.050205973
301.212239124
300.813643457
300.607221468
300.486950693
300.405240654
300.340175606
300.282209727
300.22755986
300.174947347
300.124153279
300.076754352
300.038930904
300.016013417
300.005480887
300.001615604
358.726085005
319.373470136
307.523632503
303.399612697
301.820609421
301.129849381
300.787592426
300.597835835
300.48043837
300.398311968
300.332281804
300.273763225
300.219157001
300.167107439
300.117180899
300.070922747
300.034802758
300.013721642
300.004461263
300.001244234
357.003113907
316.919462437
306.102056432
302.716828898
301.514146892
300.998267824
300.72921296
300.567137435
300.459731782
300.380944632
300.315842701
300.258045591
300.204548554
300.154002971
300.10580871
300.061810181
300.029016347
300.010902562
300.003375967
300.000915383
348.885219956
312.98997903
304.381106175
302.021357172
301.22030836
300.865269882
300.66235297
300.529902347
300.434545504
300.359279452
300.295774876
300.239322176
300.187495621
300.138862617
300.092691144
300.051775962
300.023245355
300.008388714
300.002534759
300.00071205
338.985813192
309.389824615
303.25019904
301.521090219
300.993614018
300.759231888
300.606484925
300.496566212
300.40968728
300.337740706
300.275889018
300.220920074
300.170804326
300.123896109
300.079655057
300.042695611
300.018589131
300.006609012
300.002046575
300.000650585
337.1150668
308.787378002
302.899158011
301.272078583
300.857448724
300.687323668
300.566101662
300.470209186
300.389100894
300.319446013
300.258742387
300.204878491
300.155940195
300.110065001
300.068210276
300.035671377
300.015452415
300.005630548
300.001931951
300.000714458
337.119695374
309.054739782
302.989865479
301.214996428
300.79439914
300.648709136
300.543727396
300.453807936
300.374922547
300.305962909
300.245477827
300.191813162
300.142982779
300.098004765
300.059448607
300.031082974
300.013896658
300.005482992
300.002073071
300.000833636
337.277517329
310.572089625
304.090104092
301.549446618
300.830901232
300.642432393
300.537854899
300.447301228
300.367308895
300.297309672
300.235700127
300.180891526
300.131800385
300.088950272
300.054109946
300.029039034
300.013764362
300.005808424
300.002350747
300.000996709
338.687019509
312.22192938
305.307975487
302.215137905
301.041273959
300.685916351
300.547234153
300.448543995
300.364454166
300.291784147
300.228015351
300.172007089
300.124118483
300.084078158
300.051982258
300.029131132
300.014527492
300.0064588
300.002757119
300.001215636
340.221929796
314.227849845
306.452545385
302.853574316
301.330213543
300.780002857
300.571171118
300.453588959
300.363260985
300.287840741
300.222767257
300.16693097
300.120723426
300.08284899
300.052532562
300.030708885
300.015956313
300.00742321
300.003311587
300.001505852
342.293583606
316.347484886
307.071567878
303.15141505
301.500127671
300.853910693
300.590733968
300.456196791
300.361345287
300.284741796
300.219777801
300.165303743
300.120863862
300.084532881
300.055092226
300.033363075
300.017980156
300.008710289
300.00403116
300.001881002
344.901262878
316.718378218
306.878566807
303.036419701
301.479274847
300.85705624
300.590181906
300.452130344
300.357171815
300.281420023
300.218091281
300.165918246
300.123592793
300.088232616
300.059146808
300.036906984
300.020553627
300.010314407
300.004921553
300.002358051
348.072311171
317.037119142
306.500662602
302.763774559
301.360839705
300.811552369
300.572883732
300.442001864
300.350643864
300.277757848
300.217450515
300.168356494
300.12806434
300.093621859
300.064368673
300.041251487
300.023645724
300.012221393
300.005979069
300.002956712
351.519766948
317.336357174
306.028295825
302.435875184
301.21464134
300.753893097
300.547990142
300.428566007
300.343224962
300.274785089
300.218665786
300.172855309
300.134401983
300.100374287
300.070794696
300.046390925
300.027272083
300.014433265
300.007196675
300.003704345
345.905469204
315.197203579
305.08711409
302.060612844
301.075847084
300.70141369
300.523397671
300.415894235
300.337500138
300.274709921
300.223079751
300.180155582
300.14273158
300.108833709
300.078431132
300.05241739
300.031501362
300.016958528
300.00858878
300.004646159
329.704164153
311.57525266
304.034121851
301.7294314
300.962675679
300.657271596
300.50432278
300.407918692
300.337268056
300.279909771
300.232121165
300.19070269
300.153582568
300.118981355
300.087510207
300.059500903
300.036457515
300.019788616
300.010199113
300.005861001
319.715305925
307.976627315
302.994308777
301.402397064
300.849287963
300.62012538
300.492866409
300.409518512
300.345607003
300.292753249
300.246530553
300.205235348
300.167116103
300.131359298
300.098045342
300.067876248
300.042255431
300.022930164
300.012127822
300.007459028
314.180379267
306.040362235
302.426589355
301.1848496
300.77664981
300.600428135
300.498726292
300.425332252
300.366340748
300.314405861
300.267400906
300.22406621
300.183769566
300.145978657
300.110531576
300.077837842
300.048860183
300.026472486
300.014554672
300.009494091
312.05297913
305.436299607
302.266863719
301.096933353
300.758505396
300.621934606
300.531028053
300.46035024
300.400366066
300.346084756
300.295647834
300.248630447
300.204854787
300.163994648
300.12563317
300.089509926
300.056224636
300.030605203
300.017603024
300.012002745
313.865226115
306.619756051
302.926222401
301.420987912
300.939652924
300.733578976
300.609244867
300.52063126
300.450060658
300.388694333
300.332485627
300.280102882
300.23130046
300.18587234
300.143264967
300.102487723
300.064118509
300.035329705
300.021356702
300.01501213
321.458579138
310.124204702
304.762571356
302.47707837
301.515631839
301.051505549
300.794358892
300.63459245
300.525090381
300.443087099
300.375799373
300.31626489
300.261310927
300.210045357
300.161930634
300.115599011
300.071915406
300.040680336
300.025839854
300.018547364
333.33355467
313.41351968
306.448207991
303.522900479
302.178806113
301.490009388
301.090150891
300.830920949
300.649393336
300.519407878
300.425896991
300.352829809
300.289891637
300.232301819
300.178743004
300.12714557
300.079012773
300.04665001
300.030978147
300.022615397
340.282666666
315.561408019
307.43113469
304.101182383
302.547322948
301.738984964
301.273095416
300.97547947
300.766885775
300.60876458
300.48574962
300.389810637
300.314175541
300.249373264
300.190917614
300.135094131
300.085263482
300.053056699
300.03662409
300.027185976
342.796238085
316.070651425
307.462405989
304.069140216
302.523239951
301.728925387
301.276765087
300.991637787
300.793317628
300.642853294
300.521714974
300.419121762
300.331662449
300.257760536
300.194425416
300.13798434
300.090378098
300.059476496
300.042584432
300.032209078
342.205340464
314.864530557
306.44411323
303.411194075
302.125791539
301.490695187
301.135523979
300.911046424
300.749719405
300.621577521
300.513290205
300.418127878
300.33193714
300.254140461
300.188229774
300.135899278
300.093981915
300.065476017
300.048665014
300.037594087
335.427906314
312.417064656
304.861708184
302.526523351
301.614817459
301.204652437
300.954850421
300.794422837
300.674824169
300.572556258
300.480477223
300.394126509
300.312955575
300.239915016
300.178225042
300.131522369
300.095694184
300.070724051
300.054642036
300.043200774
326.354901908
310.199564712
303.73240766
301.899608201
301.275508491
300.978765392
300.805704431
300.690857329
300.599923624
300.519099572
300.440025552
300.361496941
300.287467585
300.221827273
300.16773004
300.127240584
300.096732834
300.075262743
300.060491419
300.048981054
320.883453034
309.376616171
303.881959051
301.60020088
301.064441184
300.830129223
300.702852123
300.616213194
300.543344875
300.474415932
300.404012757
300.331247496
300.263717525
300.205675897
300.159340793
300.124523044
300.09857407
300.080150185
300.066525509
300.05502856
318.735748649
308.624140405
303.907826578
301.531709041
300.950367922
300.744065692
300.639289663
300.566143984
300.502738299
300.440757885
300.375417343
300.307717024
300.246635756
300.195336512
300.154858451
300.124693847
300.102226201
300.086006225
300.0730978
300.061557574
317.93751917
308.122216142
303.833461823
301.800006215
300.92612054
300.704554634
300.604015648
300.534713427
300.474758274
300.416266432
300.35523222
300.292376301
300.236636946
300.190970149
300.154927397
300.127829779
300.108067277
300.093020002
300.080395718
300.068681996
317.711828376
307.890402796
303.775255633
301.933068884
301.030223514
300.706649619
300.591027735
300.51874191
300.458271297
300.401052868
300.343312624
300.285543051
300.234327448
300.192655362
300.159561101
300.134296206
300.115784346
300.101158687
300.088451579
300.07642489
317.858869976
307.850136661
303.759498792
302.006023696
301.261147237
300.761928373
300.602020196
300.518899231
300.454528298
300.396844377
300.341329516
300.287336235
300.239088393
300.199420286
300.167818575
300.143456077
300.125134782
300.110344777
300.097251226
300.084820403
318.177437185
308.05242628
303.773075757
302.06493379
301.388686612
300.954244961
300.650976114
300.537949367
300.464860517
300.403912787
300.348778906
300.296827777