/*--------------------------------*- C++ -*----------------------------------*\
| =========                 |                                                 |
| \\      /  F ield         | OpenFOAM: The Open Source CFD Toolbox           |
|  \\    /   O peration     | Version:  2312                                  |
|   \\  /    A nd           | Website:  www.openfoam.com                      |
|    \\/     M anipulation  |                                                 |
\*---------------------------------------------------------------------------*/
FoamFile
{
    version     2.0;
    format      ascii;
    arch        "LSB;label=32;scalar=64";
    class       volScalarField;
    location    "0.015/water";
    object      nut.gas;
}
// * * * * * * * * * * * * * * * * * * * * * * * * * * * * * * * * * * * * * //

dimensions      [0 2 -1 0 0 0 0];

internalField   nonuniform List<scalar> 
1504
(
5.10475808926e-06
4.23280416218e-06
2.80634043997e-06
1.1824826195e-06
3.63616188368e-07
1.40581230489e-07
3.84229858482e-08
5.54058970194e-09
3.88006908069e-10
5.11579528619e-11
2.99610282608e-11
2.6698491885e-11
2.55152584398e-11
2.55113387463e-11
2.69082864646e-11
3.03306618132e-11
3.71950912124e-11
5.44375697001e-11
1.06759177502e-10
2.99697186745e-10
5.16690358667e-06
4.30824125146e-06
2.878577423e-06
1.22416066009e-06
3.6566989454e-07
1.34686959548e-07
3.42066810423e-08
4.51992284319e-09
2.96286086075e-10
4.60923600335e-11
2.9582754205e-11
2.67228288546e-11
2.56537559529e-11
2.57138840596e-11
2.71584065202e-11
3.06374137431e-11
3.75966590428e-11
5.50721151238e-11
1.08388303584e-10
3.04635029079e-10
5.25542673039e-06
4.4098456457e-06
2.99061857089e-06
1.29520934283e-06
3.78217557754e-07
1.30194841908e-07
3.02704476831e-08
3.64026745408e-09
2.27562244033e-10
4.26489862937e-11
2.95481879346e-11
2.69171443513e-11
2.58988390448e-11
2.6002434199e-11
2.74971505716e-11
3.1039429633e-11
3.80661640545e-11
5.57015230859e-11
1.09927729217e-10
3.0938853944e-10
5.44099540652e-06
4.60975665262e-06
3.17344351682e-06
1.41737313016e-06
4.12223327714e-07
1.29343209717e-07
2.73463815469e-08
3.01325677187e-09
1.84043719285e-10
4.08172829575e-11
2.98703335528e-11
2.73369101084e-11
2.63011449247e-11
2.64183154285e-11
2.79646109306e-11
3.15832806209e-11
3.86807365421e-11
5.64610377176e-11
1.11603520128e-10
3.14334313052e-10
5.67277393991e-06
4.81973142395e-06
3.36776817839e-06
1.57603108077e-06
4.69906933946e-07
1.32153755272e-07
2.52449744853e-08
2.56736470204e-09
1.56057208349e-10
3.96922792147e-11
3.02026592188e-11
2.77620167456e-11
2.6721434004e-11
2.68633547789e-11
2.84740494049e-11
3.21728053438e-11
3.93525191638e-11
5.73135701254e-11
1.13370107976e-10
3.19141007183e-10
5.80331778315e-06
4.95520282298e-06
3.48787565698e-06
1.7434577912e-06
5.5244322995e-07
1.38731222598e-07
2.36354755476e-08
2.21503078258e-09
1.35502293631e-10
3.87422582207e-11
3.03969895784e-11
2.8066504086e-11
2.70591936139e-11
2.72409367573e-11
2.89144928844e-11
3.26805580061e-11
3.99480947582e-11
5.80939630646e-11
1.14889242313e-10
3.23132200557e-10
5.99750320533e-06
5.13998211759e-06
3.6649528055e-06
1.98939909341e-06
6.92923425072e-07
1.54090507375e-07
2.26379485169e-08
1.946382154e-09
1.21249874563e-10
3.82129180996e-11
3.0651950282e-11
2.83788324188e-11
2.73937260469e-11
2.76027100285e-11
2.93100067441e-11
3.31030555458e-11
4.04207536487e-11
5.86764294426e-11
1.15931201505e-10
3.26196658218e-10
6.37955595652e-06
5.55894975419e-06
4.07092398725e-06
2.44849529086e-06
9.92269884687e-07
2.04414170517e-07
2.41571067772e-08
1.87110070241e-09
1.17169981213e-10
3.8670882548e-11
3.12711376646e-11
2.89212141343e-11
2.78749517924e-11
2.80608220157e-11
2.97690493157e-11
3.35641036292e-11
4.08880088364e-11
5.9124559699e-11
1.16532067817e-10
3.28528565591e-10
6.63852312752e-06
6.11012607833e-06
4.79359037055e-06
3.25242081567e-06
1.64033849705e-06
3.80685507684e-07
3.40430131639e-08
2.09704844615e-09
1.24402117052e-10
4.01711230818e-11
3.22854705161e-11
2.97452019183e-11
2.85654893923e-11
2.86606359717e-11
3.0308214498e-11
3.40759401166e-11
4.13778882494e-11
5.95410458021e-11
1.16937631633e-10
3.30585311227e-10
3.95091795951e-06
4.87132756786e-06
4.87624452244e-06
3.99869243635e-06
2.52881844033e-06
7.96289419552e-07
6.93320473926e-08
2.84955239255e-09
1.42223351209e-10
4.21154921261e-11
3.33042047042e-11
3.05906895743e-11
2.9306419328e-11
2.93060325152e-11
3.08695187828e-11
3.46024474935e-11
4.18784959698e-11
5.99280269795e-11
1.17156488061e-10
3.32199684832e-10
2.98567216636e-06
3.61065410976e-06
3.85030981214e-06
3.35925266956e-06
2.18424420523e-06
6.85019029744e-07
6.63758399762e-08
3.46400454297e-09
1.7435393054e-10
4.45076146949e-11
3.40929617975e-11
3.12182817447e-11
2.98824647693e-11
2.9821148091e-11
3.13136821557e-11
3.50080539385e-11
4.22591947276e-11
6.01921528426e-11
1.1714974353e-10
3.32742691624e-10
3.07516715396e-06
3.38756921682e-06
3.40689657837e-06
2.87673548254e-06
1.76836913567e-06
5.19873545895e-07
5.8502038903e-08
4.24851994746e-09
2.29169480973e-10
4.78322641328e-11
3.47652714547e-11
3.16529112775e-11
3.02696358549e-11
3.01666812604e-11
3.16111039796e-11
3.52532693415e-11
4.24369779403e-11
6.01690605416e-11
1.16641009292e-10
3.32319438628e-10
3.20917296461e-06
3.44348045259e-06
3.35879883766e-06
2.74551013826e-06
1.60812439173e-06
4.58619257766e-07
5.83005471963e-08
5.23871802801e-09
3.04966079701e-10
5.22916092735e-11
3.55648151224e-11
3.20748374332e-11
3.05780041926e-11
3.04151044221e-11
3.18280377454e-11
3.54233529939e-11
4.25204545235e-11
5.99661320945e-11
1.15690464922e-10
3.31117422465e-10
3.38329544768e-06
3.61436568659e-06
3.4718575974e-06
2.7890923089e-06
1.60647776565e-06
4.62901551585e-07
6.3516547638e-08
6.42930094812e-09
3.99992999275e-10
5.77495588544e-11
3.65046528241e-11
3.25647013634e-11
3.09180908976e-11
3.06652851653e-11
3.20312917358e-11
3.55932552083e-11
4.26118752585e-11
5.97473555302e-11
1.14613500106e-10
3.29839425143e-10
3.5257798665e-06
3.76227230244e-06
3.58973245907e-06
2.87025455534e-06
1.66025110761e-06
4.92592112687e-07
7.10497832594e-08
7.75026077213e-09
5.11134495971e-10
6.36244530663e-11
3.72959169384e-11
3.29583007646e-11
3.12193523237e-11
3.08923048637e-11
3.21960058477e-11
3.57247960081e-11
4.26923920598e-11
5.95740661073e-11
1.13631930995e-10
3.28743022602e-10
3.63358587596e-06
3.88119445786e-06
3.69929298497e-06
2.96349556217e-06
1.73666171911e-06
5.34937934021e-07
8.03031724452e-08
9.23132256925e-09
6.41334965453e-10
6.98631884421e-11
3.78084892283e-11
3.31118992719e-11
3.13641538194e-11
3.10222036361e-11
3.22661163819e-11
3.57441630903e-11
4.26647858944e-11
5.93463394262e-11
1.12701776918e-10
3.27382026999e-10
3.71715580589e-06
3.98997150323e-06
3.81351683869e-06
3.06831261524e-06
1.82454585123e-06
5.83804383057e-07
9.07408601614e-08
1.08482895672e-08
7.88988479791e-10
7.67069828595e-11
3.82338562118e-11
3.31251060856e-11
3.1388446395e-11
3.10596991936e-11
3.22699816815e-11
3.56772542063e-11
4.25143357887e-11
5.89777878063e-11
1.11660456203e-10
3.25485138874e-10
3.77599927749e-06
4.0838027244e-06
3.92250282816e-06
3.17236795987e-06
1.91248388401e-06
6.33120256576e-07
1.01426294935e-07
1.25062088803e-08
9.44656108354e-10
8.41583436207e-11
3.88138811915e-11
3.31931770439e-11
3.14217468075e-11
3.11002548275e-11
3.22876429028e-11
3.56302403041e-11
4.2371020605e-11
5.85761797845e-11
1.10521115761e-10
3.23214918635e-10
3.79106449513e-06
4.13263865312e-06
3.99542095863e-06
3.25344780553e-06
1.98770355357e-06
6.77695990734e-07
1.11491830437e-07
1.41099829215e-08
1.09641558237e-09
9.16575095739e-11
3.95450547187e-11
3.33923467694e-11
3.15455208068e-11
3.12094468917e-11
3.23847631286e-11
3.56837521688e-11
4.23342966319e-11
5.82783239215e-11
1.09471780246e-10
3.21241445072e-10
3.77063843498e-06
4.12567576117e-06
4.01431541107e-06
3.29621551473e-06
2.04534437372e-06
7.17633161053e-07
1.20865057091e-07
1.55763794016e-08
1.23065673738e-09
9.80007686176e-11
4.00998081172e-11
3.35592196225e-11
3.1665271001e-11
3.13203798584e-11
3.25053837174e-11
3.5791042832e-11
4.23926518423e-11
5.81309581266e-11
1.08631072154e-10
3.19843738167e-10
3.75373022391e-06
4.12003878223e-06
4.03201680789e-06
3.33755213741e-06
2.10307943871e-06
7.59484689897e-07
1.30808490326e-07
1.70741063161e-08
1.36181371061e-09
1.03587343299e-10
4.03684863087e-11
3.35562942611e-11
3.16672481268e-11
3.13475850508e-11
3.25683770629e-11
3.58426728841e-11
4.24230710873e-11
5.80230624682e-11
1.07931029491e-10
3.18661010835e-10
3.72957379688e-06
4.13106458682e-06
4.07626638757e-06
3.4004402065e-06
2.17117150052e-06
8.04354843872e-07
1.41279628402e-07
1.86120143293e-08
1.49564001568e-09
1.09125577236e-10
4.05579811124e-11
3.34789086102e-11
3.16082460586e-11
3.13175365629e-11
3.25565517219e-11
3.5821948461e-11
4.23609373144e-11
5.78237470046e-11
1.07204560919e-10
3.1725922938e-10
3.67527006561e-06
4.12520529401e-06
4.1224321391e-06
3.46943514594e-06
2.23894498323e-06
8.45535835383e-07
1.50681467826e-07
2.00375529002e-08
1.62053123169e-09
1.14671544991e-10
4.09189142978e-11
3.3522983818e-11
3.16289832798e-11
3.13431820752e-11
3.25734514144e-11
3.57995646196e-11
4.22870927901e-11
5.75813428227e-11
1.06414120091e-10
3.15475285826e-10
3.6391946117e-06
4.1039492148e-06
4.13484448168e-06
3.50879026015e-06
2.28634820338e-06
8.77438835678e-07
1.58690128653e-07
2.14068736716e-08
1.74405605886e-09
1.20692448323e-10
4.15475658186e-11
3.37744750562e-11
3.17974205083e-11
3.14617557493e-11
3.26617529552e-11
3.58664470607e-11
4.22984678271e-11
5.74287350071e-11
1.05702732416e-10
3.13865140933e-10
3.60884458132e-06
4.06965526638e-06
4.11641142381e-06
3.51835736214e-06
2.31793171929e-06
9.06743856558e-07
1.66990592844e-07
2.28448008588e-08
1.87028608085e-09
1.26700230131e-10
4.21419650687e-11
3.404671353e-11
3.20125165358e-11
3.16262330789e-11
3.27995741656e-11
3.6000319944e-11
4.24086229095e-11
5.7396682467e-11
1.0513681342e-10
3.12712901185e-10
3.5897875156e-06
4.04349067451e-06
4.10082154878e-06
3.52593062981e-06
2.34826715077e-06
9.38015466251e-07
1.76271311491e-07
2.44378054106e-08
2.01024236604e-09
1.32884614249e-10
4.25050321847e-11
3.4144413773e-11
3.21172067266e-11
3.17278820982e-11
3.29041235904e-11
3.61121434408e-11
4.25224354623e-11
5.7414921884e-11
1.04675754019e-10
3.119014216e-10
3.56147038481e-06
4.02053291308e-06
4.10006536705e-06
3.54903454633e-06
2.38713593019e-06
9.71641516606e-07
1.8599138637e-07
2.60776875226e-08
2.16313479171e-09
1.39766910491e-10
4.28049318054e-11
3.41340611797e-11
3.21294382486e-11
3.17686975542e-11
3.29588399504e-11
3.61673100171e-11
4.25532433458e-11
5.73478795186e-11
1.04173457742e-10
3.10790095901e-10
3.53527095335e-06
4.0012673622e-06
4.11014556729e-06
3.5813827091e-06
2.42601949926e-06
1.00026931424e-06
1.94173098503e-07
2.75631054808e-08
2.31586198506e-09
1.47492468946e-10
4.3317142817e-11
3.4219381847e-11
3.21834951781e-11
3.183569969e-11
3.30349420896e-11
3.62164780929e-11
4.25576470551e-11
5.72109298907e-11
1.03563454925e-10
3.09239421431e-10
3.51216681688e-06
3.98277143975e-06
4.10683369944e-06
3.59667167659e-06
2.45290489997e-06
1.02275441299e-06
2.01595299066e-07
2.90991958718e-08
2.48338015262e-09
1.56560202036e-10
4.41176621874e-11
3.44852300028e-11
3.23489243251e-11
3.1961285292e-11
3.31555674486e-11
3.63314812956e-11
4.26260398453e-11
5.71395244562e-11
1.02983287617e-10
3.07574661899e-10
3.49296301102e-06
3.9574546158e-06
4.07954439387e-06
3.58514320434e-06
2.46337466516e-06
1.04392411416e-06
2.09934959224e-07
3.07873588141e-08
2.6488416368e-09
1.64936604521e-10
4.4820625588e-11
3.4762229476e-11
3.25464216447e-11
3.21140721555e-11
3.32924316233e-11
3.64802551771e-11
4.27747881245e-11
5.71700605513e-11
1.02506323528e-10
3.06268523827e-10
3.48155104426e-06
3.9349091184e-06
4.053218653e-06
3.57314642862e-06
2.47466153425e-06
1.06660187525e-06
2.18490608265e-07
3.24228488735e-08
2.78605239838e-09
1.70832447133e-10
4.51236151509e-11
3.48597421273e-11
3.26356013785e-11
3.22033317202e-11
3.33842429233e-11
3.66039824409e-11
4.29357417193e-11
5.7271618985e-11
1.02135603491e-10
3.05394678531e-10
3.46552023627e-06
3.91583946532e-06
4.04340472709e-06
3.57953520932e-06
2.49611107009e-06
1.09016903482e-06
2.26197110099e-07
3.37412506723e-08
2.88594443373e-09
1.74529426586e-10
4.51758328705e-11
3.48305568908e-11
3.2636808927e-11
3.22348808869e-11
3.34244715741e-11
3.66655981103e-11
4.30270250613e-11
5.73169290958e-11
1.01770474954e-10
3.04521138547e-10
3.43598150956e-06
3.89413272827e-06
4.04308770879e-06
3.59961350585e-06
2.5243050695e-06
1.11110989914e-06
2.31982744177e-07
3.46391482262e-08
2.9516859166e-09
1.76997043354e-10
4.52610544694e-11
3.48462236515e-11
3.26837878094e-11
3.23188027128e-11
3.35077365637e-11
3.67322224019e-11
4.30780515261e-11
5.72991976272e-11
1.01341927157e-10
3.03448327089e-10
3.4130223751e-06
3.87263804606e-06
4.0380031958e-06
3.61269905024e-06
2.54493662554e-06
1.12466896873e-06
2.35560695313e-07
3.52429626365e-08
3.00023801901e-09
1.79135530584e-10
4.54836048354e-11
3.49741296991e-11
3.28276671224e-11
3.24942624093e-11
3.36850717456e-11
3.68901750901e-11
4.31959799969e-11
5.73126720154e-11
1.0097522829e-10
3.0221192613e-10
3.38313019363e-06
3.84552019499e-06
4.01901974058e-06
3.60829141028e-06
2.55109616491e-06
1.13077335449e-06
2.37094362984e-07
3.55384093707e-08
3.00822425216e-09
1.79059195928e-10
4.556058391e-11
3.50893178159e-11
3.29813336284e-11
3.26868221178e-11
3.38981242894e-11
3.71120321938e-11
4.34274781584e-11
5.74766385847e-11
1.00718518853e-10
3.0105124301e-10
3.36030169395e-06
3.81817084149e-06
3.99834665885e-06
3.59953691171e-06
2.55093117939e-06
1.13157670696e-06
2.36548464432e-07
3.54586561289e-08
2.96641453794e-09
1.76255840683e-10
4.53187629274e-11
3.50621672799e-11
3.30299062848e-11
3.28000779453e-11
3.40635650771e-11
3.73134575724e-11
4.36721832664e-11
5.7699139717e-11
1.00532112925e-10
3.00128296426e-10
3.33410825937e-06
3.79824885624e-06
3.99540030199e-06
3.60512863643e-06
2.55459690589e-06
1.12817739241e-06
2.33801442694e-07
3.49655078867e-08
2.90623422982e-09
1.73561895949e-10
4.50506940379e-11
3.49760907806e-11
3.30096609409e-11
3.28419135501e-11
3.41633071571e-11
3.7448890792e-11
4.38499652769e-11
5.78666923932e-11
1.00312180942e-10
2.99212267813e-10
3.31908732041e-06
3.80586804762e-06
4.01675639232e-06
3.62402482038e-06
2.56054106411e-06
1.12012891214e-06
2.29496767904e-07
7.09150219159e-09
1.25435786769e-08
3.60317721676e-08
4.46034565313e-08
4.50980577184e-08
4.51167375198e-08
4.51170969271e-08
4.51169287618e-08
4.51167957795e-08
4.5116697429e-08
4.51166396094e-08
4.51166085604e-08
4.51137168715e-08
4.31446899727e-08
2.78487095891e-08
7.10181242204e-07
2.73524950095e-06
7.81523302621e-10
2.14446723208e-09
4.75669717024e-09
7.29136787228e-09
1.30384378011e-08
3.68349849321e-08
4.46744561495e-08
4.50981431542e-08
4.51135455863e-08
4.51138695246e-08
4.51137706209e-08
4.5113697747e-08
4.51136487878e-08
4.51136308562e-08
4.51136319056e-08
4.51106191667e-08
4.30422983289e-08
2.86293439781e-08
7.26063539174e-07
2.76686510093e-06
7.93545440009e-10
2.17365599857e-09
4.85656289164e-09
7.50871176357e-09
1.35986850189e-08
3.76287952555e-08
4.47375198712e-08
4.50980404105e-08
4.51106843141e-08
4.51109939361e-08
4.51109638235e-08
4.51109491752e-08
4.51109483339e-08
4.51109681004e-08
4.51109997783e-08
4.51078550842e-08
4.29362690522e-08
2.94512090295e-08
7.42324522274e-07
2.79877847244e-06
8.05009057705e-10
2.20297812452e-09
4.96648375306e-09
7.75815909331e-09
1.42027667389e-08
3.83387857026e-08
4.47892782863e-08
4.50977555477e-08
4.51082282427e-08
4.51085415446e-08
4.51085759713e-08
4.51086156512e-08
4.51086588779e-08
4.51087128225e-08
4.51087712257e-08
4.51054833631e-08
4.28266489448e-08
3.03080563855e-08
7.58732363551e-07
2.83074791457e-06
8.15980154331e-10
2.23144214795e-09
5.07585996644e-09
8.00008766107e-09
1.47500262955e-08
3.89269980966e-08
4.48302997059e-08
4.5097431714e-08
4.51062437266e-08
4.51065711174e-08
4.5106662058e-08
4.51067504088e-08
4.51068319699e-08
4.51069169237e-08
4.51069984184e-08
4.51035570699e-08
4.27135790749e-08
3.11973161129e-08
7.75285204889e-07
2.8626063859e-06
8.26486967446e-10
2.2563290892e-09
5.16937190812e-09
8.19982375565e-09
1.52041623568e-08
3.94218195752e-08
4.4863208079e-08
4.50972274832e-08
4.51047644921e-08
4.5105108967e-08
4.51052462202e-08
4.51053759234e-08
4.51054891705e-08
4.5105601489e-08
4.5105702546e-08
4.51020984737e-08
4.25972052418e-08
3.2117159716e-08
7.91951591585e-07
2.89426146071e-06
8.36348908078e-10
2.27609082278e-09
5.24492989459e-09
8.36028016897e-09
1.55822237714e-08
3.98416236892e-08
4.48893261984e-08
4.50972208319e-08
4.51037949748e-08
4.51041552437e-08
4.51043282997e-08
4.51044908392e-08
4.51046285014e-08
4.51047625034e-08
4.51048778063e-08
4.51010995609e-08
4.24776029728e-08
3.30661851149e-08
8.08700152509e-07
2.92566719184e-06
8.45326600721e-10
2.29191205049e-09
5.31365528779e-09
8.50799028981e-09
1.59060559226e-08
4.0171444546e-08
4.49083440376e-08
4.50974197129e-08
4.51033209998e-08
4.51036921696e-08
4.51038891607e-08
4.51040739032e-08
4.51042277521e-08
4.51043767283e-08
4.51045015478e-08
4.51005392015e-08
4.23548478356e-08
3.40427895869e-08
8.25497437922e-07
2.9567896341e-06
8.53160964489e-10
2.30585124369e-09
5.3873631467e-09
8.66138988531e-09
1.61339395736e-08
4.03679146346e-08
4.49196041855e-08
4.50978184626e-08
4.51033256346e-08
4.5103699916e-08
4.5103907899e-08
4.51041029425e-08
4.51042637401e-08
4.51044190665e-08
4.51045466495e-08
4.51003883463e-08
4.22289594546e-08
3.50456262375e-08
8.42317140077e-07
2.98760941001e-06
8.5992838866e-10
2.31799892677e-09
5.4582479595e-09
8.78436547188e-09
1.61977486098e-08
4.04232061492e-08
4.49237216711e-08
4.50984403271e-08
4.51037924173e-08
4.51041581844e-08
4.51043620097e-08
4.51045536053e-08
4.51047107218e-08
4.51048633002e-08
4.51049873949e-08
4.51006226941e-08
4.20999695122e-08
3.60731989525e-08
8.59132611037e-07
3.01810579152e-06
8.65715318717e-10
2.32529708724e-09
5.51070339134e-09
8.8631946677e-09
1.61108970075e-08
4.0372832482e-08
4.492246622e-08
4.50993273191e-08
4.51047056727e-08
4.51050503308e-08
4.51052353822e-08
4.51054105285e-08
4.51055534009e-08
4.51056933784e-08
4.51058057491e-08
4.51012224316e-08
4.19678296014e-08
3.71246585806e-08
8.75929281438e-07
3.04827302891e-06
8.70487372741e-10
2.32468659587e-09
5.54171586523e-09
8.88651095363e-09
1.59010609683e-08
4.02451486426e-08
4.49171378066e-08
4.51004924452e-08
4.51060432038e-08
4.5106355523e-08
4.51065086851e-08
4.51066558797e-08
4.51067752902e-08
4.51068950882e-08
4.51069903443e-08
4.51021798525e-08
4.18324962718e-08
3.81991972374e-08
8.92693991112e-07
3.07810378459e-06
8.7441100629e-10
2.31680294026e-09
5.56073311598e-09
8.89132524295e-09
1.56499919976e-08
4.00536040295e-08
4.49077124481e-08
4.51018979131e-08
4.51077765052e-08
4.51080509576e-08
4.5108164058e-08
4.51082764366e-08
4.51083668446e-08
4.51084613734e-08
4.51085350138e-08
4.51034895437e-08
4.16938194172e-08
3.92969166171e-08
9.09428213348e-07
3.10760914936e-06
8.77579270516e-10
2.3050366582e-09
5.58141770762e-09
8.90802958297e-09
1.53814831688e-08
3.97828697971e-08
4.48931936119e-08
4.51034644071e-08
4.51098648902e-08
4.51101017508e-08
4.51101705949e-08
4.511024487e-08
4.51103042293e-08
4.51103728209e-08
4.51104256251e-08
4.51051423832e-08
4.15516463298e-08
4.04179295859e-08
9.26133336993e-07
3.13679745436e-06
8.80247032885e-10
2.29214467736e-09
5.60494140827e-09
8.93139590196e-09
1.50743368014e-08
3.94237601428e-08
4.48731886634e-08
4.51051175699e-08
4.51122567036e-08
4.51124621556e-08
4.51124874165e-08
4.5112524699e-08
4.51125545048e-08
4.51125986385e-08
4.51126319146e-08
4.51071074668e-08
4.14057021735e-08
4.15632414984e-08
9.42823769481e-07
3.16569492396e-06
8.82652935978e-10
2.27754556041e-09
5.61974190326e-09
8.93356393704e-09
1.47133759965e-08
3.89999053304e-08
4.48490848631e-08
4.51068226567e-08
4.51148854224e-08
4.51150678467e-08
4.51150520923e-08
4.51150547759e-08
4.51150576031e-08
4.51150805147e-08
4.51150982078e-08
4.51093308718e-08
4.12557188221e-08
4.27336927737e-08
9.59510443381e-07
3.19432167892e-06
8.84647313127e-10
2.25912950364e-09
5.62023735629e-09
8.9064886644e-09
1.43351791111e-08
3.85597202113e-08
4.48231042076e-08
4.51085643067e-08
4.51176755026e-08
4.51178452778e-08
4.51177938629e-08
4.51177665021e-08
4.51177460799e-08
4.51177504405e-08
4.51177540405e-08
4.51117392587e-08
4.11013360963e-08
4.3930843398e-08
9.76213672383e-07
3.22271132053e-06
8.86312624722e-10
2.23752281623e-09
5.61423082188e-09
8.88080973625e-09
1.401077607e-08
3.81390386284e-08
4.47963167404e-08
4.51102936552e-08
4.51205461337e-08
4.5120715068e-08
4.512063453e-08
4.51205821803e-08
4.51205424875e-08
4.51205318338e-08
4.51205246584e-08
4.51142590328e-08
4.0942250868e-08
4.51558833529e-08
9.92946994124e-07
3.25088695922e-06
8.87865741934e-10
2.21584887167e-09
5.61400725118e-09
8.88560009952e-09
1.37580911866e-08
3.77308649896e-08
4.47680492915e-08
4.51119181542e-08
4.51234236903e-08
4.51236070778e-08
4.51235066994e-08
4.51234367709e-08
4.51233834778e-08
4.51233616504e-08
4.5123345711e-08
4.51168236846e-08
4.07781239947e-08
4.64104716383e-08
1.0097292745e-06
3.27887923065e-06
8.89538797548e-10
2.19678363743e-09
5.62327318533e-09
8.9164776848e-09
1.35373719264e-08
3.73159730857e-08
4.47377159993e-08
4.51133676009e-08
4.51262492332e-08
4.51264634532e-08
4.5126352992e-08
4.51262731253e-08
4.51262122688e-08
4.51261844114e-08
4.51261643063e-08
4.51193816551e-08
4.06087109509e-08
4.76957057406e-08
1.02657033011e-06
3.30670548215e-06
8.91505646209e-10
2.1803680617e-09
5.63233237723e-09
8.94379028734e-09
1.33082381798e-08
3.69020415852e-08
4.47068002613e-08
4.51146675022e-08
4.51289870219e-08
4.51292467466e-08
4.51291364093e-08
4.51290549378e-08
4.51289931262e-08
4.51289640535e-08
4.51289428355e-08
4.51218928378e-08
4.04337587798e-08
4.90129535103e-08
1.04348284043e-06
3.33438742072e-06
8.93470233882e-10
2.16473769597e-09
5.63360789088e-09
8.95088782686e-09
1.30769741635e-08
3.65234420932e-08
4.46778969587e-08
4.51159055898e-08
4.51316222873e-08
4.51319366534e-08
4.51318341649e-08
4.51317572151e-08
4.51316992841e-08
4.51316731332e-08
4.51316545727e-08
4.51243305287e-08
4.0253114181e-08
5.03629680168e-08
1.06047056117e-06
3.36193445597e-06
8.95144632049e-10
2.14937365192e-09
5.63139737656e-09
8.95742687662e-09
1.28946555134e-08
3.62057124036e-08
4.46519038415e-08
4.51171278889e-08
4.51341583065e-08
4.51345321374e-08
4.51344429947e-08
4.513437506e-08
4.51343244084e-08
4.51343032629e-08
4.51342880694e-08
4.51266797139e-08
4.00666222951e-08
5.17467070447e-08
1.07753968039e-06
3.38935990376e-06
8.96599749773e-10
2.13563317552e-09
5.63634097139e-09
8.99196384778e-09
1.27790191628e-08
3.59267561056e-08
4.46269893533e-08
4.511829134e-08
4.51366095621e-08
4.51370451495e-08
4.5136971235e-08
4.51369136045e-08
4.51368710099e-08
4.51368554946e-08
4.5136844324e-08
4.51289410632e-08
3.98742218937e-08
5.31645663937e-08
1.09468890109e-06
3.41666728708e-06
8.98057303653e-10
2.12476303097e-09
5.65248314234e-09
9.053311072e-09
1.26910608616e-08
3.56471821823e-08
4.46009428162e-08
4.51193453097e-08
4.51389996094e-08
4.51394988407e-08
4.51394404955e-08
4.51393935569e-08
4.51393592823e-08
4.51393491525e-08
4.51393410778e-08
4.5131130451e-08
3.96758462965e-08
5.46171919893e-08
1.11192026165e-06
3.44386519327e-06
8.99785337737e-10
2.11648006037e-09
5.67092063558e-09
9.11358340723e-09
1.25853997029e-08
3.53582371665e-08
4.45742767581e-08
4.51203441783e-08
4.51413561227e-08
4.51419184146e-08
4.51418747563e-08
4.51418380773e-08
4.5141812155e-08
4.51418081445e-08
4.51418046636e-08
4.5133276884e-08
3.94715010695e-08
5.6104808844e-08
1.12923049592e-06
3.47095550543e-06
9.0163304059e-10
2.10906762945e-09
5.68184064264e-09
9.14822227028e-09
1.2451441944e-08
3.5088126799e-08
4.45497361366e-08
4.51214216667e-08
4.51437050153e-08
4.51443269617e-08
4.51442980782e-08
4.51442726738e-08
4.51442567814e-08
4.51442608252e-08
4.51442639367e-08
4.51354091724e-08
3.92611596234e-08
5.762799089e-08
1.1466207681e-06
3.4979457589e-06
9.03191862915e-10
2.10161018866e-09
5.6867704655e-09
9.16956776438e-09
1.233683685e-08
3.48719290078e-08
4.45287775626e-08
4.51226477385e-08
4.51460606998e-08
4.51467376245e-08
4.51467238753e-08
4.5146710868e-08
4.51467068221e-08
4.51467216327e-08
4.5146734945e-08
4.51375452228e-08
3.90448353115e-08
5.91869646324e-08
1.16408778793e-06
3.52483739509e-06
9.04494428213e-10
2.09498087883e-09
5.69581825566e-09
9.21175869499e-09
1.22794481658e-08
3.46982997262e-08
4.450948307e-08
4.51239503797e-08
4.51484249672e-08
4.5149155442e-08
4.51491581842e-08
4.51491593576e-08
4.51491691369e-08
4.51491964776e-08
4.51492213759e-08
4.51396848749e-08
3.88224907519e-08
6.07823392219e-08
1.18163289759e-06
3.55163699505e-06
9.05796279706e-10
2.09027492465e-09
5.71587766737e-09
9.28320845151e-09
1.22547471515e-08
3.45256933598e-08
4.4488667037e-08
4.51252041832e-08
4.51507914617e-08
4.51515779477e-08
4.51515982869e-08
4.515161444e-08
4.51516387045e-08
4.51516793011e-08
4.51517166245e-08
4.51418216217e-08
3.85941374325e-08
6.24143299609e-08
1.19925253176e-06
3.57834474067e-06
9.07469762829e-10
2.08761645084e-09
5.74181691159e-09
9.36389696395e-09
1.2221453608e-08
3.43365892945e-08
4.44658244578e-08
4.51263967773e-08
4.51531573912e-08
4.51540037867e-08
4.51540436962e-08
4.51540761262e-08
4.51541154935e-08
4.51541689778e-08
4.51542173961e-08
4.51439478301e-08
3.83597601936e-08
6.40834869004e-08
1.21694729921e-06
3.60496549542e-06
9.09614082115e-10
2.08579120583e-09
5.76278469894e-09
9.42542550143e-09
1.21545704379e-08
3.41506226502e-08
4.4444070837e-08
4.51276616685e-08
4.51555284864e-08
4.51564356085e-08
4.51564972409e-08
4.51565470492e-08
4.51566019328e-08
4.5156668305e-08
4.51567276421e-08
4.5146070239e-08
3.81194308739e-08
6.5789782117e-08
1.23471116472e-06
3.63149664479e-06
9.1165842002e-10
2.083533406e-09
5.77593167149e-09
9.46538601939e-09
1.20827671335e-08
3.40068781604e-08
4.44263999342e-08
4.51291247741e-08
4.51579219439e-08
4.51588887547e-08
4.51589754887e-08
4.51590450576e-08
4.51591168922e-08
4.51591964336e-08
4.51592660168e-08
4.51482042967e-08
3.78732128134e-08
6.75334583419e-08
1.2525421263e-06
3.65794095541e-06
9.13326213854e-10
2.08117774322e-09
5.78844948468e-09
9.51686009362e-09
1.20604361029e-08
3.39119913932e-08
4.44117295945e-08
4.51307577574e-08
4.51603633976e-08
4.51613902137e-08
4.51615050402e-08
4.51615963218e-08
4.51616865607e-08
4.5161780363e-08
4.51618612533e-08
4.51503828314e-08
3.76212747048e-08
6.93140181695e-08
1.27043031908e-06
3.68429382546e-06
9.14711523695e-10
2.07956571517e-09
5.80741783253e-09
9.5936437122e-09
1.207847941e-08
3.38242248878e-08
4.43957285879e-08
4.51324247025e-08
4.51628911781e-08
4.51639826122e-08
4.51641280443e-08
4.5164242856e-08
4.51643528586e-08
4.51644615279e-08
4.51645537602e-08
4.51526422458e-08
3.73637693863e-08
7.11312679429e-08
1.28837113953e-06
3.7105580476e-06
9.16087504172e-10
2.0789541236e-09
5.83070638064e-09
9.68216679029e-09
1.20967731458e-08
3.3709215274e-08
4.43753212827e-08
4.51340576771e-08
4.51655542766e-08
4.51667151686e-08
4.51668908946e-08
4.51670286633e-08
4.5167158263e-08
4.51672819447e-08
4.51673862131e-08
4.51550288823e-08
3.71009524952e-08
7.29842132656e-08
1.30635166174e-06
3.73672996364e-06
9.17737774429e-10
2.07879336278e-09
5.84863041233e-09
9.75450762666e-09
1.20808996015e-08
3.35624570102e-08
4.43513204049e-08
4.51357503563e-08
4.51684136826e-08
4.51696442902e-08
4.51698467663e-08
4.51700043375e-08
4.51701509043e-08
4.51702874369e-08
4.51704019724e-08
4.51575813537e-08
3.68330253812e-08
7.4872369342e-08
1.32436639196e-06
3.7628136531e-06
9.19223099074e-10
2.07773716403e-09
5.8545201972e-09
9.79591901687e-09
1.20315578408e-08
3.3402900747e-08
4.43261354069e-08
4.51376344927e-08
4.5171528613e-08
4.51728223962e-08
4.51730434294e-08
4.51732137723e-08
4.51733716954e-08
4.51735166618e-08
4.51736381961e-08
4.5160337593e-08
3.65604904113e-08
7.67896146919e-08
1.34230414112e-06
3.78838525673e-06
)
;

boundaryField
{
    emptyPatch
    {
        type            empty;
    }
    minY
    {
        type            calculated;
        value           nonuniform List<scalar> 0();
    }
    maxY
    {
        type            calculated;
        value           nonuniform List<scalar> 0();
    }
    maxX
    {
        type            nutkWallFunction;
        blending        stepwise;
        value           uniform 0;
    }
    water_to_heater
    {
        type            nutkWallFunction;
        blending        stepwise;
        value           uniform 0;
    }
    procBoundary3to1
    {
        type            processor;
        value           nonuniform List<scalar> 
41
(
3.42821074943e-08
2.8874431636e-09
1.75199395368e-10
4.52401346755e-11
3.50440362718e-11
3.30808642749e-11
3.29368710834e-11
3.42866417643e-11
3.75734398447e-11
4.39654086142e-11
5.79312392534e-11
9.99395867821e-11
2.97686212264e-10
3.3101841842e-06
3.80225606798e-06
4.02041402726e-06
3.63078528445e-06
2.56264722646e-06
1.11335533333e-06
3.42821074943e-08
2.27173070466e-07
9.19525424416e-10
2.07472187154e-09
5.85113493173e-09
9.82496174926e-09
1.19940943152e-08
3.32397723562e-08
4.42986753812e-08
4.51394637752e-08
4.51747178823e-08
4.51760673212e-08
4.51762964009e-08
4.51764699199e-08
4.5176630897e-08
4.51767753606e-08
4.51768951859e-08
4.5163088238e-08
3.62817795922e-08
7.87499266638e-08
1.36035180008e-06
3.81734543701e-06
)
;
    }
    procBoundary3to2
    {
        type            processor;
        value           nonuniform List<scalar> 
41
(
5.08133049664e-06
4.20378499488e-06
2.77058654608e-06
1.16405432019e-06
3.68477474261e-07
1.4739021592e-07
4.27145168621e-08
6.64004580818e-09
4.99419127629e-10
5.74631977182e-11
3.03884831064e-11
2.66129339775e-11
2.53353398765e-11
2.52816092271e-11
2.66267320266e-11
2.99825896314e-11
3.67267401656e-11
5.36945954068e-11
1.04932964996e-10
2.9435480327e-10
6.88435133831e-09
1.20874074657e-08
3.52737899693e-08
4.45296239598e-08
4.50981529088e-08
4.51204636394e-08
4.51208791756e-08
4.51206441606e-08
4.51204517761e-08
4.5120305416e-08
4.51202083357e-08
4.51201470181e-08
4.51173700098e-08
4.32440388914e-08
2.70909948909e-08