/*--------------------------------*- C++ -*----------------------------------*\
| =========                 |                                                 |
| \\      /  F ield         | OpenFOAM: The Open Source CFD Toolbox           |
|  \\    /   O peration     | Version:  2312                                  |
|   \\  /    A nd           | Website:  www.openfoam.com                      |
|    \\/     M anipulation  |                                                 |
\*---------------------------------------------------------------------------*/
FoamFile
{
    version     2.0;
    format      ascii;
    arch        "LSB;label=32;scalar=64";
    class       volScalarField;
    location    "48";
    object      epsilon.air;
}
// * * * * * * * * * * * * * * * * * * * * * * * * * * * * * * * * * * * * * //

dimensions      [0 2 -3 0 0 0 0];

internalField   nonuniform List<scalar> 
1875
(
0.398237
0.387104
0.382315
0.384633
0.393987
0.407478
0.422673
0.439421
0.457291
0.476083
0.495144
0.513624
0.532324
0.544136
0.547319
0.545857
0.538907
0.51893
0.475876
0.410084
0.334863
0.26757
0.221756
0.200344
0.219019
0.504621
0.438893
0.401786
0.381471
0.368546
0.361314
0.358309
0.358799
0.361445
0.367283
0.376679
0.389128
0.404815
0.428021
0.459209
0.491664
0.52006
0.534159
0.533679
0.518749
0.482429
0.437982
0.398585
0.381156
0.395477
0.381481
0.336664
0.31705
0.308743
0.305687
0.306003
0.30828
0.312964
0.319433
0.3273
0.337312
0.350261
0.366394
0.388081
0.416059
0.447269
0.478051
0.504449
0.513415
0.503674
0.473209
0.434753
0.40419
0.3966
0.419793
0.366904
0.308787
0.290903
0.2877
0.288811
0.292767
0.299007
0.307614
0.31897
0.333318
0.349356
0.366443
0.385299
0.40707
0.43213
0.459085
0.485964
0.504375
0.507976
0.493406
0.462385
0.428007
0.406503
0.406699
0.440166
0.367586
0.312812
0.30044
0.304431
0.31185
0.319952
0.328047
0.337191
0.348087
0.360942
0.37509
0.390417
0.407893
0.428315
0.45141
0.474659
0.492848
0.501141
0.497815
0.478827
0.451318
0.425054
0.4112
0.411869
0.438359
0.368276
0.326197
0.343385
0.362206
0.37457
0.379527
0.381074
0.382716
0.386821
0.39434
0.405383
0.420723
0.438854
0.459172
0.479214
0.494348
0.500852
0.500081
0.486601
0.463169
0.437874
0.417894
0.408541
0.409862
0.433141
0.3713
0.349953
0.394516
0.417374
0.422176
0.41531
0.40756
0.404728
0.406331
0.414623
0.429054
0.445326
0.463118
0.478143
0.489738
0.493814
0.492693
0.481481
0.462311
0.44301
0.426457
0.415287
0.410934
0.417602
0.452707
0.361826
0.371154
0.424312
0.445062
0.444849
0.432489
0.426374
0.425797
0.432999
0.444378
0.453434
0.45879
0.466025
0.470221
0.469781
0.465352
0.456011
0.444998
0.435243
0.427108
0.42108
0.418223
0.419403
0.431448
0.46372
0.31388
0.381696
0.433959
0.454765
0.45577
0.446039
0.439113
0.43668
0.43647
0.437293
0.437514
0.437133
0.435228
0.430151
0.426058
0.422021
0.418893
0.416999
0.416236
0.416349
0.418241
0.423066
0.434128
0.458966
0.497779
0.322045
0.384404
0.433269
0.457755
0.463696
0.458033
0.449099
0.440593
0.431087
0.420685
0.412687
0.406976
0.401909
0.397724
0.394805
0.392975
0.392087
0.391867
0.392811
0.395728
0.40194
0.413546
0.434851
0.473684
0.53002
0.330202
0.384134
0.428594
0.455999
0.467484
0.466454
0.457388
0.444476
0.429477
0.41419
0.401827
0.393009
0.386435
0.38106
0.37632
0.371979
0.36809
0.365186
0.364025
0.365478
0.371448
0.384205
0.408271
0.448939
0.515388
0.345182
0.392209
0.430015
0.455769
0.47084
0.474433
0.46795
0.453956
0.435604
0.417997
0.4036
0.391397
0.381523
0.373582
0.366897
0.360971
0.355415
0.350174
0.346017
0.344251
0.34594
0.353576
0.370905
0.401529
0.457939
0.382091
0.415112
0.441605
0.462564
0.478057
0.485497
0.483592
0.47326
0.455885
0.434529
0.413888
0.398385
0.385893
0.375698
0.367309
0.360108
0.353544
0.3473
0.341813
0.33784
0.336622
0.340352
0.351723
0.373958
0.413388
0.445463
0.447972
0.459697
0.47329
0.485403
0.49356
0.495504
0.491034
0.478283
0.460714
0.439964
0.418693
0.401798
0.388259
0.37746
0.369083
0.362452
0.356522
0.35064
0.344817
0.340254
0.339639
0.347211
0.3665
0.402953
0.470788
0.458737
0.46013
0.467673
0.477811
0.486607
0.491538
0.490951
0.485775
0.474108
0.461431
0.447238
0.430051
0.414448
0.400802
0.389678
0.38112
0.374391
0.368342
0.362002
0.355435
0.350374
0.352456
0.364953
0.391233
0.49998
0.462043
0.444075
0.441423
0.446854
0.456896
0.467034
0.474389
0.476533
0.474429
0.468789
0.460375
0.450663
0.438728
0.426837
0.415207
0.404775
0.395878
0.388075
0.380498
0.372724
0.365247
0.362738
0.368493
0.384195
0.50309
0.443482
0.412793
0.402191
0.403651
0.412064
0.425229
0.438947
0.451547
0.460435
0.463625
0.461408
0.457153
0.451775
0.445809
0.437694
0.427435
0.416493
0.405884
0.395786
0.386246
0.377388
0.372103
0.372962
0.377672
0.446587
0.397005
0.375027
0.367184
0.368811
0.377189
0.391444
0.408208
0.424884
0.439695
0.451349
0.45713
0.460559
0.462788
0.461501
0.455631
0.44476
0.431438
0.417861
0.405188
0.394
0.384627
0.378848
0.376833
0.375603
0.373801
0.354861
0.349118
0.349035
0.354356
0.365288
0.381555
0.400995
0.419699
0.435793
0.448387
0.457156
0.463997
0.468822
0.469142
0.463086
0.451009
0.436255
0.4215
0.40821
0.397078
0.388614
0.383336
0.378042
0.371331
0.342682
0.340128
0.342138
0.347639
0.358674
0.37387
0.391551
0.409456
0.425788
0.43947
0.450495
0.460145
0.468173
0.471906
0.470038
0.461742
0.448594
0.433656
0.419487
0.407438
0.398233
0.392146
0.388115
0.382015
0.375154
0.340018
0.342435
0.350527
0.362841
0.379851
0.398033
0.41433
0.42731
0.437182
0.445727
0.456153
0.46435
0.468574
0.469254
0.464065
0.453263
0.439529
0.425822
0.414028
0.404941
0.398835
0.39522
0.390583
0.383032
0.374069
0.33313
0.348123
0.366357
0.38666
0.408287
0.425146
0.435615
0.441155
0.445522
0.452175
0.457752
0.461341
0.462302
0.458053
0.44907
0.437516
0.425781
0.415539
0.407716
0.402638
0.400255
0.398889
0.394741
0.387771
0.382967
0.328513
0.357031
0.385007
0.410697
0.43137
0.443017
0.448157
0.45047
0.452634
0.453642
0.453186
0.451596
0.44685
0.439102
0.429751
0.420324
0.412219
0.406215
0.402583
0.401344
0.40184
0.401529
0.398361
0.391962
0.388065
0.332599
0.371854
0.403916
0.42816
0.443639
0.450918
0.45334
0.453733
0.452128
0.448326
0.442795
0.436163
0.428326
0.419919
0.412008
0.405551
0.401078
0.398732
0.398327
0.400071
0.402458
0.403855
0.40326
0.399729
0.396931
0.363959
0.399015
0.423021
0.439139
0.449309
0.454225
0.455089
0.452272
0.446924
0.439576
0.43132
0.422138
0.413135
0.405153
0.398894
0.394728
0.392698
0.392522
0.394281
0.397329
0.40051
0.403953
0.407501
0.410778
0.415688
0.429565
0.431677
0.43785
0.445474
0.452215
0.456135
0.456401
0.452677
0.44575
0.436063
0.425375
0.414791
0.405159
0.397222
0.391507
0.388277
0.387354
0.388434
0.390874
0.393388
0.396231
0.400542
0.406986
0.415185
0.428728
0.465892
0.443731
0.44088
0.445708
0.451519
0.455365
0.455723
0.452192
0.44534
0.435783
0.42462
0.413514
0.40341
0.395159
0.389441
0.386564
0.386269
0.387894
0.389808
0.390971
0.392236
0.395153
0.401484
0.409347
0.420497
0.468548
0.445743
0.439827
0.443103
0.448664
0.452816
0.45382
0.451278
0.445476
0.437221
0.427046
0.416112
0.40605
0.397671
0.391836
0.389135
0.389249
0.390988
0.39195
0.391484
0.390898
0.391906
0.396393
0.40259
0.410656
0.492586
0.453536
0.438069
0.437237
0.442015
0.447089
0.448773
0.447469
0.443521
0.43762
0.430175
0.421575
0.412547
0.404363
0.398339
0.395642
0.395834
0.397312
0.39729
0.395253
0.392589
0.391322
0.394116
0.399589
0.40544
0.500888
0.453716
0.431208
0.425863
0.429805
0.437359
0.443738
0.446421
0.445311
0.440951
0.435007
0.428146
0.420495
0.412999
0.407046
0.404378
0.404474
0.405537
0.404698
0.401428
0.396947
0.393401
0.394269
0.399289
0.405302
0.485726
0.441277
0.419505
0.411769
0.414473
0.423669
0.435298
0.443216
0.445366
0.443161
0.438996
0.434093
0.428241
0.42187
0.416465
0.414055
0.414
0.414308
0.412472
0.408197
0.402652
0.397547
0.396753
0.401183
0.408725
0.440549
0.413074
0.400478
0.396098
0.400161
0.410819
0.424624
0.436472
0.442489
0.443277
0.441883
0.439351
0.435379
0.430304
0.425819
0.423771
0.423319
0.422301
0.419511
0.414465
0.408049
0.402132
0.401001
0.406025
0.418545
0.389196
0.384586
0.383698
0.385804
0.394287
0.408691
0.424988
0.437565
0.44416
0.445788
0.445564
0.444176
0.44139
0.437516
0.434114
0.432265
0.430909
0.428521
0.424767
0.419642
0.413794
0.408363
0.40717
0.413492
0.433794
0.366449
0.372248
0.377342
0.385023
0.3985
0.415537
0.431642
0.442666
0.447917
0.449411
0.449484
0.448497
0.446219
0.44319
0.440479
0.438246
0.435518
0.431909
0.427026
0.421583
0.416386
0.412073
0.412323
0.424435
0.457467
0.362948
0.370345
0.379347
0.392485
0.410284
0.428265
0.441358
0.448223
0.451295
0.45272
0.452574
0.451107
0.449003
0.446417
0.443701
0.440569
0.436628
0.43175
0.425861
0.419553
0.414029
0.410792
0.41361
0.431302
0.474924
0.3562
0.369598
0.384974
0.403383
0.423906
0.439408
0.447536
0.450394
0.451021
0.451127
0.450962
0.450732
0.44902
0.446486
0.44327
0.439214
0.434234
0.428302
0.421844
0.415539
0.410394
0.408354
0.413422
0.432623
0.47661
0.351178
0.369995
0.39109
0.413395
0.432945
0.444838
0.450317
0.452282
0.452772
0.452472
0.451462
0.449708
0.447318
0.444043
0.439777
0.43457
0.428498
0.421884
0.415207
0.409105
0.40496
0.404948
0.413251
0.435503
0.480628
0.343407
0.368261
0.394327
0.418028
0.435454
0.445625
0.450569
0.452692
0.453672
0.453046
0.450817
0.447185
0.443391
0.438926
0.433608
0.427436
0.420656
0.413618
0.406759
0.40085
0.39761
0.399757
0.411385
0.436088
0.480509
0.336666
0.365198
0.393739
0.417375
0.434285
0.444609
0.449615
0.451083
0.450473
0.448788
0.446035
0.442539
0.438164
0.432808
0.426554
0.419626
0.412289
0.404799
0.397591
0.391637
0.388884
0.392304
0.405787
0.429428
0.46725
0.3274
0.359252
0.389235
0.413234
0.430773
0.441824
0.447389
0.449011
0.448113
0.445807
0.442446
0.438308
0.433099
0.426915
0.419978
0.412532
0.404719
0.396718
0.389012
0.382725
0.379866
0.383279
0.396485
0.416055
0.441686
0.322765
0.35445
0.383899
0.4081
0.426276
0.438185
0.444696
0.447057
0.446548
0.44403
0.440008
0.43499
0.429023
0.42227
0.414955
0.407194
0.399005
0.390552
0.38236
0.375642
0.372338
0.374864
0.386256
0.40142
0.41629
0.31665
0.349003
0.378726
0.403178
0.421867
0.434487
0.441829
0.444922
0.444885
0.442533
0.438344
0.432924
0.426563
0.419542
0.41208
0.404195
0.395859
0.387246
0.378882
0.371983
0.368397
0.370123
0.37967
0.392939
0.40424
0.321462
0.35006
0.376993
0.400186
0.418539
0.431398
0.439307
0.443132
0.443731
0.441746
0.437661
0.432183
0.42572
0.418613
0.411102
0.403231
0.394962
0.386406
0.378071
0.371136
0.367386
0.368662
0.376995
0.390641
0.403521
0.327098
0.352267
0.376499
0.398247
0.416001
0.428858
0.437124
0.441554
0.442932
0.441525
0.437758
0.432376
0.42596
0.418886
0.411425
0.403659
0.395566
0.387225
0.3791
0.372193
0.36812
0.368684
0.375833
0.388708
0.401099
0.332644
0.354424
0.376493
0.396854
0.413902
0.426628
0.435065
0.439813
0.441482
0.440633
0.437667
0.432834
0.426698
0.419783
0.41244
0.404841
0.397011
0.389018
0.381224
0.374428
0.370025
0.369745
0.375552
0.38667
0.397085
0.345435
0.360539
0.378516
0.396509
0.412274
0.424579
0.433078
0.438149
0.440299
0.439997
0.437643
0.433333
0.427599
0.420788
0.413609
0.406183
0.398636
0.391061
0.383717
0.377193
0.372598
0.371467
0.376026
0.385382
0.394115
0.361658
0.369125
0.382086
0.396965
0.410908
0.422431
0.430838
0.436181
0.438745
0.438954
0.437171
0.43329
0.427631
0.421145
0.414311
0.407168
0.399943
0.392814
0.385987
0.379871
0.375283
0.373429
0.376655
0.383664
0.389042
0.37487
0.376101
0.384851
0.397001
0.409132
0.419705
0.427893
0.433458
0.436387
0.436966
0.435718
0.432644
0.427963
0.421975
0.415011
0.407886
0.400839
0.394068
0.387741
0.382126
0.377808
0.375703
0.377961
0.383084
0.386207
0.383874
0.380659
0.386322
0.396365
0.40688
0.416365
0.42412
0.429785
0.433106
0.434209
0.433492
0.431106
0.427294
0.421805
0.415026
0.407989
0.401171
0.394756
0.388901
0.383804
0.379883
0.377817
0.378927
0.381375
0.380491
0.38778
0.382863
0.38688
0.395403
0.404534
0.4128
0.419785
0.425215
0.428727
0.430191
0.429849
0.427864
0.424213
0.419345
0.413425
0.407045
0.40076
0.394867
0.389553
0.384994
0.381501
0.379553
0.37972
0.379936
0.376792
0.389243
0.384352
0.387291
0.394452
0.402321
0.409356
0.415285
0.420078
0.423449
0.425101
0.425059
0.423473
0.420275
0.415839
0.410765
0.405269
0.399748
0.394545
0.389866
0.385848
0.382676
0.380552
0.379357
0.376453
0.369804
0.388223
0.384666
0.387388
0.393439
0.400238
0.406252
0.41109
0.414973
0.417858
0.419466
0.419659
0.418522
0.41605
0.412462
0.408111
0.403364
0.398616
0.394167
0.390171
0.386691
0.383783
0.381392
0.379171
0.374437
0.366701
0.38434
0.383489
0.386974
0.392323
0.398357
0.403674
0.407663
0.410615
0.41279
0.414105
0.414385
0.4136
0.411753
0.408957
0.40546
0.401602
0.397737
0.394102
0.39076
0.3877
0.384822
0.381823
0.37825
0.371391
0.361209
0.380219
0.382638
0.387141
0.391922
0.397304
0.402078
0.405467
0.407651
0.40907
0.409914
0.410099
0.409531
0.408178
0.406094
0.403446
0.400508
0.397549
0.39468
0.391909
0.389131
0.386127
0.382515
0.377993
0.370305
0.360026
0.381767
0.385373
0.389876
0.393524
0.397881
0.402054
0.404904
0.406506
0.407273
0.407597
0.407553
0.407053
0.406038
0.404536
0.402648
0.400549
0.398374
0.396152
0.393797
0.391094
0.387776
0.383422
0.377806
0.368876
0.357045
0.387598
0.391202
0.395005
0.39742
0.400587
0.403705
0.406018
0.407179
0.407506
0.407436
0.407131
0.406591
0.405779
0.404696
0.403396
0.401968
0.400434
0.398713
0.396613
0.393888
0.390304
0.385509
0.379406
0.370423
0.359171
0.392894
0.397125
0.400733
0.402412
0.40486
0.407184
0.408821
0.409555
0.40952
0.409076
0.408684
0.408129
0.407458
0.406692
0.405856
0.404935
0.403868
0.402473
0.400495
0.397693
0.393877
0.388721
0.382054
0.372515
0.360512
0.394428
0.400549
0.404891
0.407062
0.409442
0.41161
0.413085
0.41376
0.413625
0.413056
0.412383
0.411834
0.411276
0.41073
0.410181
0.409617
0.408861
0.407633
0.405688
0.402832
0.398942
0.393773
0.387173
0.378398
0.368307
0.397132
0.403983
0.409149
0.41248
0.415169
0.417408
0.419201
0.420162
0.420261
0.419817
0.41896
0.418185
0.417593
0.417158
0.416786
0.416403
0.415733
0.414487
0.412426
0.409407
0.405361
0.400101
0.393445
0.385007
0.375589
0.402513
0.4095
0.415403
0.419912
0.423282
0.425893
0.428006
0.429313
0.429728
0.429439
0.428825
0.428012
0.427352
0.426888
0.426537
0.426082
0.425228
0.423697
0.421282
0.417877
0.413436
0.407802
0.40078
0.392165
0.382871
0.409107
0.41721
0.424247
0.429874
0.434321
0.43782
0.440498
0.442219
0.443124
0.443258
0.44297
0.442438
0.441831
0.441204
0.440706
0.439916
0.438599
0.436523
0.433515
0.429483
0.424363
0.417984
0.410092
0.400425
0.389674
0.416795
0.428023
0.43771
0.445289
0.451175
0.455809
0.459394
0.461922
0.46344
0.464062
0.46385
0.463404
0.4628
0.462071
0.461103
0.459769
0.457842
0.455108
0.451406
0.446611
0.44061
0.433213
0.424199
0.413443
0.401752
0.435118
0.448901
0.461322
0.471382
0.4791
0.484822
0.488876
0.491621
0.49317
0.493762
0.493621
0.493099
0.492416
0.491615
0.490426
0.488818
0.486549
0.483449
0.479293
0.47383
0.466768
0.457707
0.446184
0.431903
0.415568
0.460066
0.484764
0.504666
0.519042
0.52881
0.535081
0.53869
0.540407
0.540836
0.5405
0.53981
0.538883
0.537839
0.536719
0.535508
0.534097
0.532316
0.529812
0.526186
0.520952
0.513452
0.50278
0.487818
0.467705
0.44332
0.52091
0.569104
0.601444
0.619747
0.6286
0.631681
0.631333
0.629007
0.625745
0.622268
0.619081
0.61648
0.61459
0.613428
0.612915
0.612941
0.613235
0.613374
0.61281
0.610694
0.605716
0.595738
0.577576
0.547097
0.502363
0.743942
0.824423
0.850605
0.851638
0.84171
0.827285
0.811448
0.795972
0.781985
0.770131
0.760805
0.754152
0.750262
0.749091
0.750577
0.754477
0.760573
0.768622
0.77818
0.788438
0.798016
0.804504
0.802739
0.780217
0.710796
2.221
1.71918
1.48541
1.35643
1.26667
1.19498
1.13574
1.08676
1.04685
1.01547
0.992242
0.976785
0.968694
0.967555
0.97326
0.985785
1.00535
1.03256
1.06834
1.11364
1.17065
1.24647
1.36252
1.57993
2.04391
2.77712
2.25688
1.95735
1.76101
1.6117
1.4917
1.39428
1.31582
1.25362
1.20587
1.17126
1.14874
1.13753
1.13695
1.14698
1.16788
1.20043
1.2461
1.30699
1.3857
1.48655
1.61881
1.80589
2.11611
2.68738
0.92022
1.22865
1.30014
1.27931
1.22233
1.15934
1.10252
1.05496
1.01655
0.986698
0.964815
0.950442
0.943254
0.942726
0.948932
0.961998
0.982322
1.01043
1.04666
1.0905
1.13894
1.18205
1.1955
1.13428
0.859813
0.195011
0.545524
0.704771
0.733477
0.70441
0.677005
0.654171
0.63681
0.617975
0.603183
0.592676
0.587041
0.58459
0.584286
0.58619
0.59059
0.598425
0.610842
0.627846
0.647216
0.665069
0.667381
0.627757
0.480787
0.18277
0.1677
0.319794
0.361934
0.275086
0.216958
0.2088
0.220406
0.250323
0.298718
0.324809
0.325562
0.318349
0.303762
0.30105
0.305283
0.314147
0.325025
0.327164
0.315271
0.303798
0.312221
0.344344
0.346227
0.260606
0.125947
0.173176
0.219647
0.185388
0.0429829
0.00685166
0.00556588
0.00770281
0.0188653
0.0806732
0.154622
0.191098
0.192201
0.169734
0.151925
0.156428
0.177153
0.195786
0.182431
0.115045
0.0538165
0.0513316
0.0949626
0.193462
0.178347
0.118177
0.210419
0.183397
0.11681
0.0080812
0.000447116
0.000280942
0.000967601
0.0074874
0.0393
0.0746222
0.0900482
0.0847649
0.0574863
0.0436279
0.0492651
0.0707757
0.0846574
0.0798018
0.0483981
0.0129304
0.00356957
0.0122988
0.0950702
0.145359
0.151494
0.239271
0.149185
0.048639
0.00295824
0.000801203
0.000148438
8.62019e-05
0.000305146
0.00325767
0.0141666
0.0211282
0.020375
0.0110724
0.00720361
0.00984377
0.0170309
0.0189789
0.0161601
0.00602024
0.00106842
0.000310859
0.00133961
0.0293121
0.107469
0.177832
0.280599
0.118529
0.0292535
0.00659552
0.00181897
0.000217089
0.000110002
8.2523e-05
5.65528e-05
0.000836156
0.00216725
0.00256933
0.00130565
0.000877709
0.00130916
0.0019743
0.00166214
0.000722151
8.4069e-05
0.000103949
0.000319635
0.00192152
0.0177731
0.094136
0.24848
)
;

boundaryField
{
    inlet
    {
        type            fixedValue;
        value           uniform 0.00015;
    }
    outlet
    {
        type            inletOutlet;
        phi             phi.air;
        inletValue      uniform 0.00015;
        value           nonuniform List<scalar> 
25
(
0.280599
0.118529
0.0292535
0.00015
0.00015
0.00015
0.00015
0.00015
0.00015
0.000836156
0.00216725
0.00256933
0.00130565
0.000877709
0.00130916
0.0019743
0.00166214
0.000722151
0.00015
0.00015
0.00015
0.00192152
0.0177731
0.094136
0.24848
)
;
    }
    walls
    {
        type            epsilonWallFunction;
        blending        stepwise;
        value           nonuniform List<scalar> 
150
(
1.5364
2.38825
2.62049
3.32031
3.80678
4.13152
4.54609
4.56612
3.59512
3.51405
3.48254
3.49538
3.51069
3.46746
3.34845
3.29337
3.3176
3.39189
3.50066
3.64185
3.77986
3.89487
3.9529
3.95308
3.86555
3.71079
3.52668
3.38
3.36051
3.44688
3.59892
3.78098
3.97348
4.16531
4.34297
4.51659
4.68638
4.83953
4.96946
5.07489
5.16535
5.24132
5.31009
5.36132
5.39391
5.41583
5.43525
5.47062
5.54928
5.69867
5.93732
6.25973
6.65405
7.10861
7.60916
8.13646
8.6695
9.18807
9.68775
10.1904
10.7146
11.2688
11.8955
12.6593
13.7029
15.4297
19.5385
23.942
22.5213
18.8783
16.1983
12.8706
11.3684
10.2274
8.36392
0.664096
1.48523
1.81871
1.97852
2.04396
2.04169
2.01967
2.0363
2.22682
2.48067
2.62641
2.70535
2.78479
2.88953
2.99043
3.08719
3.16294
3.2059
3.22378
3.23292
3.23497
3.25275
3.29563
3.37092
3.47143
3.56779
3.63175
3.68477
3.71821
3.7256
3.70083
3.64483
3.56918
3.5001
3.4701
3.47525
3.55701
3.70316
3.8901
4.09972
4.30858
4.49984
4.6747
4.84989
5.03506
5.23646
5.45693
5.70137
5.96619
6.24951
6.54855
6.87263
7.21917
7.59103
7.98422
8.40068
8.83319
9.28576
9.75756
10.248
10.7583
11.3025
11.897
12.602
13.5368
15.0411
18.5577
22.4884
21.1054
17.9574
15.2462
12.2266
10.413
8.54584
7.37272
)
;
    }
    defaultFaces
    {
        type            empty;
    }
}


// ************************************************************************* //
