/*--------------------------------*- C++ -*----------------------------------*\
| =========                 |                                                 |
| \\      /  F ield         | OpenFOAM: The Open Source CFD Toolbox           |
|  \\    /   O peration     | Version:  2312                                  |
|   \\  /    A nd           | Website:  www.openfoam.com                      |
|    \\/     M anipulation  |                                                 |
\*---------------------------------------------------------------------------*/
FoamFile
{
    version     2.0;
    format      ascii;
    arch        "LSB;label=32;scalar=64";
    class       volScalarField;
    location    "0.78/water";
    object      k.gas;
}
// * * * * * * * * * * * * * * * * * * * * * * * * * * * * * * * * * * * * * //

dimensions      [0 2 -2 0 0 0 0];

internalField   nonuniform List<scalar> 
1503
(
0.0350362888029
0.00817485801225
0.00218240833939
0.000854816601709
0.000965582265117
0.00117586063151
0.00124707670334
0.0012653301619
0.00127030812773
0.00126976909163
0.00126633470537
0.00126142506474
0.00125619602864
0.0012513587481
0.00124725987382
0.00124399685409
0.00124152340928
0.0012397270069
0.00123848031409
0.00123767070253
0.482329430715
0.150519806913
0.0412772397192
0.0132035569035
0.00353309085087
0.00159463550334
0.00115733106816
0.00122246426868
0.00127191530115
0.00128106638752
0.00127983893084
0.00127540387791
0.00126941261705
0.00126286655678
0.00125650999089
0.00125084178243
0.00124612002023
0.00124241022835
0.00123965687612
0.00123775056726
0.676746761858
0.25420820216
0.0910652315101
0.0306445551159
0.0107733333483
0.00341648628494
0.00153389550525
0.00117051545813
0.00124832432789
0.00128515174635
0.00129010567516
0.00128823842827
0.00128359992449
0.00127739033364
0.00127044018477
0.00126346295082
0.00125702999025
0.00125151892272
0.00124711199053
0.00124384186665
0.828913025415
0.330376017386
0.131009963412
0.049903720545
0.0209048214197
0.00660192669048
0.00242399233725
0.0012884135709
0.00120800043676
0.00127825845986
0.00129472479299
0.00129609338149
0.00129357111203
0.00128876858646
0.00128249953493
0.00127545031403
0.00126829363535
0.00126162570286
0.0012558854552
0.00125132641748
0.90670560389
0.37916046708
0.159438592447
0.0665076303722
0.0259629329292
0.0116311144044
0.00351789882022
0.00155461606041
0.00117983230809
0.00125830816367
0.0012951403695
0.00130041842701
0.00130017691836
0.00129713252994
0.00129212256387
0.001285758533
0.00127866998224
0.00127152141606
0.00126492204144
0.00125933556689
0.916151313795
0.401886227475
0.178209501536
0.0792437420301
0.0340600962431
0.0132010844626
0.00569652464001
0.00177212328298
0.00113245105828
0.00121374014124
0.00129118311072
0.00130267814231
0.00130428226504
0.0013028453183
0.00129913497862
0.0012937109496
0.00128711572579
0.00127997516903
0.00127295747755
0.00126666744063
0.890686065146
0.404687462888
0.18774152879
0.0879568630574
0.0403819284818
0.0173219180523
0.00644189616758
0.00248851092708
0.000980687962405
0.00108576745202
0.00127477817624
0.0013039666652
0.00130665036017
0.00130637508468
0.00130376499677
0.00129927924135
0.00129336434042
0.00128655279677
0.00127948188711
0.00127281089229
0.867238215614
0.401365755105
0.1922438396
0.093573448087
0.0448921689717
0.020527157064
0.00847591036757
0.00321173071077
0.00106762096608
0.000813305622855
0.00120706136513
0.00130360690092
0.00130781162682
0.00130797085159
0.00130620409689
0.00130260527347
0.00129747965555
0.00129123238147
0.00128440798591
0.00127766810801
0.850671450639
0.401092351443
0.196041463394
0.0974412980561
0.0478969378576
0.0228547954468
0.0102744071076
0.00400423346386
0.00161924010894
0.000625684412665
0.00100280923498
0.00129344413493
0.00130891707964
0.00130826795824
0.00130698068995
0.00130419045172
0.00129991228035
0.00129438626842
0.00128803640843
0.00128145381418
0.852508949331
0.40925764536
0.201538081332
0.100361076319
0.0497555094161
0.0244804643356
0.0117784514295
0.00521491992163
0.00188829196841
0.000778463700843
0.000685417438509
0.00123271571658
0.00131193269682
0.00130884936128
0.00130724797004
0.00130504388148
0.00130155280595
0.00129675880883
0.0012909350829
0.00128458180765
0.901197942812
0.431247861906
0.209146431928
0.102546286879
0.0510393995863
0.0258737159043
0.0132167864917
0.00647338004424
0.00275437453122
0.00110680772592
0.000547285903412
0.00101272361746
0.00131246081661
0.00131263013735
0.00130880719061
0.0013065817963
0.00130355940711
0.00129926684663
0.00129379053652
0.00128753194166
1.01325860132
0.461026101222
0.215554041811
0.104708606458
0.0529138750588
0.0276784626103
0.0148148054936
0.00785171428353
0.00381606613043
0.00150927322584
0.000746578579036
0.000640987814201
0.00124516983822
0.00132226538784
0.00131370281438
0.00131019495688
0.00130700098741
0.00130271846801
0.00129717669808
0.00129067801579
1.08519719164
0.479207855855
0.222151600856
0.108340488157
0.055532171721
0.0297536889579
0.0164954553704
0.00927795836791
0.00496980380172
0.00225460463686
0.000875255300853
0.000548759194825
0.000905883921545
0.0013222700989
0.0013234171058
0.00131662633019
0.00131239877028
0.00130749013057
0.00130133996701
0.00129415567043
1.10203911077
0.48802210645
0.226494652329
0.110973258808
0.0575495020427
0.0314765709978
0.0179837742014
0.0105634942872
0.00608008463442
0.00304190374441
0.00127277256992
0.000717282948053
0.00051515659137
0.00119016275719
0.0013363292283
0.00132589901753
0.00131965439549
0.00131349318567
0.00130619913276
0.00129788802265
1.10505487788
0.490344244051
0.228031061546
0.112170657248
0.0587045399086
0.0326382207063
0.0191284341978
0.011638690516
0.00704115229944
0.00376348261513
0.00166417521482
0.000824646208533
0.000552614997717
0.000768625375909
0.00132978019054
0.0013375913719
0.0013284051849
0.00132045303277
0.00131156079797
0.00130175205136
1.10047462399
0.490214152696
0.228644666834
0.11275542427
0.0593142803297
0.0333680181132
0.0199625730581
0.0124967576531
0.00781970861196
0.0043658126678
0.0019899954152
0.00102608487599
0.000613258272004
0.00045563818944
0.00121978072123
0.00135008575211
0.00133836574217
0.00132816870701
0.00131732060601
0.00130572935568
1.09922437374
0.490480797255
0.229270847889
0.11313031008
0.0596670126964
0.03386647951
0.0206082029819
0.0131978285978
0.00844951266733
0.00484302814133
0.0022515538626
0.00117402758827
0.000721160070461
0.000448109765243
0.000951908200038
0.0013576759954
0.00134926674655
0.00133652356175
0.00132349588723
0.00130993632797
1.10796083189
0.493724065708
0.230705706256
0.113848739341
0.0601679463983
0.0343711852731
0.0211745906706
0.0137738841421
0.00895399534693
0.00523331765824
0.00249019294291
0.0012945994098
0.000840662828771
0.000558580375692
0.000688690131938
0.00135407205674
0.00136096948577
0.00134541280098
0.00133014818428
0.00131455489646
1.13248293789
0.502442571643
0.234027842347
0.115531917387
0.0611982956708
0.0350909190507
0.0217418612021
0.0142489419077
0.00937407056482
0.00561116504549
0.00276683311716
0.00143142512925
0.000948990329524
0.000639017455219
0.000562323617622
0.00134057608088
0.00137377822719
0.00135468116279
0.00133726104292
0.00131970734772
1.16117880673
0.513725937769
0.239099796026
0.118393844863
0.0629272607433
0.0360850100669
0.0223134777202
0.0146519094885
0.00976166709029
0.00602568697272
0.00313104135844
0.00162278141652
0.00107626524655
0.000675555700598
0.000546864467356
0.0013151736243
0.00138971375636
0.00136433770604
0.00134467206122
0.00132533541729
1.17661968455
0.520416851983
0.244624379575
0.12267574342
0.0655543346276
0.037347985255
0.0228485356686
0.0149544707499
0.0100775278915
0.00646022192306
0.00358070106596
0.00186552193931
0.00124248183992
0.000836189841336
0.000622407500516
0.00123098410576
0.00141427415651
0.00137519378612
0.001352185255
0.00133119142954
1.15875333517
0.523403042675
0.252880008916
0.129223654028
0.0689187350296
0.0384777857853
0.0230543705438
0.014979233421
0.0102166041572
0.00683324374449
0.00401587902705
0.00207490048128
0.00142850033588
0.00107210225855
0.000839954587019
0.000938459825555
0.00144357807923
0.00138914039911
0.00135977716606
0.00133698305141
1.1471303515
0.538257158906
0.267734947145
0.13749696128
0.0717580840725
0.0387523804482
0.0227722708314
0.0148158309055
0.0102476156864
0.00707444754474
0.00435725869324
0.00223311252098
0.00149569869335
0.00128085333854
0.000893925940268
0.000660091858997
0.00137425879662
0.00140851848407
0.0013678109554
0.00134259596077
1.18460154685
0.574333068063
0.287875843501
0.145051496016
0.0732461568155
0.0387691388873
0.0227490697011
0.0147658442507
0.0102708882951
0.00724746396715
0.00462599094901
0.00234740536672
0.00149116704122
0.00134780367371
0.00112341867585
0.000807975950754
0.000924972204574
0.00142331026629
0.00137691961819
0.00134809058709
1.27373152824
0.624617560552
0.307379320382
0.150493436417
0.0748846483512
0.0396984393452
0.0232518406951
0.0149799109065
0.010405933719
0.00745769739598
0.00490393864173
0.00246497298038
0.00146577600596
0.00132931389109
0.00123815322834
0.000836689014898
0.000539009642416
0.00133667825026
0.00138698461165
0.00135353783451
1.40447012852
0.675398690103
0.322046998013
0.154997319285
0.0778549068201
0.041747266427
0.0243450395751
0.0155158881731
0.010729178074
0.00779411663299
0.00525238383799
0.00262883959594
0.00145120206209
0.00130149267357
0.00125944646515
0.000990408380213
0.000605954329668
0.000976043129435
0.00139140681358
0.00135889258725
1.55121428368
0.717677471057
0.332936476666
0.15953620998
0.0812715051821
0.0443006671945
0.0258805601777
0.0163479136089
0.01126428755
0.00827793864817
0.00568196749872
0.00287247563646
0.00147564274373
0.00129249056037
0.00126657524249
0.00108402207389
0.000616033151262
0.000577545752961
0.00136568115162
0.00136397561805
1.6719196766
0.746636642729
0.340725077989
0.163556802733
0.0843469118104
0.0465572832153
0.027349924911
0.0172589759565
0.0119227879798
0.00882190306584
0.00613796308352
0.0032075860452
0.00156230664979
0.00131344687007
0.00130163859209
0.00116425922724
0.000724747945576
0.000432715771757
0.00127056079948
0.00136848914679
1.74256483428
0.767132614414
0.347717962608
0.16715980465
0.0867511934424
0.0482982169384
0.028560734185
0.0181147965421
0.0126176531568
0.00936768207199
0.00656830846203
0.00356608334819
0.0017152322377
0.00136960496208
0.00137546429401
0.00126130619018
0.000864363697078
0.000467106262349
0.00108090004505
0.00137157839656
1.78144089862
0.779492515252
0.352665811549
0.169399482603
0.0881325274258
0.0494010752955
0.0294589498056
0.018887210326
0.0132999987989
0.00987780760509
0.00695486735287
0.00389188626338
0.00188862829342
0.00145866651582
0.00147939441544
0.00138189945508
0.00101185167432
0.000597582001845
0.000815333157151
0.00136987146695
1.8142531894
0.787289527923
0.356045980693
0.170648037379
0.0888322322977
0.0500574925192
0.0301244376839
0.0195734414106
0.0139136294569
0.0103082516233
0.00726756384679
0.00414728177728
0.002043293149
0.00155875004372
0.00158953610122
0.00148814539089
0.00116559405229
0.000625115736203
0.000562011327511
0.0013506000058
1.83854386931
0.79428911758
0.359040147028
0.171781355284
0.089423622973
0.0505474927447
0.0306472005597
0.0201599723066
0.0144056251564
0.0106266247837
0.00748288256704
0.00431468584418
0.0021590603337
0.00165205905885
0.00168529266417
0.0015848550791
0.00130909673405
0.00076591885064
0.000443980872285
0.00128181306876
1.86548392904
0.801002302636
0.361244746562
0.17271891615
0.0899186083776
0.050898122153
0.0310345790075
0.0206181711756
0.0147391738132
0.0108175765144
0.00759287525773
0.00439989717075
0.00223800180686
0.00173316850412
0.00176052992514
0.00166631916401
0.00142569093954
0.000922300728437
0.000480757413098
0.00112524640344
1.90505282239
0.812144699243
0.364678335357
0.17395567369
0.0904221095919
0.0511713434211
0.0313441762165
0.0209474272547
0.0149125839723
0.010888712386
0.00761049900639
0.00442922704114
0.00229729248854
0.00180168731007
0.00181427548142
0.00173490928126
0.00150007454887
0.00105295411218
0.000612158105035
0.000894874951398
1.94421664771
0.824726950065
0.368842083149
0.175361747863
0.090897344701
0.0513869251196
0.0316069876991
0.0211304997143
0.0149438582772
0.0108570261817
0.00755724203363
0.00443237989702
0.00235238576536
0.0018537528806
0.00185231746826
0.00179588500076
0.0015681941057
0.00116838645371
0.00069239451269
0.00067343236853
1.9781864372
0.836498664747
0.373429139167
0.177112797951
0.0914967916942
0.0516605473875
0.0318395083016
0.0211671612164
0.0148670247985
0.0107441715683
0.00745486980848
0.00442871598299
0.00240432126227
0.00188311327453
0.00187970328846
0.00185719323183
0.00165617475205
0.00128919478222
0.000724892000663
0.00053625513628
2.00320028456
0.845390528836
0.377436006861
0.17900330651
0.0922621520288
0.0520623893898
0.0320209045526
0.0210960273829
0.0147174274098
0.0105694794269
0.00731940683438
0.00442140733899
0.00244303361835
0.00188939418161
0.001901228137
0.00192915472523
0.00177535984144
0.00143025630916
0.000864228131411
0.000502104357005
2.02723635324
0.849918241253
0.380004389874
0.180655334371
0.0931579845817
0.0525671902171
0.0321299989564
0.0209533282081
0.0144943227899
0.0103283549508
0.00714992372322
0.0044001705644
0.00246420188816
0.00188697197878
0.00192814675476
0.00201677493065
0.00191520330435
0.00159342207259
0.00102109349085
0.000559901127022
0.00123721983813
0.00123705251086
0.00123709968631
0.00123732511013
0.00123771880049
0.001238286385
0.00123904106576
0.00123999496978
0.00124114762897
0.00124246939436
0.00124387938234
0.0012452204004
0.00124623991482
0.00124659425379
0.00124590308389
0.00124396947099
0.00124304533432
0.00129217108399
0.00262451020475
0.0232972624969
0.00123659864456
0.00123607760357
0.00123604201563
0.00123639398516
0.00123708257025
0.00123808008868
0.00123936117494
0.00124088327202
0.00124256859582
0.00124428949633
0.00124586148766
0.00124704546801
0.00124754906491
0.00124699089406
0.00124481305206
0.00124127367428
0.00126062045454
0.00172092661532
0.0071388035191
0.043372422977
0.00124170292571
0.00124058339269
0.00124027077993
0.00124058245848
0.00124139181108
0.00124259646149
0.00124408921946
0.00124573633426
0.00124736583034
0.00124876663855
0.00124969405205
0.00124986407101
0.00124889951492
0.00124617620707
0.00124079923753
0.00123705797025
0.00133307624148
0.00268802524766
0.0129882736853
0.0557838712496
0.0012481216446
0.00124625108366
0.00124547634087
0.00124553372292
0.00124620848809
0.00124730703769
0.00124863154334
0.00124996622845
0.00125107674704
0.00125171528559
0.00125161433475
0.0012504392984
0.00124765719203
0.00124232808949
0.00123399126935
0.00124208562225
0.00154219899517
0.00444297051225
0.0194716954108
0.0625595947891
0.00125514697346
0.00125248833189
0.00125113771681
0.00125077274532
0.00125109865587
0.0012518369597
0.00125271340078
0.00125345499476
0.00125379360051
0.0012534616276
0.00125215781044
0.00124945332572
0.00124461322479
0.00123656212738
0.00122776399738
0.00127667937614
0.00199192736953
0.00698976140698
0.0253006972146
0.0658042623827
0.00126167673945
0.00125829487721
0.00125634257197
0.00125546837868
0.0012553175588
0.00125554589654
0.00125582456563
0.00125584500937
0.00125531823118
0.00125395265974
0.00125139072203
0.00124708283934
0.00124013381502
0.00122994440857
0.00122729281518
0.00137140392087
0.00278114200316
0.0100472957196
0.0297471607773
0.0670889603235
0.00126725785746
0.00126327548786
0.00126075568356
0.00125934561042
0.00125865603654
0.00125830063244
0.0012579166309
0.00125717327082
0.00125576216592
0.00125335687808
0.00124952803636
0.00124361330987
0.00123472940899
0.00122406638193
0.00124061233351
0.00156661456967
0.00395299858101
0.0131549206708
0.032746990987
0.0672886720455
0.00127179133233
0.00126734774103
0.00126431739831
0.0012623722328
0.00126111535134
0.00126014165687
0.00125907106942
0.00125755768741
0.00125527088354
0.00125184105298
0.00124676647585
0.00123932652979
0.00122901508487
0.00122121671998
0.00127936924464
0.0019067636421
0.00545628823396
0.0159149998729
0.0346012253768
0.0668561394533
0.00127543115006
0.00127063161818
0.00126713077748
0.00126464726288
0.00126280024939
0.00126118530368
0.00125941673194
0.00125713656425
0.00125398887047
0.00124955891636
0.0012432911306
0.0012345240508
0.00122378308005
0.00122468383419
0.00135931103643
0.00242817401222
0.00715398160016
0.0181310010368
0.0356508336342
0.066039035038
0.00127847136846
0.00127333898359
0.00126935715433
0.00126630479249
0.00126383300927
0.00126155040762
0.00125907183251
0.00125602765066
0.00125203522776
0.00124664093023
0.00123927788304
0.00122954994183
0.00122009884152
0.00123912929986
0.0014999414535
0.00314400522961
0.0088753820582
0.0197908812104
0.0361566940066
0.0649862884461
0.00128123075867
0.00127567960425
0.00127114079644
0.00126745423545
0.00126430719965
0.00126132466742
0.00125812247511
0.00125431791784
0.00124950298585
0.0012432014351
0.00123490942481
0.00122482985882
0.00121943788065
0.00127099257111
0.00172258345593
0.00403485288529
0.0104757390948
0.0209786698945
0.0362961068605
0.0637916041809
0.00128393287433
0.00127778122267
0.00127255732123
0.00126814826355
0.00126426941301
0.0012605567887
0.00125662302394
0.00125207030798
0.00124647054015
0.00123935404459
0.00123039805907
0.00122092369355
0.00122386653856
0.00132882173444
0.00204641256078
0.00505110824371
0.0118696623116
0.0218000910035
0.0361873078695
0.0625146558283
0.00128663484614
0.00127965848991
0.0012736068021
0.00126838961408
0.00126373360182
0.00125927492017
0.00125461657148
0.00124934472974
0.00124302217033
0.00123523218992
0.00122601296844
0.00121859350985
0.00123626776344
0.00142333853914
0.00248320874558
0.00612621159258
0.0130308772315
0.0223474634762
0.0359097126039
0.0611930113809
0.00128926964044
0.00128126239555
0.0012742636936
0.00126817795738
0.00126272339499
0.00125752391666
0.0012521669342
0.0012462246222
0.00123926942027
0.00123100767
0.0012221072983
0.0012188874485
0.00126059217204
0.00156691319953
0.00303274528795
0.00719403462505
0.0139723377457
0.0226917388975
0.0355169714976
0.0598493905369
0.0012917745916
0.00128257952466
0.00127455371143
0.00126756975428
0.00126131873487
0.0012554012145
0.00124938523452
0.00124283524051
0.00123536255551
0.00122689975156
0.0012191420958
0.00122324015167
0.00130207361179
0.00177210446438
0.0036808874544
0.00820261749401
0.0147242073206
0.0228850887649
0.0350453916093
0.0584964637116
0.00129419816707
0.00128370494902
0.00127460291529
0.00126671075383
0.00125967634112
0.00125306793949
0.00124643326863
0.00123934065791
0.00123148356986
0.00122317096237
0.00121770831695
0.0012335868533
0.00136728991703
0.00204924529964
0.00440147096066
0.00911999386389
0.015319110495
0.0229652816929
0.0345195339511
0.0571404301846
0.00129671526133
0.00128484314339
0.00127462854638
0.00126581981875
0.00125800843265
0.00125072389107
0.00124349603196
0.00123591562318
0.00122782092367
0.00122011401025
0.00121855455155
0.00125247959842
0.00146390672714
0.00240366992822
0.00516143840446
0.0099326626413
0.015785543446
0.0229593749233
0.0339559843758
0.0557839274134
0.00129956231675
0.00128624593837
0.00127487885596
0.00126512978497
0.00125652477628
0.00124855192832
0.0012407303991
0.00123270145114
0.00122453759394
0.0012180435058
0.0012226323094
0.00128318017977
0.00159998812944
0.00283365157345
0.0059273628866
0.0106401890266
0.0161464752387
0.0228866070141
0.0333659243343
0.0544284039267
0.00130292762823
0.00128811771921
0.00127554751178
0.00126480835983
0.0012553604553
0.0012466546632
0.00123821358931
0.00122976975529
0.00122175534353
0.0012173127988
0.00123117031277
0.0013296979873
0.00178294265126
0.00333002441737
0.00667110426049
0.011249485497
0.0164201408907
0.0227607260687
0.0327569303208
0.0530758602873
0.00130684333378
0.00129052702899
0.0012766991373
0.00126489603005
0.00125452729498
0.00124502112168
0.00123592668218
0.00122712448051
0.0012195787462
0.00121837139363
0.00124578107215
0.00139675527971
0.00201839723381
0.00387776740773
0.0073730428795
0.0117706818591
0.016621286951
0.022591832418
0.0321342367895
0.0517297822855
0.00131115354926
0.00129337872557
0.00127825370774
0.00126530655967
0.00125393114252
0.00124355935865
0.00123380017512
0.00122475840543
0.00121816441606
0.00122186045804
0.00126859292012
0.00148969162113
0.00230935391335
0.00445894446782
0.00802256403101
0.0122148014984
0.0167621820993
0.0223877334579
0.0315015979584
0.0503951664883
0.00131560740786
0.0012964861966
0.0012800615495
0.00126591229055
0.00125346553415
0.00124219306387
0.00123180789146
0.00122274120282
0.00121780807938
0.00122872228125
0.00130239263207
0.00161431586432
0.00265579691929
0.00505585714058
0.00861646644824
0.0125925972057
0.0168532118129
0.0221547966307
0.0308618100864
0.049077746786
0.00132003842332
0.00129971695118
0.00128203577141
0.00126666868984
0.00125312534934
0.00124095959194
0.00123004620514
0.0012212817135
0.00121900445332
0.00124029601845
0.00135075645963
0.00177664500549
0.00305465626153
0.00565335506854
0.00915638906247
0.0129138782593
0.0169031003915
0.0218983586221
0.0302169757358
0.0477827881687
0.00132441865223
0.00130305929952
0.00128421379607
0.0012676624081
0.00125303756859
0.00124002269376
0.00122873145814
0.00122071939143
0.00122245756113
0.00125839260918
0.00141812831633
0.00198239451588
0.00349996053154
0.00623983077541
0.00964626118061
0.0131870250739
0.0169189146893
0.021622821424
0.0295685988965
0.0465139609413
0.00132874509906
0.00130653752694
0.00128667638383
0.00126902607888
0.00125337246079
0.00123958413084
0.00122811888148
0.00122146400284
0.00122907046371
0.00128536721621
0.00150977663269
0.00223614275159
0.00398318158198
0.00680709641181
0.0100904379589
0.0134187206774
0.0169060704152
0.0213316393302
0.0289176388767
0.0452727254424
0.00133290308319
0.00131007639185
0.001289410946
0.0012708048423
0.00125422005901
0.00123977678089
0.00122842028917
0.00122395239991
0.00123996961389
0.0013242059159
0.00163155151358
0.00254031889947
0.00449393101791
0.00734970771004
0.0104927468428
0.0136139974888
0.0168684950017
0.0210273591692
0.028264596511
0.0440583629342
0.00133668819242
0.00131348207266
0.00129227472168
0.00127291353008
0.00125555025701
0.0012406354979
0.00122979518696
0.00122867744108
0.00125659855693
0.0013786161285
0.00178941179363
0.00289439927846
0.00502107564714
0.00786426240843
0.0108563042605
0.0137765808151
0.0168089744555
0.0207117904593
0.0276096644027
0.0428684665881
0.00134003965167
0.00131661174033
0.0012951242268
0.00127523639745
0.00125729231263
0.00124216682597
0.00123242506003
0.00123629176393
0.0012808744189
0.00145308228803
0.00198879025709
0.00329470709735
0.00555405211882
0.00834891110642
0.0111837462344
0.0139093575601
0.016729569183
0.0203862532937
0.0269528882796
0.0416995323095
0.00134327060217
0.0013196014184
0.00129801233991
0.00127778916565
0.00125946700091
0.00124446210264
0.00123662626163
0.00124775258903
0.00131537387402
0.00155283881896
0.00223394140578
0.00373493462281
0.00608396052293
0.00880303637994
0.0114775121932
0.0140147650153
0.0166319553918
0.0200518113145
0.0262942944477
0.0405473371155
0.00134718135029
0.00132299170829
0.00130130721588
0.00128082507738
0.00126227924083
0.00124778391225
0.00124295050309
0.00126447083325
0.00136350574065
0.00168370994917
0.00252739218685
0.00420713152876
0.00660407350195
0.0092269321187
0.0117399470997
0.0140949649644
0.0165175850095
0.0197093909539
0.0256339299806
0.0394069948534
0.00135294377759
0.00132763051522
0.00130563655081
0.00128481177835
0.00126611650237
0.00125258645357
0.00125224650778
0.00128844289209
0.00142962059698
0.00185175532095
0.00286952379826
0.00470271042466
0.0071096723737
0.0096213821263
0.0119731860694
0.0141518110445
0.0163876741604
0.0193597732309
0.0249718345125
0.0382728137701
0.00136151654111
0.00133435336587
0.00131166448092
0.00129027864392
0.00127144947262
0.00125946776073
0.00126568324168
0.0013223517569
0.00151898258424
0.00206264715134
0.0032582509506
0.00521311308674
0.00759740640292
0.00998717500842
0.0121789237164
0.0141867138886
0.0162430970688
0.0190034922332
0.0243079646009
0.0371382227132
0.00137265798817
0.00134364697801
0.0013198255917
0.00129761377854
0.00127869086494
0.00126909796262
0.00128476679264
0.00136962571618
0.00163750975497
0.00232076602925
0.00368883424681
0.0057300822217
0.00806455308138
0.0103247216804
0.0123582533613
0.0142005622094
0.0160843207157
0.0186407469811
0.02364214857
0.0359960308502
0.00138407659335
0.00135547192181
0.00133011763683
0.0013068968233
0.00128808859139
0.00128218910689
0.00131139206643
0.00143442774432
0.00179122439973
0.00262818790396
0.00415400255264
0.00624576209201
0.00850854277858
0.010633943631
0.0125117096631
0.0141938028546
0.0159114647986
0.0182714080373
0.022974111973
0.0348391115356
0.00139045305685
0.0013692049621
0.00134199704834
0.00131783161274
0.00129971572226
0.00129955745644
0.0013479434695
0.00152153247988
0.00198547487606
0.00298393522707
0.00464457471508
0.00675289758897
0.00892691752625
0.0109144750865
0.0126395310379
0.0141666829753
0.0157245045897
0.0178951663789
0.0223036130465
0.0336613454389
0.00138302483979
0.00138387259577
0.00135459084175
0.00132992593137
0.0013136472232
0.00132232038355
0.0013974318908
0.00163608135228
0.00222415329506
0.00338388207703
0.0051505609552
0.00724521029947
0.0093176136864
0.0111660345634
0.012742001575
0.0141195359146
0.0155235166645
0.0175117501605
0.0216306175853
0.032458453548
0.00135379688802
0.00139903498909
0.00136737679355
0.00134298333477
0.00133033704849
0.00135220073864
0.00146362121747
0.00178326829016
0.00250918624046
0.00382141569741
0.00566240862453
0.00771776631703
0.009679263582
0.0113887104802
0.0128196760123
0.0140529513059
0.0153088328923
0.0171210426795
0.0209551824368
0.031228148903
0.00129513067698
0.00141571151507
0.00138074789471
)
;

boundaryField
{
    emptyPatch
    {
        type            empty;
    }
    minY
    {
        type            fixedValue;
        value           uniform 0.000138;
    }
    maxY
    {
        type            inletOutlet;
        inletValue      nonuniform List<scalar> 0();
        value           nonuniform List<scalar> 0();
    }
    water_to_cooler
    {
        type            kqRWallFunction;
        value           nonuniform List<scalar> 
37
(
0.0232972624969
0.043372422977
0.0557838712496
0.0625595947891
0.0658042623827
0.0670889603235
0.0672886720455
0.0668561394533
0.066039035038
0.0649862884461
0.0637916041809
0.0625146558283
0.0611930113809
0.0598493905369
0.0584964637116
0.0571404301846
0.0557839274134
0.0544284039267
0.0530758602873
0.0517297822855
0.0503951664883
0.049077746786
0.0477827881687
0.0465139609413
0.0452727254424
0.0440583629342
0.0428684665881
0.0416995323095
0.0405473371155
0.0394069948534
0.0382728137701
0.0371382227132
0.0359960308502
0.0348391115356
0.0336613454389
0.032458453548
0.031228148903
)
;
    }
    water_to_heater
    {
        type            kqRWallFunction;
        value           nonuniform List<scalar> 
61
(
0.0350362888029
0.482329430715
0.482329430715
0.676746761858
0.676746761858
0.828913025415
0.828913025415
0.90670560389
0.916151313795
0.890686065146
0.890686065146
0.867238215614
0.867238215614
0.850671450639
0.850671450639
0.852508949331
0.901197942812
1.01325860132
1.01325860132
1.08519719164
1.08519719164
1.10203911077
1.10203911077
1.10505487788
1.10047462399
1.09922437374
1.09922437374
1.10796083189
1.10796083189
1.13248293789
1.13248293789
1.16117880673
1.17661968455
1.15875333517
1.15875333517
1.1471303515
1.1471303515
1.18460154685
1.18460154685
1.27373152824
1.40447012852
1.55121428368
1.55121428368
1.6719196766
1.6719196766
1.74256483428
1.74256483428
1.78144089862
1.8142531894
1.83854386931
1.83854386931
1.86548392904
1.86548392904
1.90505282239
1.90505282239
1.94421664771
1.9781864372
2.00320028456
2.00320028456
2.02723635324
2.02723635324
)
;
    }
    procBoundary2to3
    {
        type            processor;
        value           nonuniform List<scalar> 
41
(
2.03975149758
0.853122656045
0.381777384587
0.182426498402
0.0945049553878
0.0532888855239
0.0322171046402
0.0207214905798
0.0141518521553
0.00999159461018
0.00694776704731
0.00437879782896
0.00250114481277
0.00190186074161
0.0019703097265
0.00211226423694
0.00205124701874
0.0017297079005
0.00118081936021
0.000693945739077
0.00135750531014
0.00135092258576
0.00139174157323
0.00155102014074
0.00196795452251
0.00284032860404
0.00428843998833
0.00617181628422
0.0081669903625
0.010011179415
0.0115829619919
0.0128734018165
0.0139679464997
0.015081628021
0.0167247600867
0.0202812172821
0.029974713254
0.0011928037196
0.00143626419368
0.00135750531014
0.00139574695721
)
;
    }
}


// ************************************************************************* //
