/*--------------------------------*- C++ -*----------------------------------*\
| =========                 |                                                 |
| \\      /  F ield         | OpenFOAM: The Open Source CFD Toolbox           |
|  \\    /   O peration     | Version:  2312                                  |
|   \\  /    A nd           | Website:  www.openfoam.com                      |
|    \\/     M anipulation  |                                                 |
\*---------------------------------------------------------------------------*/
FoamFile
{
    version     2.0;
    format      ascii;
    arch        "LSB;label=32;scalar=64";
    class       volTensorField;
    location    "0.6/fluidRegion";
    object      Kd.liquid.structure;
}
// * * * * * * * * * * * * * * * * * * * * * * * * * * * * * * * * * * * * * //

dimensions      [1 -3 -1 0 0 0 0];

internalField   nonuniform List<tensor> 
40
(
(8711.98 0 0 0 8711.98 0 0 0 8711.98)
(8711.96 0 0 0 8711.96 0 0 0 8711.96)
(8711.95 0 0 0 8711.95 0 0 0 8711.95)
(8711.94 0 0 0 8711.94 0 0 0 8711.94)
(8711.94 0 0 0 8711.94 0 0 0 8711.94)
(8711.93 0 0 0 8711.93 0 0 0 8711.93)
(8711.92 0 0 0 8711.92 0 0 0 8711.92)
(8711.92 0 0 0 8711.92 0 0 0 8711.92)
(8711.94 0 0 0 8711.94 0 0 0 8711.94)
(8722.34 0 0 0 8722.34 0 0 0 8722.34)
(18907 0 0 0 18907 0 0 0 18907)
(18862 0 0 0 18862 0 0 0 18862)
(18846.2 0 0 0 18846.2 0 0 0 18846.2)
(18849.7 0 0 0 18849.7 0 0 0 18849.7)
(18864.6 0 0 0 18864.6 0 0 0 18864.6)
(18886.2 0 0 0 18886.2 0 0 0 18886.2)
(18911.3 0 0 0 18911.3 0 0 0 18911.3)
(18938.2 0 0 0 18938.2 0 0 0 18938.2)
(18966 0 0 0 18966 0 0 0 18966)
(18994.2 0 0 0 18994.2 0 0 0 18994.2)
(19022.6 0 0 0 19022.6 0 0 0 19022.6)
(19051.1 0 0 0 19051.1 0 0 0 19051.1)
(19079.6 0 0 0 19079.6 0 0 0 19079.6)
(19108.1 0 0 0 19108.1 0 0 0 19108.1)
(19136.6 0 0 0 19136.6 0 0 0 19136.6)
(19165.1 0 0 0 19165.1 0 0 0 19165.1)
(19193.6 0 0 0 19193.6 0 0 0 19193.6)
(19222.1 0 0 0 19222.1 0 0 0 19222.1)
(19250.6 0 0 0 19250.6 0 0 0 19250.6)
(19272 0 0 0 19272 0 0 0 19272)
(8863.98 0 0 0 8863.98 0 0 0 8863.98)
(8888.63 0 0 0 8888.63 0 0 0 8888.63)
(8913.27 0 0 0 8913.27 0 0 0 8913.27)
(8937.52 0 0 0 8937.52 0 0 0 8937.52)
(8960.75 0 0 0 8960.75 0 0 0 8960.75)
(8982.19 0 0 0 8982.19 0 0 0 8982.19)
(9001.08 0 0 0 9001.08 0 0 0 9001.08)
(9016.89 0 0 0 9016.89 0 0 0 9016.89)
(9029.44 0 0 0 9029.44 0 0 0 9029.44)
(9039.62 0 0 0 9039.62 0 0 0 9039.62)
)
;

boundaryField
{
    inlet
    {
        type            zeroGradient;
    }
    outlet
    {
        type            zeroGradient;
    }
    fixedWalls
    {
        type            empty;
    }
}


// ************************************************************************* //
