/*--------------------------------*- C++ -*----------------------------------*\
| =========                 |                                                 |
| \\      /  F ield         | OpenFOAM: The Open Source CFD Toolbox           |
|  \\    /   O peration     | Version:  2312                                  |
|   \\  /    A nd           | Website:  www.openfoam.com                      |
|    \\/     M anipulation  |                                                 |
\*---------------------------------------------------------------------------*/
FoamFile
{
    version     2.0;
    format      ascii;
    arch        "LSB;label=32;scalar=64";
    class       volScalarField;
    location    "0.68/water";
    object      k.gas;
}
// * * * * * * * * * * * * * * * * * * * * * * * * * * * * * * * * * * * * * //

dimensions      [0 2 -2 0 0 0 0];

internalField   nonuniform List<scalar> 
6000
(
0.0348078327858
0.00809207694949
0.00217988854054
0.000846087104179
0.000956222268789
0.00117249785755
0.00124736360215
0.00126650032547
0.00127165485001
0.00127112860649
0.00126751595179
0.0012623580356
0.00125688633152
0.0012518491434
0.00124760485742
0.00124424510657
0.00124171025913
0.00123987508818
0.00123860316348
0.00123777596207
0.483502676603
0.150041166381
0.0409607460779
0.0131438121148
0.00352338637119
0.00161709444636
0.00116588590171
0.00122477482114
0.00127360128451
0.00128277293614
0.00128140875025
0.00127672743381
0.00127047452322
0.00126369288744
0.00125714027359
0.00125131557644
0.00124647197692
0.00124266894634
0.00123984508564
0.0012378861529
0.675679086579
0.253609436726
0.0907014352873
0.0303544885327
0.0108036622089
0.00343987971626
0.001558895982
0.00117823711055
0.00125019100259
0.00128641373211
0.00129132039851
0.00128924134043
0.0012843700698
0.00127797122231
0.0012708859216
0.00126381752442
0.00125732310293
0.00125176924199
0.00124733159894
0.00124403951432
0.828181324773
0.330032164571
0.130868848853
0.0498956059621
0.020903171863
0.0066502847282
0.00245299721339
0.00130261209173
0.00121073957667
0.00127861765289
0.00129511916551
0.00129637074623
0.00129368153511
0.00128877836139
0.00128248912524
0.00127547614672
0.00126838099304
0.00126177645231
0.00125608939366
0.00125157003657
0.901813566621
0.378211929586
0.159430864274
0.0666362882789
0.026078822206
0.011688115214
0.00352672384722
0.001565924148
0.00118373961381
0.00125797432046
0.00129438771668
0.00129956748621
0.00129923839758
0.0012962208285
0.00129136815654
0.00128524446378
0.00127842085506
0.00127151611074
0.00126511434518
0.00125967221028
0.912769530773
0.401223489532
0.177850784238
0.0789960482559
0.0339736383234
0.0131831433657
0.00567229758405
0.00177333063927
0.00114419854733
0.00121618127333
0.0012895130326
0.001300409612
0.00130206065464
0.00130088310167
0.00129761392123
0.00129272386622
0.00128666330594
0.00127998895185
0.00127333170431
0.00126728778039
0.926735560726
0.412659777278
0.187819566647
0.0868815798165
0.0398275372757
0.0172112993601
0.00645656883109
0.00250827509953
0.00101340099615
0.00110510277099
0.00127513342006
0.00130073920913
0.00130349365079
0.00130381500299
0.00130201432651
0.0012983907116
0.00129326581481
0.00128709068209
0.00128046684141
0.00127405754936
0.942185855206
0.420511987549
0.194305771487
0.0923459480013
0.0442412436161
0.0205718596414
0.00866760106046
0.00332786189776
0.00113634088456
0.000850635416123
0.00121454773876
0.00130125085225
0.00130503999923
0.00130607535972
0.00130544081319
0.00130292528131
0.0012986840747
0.00129305290737
0.00128656819067
0.00127990563995
0.955154282422
0.42719888555
0.199040921241
0.0963481877352
0.0476217155012
0.0233729476108
0.0108295687163
0.00434331041206
0.00179087139362
0.000675617862349
0.000994935241301
0.00129098385379
0.00130860951331
0.00130877003643
0.00130871931239
0.0013069871549
0.00130340531222
0.00129818119337
0.00129177800456
0.00128486476539
0.961768513495
0.431933118351
0.202643231414
0.0993535111374
0.0502538303453
0.0256910918609
0.0128109918059
0.00583889009739
0.00218246928634
0.000919810224052
0.000638592548719
0.0011917331577
0.0013144306757
0.00131319945916
0.00131259421235
0.00131110780734
0.00130780360868
0.00130270298331
0.00129620088798
0.00128896075483
0.961462915364
0.433828004626
0.204922736881
0.101480474829
0.0523082030597
0.0276575155028
0.0146218833068
0.00732173001929
0.00317689679802
0.00114457170343
0.000566396808843
0.000843097843366
0.00130056295191
0.00132062045729
0.00131763774377
0.0013155991857
0.00131205916913
0.00130670652937
0.00129986930556
0.00129217710847
0.954597501188
0.433046289908
0.205751220922
0.10278825375
0.0538548083034
0.0292962731231
0.0161700038926
0.00867167813109
0.00418442692265
0.00165625247425
0.000781763705738
0.000506239860597
0.00115457390795
0.0013289681631
0.00132415461292
0.00132052857673
0.00131617116268
0.00131017713862
0.00130276130938
0.0012945001999
0.950277897223
0.431442992749
0.205821728834
0.103463999296
0.0548907250906
0.0305494347846
0.0174121788121
0.00977965850245
0.00506976600129
0.00221404298852
0.000869210750176
0.0005199945339
0.000784005708351
0.00131860802238
0.0013320268678
0.00132578974748
0.00132006707788
0.00131309594246
0.00130490441892
0.00129600273471
0.953821573203
0.432036810621
0.205720708633
0.103768548607
0.0556266713077
0.0314905295854
0.0183308398976
0.0105860238399
0.00578084549357
0.00271933780149
0.00113441349569
0.000654161357492
0.000496700274321
0.00123805697227
0.00134052755717
0.00133132798173
0.00132377699391
0.00131558937552
0.00130650236103
0.00129692986071
0.967178706326
0.436045000536
0.207007324004
0.10456060649
0.0564081948798
0.0322240805753
0.0189716306936
0.0111666763922
0.0063636246331
0.00319362349736
0.00140377320962
0.000675460289766
0.000457278993307
0.00105834054101
0.00134862988602
0.00133747696143
0.0013275775924
0.00131803727313
0.00130799427817
0.00129772173414
0.986424148672
0.443299714463
0.210581174958
0.106778941571
0.0577608975349
0.0329817344583
0.0194625361461
0.0116392033891
0.0068915857752
0.00370835280583
0.00172663481832
0.000844898294962
0.000565726944278
0.000847962744875
0.00135608786098
0.00134565150679
0.00133213983575
0.00132107043971
0.00131000269849
0.00129894340851
1.00720986299
0.454081651531
0.218324448331
0.111608202032
0.0600640429268
0.0338258517388
0.0198572167744
0.0120791522804
0.00745577831902
0.00434348481423
0.00213074150791
0.00105182763759
0.000719720784255
0.000668901545775
0.00134590216671
0.00135941153527
0.0013387355477
0.00132550318529
0.00131320499955
0.00130115879086
1.03789529718
0.478452613853
0.233617654828
0.118821306109
0.0624769895922
0.0343810696684
0.020106637998
0.0125165750669
0.00808696065221
0.00501072732354
0.00261396464604
0.00129320045189
0.0007636185484
0.000609896936564
0.00120514666368
0.00138271819089
0.00134940630274
0.0013322110258
0.0013181924778
0.00130481639456
1.11533876862
0.523587595481
0.253574034787
0.125388109649
0.0640710495381
0.0347733512353
0.0204610709021
0.0130301186443
0.00868793949836
0.00564509306443
0.00310598251775
0.00155323216828
0.000994307016343
0.000782108563828
0.000757635395357
0.00138012448305
0.00136643273144
0.00134187491056
0.00132532682497
0.0013101806274
1.25189275518
0.57615777647
0.269924143201
0.130122535072
0.0659149032464
0.035867074315
0.0212176690514
0.0136201231226
0.00924945588249
0.00623477626038
0.00357515985961
0.00175618867391
0.00118621200768
0.000859058281516
0.000610899262597
0.00111127741129
0.00138613663049
0.00135465572059
0.00133460453831
0.00131730382625
1.37956947576
0.609900032043
0.281968439847
0.135924068782
0.069209793666
0.0377851923345
0.0223360945975
0.0143222263962
0.0098060695736
0.00678121421808
0.00401775604321
0.001916393695
0.00127422538791
0.00105596251897
0.000668174284746
0.000576137568873
0.00135295450071
0.00137011884077
0.00134575070423
0.00132605666375
1.41547588659
0.627693180622
0.291618626545
0.141818111588
0.0726730077536
0.0397529278176
0.0234405830083
0.0149868902527
0.0103264489108
0.00729214283816
0.00441498889154
0.00206761501679
0.00131063956248
0.00116197193638
0.000841745674898
0.000477939841086
0.00109280685803
0.0013837261747
0.00135827294012
0.00133609577627
1.42955363177
0.634751960903
0.296707244563
0.14539052404
0.0749939397965
0.0411595547056
0.0242587205912
0.0155306989356
0.0108413457429
0.00777955560718
0.00476112989875
0.00219995640258
0.00134746358463
0.00121542010571
0.000969754378357
0.000582871661982
0.000687432023085
0.00137896675833
0.00137137208277
0.0013468027341
1.44023652018
0.639693197173
0.299588993672
0.147329909317
0.0763165889402
0.0420399755587
0.0248538520182
0.016062579657
0.0114032234136
0.00823749460839
0.00507617949399
0.0023416692261
0.00140308976738
0.00126549353571
0.00105445929331
0.000582654122163
0.000470857776301
0.00133468034368
0.00138393769466
0.00135727408514
1.45409798832
0.644957533256
0.301925608648
0.148341603699
0.077006444414
0.0426223889539
0.0254084776552
0.0166896788095
0.011982643788
0.0086495883734
0.00539241504748
0.00252733098326
0.00149298691919
0.00134598633099
0.00114360801799
0.000688518469094
0.000426575153129
0.00125467024988
0.00139488958709
0.0013664515418
1.47033082937
0.652151728077
0.304958529043
0.149605120305
0.0777478070122
0.04325403341
0.0260797740263
0.0173975439459
0.0125165371693
0.00902582314408
0.00571986312516
0.00276445787248
0.0016271518028
0.00146662665082
0.00126506919357
0.000818396983832
0.000474810773934
0.00114426673797
0.00140375311714
0.00137360453845
1.49126341067
0.660570794752
0.309042749403
0.151616692939
0.0788767426201
0.0440892635788
0.0268787782954
0.0180843417838
0.0129672765085
0.00936326684444
0.00604213586743
0.00303033689071
0.00179042372802
0.00160959552457
0.00143002852169
0.000985975354729
0.000605470564994
0.000979942828566
0.00141110633494
0.00137913479569
1.51383511248
0.669172190318
0.313082308946
0.153744130762
0.0801242330906
0.04496993658
0.0276359433912
0.0186180414474
0.013303383763
0.0096269854153
0.00631337178078
0.00327455141753
0.0019322905801
0.00172937762535
0.00159676127889
0.0011947395297
0.000760963460144
0.000752231777191
0.00141441192546
0.00138462059804
1.54184019087
0.678499736294
0.316528181468
0.15549400919
0.0811949065381
0.0457362700067
0.0282098612232
0.0189368179404
0.0134910694916
0.00977412536667
0.00648986766497
0.0034508734021
0.00201851403121
0.00182395256056
0.00173451508652
0.00140894849848
0.000798978832824
0.000580444796119
0.00139496886008
0.00139201294286
1.56325559425
0.685305561454
0.318547298974
0.156477318078
0.0818940906582
0.0462723428901
0.0285062535367
0.0190212728909
0.0135014490631
0.0097726979234
0.00654780028954
0.00353772934993
0.00207656455267
0.00189494221619
0.00183425735184
0.00158136831467
0.000999668908073
0.000581300042472
0.00130816785626
0.00140314297831
1.5739152754
0.685476197574
0.317980139662
0.156643318659
0.0823703372455
0.0465859582221
0.0285083329123
0.0188683677498
0.0133102445264
0.00960225303467
0.00644153917498
0.00355619478222
0.0021370182632
0.00193967136161
0.00189996077041
0.00166390117656
0.00117359275617
0.000728844635608
0.00111609519738
0.00141905327067
1.56142852155
0.675196568696
0.31440501481
0.156646085964
0.0829476560316
0.046657187996
0.0281688361515
0.01842277017
0.0128824715601
0.00921890155408
0.00618396226562
0.00358083901822
0.0021981540124
0.00196445221823
0.00193941254916
0.0017265612233
0.00131400861976
0.000813027365616
0.000869536789012
0.00143739642333
1.51687421434
0.656225378918
0.312354034609
0.158669661859
0.0837709402317
0.0460761480347
0.0271905176998
0.0175426045097
0.0121844808691
0.00868849583007
0.0059401271472
0.00361780090207
0.00224728238603
0.00196745484993
0.00195789124336
0.00179862659922
0.00143678513075
0.000840205693423
0.000692498503614
0.00144916500542
1.41138740208
0.644585956819
0.320675548877
0.164532608922
0.0837428394707
0.0440008996515
0.025513669099
0.0164679744714
0.0114737485792
0.00824221831741
0.0057750802959
0.00365195219899
0.00227861835644
0.00194127884912
0.00195864787074
0.00187826396561
0.00157224335494
0.000997682085555
0.000655742814586
0.00143568798689
1.33681549939
0.67534250547
0.349185705114
0.171931724963
0.0820440700946
0.0416576910628
0.0240349730094
0.0155980098522
0.0109296764049
0.00794153394453
0.00567499028152
0.0036760221464
0.00228080037366
0.00187354301175
0.00192268201591
0.00191402968412
0.00166693043601
0.00115273926601
0.000760865789396
0.00133470109765
1.46452975376
0.781521122517
0.392820384343
0.182176569322
0.0816917683951
0.0403740694332
0.0232416163087
0.0151023281053
0.0105976954416
0.00775805357334
0.00560222513717
0.0036718742963
0.00224287505335
0.00175834650398
0.00182432435977
0.00186674398934
0.00167988673511
0.00127369997395
0.000781056968472
0.000997480196273
1.83084185406
0.958207890273
0.448310794668
0.195306251691
0.0851354289579
0.0416160938678
0.0236184581222
0.0151268056156
0.0105333096746
0.00771037553751
0.00561281622097
0.00369900122381
0.00218176635357
0.00161639673801
0.0016710066835
0.0017468322698
0.00162188240953
0.00131546286384
0.000848518467861
0.000637517228859
2.50305688953
1.15602440664
0.498807241651
0.218081862386
0.0975430369933
0.0472407450958
0.0257866507591
0.0159106134757
0.0108547877041
0.00790879020194
0.00579439520903
0.00384502638222
0.00217826910635
0.00148388153396
0.00150054146037
0.00159572193304
0.00152207279346
0.00128532299248
0.000946983636727
0.000643698228079
3.18066737715
1.35450192106
0.611992705622
0.279537126305
0.127956128963
0.0596715478969
0.0304356627732
0.0177125715847
0.0116790453153
0.00841781743267
0.00620534208864
0.00417157692016
0.0023016718265
0.00141236612355
0.0013624136444
0.00145984783925
0.00142265187976
0.00124494270943
0.00099536916996
0.000620216740314
3.32385626226
1.44203689358
0.702817958681
0.35961473606
0.179881144394
0.0789509192006
0.0375602591252
0.0205512989077
0.0129962239304
0.00920641916873
0.00680627511145
0.00465423448671
0.00257098776493
0.00144043935593
0.00129051421239
0.0013707093844
0.00135552347928
0.00122091641434
0.00102575935946
0.000690114776938
3.11123465552
1.38321152031
0.695719574127
0.378674702225
0.209838276058
0.100230075594
0.0469679379936
0.0244663732895
0.0147774724162
0.0102051894822
0.00751318510382
0.00521278383571
0.0029495170776
0.00157653468838
0.00128697049305
0.00133447724577
0.00133092223716
0.00122678013619
0.00105971882819
0.000780978857347
2.9164147976
1.3052755129
0.667365551337
0.378995031842
0.223925608249
0.11439517897
0.0557732131239
0.0289334718858
0.0169335775415
0.0113628638191
0.00825813934861
0.00576577620001
0.00337566691164
0.00179593559647
0.00133639047834
0.00134186593538
0.0013443769839
0.00126512870694
0.00111165829376
0.000868467405667
2.78535641215
1.24871562881
0.643521707666
0.373484574346
0.228058972923
0.121845825256
0.0621227184541
0.0328626928638
0.0190588539677
0.0125420377144
0.00897826022797
0.00625480954439
0.00376077123581
0.00204127998467
0.00143011236419
0.00137971935252
0.00138586977939
0.00133279606557
0.00118977573379
0.000962712976048
2.70207700537
1.21840840388
0.629099101233
0.366795225579
0.225577514641
0.124030070575
0.0659875986843
0.0359218213808
0.020964750296
0.0136709844962
0.00964256001245
0.0066698476058
0.00407734434218
0.00226406008603
0.00153929993719
0.00143576288961
0.00144613648927
0.00142235972277
0.00128895479418
0.00106650112679
2.66725394185
1.20839918835
0.622031566291
0.359304081714
0.217918662
0.122705857686
0.0678682278396
0.0380446442416
0.0225367643208
0.0146731014128
0.0102084247346
0.00699712232169
0.00431892222177
0.00244967263085
0.00164836549107
0.00150032932147
0.00151838662853
0.00152413384536
0.00140226709617
0.00117699246068
2.68051660303
1.21519057464
0.618999271302
0.350763378213
0.206749621946
0.119640489574
0.0682437650241
0.0392293271902
0.0236781102294
0.0154571431447
0.0106292404216
0.00722271768201
0.00448554081387
0.00259521593178
0.00175051858671
0.00156869456667
0.00159778658626
0.00163394819005
0.00153023885047
0.00128542402981
2.75509097263
1.2389984126
0.618964492785
0.342176665454
0.198896213234
0.116109540672
0.0673192684434
0.039504354647
0.0243219375339
0.0159384275249
0.0108626533047
0.00733504476705
0.0045816365831
0.0027047977761
0.00184530931391
0.00164035836804
0.00168297489386
0.00175342446843
0.00167792133112
0.00140731850245
2.90708145907
1.26862151826
0.612671525429
0.333146683816
0.19231929339
0.111690571342
0.0652055969759
0.0389923903501
0.0244345160313
0.0160379788786
0.0108731898727
0.00732636324934
0.004614265942
0.00278612246438
0.00193510599213
0.00171642409111
0.00177443199803
0.00188390456549
0.00184600987469
0.00155653930121
3.14893615366
1.30021438273
0.619854003904
0.330998830157
0.18547405266
0.106387498757
0.0624064649946
0.0379596972606
0.024009082688
0.0157245370125
0.0106601294097
0.00720897015093
0.00459953623023
0.00284967690753
0.00202330057529
0.00179607802535
0.00187123092603
0.00202520756911
0.00203209076286
0.00174614676911
3.34335131234
1.34219219826
0.628129723427
0.323617161851
0.177060972567
0.100727139932
0.0595017179617
0.0364777448527
0.0229818079931
0.0150289700098
0.0102642347035
0.00701612821961
0.00456020952799
0.00290660912562
0.00210898392456
0.00187543610103
0.0019702423006
0.00217384492688
0.00222994353996
0.00197293892424
3.3557167355
1.33626836336
0.613459487448
0.309985055278
0.167534017295
0.09532446599
0.056501137304
0.0342774238127
0.0213411798338
0.0140585133017
0.00976196271043
0.00679167622537
0.00451777768173
0.00296352273898
0.00218555237619
0.00194880822896
0.00206370988254
0.00231991615388
0.00242624078153
0.00220973227571
3.22918926661
1.27784440817
0.58427015044
0.292929884316
0.158324112607
0.0903263867408
0.0527315473053
0.0311739881931
0.0193436429376
0.0129991086408
0.00925061388237
0.00658053164699
0.00448809339237
0.00302518143395
0.00224392702318
0.00201017378302
0.00213737314526
0.00244606047547
0.00260305638126
0.00242814551893
3.03582862864
1.19702623004
0.547369533047
0.276674685292
0.150904601881
0.0849894808245
0.047918493105
0.0277188449321
0.0174071273135
0.012055491969
0.00881519533704
0.00641146024962
0.00447910353991
0.00308255277512
0.00228537213286
0.00204020842383
0.00217317694318
0.00252580191222
0.00274165801205
0.00261435428813
2.70867856872
1.07486591226
0.508032954843
0.265995644053
0.145670920515
0.07960242826
0.0431738007994
0.0247364893526
0.0159288891274
0.011374437552
0.00849583742368
0.00629272451975
0.00449163270919
0.00313212052605
0.0023148201108
0.00203276726409
0.00215304796304
0.00252305773504
0.00281404433715
0.00274943020411
2.21305112044
0.970562337313
0.496686504546
0.268963647949
0.144936203978
0.0756857353569
0.0398711496422
0.023006811433
0.0151636666937
0.0110024487465
0.00829709498755
0.00621389940795
0.00449683310684
0.00315922267732
0.00231583635421
0.00197615654832
0.00206413319765
0.00240616877188
0.00276945902316
0.00280278736992
1.92559972267
0.996750923013
0.542696271043
0.294056970867
0.1524753909
0.0760236875661
0.0391167000889
0.022654877092
0.0150116292457
0.0108710247468
0.00817378825884
0.00613371182847
0.00446344272883
0.00314335097203
0.00227070552761
0.00186752649284
0.00187757167842
0.00217667396133
0.00256509138492
0.00273960927221
2.21460119013
1.22451327113
0.665134986726
0.34356292934
0.168538558199
0.0816512422867
0.0418995552527
0.0241761220781
0.015746947005
0.0111423087608
0.00822409516658
0.00610957934461
0.00442487316165
0.00308839441682
0.0021737011156
0.00171699314472
0.00163292550531
0.00186525425307
0.00222705791281
0.00254062879674
3.07353231019
1.6374093295
0.806539213775
0.390310898664
0.189403756204
0.0949842085901
0.0504802831002
0.028912829697
0.0180906073819
0.0122041248659
0.00867366673267
0.00629112579524
0.00447729216586
0.00304419364664
0.00204836669097
0.00153880624696
0.00139331480758
0.00151030684153
0.00184865964643
0.00223774185555
4.17967567185
1.93988422638
0.891139357243
0.421959157517
0.212211672208
0.113488484184
0.0637631840043
0.0366394346529
0.0222277283373
0.0142552994405
0.0096701272344
0.00679874982055
0.00472516495445
0.00309914131877
0.00195820883196
0.00137466355987
0.00118945696418
0.00123481876583
0.00149511451592
0.00191486200694
4.65059370973
1.96660183709
0.900608260713
0.441377719654
0.233353127465
0.133209386426
0.0788673882831
0.0449518212271
0.0267008201593
0.0168010379277
0.0110833305812
0.0076168327879
0.00520613207643
0.00331740693597
0.00197108939795
0.00127892561461
0.00104952561121
0.00105955286602
0.0012420923902
0.00165565278381
4.6186416424
1.96613523341
0.893299362133
0.443604106343
0.24503650665
0.148134883316
0.0924980374582
0.0522563131838
0.0303568225784
0.019024801046
0.0125449288486
0.00858052952053
0.00583795193578
0.00367113902891
0.00209897031034
0.00127465381265
0.00098853703533
0.00096869519574
0.00111465290313
0.001488479584
4.58058077
1.93691702603
0.864822149769
0.429111599745
0.242867603209
0.152607194032
0.0987119453543
0.0562899830049
0.0330006367296
0.0207402461632
0.0137791738886
0.00949573268796
0.00648172877056
0.00406921205117
0.00229978532884
0.00134676965628
0.000996422885955
0.00094409201892
0.00106262312014
0.00138883419009
4.6529517809
1.90225619746
0.826976620323
0.407337577237
0.233337554637
0.148962984942
0.0957180199535
0.0560173175004
0.0339787887297
0.0217869720622
0.014687120488
0.0102390607455
0.00702121594289
0.00442849504171
0.00252420092479
0.00146779004079
0.00105373943742
0.000966922976107
0.00105838533432
0.00135321360168
4.86720276699
1.90612385015
0.800885429388
0.389155633564
0.22270491322
0.141113706214
0.086985172293
0.0533201105495
0.0336442640156
0.022132073545
0.0152037225833
0.0107194559007
0.00736494868242
0.0046701791101
0.00271286196306
0.00160390177478
0.00114100234335
0.00102178431445
0.001087133511
0.00135845837896
5.24187543692
1.98313955433
0.820294633399
0.393125862765
0.220316745175
0.13212945385
0.0814664756258
0.0512789670864
0.0331913826535
0.0222456875113
0.0155096370821
0.0109869434245
0.00752401131898
0.00479478845207
0.00284824664182
0.001729861453
0.00123877832982
0.00109456517997
0.00113861465703
0.00139183407757
5.69891607274
2.15018424435
0.909819454381
0.435802567326
0.233530410555
0.136606951486
0.0832010136467
0.0522722139017
0.0337802316106
0.0226619256163
0.0158014791675
0.0111025627201
0.00755009659639
0.00484617369639
0.00295378704146
0.00184994135688
0.00134208609917
0.00117753958664
0.00120340843307
0.00144549202092
5.94039959505
2.34220050573
1.05994878609
0.52357974219
0.28141486279
0.159403258256
0.0941563041985
0.057403941309
0.0360855574157
0.0236801218168
0.0161539180832
0.0111231013959
0.00752041476463
0.00488449851462
0.00306366862356
0.00197724095066
0.00145238200723
0.00126798085066
0.00127744321099
0.00151126430849
5.47244539674
2.39107357734
1.17996423064
0.620787660884
0.339346005438
0.190823775828
0.110358767774
0.0653392567922
0.0397360985129
0.0251179317355
0.0164973012636
0.0111149352706
0.00750607781005
0.00495925813616
0.00320508346664
0.00212297765107
0.00157232848288
0.00136476437652
0.00135913934483
0.00158554452421
4.48929536557
2.25385860981
1.20649972071
0.669059444399
0.376114341555
0.21418943197
0.123947070436
0.0726651171547
0.0432642356604
0.0263875948209
0.0167430345898
0.0111246933087
0.00755247720526
0.00509775020451
0.00339115582866
0.00229266730371
0.00170241521534
0.00146634180739
0.00144635954578
0.00166689600663
3.56390864894
1.9523582724
1.11026742938
0.64394034203
0.375201733198
0.219265804441
0.128946479247
0.0761585849025
0.0450895531378
0.0269597239905
0.0168394128315
0.0111728988248
0.00767652337968
0.00530495015468
0.00362268107637
0.00248599457863
0.00184110969767
0.00156892519318
0.00153515888041
0.00175144889636
2.96302967163
1.62027228367
0.949100528433
0.571479406086
0.345175846094
0.207710375054
0.124836263497
0.0749301875867
0.0446799946676
0.026741212194
0.0168061715616
0.0112692820145
0.00787164012951
0.00556852002694
0.00389057746832
0.0026998049488
0.0019854272708
0.00166732574811
0.00161715499271
0.00183129152218
2.55249608998
1.34567664351
0.788536072083
0.485446035344
0.301640500026
0.186231251813
0.114376660041
0.0700498900473
0.0425205979809
0.0259773013279
0.0167067088448
0.0113992601907
0.00810371609255
0.00585603907681
0.00417642867921
0.00292521506318
0.00213086683385
0.00175367394269
0.0016773637735
0.00189079618462
2.25801398987
1.1392214663
0.655468338758
0.405561671651
0.256529925184
0.161469685131
0.101169600065
0.0633940511224
0.0395297068009
0.0250274093137
0.016595010431
0.0115190533731
0.00831390057482
0.0061202461296
0.00444902418923
0.00314323824075
0.00226258224847
0.0018087759778
0.00169635692456
0.00189738506969
2.0919574344
1.01230128049
0.565131011804
0.346882024129
0.220651244717
0.140213469463
0.0892164961969
0.0572454904215
0.0369764127412
0.0244508837807
0.0166259158689
0.0116433184113
0.00847688034455
0.00632572864266
0.00466984946468
0.00331981902509
0.0023504940654
0.00181909459855
0.00165749472572
0.00181141822243
2.01503460984
0.955182033674
0.526753979528
0.321939832707
0.202828512808
0.127977350847
0.0820208524265
0.0541057871064
0.0365768195982
0.025119430143
0.0172170262309
0.0119706073718
0.00867029773176
0.00648268152241
0.00481240680655
0.00344295321175
0.00240866114075
0.00178970501647
0.0015580799414
0.00163072109894
1.95962515715
0.979993242832
0.555288493606
0.33558989136
0.205585699307
0.127857955354
0.0829709352308
0.0568927478913
0.0403503472955
0.0282501525243
0.0190095422905
0.0127907086039
0.00901055009347
0.00663113241015
0.00491853474086
0.00353755986237
0.00243927247149
0.0017297940594
0.00141443852164
0.00139474859172
2.08623524111
1.115481466
0.640138002516
0.376645947648
0.225754022361
0.140235881318
0.0926844923855
0.065672741392
0.048093283346
0.033909309829
0.0223378220839
0.0144547219009
0.00978320824282
0.0069709928511
0.00510764292323
0.00367218833755
0.00249598373987
0.00168006695785
0.00127076807569
0.0011663360514
2.46101513496
1.31282343024
0.72548145986
0.415085983247
0.247337662116
0.154271638606
0.102892149456
0.0744344908019
0.0559781889585
0.0405598143795
0.0271619271922
0.0171949156089
0.0112497382894
0.00771138711745
0.00551556416296
0.00395247105901
0.00266544555727
0.00170650453067
0.00118377171153
0.00100052871617
2.78814747597
1.39146349068
0.722678330099
0.403740818312
0.242369908317
0.155200793589
0.107125124561
0.0800371239667
0.0622561318139
0.047052574651
0.0328285486959
0.0206690663773
0.0131380947163
0.00878386030085
0.00616481617273
0.00441469044759
0.00299489730998
0.00186279380572
0.00119717619379
0.00092720349732
2.74843965859
1.24140577391
0.626824289178
0.34921736422
0.213468399587
0.142595998336
0.103947960533
0.0815567218868
0.0661223244259
0.0523152754912
0.038241088158
0.0242533027701
0.0148573141509
0.00983160279675
0.00690631280134
0.00499158162075
0.00345126134686
0.00214697336101
0.00132095021562
0.000949406654947
2.59862787229
1.12235265392
0.546601335222
0.29565795421
0.181649544599
0.126880339714
0.098075703334
0.0807506597969
0.0677384514943
0.0550371651051
0.0411195945996
0.0263333230479
0.0159719270927
0.0106068742741
0.00754555503302
0.00557023128822
0.00395416011536
0.0025114703839
0.00153464339543
0.00105386761203
2.55207143418
1.05029360249
0.486310171082
0.248387407334
0.151166303869
0.110613846007
0.0905387736219
0.0776011193272
0.0665811938654
0.054646443667
0.0407020305481
0.025391525788
0.0160899997314
0.010974384515
0.00800751869536
0.0060785211598
0.0044407619974
0.00291041463175
0.00181439750485
0.00122693644413
2.55971887568
1.01078611791
0.437685476225
0.208683897649
0.126303898322
0.0961898857156
0.0818550207899
0.0718963557473
0.0622979571997
0.0509496343724
0.0365368100416
0.0230172828488
0.0153772711212
0.0109540318852
0.00830660500843
0.00651902366563
0.00489755458761
0.00332235154313
0.00214474541064
0.00145888256113
2.65482204445
1.02503474448
0.420348547556
0.193354970989
0.114431836115
0.0822492796134
0.0700396425393
0.0619765115077
0.0538206741783
0.0434293631995
0.0299593300795
0.0201509603271
0.0143259085536
0.0107705749441
0.00856337694203
0.00695539754113
0.00535842733487
0.00376781795904
0.00253161257278
0.00174326498747
2.77031051341
1.23636781567
0.533863471127
0.253118759847
0.135970973489
0.0726960432025
0.0568961608062
0.0493562566384
0.0425526502631
0.0339687652691
0.0242301501879
0.0176502776206
0.0134075966771
0.0106865772336
0.00890335050413
0.00743949945886
0.00586774556141
0.00428429433975
0.00298451211506
0.00204996345888
2.77366942424
1.38002792791
0.695454531417
0.363476638289
0.189698048478
0.0749709944992
0.0494400816016
0.0401191595851
0.0337145907833
0.0270696081721
0.020615499993
0.0160727592979
0.0129561973689
0.0108705260841
0.009379161955
0.00799548291919
0.00647698977151
0.00490084273064
0.00345704318005
0.00224609838955
2.76663231794
1.45849461774
0.826419025997
0.487401723227
0.26987655406
0.0932006321912
0.0498879592353
0.0364361534566
0.029255306691
0.0235546714778
0.0188619457296
0.0154331752113
0.0129979763056
0.0112898637948
0.00994700229528
0.00865186867012
0.00721228684754
0.00553617869723
0.00370841991027
0.00223407508923
2.73631712453
1.50304210147
0.906490906737
0.579741850909
0.35716928471
0.138145072423
0.0600929375054
0.0377809973538
0.0283999982462
0.0225663544322
0.0184406789622
0.0154776916721
0.0133574996313
0.0118143150261
0.0105864252828
0.00940363835429
0.00790763949918
0.00577550977938
0.00358306955507
0.00216949199913
2.83917484385
1.51316648039
0.925906032401
0.621898083662
0.413407113799
0.211988179746
0.0873748235737
0.0449337309609
0.0302652318171
0.0231825977386
0.018824385235
0.0158817925006
0.0138256583086
0.0123785023061
0.0112466738676
0.00995230649399
0.0079770922137
0.00546208745685
0.00341423152785
0.00211144317484
3.18255942556
1.54932444727
0.908580770428
0.613055686833
0.421901072216
0.250003672056
0.121364364478
0.0580373630573
0.0343986061757
0.024647728476
0.0195045621802
0.0163503674736
0.0142725217456
0.0128516498312
0.0115251545517
0.00972225189369
0.00746319069889
0.00512237398038
0.00327448354409
0.00204725804247
3.35904371461
1.54755016196
0.871664499889
0.579553227959
0.406375835051