/*--------------------------------*- C++ -*----------------------------------*\
| =========                 |                                                 |
| \\      /  F ield         | OpenFOAM: The Open Source CFD Toolbox           |
|  \\    /   O peration     | Version:  2312                                  |
|   \\  /    A nd           | Website:  www.openfoam.com                      |
|    \\/     M anipulation  |                                                 |
\*---------------------------------------------------------------------------*/
FoamFile
{
    version     2.0;
    format      ascii;
    arch        "LSB;label=32;scalar=64";
    class       volVectorField;
    location    "49";
    object      U.air;
}
// * * * * * * * * * * * * * * * * * * * * * * * * * * * * * * * * * * * * * //

dimensions      [0 1 -1 0 0 0 0];

internalField   nonuniform List<vector> 
1875
(
(0.0180639 0.137589 0)
(0.050083 0.131238 0)
(0.108284 0.127288 0)
(0.157559 0.127598 0)
(0.205075 0.134915 0)
(0.245595 0.140231 0)
(0.279746 0.14528 0)
(0.306638 0.150725 0)
(0.325888 0.156618 0)
(0.33706 0.162744 0)
(0.339917 0.170009 0)
(0.334576 0.177865 0)
(0.321497 0.182898 0)
(0.301553 0.183409 0)
(0.273825 0.184538 0)
(0.239233 0.190243 0)
(0.199412 0.19629 0)
(0.156612 0.200242 0)
(0.115225 0.200366 0)
(0.0795258 0.196152 0)
(0.0540856 0.187804 0)
(0.0408456 0.179346 0)
(0.0358372 0.174892 0)
(0.0224814 0.174769 0)
(0.00751128 0.180913 0)
(0.0250626 0.176507 0)
(0.0692769 0.178158 0)
(0.117448 0.181834 0)
(0.157198 0.18908 0)
(0.195195 0.196223 0)
(0.22829 0.206645 0)
(0.256538 0.218887 0)
(0.278895 0.232351 0)
(0.294756 0.246904 0)
(0.3039 0.262479 0)
(0.306388 0.27868 0)
(0.302396 0.29523 0)
(0.292172 0.314464 0)
(0.27503 0.336227 0)
(0.252526 0.356561 0)
(0.226904 0.371847 0)
(0.198514 0.383624 0)
(0.167776 0.390916 0)
(0.136206 0.39334 0)
(0.106186 0.390532 0)
(0.0773429 0.38336 0)
(0.0516728 0.373406 0)
(0.0338513 0.365339 0)
(0.0143525 0.365144 0)
(0.00337173 0.364669 0)
(0.0206973 0.0794157 0)
(0.0604307 0.086314 0)
(0.0967136 0.0940703 0)
(0.127733 0.105065 0)
(0.157001 0.117876 0)
(0.182554 0.134427 0)
(0.203076 0.153707 0)
(0.218274 0.175179 0)
(0.228175 0.198396 0)
(0.233035 0.222945 0)
(0.232664 0.248335 0)
(0.227093 0.274204 0)
(0.215178 0.300776 0)
(0.19833 0.328337 0)
(0.176866 0.35481 0)
(0.151953 0.377868 0)
(0.125121 0.396718 0)
(0.0985735 0.408883 0)
(0.0753705 0.411045 0)
(0.0565506 0.403227 0)
(0.0428165 0.388789 0)
(0.0286886 0.373182 0)
(0.017192 0.362589 0)
(0.00752791 0.359822 0)
(0.00328048 0.358877 0)
(0.0201939 0.0503517 0)
(0.0492516 0.0601281 0)
(0.0611849 0.0698111 0)
(0.0818923 0.0838255 0)
(0.100933 0.102137 0)
(0.11503 0.12453 0)
(0.122956 0.150377 0)
(0.125683 0.178887 0)
(0.123877 0.209254 0)
(0.117711 0.240872 0)
(0.106875 0.273214 0)
(0.092056 0.305687 0)
(0.0740901 0.338375 0)
(0.0541815 0.370923 0)
(0.0335543 0.402451 0)
(0.0139021 0.430693 0)
(-0.00114311 0.452392 0)
(-0.009454 0.463011 0)
(-0.0127114 0.4613 0)
(-0.011331 0.448725 0)
(-0.00839553 0.428129 0)
(-0.00460009 0.406164 0)
(-0.00107133 0.391083 0)
(0.000308818 0.385036 0)
(0.00128167 0.38274 0)
(0.0125226 0.0161307 0)
(0.0257396 0.0258885 0)
(0.0216125 0.0364056 0)
(0.0332648 0.050848 0)
(0.0403889 0.0714673 0)
(0.0401613 0.0976566 0)
(0.0331715 0.127958 0)
(0.0208536 0.160821 0)
(0.00363282 0.195239 0)
(-0.0180091 0.230717 0)
(-0.0420767 0.266959 0)
(-0.066216 0.30324 0)
(-0.0888317 0.338819 0)
(-0.10746 0.372538 0)
(-0.119322 0.4025 0)
(-0.122999 0.425736 0)
(-0.118152 0.439116 0)
(-0.105716 0.44179 0)
(-0.0877917 0.433664 0)
(-0.0666599 0.41756 0)
(-0.0448 0.399585 0)
(-0.0263537 0.383099 0)
(-0.0140596 0.368981 0)
(-0.0042291 0.364272 0)
(0.000402526 0.366338 0)
(0.0158939 0.0231801 0)
(0.0218131 0.0346695 0)
(-0.0119916 0.0469081 0)
(-0.0137458 0.0641252 0)
(-0.0245217 0.0879912 0)
(-0.0452982 0.117726 0)
(-0.0722237 0.15151 0)
(-0.103714 0.187162 0)
(-0.137554 0.223427 0)
(-0.169448 0.25915 0)
(-0.196213 0.292691 0)
(-0.216426 0.32347 0)
(-0.229132 0.350816 0)
(-0.233114 0.374253 0)
(-0.227331 0.391886 0)
(-0.212057 0.402676 0)
(-0.189139 0.405832 0)
(-0.160276 0.400891 0)
(-0.127941 0.389195 0)
(-0.0959905 0.37373 0)
(-0.0671238 0.357762 0)
(-0.0427707 0.344791 0)
(-0.0253319 0.339429 0)
(-0.00997949 0.342424 0)
(-0.00330993 0.350101 0)
(0.015901 0.0579281 0)
(0.0106916 0.0672427 0)
(-0.0470232 0.0817098 0)
(-0.0638692 0.101878 0)
(-0.0947782 0.12936 0)
(-0.132041 0.162352 0)
(-0.171217 0.196201 0)
(-0.209415 0.227439 0)
(-0.242658 0.253768 0)
(-0.269538 0.273749 0)
(-0.287835 0.294673 0)
(-0.29615 0.315875 0)
(-0.29439 0.333652 0)
(-0.283215 0.344039 0)
(-0.263805 0.349722 0)
(-0.237152 0.350242 0)
(-0.204764 0.345916 0)
(-0.168785 0.337621 0)
(-0.132618 0.327059 0)
(-0.0990439 0.316447 0)
(-0.0700687 0.308102 0)
(-0.0460865 0.304174 0)
(-0.0290236 0.306686 0)
(-0.0115983 0.316266 0)
(-0.00409343 0.327612 0)
(0.0129144 0.117067 0)
(-0.00585315 0.12561 0)
(-0.0786607 0.144157 0)
(-0.103925 0.17062 0)
(-0.141931 0.202848 0)
(-0.178381 0.235541 0)
(-0.21416 0.262756 0)
(-0.245581 0.28332 0)
(-0.271481 0.300117 0)
(-0.288799 0.315945 0)
(-0.297063 0.320691 0)
(-0.298718 0.318282 0)
(-0.292477 0.313495 0)
(-0.276919 0.311426 0)
(-0.253807 0.306072 0)
(-0.225529 0.298912 0)
(-0.193847 0.290322 0)
(-0.161142 0.281227 0)
(-0.129612 0.272842 0)
(-0.100565 0.266518 0)
(-0.0749647 0.263779 0)
(-0.0524208 0.266061 0)
(-0.0354317 0.274706 0)
(-0.0146981 0.289382 0)
(-0.00509409 0.304905 0)
(0.00698955 0.182962 0)
(-0.0207211 0.193796 0)
(-0.0918856 0.218138 0)
(-0.114283 0.250085 0)
(-0.147642 0.283519 0)
(-0.176829 0.31098 0)
(-0.206691 0.327572 0)
(-0.233615 0.333587 0)
(-0.255149 0.331423 0)
(-0.269404 0.324886 0)
(-0.274898 0.3161 0)
(-0.273619 0.307483 0)
(-0.262696 0.295138 0)
(-0.24815 0.281995 0)
(-0.229334 0.269982 0)
(-0.207551 0.258055 0)
(-0.184148 0.246754 0)
(-0.160235 0.236542 0)
(-0.136476 0.228246 0)
(-0.113099 0.222919 0)
(-0.0906155 0.221864 0)
(-0.0684852 0.226309 0)
(-0.0494795 0.237054 0)
(-0.0217696 0.253893 0)
(-0.00820589 0.271612 0)
(0.00172332 0.244664 0)
(-0.0258866 0.259721 0)
(-0.084827 0.290209 0)
(-0.100145 0.324831 0)
(-0.125144 0.357537 0)
(-0.146577 0.379912 0)
(-0.170847 0.387788 0)
(-0.193547 0.381968 0)
(-0.211633 0.366484 0)
(-0.223933 0.345026 0)
(-0.228338 0.324307 0)
(-0.227333 0.303794 0)
(-0.222459 0.285339 0)
(-0.21483 0.267288 0)
(-0.204648 0.249851 0)
(-0.192491 0.233469 0)
(-0.178617 0.218286 0)
(-0.163147 0.204773 0)
(-0.146119 0.193645 0)
(-0.127457 0.185842 0)
(-0.107434 0.182483 0)
(-0.0852343 0.184567 0)
(-0.0636199 0.19281 0)
(-0.0287634 0.207654 0)
(-0.0113182 0.223874 0)
(-0.00255378 0.293723 0)
(-0.0217911 0.312597 0)
(-0.0641457 0.345498 0)
(-0.0741381 0.379551 0)
(-0.09026 0.410294 0)
(-0.103739 0.429994 0)
(-0.120441 0.433423 0)
(-0.137157 0.419714 0)
(-0.151451 0.395061 0)
(-0.162774 0.365857 0)
(-0.170719 0.337222 0)
(-0.175888 0.310324 0)
(-0.178426 0.285075 0)
(-0.178462 0.261355 0)
(-0.176178 0.238929 0)
(-0.171605 0.21784 0)
(-0.164596 0.198315 0)
(-0.155164 0.180787 0)
(-0.143415 0.165839 0)
(-0.12939 0.154171 0)
(-0.112821 0.146564 0)
(-0.0926524 0.143798 0)
(-0.0715348 0.146413 0)
(-0.0362589 0.156037 0)
(-0.0152566 0.165921 0)
(-0.00257505 0.325894 0)
(-0.0112032 0.345751 0)
(-0.0346188 0.379598 0)
(-0.0397782 0.411973 0)
(-0.0460285 0.44295 0)
(-0.0508641 0.46184 0)
(-0.0590982 0.464261 0)
(-0.0696765 0.448838 0)
(-0.0819956 0.420583 0)
(-0.0951041 0.386692 0)
(-0.107515 0.352668 0)
(-0.118271 0.32014 0)
(-0.126707 0.289495 0)
(-0.13259 0.260614 0)
(-0.135863 0.233359 0)
(-0.136435 0.207746 0)
(-0.134248 0.184024 0)
(-0.129377 0.162628 0)
(-0.121935 0.144046 0)
(-0.112136 0.128789 0)
(-0.0999772 0.117333 0)
(-0.084408 0.110036 0)
(-0.0672858 0.106921 0)
(-0.0411506 0.108362 0)
(-0.0170157 0.109533 0)
(-0.000787039 0.340929 0)
(0.000593395 0.360727 0)
(-0.00531459 0.390958 0)
(-0.00385378 0.421274 0)
(-0.000929746 0.450033 0)
(0.00334802 0.470943 0)
(0.00457592 0.478148 0)
(0.00113321 0.46606 0)
(-0.00868748 0.439597 0)
(-0.0224087 0.406144 0)
(-0.0373453 0.369292 0)
(-0.0515412 0.332863 0)
(-0.0639917 0.29789 0)
(-0.0743393 0.264633 0)
(-0.0823165 0.233024 0)
(-0.0876203 0.203122 0)
(-0.0901365 0.175228 0)
(-0.0897798 0.14981 0)
(-0.0863954 0.127427 0)
(-0.0801337 0.108636 0)
(-0.0716402 0.0939083 0)
(-0.0605803 0.0833543 0)
(-0.0476297 0.0766882 0)
(-0.0339673 0.0736755 0)
(-0.0146117 0.0695485 0)
(-0.000282814 0.336192 0)
(0.00760679 0.355154 0)
(0.020719 0.382017 0)
(0.0273817 0.410573 0)
(0.037336 0.438299 0)
(0.049141 0.460546 0)
(0.0590032 0.472448 0)
(0.0641355 0.470031 0)
(0.0618138 0.452833 0)
(0.0514557 0.422315 0)
(0.0371056 0.387399 0)
(0.0210091 0.350174 0)
(0.00543117 0.312946 0)
(-0.00874964 0.276442 0)
(-0.0211266 0.241096 0)
(-0.031374 0.207175 0)
(-0.0391652 0.1751 0)
(-0.0441745 0.145441 0)
(-0.0460641 0.118872 0)
(-0.0444463 0.0961125 0)
(-0.0399109 0.0777163 0)
(-0.0333816 0.0641418 0)
(-0.0239172 0.0552421 0)
(-0.0197969 0.0500656 0)
(-0.00953201 0.0442469 0)
(-0.00109924 0.315037 0)
(0.0124293 0.331445 0)
(0.0397077 0.357346 0)
(0.050507 0.385036 0)
(0.0645915 0.411729 0)
(0.0805355 0.4345 0)
(0.0962356 0.450401 0)
(0.108589 0.455271 0)
(0.114233 0.44781 0)
(0.112269 0.429698 0)
(0.102346 0.402555 0)
(0.0882927 0.369327 0)
(0.0718366 0.332566 0)
(0.0550978 0.295246 0)
(0.0394078 0.257948 0)
(0.0251471 0.221291 0)
(0.0126903 0.185933 0)
(0.00241473 0.152593 0)
(-0.00544633 0.122086 0)
(-0.0104203 0.0953732 0)
(-0.0115931 0.0733162 0)
(-0.0102617 0.0564598 0)
(-0.00589638 0.0453895 0)
(-0.00897667 0.0381055 0)
(-0.00502828 0.030496 0)
(-0.00232933 0.288063 0)
(0.0128762 0.301992 0)
(0.0480779 0.324922 0)
(0.0638655 0.351402 0)
(0.0804024 0.377299 0)
(0.097692 0.400339 0)
(0.115816 0.418723 0)
(0.131816 0.429631 0)
(0.143608 0.432736 0)
(0.148048 0.423653 0)
(0.146202 0.403484 0)
(0.136644 0.379712 0)
(0.122418 0.352611 0)
(0.105833 0.318483 0)
(0.08857 0.281955 0)
(0.0719265 0.24454 0)
(0.05653 0.207332 0)
(0.0427326 0.17138 0)
(0.0307333 0.137746 0)
(0.0203488 0.107564 0)
(0.0122076 0.082077 0)
(0.00770617 0.0622153 0)
(0.00683487 0.0489531 0)
(-0.00476216 0.0400132 0)
(-0.00353324 0.0310876 0)
(-0.00562729 0.260114 0)
(0.00513301 0.270731 0)
(0.0417227 0.28883 0)
(0.0647372 0.31318 0)
(0.0849497 0.338703 0)
(0.103397 0.362646 0)
(0.121383 0.383503 0)
(0.137899 0.399558 0)
(0.15073 0.408428 0)
(0.159116 0.412841 0)
(0.160839 0.408398 0)
(0.15727 0.392681 0)
(0.147334 0.367853 0)
(0.133684 0.34094 0)
(0.117759 0.308483 0)
(0.101135 0.27259 0)
(0.0849468 0.235208 0)
(0.069861 0.197905 0)
(0.0560866 0.162174 0)
(0.0436546 0.129381 0)
(0.0312366 0.100834 0)
(0.0204892 0.0779594 0)
(0.014027 0.0620138 0)
(-0.00104679 0.050489 0)
(-0.00140609 0.0404737 0)
(-0.00360199 0.232284 0)
(0.00270316 0.238007 0)
(0.0331555 0.252476 0)
(0.0581376 0.274387 0)
(0.0816534 0.299977 0)
(0.101206 0.325906 0)
(0.117971 0.350155 0)
(0.132455 0.371177 0)
(0.143289 0.387395 0)
(0.151212 0.397965 0)
(0.153365 0.40397 0)
(0.15199 0.400121 0)
(0.1462 0.384 0)
(0.135788 0.361145 0)
(0.123223 0.33338 0)
(0.108992 0.300457 0)
(0.0944256 0.26419 0)
(0.0802613 0.226599 0)
(0.0668082 0.189644 0)
(0.0540311 0.155094 0)
(0.0416172 0.124179 0)
(0.0276706 0.0987271 0)
(0.0160532 0.0797843 0)
(0.00102173 0.065176 0)
(-0.000181506 0.0539653 0)
(0.00263452 0.202206 0)
(0.00908721 0.206892 0)
(0.0306745 0.220015 0)
(0.0481655 0.24051 0)
(0.0692803 0.265981 0)
(0.0881784 0.293989 0)
(0.103358 0.322168 0)
(0.114682 0.348448 0)
(0.122702 0.370944 0)
(0.127089 0.387187 0)
(0.128975 0.396326 0)
(0.127262 0.400691 0)
(0.122405 0.397402 0)
(0.11519 0.381154 0)
(0.105855 0.356344 0)
(0.0958449 0.326023 0)
(0.0850272 0.290917 0)
(0.0738473 0.253281 0)
(0.0624685 0.215471 0)
(0.0505662 0.179534 0)
(0.0398911 0.147011 0)
(0.0270828 0.119288 0)
(0.0151886 0.0975097 0)
(0.00294171 0.0796482 0)
(0.000889182 0.0668209 0)
(0.0081571 0.172444 0)
(0.0158606 0.18058 0)
(0.0269401 0.193729 0)
(0.036082 0.214405 0)
(0.0495341 0.24014 0)
(0.0636764 0.269805 0)
(0.0754829 0.301514 0)
(0.0830623 0.332684 0)
(0.086589 0.36071 0)
(0.0867539 0.383384 0)
(0.0847821 0.39864 0)
(0.0809484 0.404826 0)
(0.0763743 0.403672 0)
(0.0720435 0.394239 0)
(0.0674283 0.374036 0)
(0.0627143 0.34549 0)
(0.0574772 0.311375 0)
(0.0514089 0.274075 0)
(0.0442117 0.236048 0)
(0.0359982 0.199379 0)
(0.0283542 0.166 0)
(0.019539 0.136959 0)
(0.0113406 0.112871 0)
(0.00414843 0.0921827 0)
(0.00200474 0.0785442 0)
(0.0119513 0.146521 0)
(0.020723 0.159192 0)
(0.0207764 0.175291 0)
(0.0253686 0.196687 0)
(0.0308702 0.223571 0)
(0.0364727 0.255225 0)
(0.0406191 0.290091 0)
(0.0416026 0.325556 0)
(0.0394768 0.358329 0)
(0.0354449 0.385436 0)
(0.0309139 0.404385 0)
(0.0268602 0.414141 0)
(0.0238011 0.414023 0)
(0.0223409 0.403719 0)
(0.0222748 0.383345 0)
(0.0226436 0.35533 0)
(0.0228382 0.321808 0)
(0.0221713 0.285206 0)
(0.0202217 0.247809 0)
(0.0174612 0.21157 0)
(0.0137733 0.178349 0)
(0.009346 0.148957 0)
(0.00450042 0.123339 0)
(0.00313052 0.100699 0)
(0.00286062 0.086121 0)
(0.0113833 0.139225 0)
(0.0185649 0.153222 0)
(0.00948539 0.168967 0)
(0.0108116 0.191033 0)
(0.0102675 0.219114 0)
(0.00778682 0.252778 0)
(0.00308517 0.290203 0)
(-0.00327544 0.328289 0)
(-0.0101686 0.363109 0)
(-0.0166737 0.390819 0)
(-0.0220701 0.409521 0)
(-0.0245952 0.418367 0)
(-0.0244403 0.416267 0)
(-0.0219289 0.403778 0)
(-0.0175826 0.382554 0)
(-0.0126107 0.354178 0)
(-0.00778899 0.321096 0)
(-0.00382213 0.28552 0)
(-0.000789933 0.249508 0)
(0.00141919 0.214852 0)
(0.00149033 0.182912 0)
(7.0977e-05 0.154201 0)
(-0.00250691 0.127378 0)
(0.00136861 0.103999 0)
(0.00290729 0.0898109 0)
(0.00792751 0.143171 0)
(0.0105716 0.156338 0)
(-0.00581491 0.173622 0)
(-0.0073122 0.196689 0)
(-0.0127961 0.226352 0)
(-0.0215287 0.261771 0)
(-0.0325911 0.300779 0)
(-0.0437361 0.339551 0)
(-0.0533191 0.373654 0)
(-0.0602897 0.399535 0)
(-0.0636478 0.415682 0)
(-0.0634148 0.419613 0)
(-0.0601733 0.411855 0)
(-0.0542686 0.395936 0)
(-0.0465099 0.372338 0)
(-0.0380626 0.343133 0)
(-0.0296726 0.310415 0)
(-0.0218757 0.276214 0)
(-0.0148884 0.242351 0)
(-0.00950452 0.21024 0)
(-0.00703435 0.180555 0)
(-0.00631582 0.15314 0)
(-0.00604485 0.127358 0)
(0.000453619 0.10439 0)
(0.00207324 0.0907236 0)
(0.00342955 0.153578 0)
(0.000602517 0.1673 0)
(-0.0187563 0.18715 0)
(-0.022853 0.211734 0)
(-0.0329452 0.243348 0)
(-0.0467584 0.28034 0)
(-0.0611716 0.319553 0)
(-0.0738331 0.356352 0)
(-0.0833152 0.385411 0)
(-0.0887653 0.403684 0)
(-0.0895889 0.411912 0)
(-0.0869747 0.411972 0)
(-0.081148 0.401103 0)
(-0.072776 0.381302 0)
(-0.0628162 0.355412 0)
(-0.0520688 0.325455 0)
(-0.0411569 0.293444 0)
(-0.0306755 0.261202 0)
(-0.021591 0.230184 0)
(-0.0152711 0.201162 0)
(-0.0115449 0.174104 0)
(-0.00890244 0.1483 0)
(-0.00646809 0.123649 0)
(-0.000405719 0.101241 0)
(0.000692036 0.0881767 0)
(0.00199475 0.173079 0)
(-0.00354714 0.187528 0)
(-0.0265281 0.207502 0)
(-0.0337277 0.233468 0)
(-0.0481662 0.266489 0)
(-0.0639172 0.303973 0)
(-0.0778857 0.34136 0)
(-0.0886778 0.373464 0)
(-0.0959928 0.397417 0)
(-0.0991796 0.411468 0)
(-0.0992097 0.412764 0)
(-0.0954846 0.402789 0)
(-0.0882186 0.386014 0)
(-0.078743 0.362522 0)
(-0.0676915 0.334639 0)
(-0.0556935 0.304377 0)
(-0.0435353 0.273604 0)
(-0.0323881 0.243799 0)
(-0.0236537 0.215825 0)
(-0.0176155 0.189753 0)
(-0.0130021 0.165106 0)
(-0.00854824 0.141045 0)
(-0.00514012 0.116683 0)
(-0.00102586 0.0950977 0)
(-0.000455938 0.0827447 0)
(0.00125188 0.197382 0)
(-0.00555775 0.211334 0)
(-0.0301541 0.232024 0)
(-0.0409 0.258988 0)
(-0.0574383 0.292627 0)
(-0.0713116 0.32891 0)
(-0.0825666 0.362308 0)
(-0.0907113 0.388579 0)
(-0.0953149 0.406976 0)
(-0.0964974 0.41352 0)
(-0.0957052 0.40763 0)
(-0.0909116 0.391643 0)
(-0.0836472 0.369436 0)
(-0.0742064 0.342793 0)
(-0.0631286 0.313443 0)
(-0.0512552 0.283405 0)
(-0.0399534 0.254255 0)
(-0.0305159 0.22691 0)
(-0.0233813 0.201557 0)
(-0.0176811 0.177823 0)
(-0.0124618 0.155116 0)
(-0.00708447 0.132878 0)
(-0.00321971 0.110806 0)
(-0.000990125 0.0906972 0)
(-0.00118668 0.078474 0)
(0.000801047 0.222265 0)
(-0.00639537 0.236078 0)
(-0.0310264 0.25755 0)
(-0.0434324 0.285165 0)
(-0.0584757 0.318534 0)
(-0.0686871 0.352188 0)
(-0.0768957 0.381106 0)
(-0.0825191 0.402218 0)
(-0.0853942 0.411082 0)
(-0.0865681 0.409523 0)
(-0.0839576 0.397991 0)
(-0.0788371 0.379088 0)
(-0.0719959 0.35361 0)
(-0.063064 0.324521 0)
(-0.0528931 0.294363 0)
(-0.0427818 0.264966 0)
(-0.0340498 0.237405 0)
(-0.0270644 0.212034 0)
(-0.0212598 0.188612 0)
(-0.0159345 0.166572 0)
(-0.0108326 0.145356 0)
(-0.00588574 0.124791 0)
(-0.00201696 0.10468 0)
(-0.0011659 0.086198 0)
(-0.00182485 0.073637 0)
(0.000602418 0.244956 0)
(-0.00633574 0.259123 0)
(-0.0293914 0.281299 0)
(-0.040677 0.308924 0)
(-0.0519388 0.340734 0)
(-0.0587319 0.370854 0)
(-0.064192 0.395171 0)
(-0.0675356 0.41011 0)
(-0.0692338 0.413991 0)
(-0.0695242 0.40673 0)
(-0.0671188 0.391395 0)
(-0.0626679 0.368061 0)
(-0.0564117 0.339484 0)
(-0.0485889 0.308845 0)
(-0.040467 0.278447 0)
(-0.0332662 0.249769 0)
(-0.0271569 0.223441 0)
(-0.0218203 0.199489 0)
(-0.0169808 0.17745 0)
(-0.0124106 0.156661 0)
(-0.00818597 0.136732 0)
(-0.00448326 0.117633 0)
(-0.000989743 0.099361 0)
(-0.00119808 0.0819509 0)
(-0.00193241 0.0691076 0)
(0.000904217 0.264002 0)
(-0.00533884 0.278973 0)
(-0.0261487 0.301692 0)
(-0.0347267 0.328371 0)
(-0.041727 0.3576 0)
(-0.0460002 0.384005 0)
(-0.0491383 0.404596 0)
(-0.0507196 0.415484 0)
(-0.0513182 0.415701 0)
(-0.0507979 0.404986 0)
(-0.0483656 0.385106 0)
(-0.0443937 0.358438 0)
(-0.0392371 0.327915 0)
(-0.0335824 0.296393 0)
(-0.0283487 0.265977 0)
(-0.0237104 0.237794 0)
(-0.0193105 0.21224 0)
(-0.0150319 0.189207 0)
(-0.0110643 0.168169 0)
(-0.00749477 0.148468 0)
(-0.00453433 0.129735 0)
(-0.00214847 0.111943 0)
(0.000835178 0.0953721 0)
(-0.000566321 0.0802687 0)
(-0.00157833 0.0669224 0)
(0.00166623 0.278596 0)
(-0.00306016 0.294476 0)
(-0.0218203 0.3173 0)
(-0.0283259 0.342405 0)
(-0.0313176 0.368685 0)
(-0.0333481 0.3919 0)
(-0.0341662 0.408715 0)
(-0.0340317 0.415843 0)
(-0.0334602 0.413585 0)
(-0.0319994 0.401128 0)
(-0.0295892 0.378928 0)
(-0.0266639 0.350585 0)
(-0.0233175 0.319097 0)
(-0.0200959 0.287176 0)
(-0.0171342 0.256717 0)
(-0.0140968 0.228736 0)
(-0.0108464 0.203568 0)
(-0.00747771 0.181134 0)
(-0.00427225 0.160937 0)
(-0.00164812 0.142354 0)
(-2.28546e-06 0.124866 0)
(0.00105057 0.108387 0)
(0.00352731 0.0934278 0)
(-0.000520185 0.080497 0)
(-0.00203257 0.0669819 0)
(0.00244264 0.287231 0)
(-0.00106016 0.304177 0)
(-0.0158593 0.327099 0)
(-0.0201061 0.350629 0)
(-0.0211928 0.374063 0)
(-0.0212986 0.394396 0)
(-0.0202141 0.408671 0)
(-0.018638 0.414393 0)
(-0.0168535 0.410529 0)
(-0.0147797 0.396321 0)
(-0.0127185 0.373249 0)
(-0.0109233 0.344388 0)
(-0.0092846 0.312635 0)
(-0.00779905 0.280639 0)
(-0.00625622 0.250223 0)
(-0.00448831 0.222308 0)
(-0.00235005 0.197257 0)
(0.00010874 0.175201 0)
(0.00263611 0.155757 0)
(0.00445081 0.138326 0)
(0.00507407 0.122109 0)
(0.00490348 0.106889 0)
(0.00658815 0.0934621 0)
(-0.000173421 0.0814187 0)
(-0.00226813 0.0678985 0)
(0.00249064 0.289837 0)
(0.000304654 0.309268 0)
(-0.00746271 0.332585 0)
(-0.00888474 0.354191 0)
(-0.0106736 0.37525 0)
(-0.00996694 0.393145 0)
(-0.00777711 0.405267 0)
(-0.00517375 0.409544 0)
(-0.00231736 0.404924 0)
(0.000183972 0.390695 0)
(0.00190267 0.367993 0)
(0.00298558 0.33963 0)
(0.0034971 0.308389 0)
(0.00366101 0.276772 0)
(0.00388473 0.246502 0)
(0.00436523 0.21856 0)
(0.00536212 0.193472 0)
(0.00673054 0.171644 0)
(0.00826046 0.152829 0)
(0.00915304 0.136468 0)
(0.00906112 0.121513 0)
(0.00804627 0.107587 0)
(0.00757068 0.0957561 0)
(-0.000301368 0.0846666 0)
(-0.00153603 0.0712019 0)
(0.00285828 0.292028 0)
(0.00273462 0.310257 0)
(0.000544648 0.33241 0)
(-5.99409e-05 0.354689 0)
(-0.00211453 0.37385 0)
(-0.000641448 0.389401 0)
(0.00227751 0.399543 0)
(0.00588217 0.402946 0)
(0.0097242 0.398244 0)
(0.0128454 0.384633 0)
(0.0144986 0.36319 0)
(0.0150067 0.336208 0)
(0.0146318 0.306136 0)
(0.0137058 0.275293 0)
(0.0127558 0.24539 0)
(0.0119805 0.217514 0)
(0.0118223 0.192382 0)
(0.0120553 0.170726 0)
(0.0123165 0.152449 0)
(0.0121297 0.137017 0)
(0.0113817 0.12322 0)
(0.010022 0.110561 0)
(0.00720162 0.0999611 0)
(-0.000714566 0.0892212 0)
(-0.000409887 0.075747 0)
(0.00394369 0.287896 0)
(0.00581278 0.309527 0)
(0.00353583 0.332693 0)
(0.00349233 0.352014 0)
(0.00307846 0.369433 0)
(0.00601312 0.382686 0)
(0.00980652 0.391132 0)
(0.0145174 0.39373 0)
(0.0193188 0.389381 0)
(0.0232907 0.377286 0)
(0.0252586 0.358074 0)
(0.0254221 0.3334 0)
(0.0243369 0.305265 0)
(0.0224401 0.275768 0)
(0.0203313 0.246597 0)
(0.018241 0.21894 0)
(0.0168516 0.193779 0)
(0.016085 0.172208 0)
(0.0152151 0.154329 0)
(0.013987 0.139536 0)
(0.0125639 0.126583 0)
(0.0109206 0.115026 0)
(0.00729423 0.105367 0)
(-0.000749897 0.094967 0)
(-4.90752e-05 0.081495 0)
(0.00420719 0.285535 0)
(0.0067412 0.310422 0)
(0.00241895 0.332495 0)
(0.00422169 0.347851 0)
(0.00607839 0.362448 0)
(0.0105236 0.373241 0)
(0.0156661 0.380179 0)
(0.0214292 0.382308 0)
(0.0267831 0.378804 0)
(0.0313061 0.369228 0)
(0.0340241 0.353224 0)
(0.0343884 0.331446 0)
(0.0327741 0.305857 0)
(0.0299548 0.278194 0)
(0.0265935 0.250042 0)
(0.0231738 0.222702 0)
(0.0204839 0.197505 0)
(0.0188212 0.175949 0)
(0.0169723 0.158257 0)
(0.0146371 0.143704 0)
(0.0125706 0.131134 0)
(0.0103585 0.120275 0)
(0.00704625 0.111204 0)
(-0.000312864 0.100526 0)
(8.74349e-05 0.0871452 0)
(-0.0015041 0.286047 0)
(0.000615596 0.307383 0)
(-0.00387454 0.326838 0)
(0.00111796 0.340904 0)
(0.00630644 0.351977 0)
(0.0130753 0.360773 0)
(0.0200324 0.367034 0)
(0.0268203 0.369874 0)
(0.0325573 0.368198 0)
(0.0370896 0.360746 0)
(0.0400831 0.346923 0)
(0.0405557 0.33019 0)
(0.0388115 0.307984 0)
(0.0354439 0.282433 0)
(0.0311576 0.255404 0)
(0.0269662 0.228416 0)
(0.0235173 0.203211 0)
(0.0208572 0.181658 0)
(0.0177349 0.163897 0)
(0.0144185 0.149129 0)
(0.0121003 0.136407 0)
(0.00948299 0.125677 0)
(0.00690023 0.116762 0)
(0.00103387 0.105846 0)
(0.00074631 0.0924813 0)
(-0.0123682 0.287665 0)
(-0.0121004 0.301888 0)
(-0.00986541 0.314318 0)
(-0.000379748 0.32573 0)
(0.0083441 0.335557 0)
(0.0171445 0.344509 0)
(0.0250641 0.352011 0)
(0.0320188 0.356988 0)
(0.0375536 0.358403 0)
(0.0413345 0.353036 0)
(0.043033 0.34512 0)
(0.0428907 0.331099 0)
(0.041254 0.311363 0)
(0.0378942 0.28783 0)
(0.033618 0.261923 0)
(0.0297154 0.235387 0)
(0.0262643 0.210368 0)
(0.0222001 0.188841 0)
(0.0174141 0.170731 0)
(0.0135296 0.155285 0)
(0.0111223 0.141888 0)
(0.0082074 0.130686 0)
(0.00618646 0.121383 0)
(2.81253e-05 0.110227 0)
(3.9365e-05 0.0966474 0)
(-0.00969297 0.291221 0)
(-0.00946681 0.295534 0)
(-0.00108761 0.300642 0)
(0.00810601 0.3091 0)
(0.0166641 0.319301 0)
(0.024496 0.329678 0)
(0.0311614 0.339273 0)
(0.0366138 0.346872 0)
(0.0407612 0.351028 0)
(0.0430286 0.352776 0)
(0.0435911 0.347564 0)
(0.0430672 0.333572 0)
(0.041262 0.315851 0)
(0.0382153 0.294039 0)
(0.0346389 0.269157 0)
(0.0313925 0.24323 0)
(0.0277922 0.218697 0)
(0.0224109 0.197212 0)
(0.0167436 0.178582 0)
(0.0127591 0.162211 0)
(0.0101045 0.147928 0)
(0.00690188 0.136021 0)
(0.00507571 0.126025 0)
(-0.00280251 0.114247 0)
(-0.0019111 0.100698 0)
(-0.00373643 0.286998 0)
(-0.000671072 0.285566 0)
(0.00924034 0.290653 0)
(0.0162616 0.298412 0)
(0.0230166 0.308653 0)
(0.0291937 0.319976 0)
(0.0344372 0.331182 0)
(0.0385157 0.340884 0)
(0.0411548 0.347246 0)
(0.0426914 0.351075 0)
(0.0428376 0.347428 0)
(0.0419279 0.336495 0)
(0.0398123 0.321244 0)
(0.0371612 0.300788 0)
(0.0342896 0.276805 0)
(0.0315283 0.251622 0)
(0.0274942 0.227691 0)
(0.0215878 0.206197 0)
(0.0163199 0.18694 0)
(0.0125678 0.169573 0)
(0.00979506 0.154424 0)
(0.0066688 0.141863 0)
(0.00494406 0.131361 0)
(-0.0040014 0.119054 0)
(-0.00290565 0.105958 0)
(-0.00196622 0.28383 0)
(0.00105503 0.281029 0)
(0.0119878 0.283235 0)
(0.0178277 0.290388 0)
(0.0238495 0.300785 0)
(0.0295305 0.312991 0)
(0.0344258 0.325733 0)
(0.037938 0.337432 0)
(0.0398241 0.346476 0)
(0.0402883 0.34975 0)
(0.0402598 0.34842 0)
(0.0389292 0.341242 0)
(0.0371275 0.326757 0)
(0.0350163 0.307134 0)
(0.0329257 0.283973 0)
(0.0305977 0.259688 0)
(0.0262563 0.236488 0)
(0.0206579 0.215048 0)
(0.016189 0.195144 0)
(0.0127486 0.176837 0)
(0.0100899 0.160898 0)
(0.00751726 0.147745 0)
(0.00614409 0.136904 0)
(-0.00232052 0.124353 0)
(-0.00203611 0.111563 0)
(-0.00093438 0.277691 0)
(0.00228738 0.272729 0)
(0.0129919 0.275267 0)
(0.0175663 0.283145 0)
(0.0229729 0.294392 0)
(0.0282364 0.307796 0)
(0.0326679 0.322119 0)
(0.0353819 0.335613 0)
(0.0365016 0.346481 0)
(0.0366522 0.352519 0)
(0.0360365 0.350761 0)
(0.0351482 0.344106 0)
(0.0339354 0.330878 0)
(0.0327029 0.3123 0)
(0.0316043 0.29011 0)
(0.0295002 0.267012 0)
(0.0251752 0.244651 0)
(0.0203184 0.223341 0)
(0.0164476 0.202922 0)
(0.01324 0.183891 0)
(0.0104962 0.167277 0)
(0.00838877 0.153617 0)
(0.00781817 0.142569 0)
(0.000192086 0.130224 0)
(-0.000764906 0.117237 0)
(0.00132874 0.266564 0)
(0.00475641 0.263549 0)
(0.0145435 0.267712 0)
(0.0178817 0.276959 0)
(0.0225533 0.289469 0)
(0.0266191 0.304151 0)
(0.029406 0.319855 0)
(0.0307181 0.3347 0)
(0.031087 0.346182 0)
(0.0312109 0.352051 0)
(0.0312233 0.352853 0)
(0.0311093 0.34709 0)
(0.0309782 0.334129 0)
(0.0310514 0.315364 0)
(0.0308609 0.295232 0)
(0.0287681 0.273431 0)
(0.0247847 0.252025 0)
(0.020785 0.230983 0)
(0.0173349 0.21033 0)
(0.0141993 0.190898 0)
(0.0110592 0.1738 0)
(0.00865236 0.159797 0)
(0.00874578 0.14864 0)
(0.00135445 0.136795 0)
(-0.000372292 0.123705 0)
(0.00474381 0.254447 0)
(0.00918244 0.254598 0)
(0.0171788 0.26123 0)
(0.0191345 0.272197 0)
(0.022281 0.285935 0)
(0.0241986 0.301716 0)
(0.0250566 0.31837 0)
(0.0253605 0.333916 0)
(0.025646 0.34604 0)
(0.026208 0.352889 0)
(0.0270236 0.353229 0)
(0.0280116 0.346906 0)
(0.029097 0.334079 0)
(0.0302725 0.317905 0)
(0.030568 0.297868 0)
(0.0284359 0.278643 0)
(0.0250869 0.258302 0)
(0.0219929 0.237726 0)
(0.0189593 0.217217 0)
(0.0158655 0.197748 0)
(0.0125688 0.180466 0)
(0.00914761 0.166301 0)
(0.00895392 0.155261 0)
(0.0015918 0.144161 0)
(-0.000439693 0.131296 0)
(0.00561996 0.244595 0)
(0.0102202 0.247769 0)
(0.016696 0.256423 0)
(0.0179478 0.268894 0)
(0.019646 0.283564 0)
(0.0201786 0.30001 0)
(0.0201232 0.317021 0)
(0.0201806 0.332585 0)
(0.0208475 0.3445 0)
(0.0221819 0.350947 0)
(0.0241522 0.351371 0)
(0.0261276 0.345597 0)
(0.028188 0.333708 0)
(0.0298928 0.31886 0)
(0.0301935 0.301134 0)
(0.0284726 0.282412 0)
(0.0260144 0.263216 0)
(0.0236396 0.243387 0)
(0.0209879 0.223396 0)
(0.0179635 0.204253 0)
(0.0147535 0.187116 0)
(0.0107207 0.172897 0)
(0.00984124 0.162063 0)
(0.00127535 0.151595 0)
(-0.00101812 0.139157 0)
(0.00258787 0.237482 0)
(0.00617114 0.241995 0)
(0.013066 0.251928 0)
(0.0147063 0.265591 0)
(0.0157018 0.281265 0)
(0.0155787 0.298226 0)
(0.0151801 0.315229 0)
(0.0155104 0.330317 0)
(0.0168562 0.341554 0)
(0.0190219 0.347506 0)
(0.0217341 0.347486 0)
(0.0247344 0.342379 0)
(0.0278111 0.333629 0)
(0.0300066 0.319271 0)
(0.0302818 0.30226 0)
(0.02903 0.284936 0)
(0.0273644 0.26706 0)
(0.0254329 0.248251 0)
(0.0230369 0.229084 0)
(0.0200026 0.210556 0)
(0.0166016 0.193803 0)
(0.0124761 0.179658 0)
(0.0109224 0.169077 0)
(0.000865249 0.159094 0)
(-0.00136171 0.147081 0)
(1.29391e-05 0.230212 0)
(0.00230923 0.235424 0)
(0.0100501 0.24649 0)
(0.0125749 0.26161 0)
(0.0123211 0.278549 0)
(0.0111615 0.295924 0)
(0.011015 0.312621 0)
(0.0122534 0.32694 0)
(0.0144646 0.337338 0)
(0.0173278 0.342686 0)
(0.0205854 0.342697 0)
(0.0240146 0.33772 0)
(0.0275445 0.329477 0)
(0.0300461 0.315781 0)
(0.0303792 0.303399 0)
(0.0295671 0.286946 0)
(0.0284391 0.270341 0)
(0.0268033 0.252691 0)
(0.0245571 0.234556 0)
(0.021511 0.216878 0)
(0.0176947 0.200755 0)
(0.0133391 0.186977 0)
(0.0110736 0.176716 0)
(0.00039196 0.167152 0)
(-0.00128476 0.155688 0)
(-0.000385187 0.222661 0)
(0.00122601 0.228335 0)
(0.00889793 0.240279 0)
(0.0118811 0.256705 0)
(0.0103598 0.274912 0)
(0.00825509 0.292817 0)
(0.00864234 0.30904 0)
(0.0107619 0.322517 0)
(0.0138107 0.332164 0)
(0.0173422 0.337179 0)
(0.0209895 0.337371 0)
(0.0244239 0.332972 0)
(0.0274896 0.323205 0)
(0.0290425 0.3129 0)
(0.0296275 0.30161 0)
(0.0293152 0.288421 0)
(0.0285645 0.273212 0)
(0.0271969 0.256851 0)
(0.02509 0.239927 0)
(0.0221769 0.223317 0)
(0.018205 0.208033 0)
(0.0136345 0.194914 0)
(0.0105293 0.18505 0)
(-3.98938e-05 0.175938 0)
(-0.00097947 0.164826 0)
(-1.15315e-06 0.215658 0)
(0.00144037 0.22142 0)
(0.00787794 0.233798 0)
(0.010943 0.25114 0)
(0.0107271 0.270388 0)
(0.00894719 0.288768 0)
(0.0089654 0.304605 0)
(0.0111986 0.317338 0)
(0.014516 0.326418 0)
(0.0182663 0.331306 0)
(0.0218031 0.331886 0)
(0.0249393 0.328461 0)
(0.0269725 0.321072 0)
(0.0280567 0.315047 0)
(0.0282122 0.300686 0)
(0.0282054 0.289435 0)
(0.0277525 0.27559 0)
(0.0266797 0.260554 0)
(0.0248243 0.244921 0)
(0.0222158 0.229501 0)
(0.0187972 0.215172 0)
(0.0139279 0.202824 0)
(0.00972067 0.193336 0)
(-0.000640102 0.184368 0)
(-0.00108577 0.173677 0)
(0.000206824 0.209748 0)
(0.00120525 0.215599 0)
(0.00577663 0.227991 0)
(0.00891654 0.245685 0)
(0.0111236 0.265585 0)
(0.0114842 0.28429 0)
(0.011281 0.300045 0)
(0.0126526 0.312287 0)
(0.0154387 0.320995 0)
(0.0186338 0.325891 0)
(0.0215186 0.326926 0)
(0.0240865 0.324433 0)
(0.0255214 0.320418 0)
(0.0268705 0.312119 0)
(0.0270384 0.303942 0)
(0.026907 0.290443 0)
(0.0264786 0.277683 0)
(0.0254975 0.263844 0)
(0.0238503 0.249415 0)
(0.0215063 0.23514 0)
(0.0188091 0.221825 0)
(0.0139815 0.210179 0)
(0.00878061 0.201249 0)
(-0.00124876 0.192132 0)
(-0.00119556 0.181714 0)
(0.000288352 0.204851 0)
(0.000992714 0.210928 0)
(0.00324603 0.223204 0)
(0.00613721 0.240804 0)
(0.00984861 0.260826 0)
(0.0122401 0.27972 0)
(0.0129588 0.295503 0)
(0.0135028 0.307669 0)
(0.0153781 0.316249 0)
(0.0178615 0.321295 0)
(0.0202934 0.32311 0)
(0.0222819 0.321334 0)
(0.0240136 0.317686 0)
(0.024553 0.308785 0)
(0.0251537 0.302238 0)
(0.0248718 0.291435 0)
(0.0243473 0.279719 0)
(0.0233751 0.266884 0)
(0.0219388 0.253444 0)
(0.0199133 0.240103 0)