/*--------------------------------*- C++ -*----------------------------------*\
| =========                 |                                                 |
| \\      /  F ield         | OpenFOAM: The Open Source CFD Toolbox           |
|  \\    /   O peration     | Version:  2312                                  |
|   \\  /    A nd           | Website:  www.openfoam.com                      |
|    \\/     M anipulation  |                                                 |
\*---------------------------------------------------------------------------*/
FoamFile
{
    version     2.0;
    format      ascii;
    arch        "LSB;label=32;scalar=64";
    class       volScalarField;
    location    "0.565/water";
    object      Tf.gasAndLiquid;
}
// * * * * * * * * * * * * * * * * * * * * * * * * * * * * * * * * * * * * * //

dimensions      [0 0 0 1 0 0 0];

internalField   nonuniform List<scalar> 
1497
(
300.344240829
300.262681381
300.20478207
300.163295224
300.130037494
300.099239276
300.069770975
300.042931918
300.02101535
300.00715284
300.001545601
300.000215862
300.00001741
314.58191907
306.952218723
303.410284283
301.863935646
301.137870868
300.753494873
300.52572078
300.384403943
300.292537732
300.232870075
300.190521455
300.155452795
300.121691469
300.08849221
300.057331869
300.030412982
300.011614058
300.002919451
300.000501135
300.000061788
318.812061453
310.577004827
305.695923416
303.060400599
301.741174699
301.056392646
300.683794422
300.478856271
300.360054083
300.285873859
300.232353485
300.189350919
300.149221143
300.110510256
300.074297074
300.042057419
300.017685192
300.005039982
300.0010112
300.000161155
332.941341387
315.299547403
307.372331439
303.783846009
302.128172076
301.295781923
300.848381506
300.603192938
300.460592837
300.363183538
300.28764127
300.228971846
300.178501483
300.132710164
300.091228343
300.054218464
300.02461417
300.007759816
300.001762776
300.00033833
347.971951739
316.954853658
307.309809584
303.678342873
302.120200038
301.34469906
300.918253301
300.675838204
300.52828577
300.421977292
300.3344542
300.263952533
300.20386461
300.151322687
300.105289917
300.064695895
300.031138849
300.010654664
300.002695769
300.000607617
351.664219984
316.469853057
306.436396008
303.148921506
301.871017535
301.248139576
300.8943402
300.682958349
300.546602971
300.443032105
300.355158037
300.281949729
300.218918777
300.163415325
300.114775937
300.072105354
300.036195341
300.013258358
300.003718952
300.000978019
350.337346727
314.483776782
305.140833211
302.454644422
301.527018748
301.086881302
300.823756084
300.655077729
300.537303123
300.442000146
300.358746627
300.287393944
300.224480425
300.168572356
300.119444174
300.076172842
300.039370547
300.015274679
300.004736393
300.001446689
344.924559354
311.591342703
303.72275139
301.783776467
301.198403364
300.921177688
300.741992074
300.614409194
300.515712119
300.430658264
300.354049399
300.285893634
300.22433829
300.169213431
300.120557645
300.077363898
300.04057766
300.016546335
300.005695841
300.002012822
333.749322401
308.362792853
302.549072094
301.294724052
300.949802564
300.785955354
300.669371552
300.574682571
300.492922372
300.417230587
300.34552728
300.280524982
300.220958144
300.167348128
300.119615937
300.076613741
300.040459928
300.017267158
300.006594377
300.002658044
325.357974307
308.442405966
302.237503845
301.109291268
300.838934996
300.711547174
300.618408005
300.542054648
300.471400796
300.402421294
300.335413158
300.273506003
300.216411456
300.164645239
300.117657842
300.074697836
300.039716209
300.017766166
300.007475669
300.003338381
320.70665652
308.209171107
302.519285998
301.074305486
300.795917633
300.66796902
300.583313854
300.516266952
300.452771114
300.389190271
300.326287718
300.267342584
300.212595442
300.162176559
300.115148089
300.072549166
300.039000956
300.01824558
300.008297511
300.004090284
318.970040257
307.708661635
302.768691029
301.157947072
300.792424772
300.654827054
300.566312701
300.500169615
300.439469365
300.379168726
300.319485295
300.263094214
300.209986735
300.159848994
300.112739243
300.070936556
300.038604748
300.018600639
300.00910089
300.005147433
318.41577131
307.398792086
302.94368178
301.295878784
300.84022407
300.677596943
300.568281604
300.494705478
300.432500752
300.373313382
300.315746105
300.260839411
300.208275497
300.158161256
300.111284366
300.070061374
300.038120649
300.018910559
300.010606862
300.006398461
318.705028931
307.142328171
303.006886693
301.433902905
300.923039809
300.73742573
300.596545508
300.500717576
300.431779417
300.371452955
300.314746821
300.260444192
300.208107711
300.157969472
300.110805999
300.069001717
300.037591075
300.020619354
300.012596344
300.007662428
321.841985237
307.484516817
303.275568275
301.688296978
301.089111308
300.85340086
300.667376036
300.530088825
300.439063309
300.373315344
300.316215044
300.262146507
300.209779398
300.158894743
300.109984587
300.067791796
300.039009569
300.023334085
300.014594997
300.008821431
328.746843054
309.530246903
304.10229065
302.14040212
301.350055012
301.001937734
300.781277163
300.589469573
300.459559473
300.379405171
300.319639181
300.265369299
300.212534155
300.159673317
300.109040618
300.06839286
300.041727
300.026037775
300.016329721
300.009826628
332.99942972
311.66291026
305.097370857
302.660342132
301.639845825
301.163724108
300.867951284
300.64717062
300.480207586
300.386264935
300.323498863
300.268751135
300.215138462
300.160015513
300.109234678
300.070269656
300.044487239
300.028259375
300.017752282
300.010698015
335.302111243
312.932713651
305.663911212
302.937326644
301.784538072
301.228524396
300.888765713
300.646807018
300.483234926
300.389505652
300.326226959
300.271029765
300.216512051
300.160341309
300.110108849
300.072256601
300.046689542
300.030007123
300.018999751
300.011476226
336.326405988
313.326708385
305.736791587
302.927454865
301.759708459
301.195340463
300.855284342
300.624595569
300.476381523
300.389628723
300.327324947
300.27168009
300.216554334
300.16019172
300.110718376
300.073715216
300.048438448
300.03157562
300.020214417
300.012267291
336.413686931
313.026961229
305.399477233
302.695876149
301.615921712
301.100682814
300.795243814
300.594612336
300.467341904
300.388051403
300.326865054
300.27080549
300.215340333
300.159222043
300.11085644
300.07496553
300.050176735
300.033307553
300.02156095
300.013184623
335.810105424
311.943031383
304.616246569
302.289909221
301.402876988
300.979489749
300.726851641
300.567619784
300.458619875
300.385587437
300.325236035
300.268749475
300.213243296
300.158012907
300.111142409
300.076605879
300.052315148
300.035454814
300.023196498
300.014338289
334.569917532
310.332776689
303.807307746
301.904469458
301.214052767
300.881612201
300.678341623
300.544787494
300.451213578
300.38287558
300.322956133
300.266108796
300.210890279
300.157206478
300.112094778
300.079037763
300.055172515
300.038145016
300.025263417
300.015866366
332.73670514
308.790210955
303.074241201
301.570441642
301.057123116
300.801046332
300.645164319
300.527687145
300.446220912
300.380682626
300.320736908
300.263536237
300.208812996
300.157129912
300.114038741
300.082348626
300.058949125
300.041523293
300.027933461
300.017991176
329.528010614
307.835661459
302.57129576
301.336325693
300.946512659
300.754631966
300.617696425
300.517210631
300.443654014
300.379538708
300.319163501
300.26141803
300.207242246
300.157859622
300.117113691
300.08670327
300.063730608
300.045798786
300.031515936
300.021009822
324.650266062
308.550702903
302.67457397
301.234753689
300.885305227
300.718313676
300.598165504
300.511861861
300.443158909
300.379643703
300.318340681
300.260064454
300.206709721
300.15972878
300.121465851
300.092356151
300.069702275
300.051372455
300.036499502
300.025231351
320.642203663
308.611257943
303.003455279
301.254672818
300.854843615
300.693585449
300.587426911
300.510221562
300.443895169
300.380039275
300.317978322
300.260025686
300.208159402
300.163615462
300.127582003
300.099638229
300.077359222
300.05881803
300.043330284
300.030945884
318.651739302
308.126608016
303.088408527
301.26586335
300.846318604
300.689799364
300.586699718
300.511869256
300.445632055
300.381059999
300.319050306
300.26221025
300.212292849
300.170147115
300.136098017
300.109181949
300.087216789
300.068453319
300.052171651
300.038323232
317.906747127
307.63858913
303.11594303
301.330287199
300.875884894
300.71546159
300.60071078
300.519610904
300.451032093
300.385743978
300.324109388
300.268445509
300.220244994
300.179975154
300.147370108
300.121147632
300.099296913
300.080161033
300.062881932
300.047353629
317.791122757
307.388011857
303.230242941
301.498471921
300.979078308
300.780996537
300.640336579
300.541103284
300.464884886
300.397518576
300.335752894
300.28062724
300.233234746
300.193764686
300.16160998
300.135387466
300.113298015
300.093667779
300.075218243
300.057771425
318.070599685
307.326294078
303.398211133
301.73993327
301.154981727
300.904077206
300.725840874
300.593516695
300.496163686
300.420172706
300.355726379
300.299649426
300.251678074
300.21163659
300.178816764
300.152043344
300.129369277
300.108658021
300.088635421
300.068997139
320.650242374
307.675157648
303.711146354
302.079593788
301.415640125
301.110211936
300.885058155
300.705012529
300.566729028
300.464818783
300.388162007
300.326925044
300.276267219
300.234334219
300.20003479
300.171889828
300.147396946
300.124598458
300.102320723
300.080143808
328.60945027
309.833215444
304.609473287
302.639316
301.795986635
301.372193362
301.092137064
300.864554993
300.67644349
300.535502623
300.435563202
300.362822158
300.306725642
300.261849828
300.225064513
300.193917302
300.1661739
300.140169479
300.114967367
300.090080693
336.946900774
312.46256491
305.685370251
303.216290954
302.14581764
301.589930723
301.231993341
300.970203903
300.761393403
300.598833871
300.482153672
300.399787005
300.338367061
300.289674335
300.249143219
300.214096937
300.182553184
300.153072131
300.124820416
300.097322398
341.221751427
313.96455572
306.117087909
303.380324775
302.218187115
301.613587134
301.235626892
300.967450979
300.765668822
300.617071952
300.506221488
300.424279027
300.361121555
300.30982119
300.266331769
300.228147601
300.193483048
300.161075015
300.130204176
300.100538742
341.804145866
312.805013666
305.164513687
302.850095012
301.924689167
301.432105137
301.117871062
300.894883729
300.729291508
300.605080187
300.508193671
300.432092086
300.370493028
300.318786722
300.273965258
300.233948401
300.19719935
300.162674381
300.129864394
300.098778664
336.699239205
309.781434584
303.686441762
302.154244064
301.536630576
301.191232178
300.974546528
300.810874309
300.682195693
300.57889793
300.494840826
300.425503176
300.366984207
300.316413726
300.271627779
300.230908501
300.192978938
300.157081318
300.123057263
300.091740165
333.941339534
308.564274968
303.172542381
301.77432934
301.267520879
301.021978455
300.861338726
300.73614622
300.632967988
300.546300298
300.472620018
300.409177435
300.353911603
300.305043476
300.260858147
300.219870794
300.181082229
300.14423986
300.110126487
300.080514767
328.441452266
308.774160048
303.671387927
301.952933848
301.231412189
300.941946927
300.788334709
300.679649026
300.591025574
300.514579265
300.447316214
300.387782618
300.334873501
300.287208762
300.243173644
300.201550037
300.162089584
300.125643579
300.093755457
300.068095072
300.000000523
300.000000515
300.000000876
300.000000891
300.000001234
300.000004943
300.000008403
300.000010143
300.000010835
300.00001277
300.000016694
300.000021145
300.000024245
300.000027297
300.000032283
300.00003626
300.000039717
300.00004153
300.000040499
300.000036573
300.000004023
300.000000374
300.000000601
300.000000754
300.000000669
300.00000115
300.000003191
300.000005058
300.000007097
300.000010223
300.000014935
300.000019069
300.000022741
300.000027687
300.000031712
300.000035341
300.000038297
300.000040112
300.000040161
300.000036985
300.00002251
300.000002277
300.000000315
300.000000417
300.000000357
300.000000343
300.000000468
300.000001659
300.000004019
300.000007467
300.000013156
300.000015702
300.000022989
300.000028192
300.000032024
300.000034742
300.000037281
300.000039352
300.000040201
300.000037406
300.000068574
300.000016275
300.000003229
300.000000156
300.000000083
300.000000021
300.000000053
300.000000516
300.000002276
300.000005797
300.00000916
300.000015714
300.000021487
300.000026822
300.000031781
300.000035657
300.000037194
300.000039023
300.000040501
300.000037685
300.000157773
300.000051711
300.000017892
300.000004573
300.000000023
300
300
300.000000017
300.000000983
300.00000483
300.00000878
300.000014243
300.000019817
300.000025896
300.000031584
300.000036484
300.000039399
300.000040899
300.000041978
300.000039103
300.00030678
300.000119631
300.000051069
300.000019791
300.000005767
300.000000529
300
300
300.000000198
300.000002561
300.000008476
300.000011789
300.000018282
300.000025218
300.000031677
300.000036751
300.000040543
300.000043173
300.000043597
300.000040827
300.000528584
300.000232175
300.000110289
300.000049954
300.000020389
300.000006962
300.000001228
300
300
300.000000922
300.000005394
300.000009871
300.000017041
300.000024872
300.000032337
300.000038086
300.000042055
300.00004485
300.000045751
300.000043102
300.000829645
300.000399064
300.000202184
300.000098687
300.000045543
300.000019752
300.000006947
300.000000773
300
300.000000183
300.000003079
300.000008358
300.000016067
300.000024911
300.000033564
300.000040202
300.000044741
300.000047753
300.000048932
300.00004623
300.001205991
300.000626327
300.000329913
300.000166942
300.000081522
300.000038909
300.000016792
300.000004506
300
300.000000003
300.000001685
300.00000709
300.0000153
300.000025304
300.000035399
300.000043161
300.000048434
300.000051812
300.000053166
300.000050308
300.001674613
300.000917056
300.000490965
300.000252676
300.000127428
300.000064234
300.000030626
300.000010876
300.000000939
300
300.000000922
300.000005955
300.000014676
300.000026029
300.000037898
300.00004708
300.000053238
300.000057046
300.000058555
300.000055441
300.002270794
300.001264494
300.000677146
300.000352175
300.000181966
300.000095536
300.00004854
300.000020069
300.000004107
300
300.000000452
300.000004834
300.000013997
300.00002701
300.000041152
300.00005212
300.000059312
300.00006358
300.000065216
300.000061736
300.002964743
300.001644509
300.000879108
300.000461864
300.000244204
300.000132958
300.000070943
300.000032542
300.000009604
300
300.000000115
300.000003571
300.000012897
300.000028063
300.000045254
300.000058479
300.000066853
300.000071573
300.000073276
300.000069297
300.003689496
300.0020346
300.001089904
300.000578922
300.000314147
300.000177031
300.00009847
300.000049056
300.000017988
300.000001289
300
300.000002257
300.000011379
300.000029366
300.000050623
300.000066593
300.000076227
300.000081312
300.000082918
300.000078292
300.004391169
300.002419859
300.001302441
300.000702132
300.000393052
300.000229268
300.000132483
300.000070504
300.000029015
300.000006731
300.000001363
300.000001832
300.000010632
300.00003208
300.000058349
300.000077263
300.000088022
300.000093178
300.000094448
300.000089037
300.005041627
300.002783672
300.001512138
300.000833325
300.000484037
300.000292623
300.00017546
300.000098478
300.000044546
300.000020277
300.000009356
300.000004762
300.000012357
300.000037953
300.000070034
300.000091479
300.000102857
300.000107578
300.0001082
300.000101924
300.005622193
300.003117143
300.001720011
300.000980246
300.000593977
300.000372621
300.000231457
300.00013449
300.000073602
300.000045044
300.000024915
300.000012283
300.000017867
300.000048976
300.000087498
300.000110172
300.000121167
300.000124907
300.000124463
300.00011731
300.006129321
300.003433533
300.001941197
300.001158204
300.000734633
300.000478129
300.000306502
300.000188628
300.000125677
300.000084935
300.000049015
300.000024889
300.000028218
300.000067286
300.000112164
300.000133919
300.000143249
300.000145351
300.000143526
300.000135409
300.006611247
300.003766188
300.002211453
300.001391261
300.000922976
300.000621279
300.000411779
300.000284866
300.000206859
300.000142051
300.000082237
300.000043084
300.000044776
300.000095316
300.000144343
300.000162828
300.000168995
300.00016882
300.000165509
300.000156391
300.007137349
300.004172603
300.00257827
300.001709498
300.001179995
300.000820674
300.0005782
300.000433852
300.000324583
300.000218189
300.000125319
300.000068024
300.000069846
300.000134704
300.000183659
300.00019671
300.000197772
300.000195201
300.000190366
300.000180164
300.00779068
300.00473553
300.003090394
300.002145047
300.001533618
300.001111875
300.000839372
300.000650881
300.000481299
300.000315957
300.000180269
300.000100849
300.000105654
300.000186949
300.000231384
300.000233519
300.000228896
300.000224333
300.000218312
300.000206364
300.00868353
300.005537954
300.003797425
300.002738927
300.002030007
300.001543171
300.001204461
300.000943802
300.000684126
300.000438477
300.000246723
300.000141768
300.00015554
300.000255606
300.000282022
300.000271669
300.000262438
300.000256829
300.000250243
300.000237217
300.009953697
300.00664741
300.00474485
300.003539855
300.00271999
300.002138517
300.001704251
300.001325795
300.000935746
300.000583035
300.000324108
300.000192303
300.000224615
300.00033139
300.000332129
300.000310971
300.000299474
300.000294606
300.000288722
300.000275157
300.011736802
300.008125973
300.005988005
300.004606569
300.003640563
300.002914142
300.002348871
300.001802922
300.001230444
300.000746989
300.000411695
300.000253846
300.000311419
300.000409283
300.000381315
300.000352967
300.000342609
300.000340423
300.000337391
300.000324183
300.014160472
300.010060462
300.007601944
300.005982628
300.004801927
300.003887968
300.003144206
300.002357433
300.001560541
300.000933131
300.00049424
300.000332319
300.000415602
300.000485075
300.000431027
300.000400401
300.000395623
300.000398792
300.000400585
300.000388158
300.017399325
300.012578318
300.009652827
300.007666346
300.00620028
300.005057509
300.004064936
300.002956575
300.001921136
300.001115585
300.000588793
300.000434518
300.000533209
300.000556751
300.000482782
300.000455645
300.000460568
300.000471891
300.000480867
300.000471277
300.021713389
300.015820811
300.012143101
300.009650689
300.007813613
300.006390902
300.005049506
300.00357647
300.002300366
300.00128271
300.000696541
300.000564922
300.000658456
300.000624893
300.000539833
300.000522552
300.000538764
300.000560134
300.000577652
300.000571133
300.027373077
300.019839773
300.015119253
300.011921905
300.009601313
300.007814228
300.006038634
300.004204968
300.002652912
300.00145614
300.000824669
300.000725726
300.000786883
300.000695323
300.000607877
300.000603396
300.000630529
300.000662061
300.00068492
300.00067986
300.034362271
300.024753491
300.018587753
300.014439774
300.011495403
300.009230946
300.006982274
300.004819216
300.002958591
300.001635144
300.000984598
300.000916199
300.000920205
300.000776396
300.000690736
300.000698691
300.000735723
300.000779182
300.000808484
300.000805062
300.042501802
300.030492789
300.022474691
300.017125007
300.013394697
300.010556635
300.007856095
300.005375599
300.0032434
300.001820628
300.001191893
300.001134727
300.001061279
300.000869265
300.000790711
300.000812542
300.000863251
300.000918091
300.000955794
300.000953834
300.051301324
300.036780367
300.026596216
300.019819288
300.015184779
300.011734371
300.008627599
300.005835826
300.003496495
300.002020889
300.001461702
300.001380119
300.001205656
300.000965315
300.000907841
300.000949275
300.001016969
300.001085886
300.001136526
300.001139678
300.059891385
300.043018981
300.030613853
300.022314618
300.016752195
300.012714486
300.009232361
300.006188747
300.003702426
300.00226043
300.001800351
300.001637709
300.001325882
300.001070807
300.001048024
300.001108011
300.001197738
300.001290527
300.001364385
300.001375252
300.067244168
300.04831836
300.034036487
300.024390389
300.018000343
300.013443621
300.00963078
300.006405101
300.003868755
300.002579599
300.002182078
300.001854979
300.001437297
300.001217199
300.001212845
300.001301816
300.001435202
300.001559172
300.001662691
300.001683781
300.072260109
300.051773595
300.036327855
300.025834437
300.018847149
300.013867265
300.009781495
300.00644702
300.004055345
300.003006432
300.002544966
300.002061182
300.001603932
300.00139318
300.001416645
300.001574517
300.001763662
300.001919618
300.002059085
300.002093224
300.073981546
300.052780486
300.037133931
300.026469849
300.019175234
300.013872649
300.00969964
300.006363345
300.004369632
300.003516855
300.002933646
300.002303013
300.001770924
300.001599183
300.001716125
300.001967388
300.002210768
300.002391264
300.002576984
300.002617924
300.071865519
300.051212886
300.036414344
300.026129419
300.018757964
300.013355544
300.009373222
300.006402439
300.004953309
300.004152598
300.003356596
300.002502167
300.001931356
300.001885488
300.002163535
300.002539271
300.002801345
300.003003828
300.00322682
300.003256339
300.066087545
300.047412494
300.034176706
300.024513734
300.017308686
300.01234667
300.009095802
300.00708756
300.005940854
300.004906323
300.003719988
300.00263094
300.002162649
300.002350358
300.002803248
300.003287281
300.003545369
300.003763062
300.004003269
300.003998826
300.057946131
300.042110878
300.030392407
300.021288628
300.015065064
300.011744372
300.009943599
300.008538883
300.007173562
300.005587074
300.003962492
300.002771377
300.002521332
300.002977869
300.003653065
300.00416031
300.004432145
300.004647225
300.004860012
300.004819681
300.049671678
300.036069938
300.024900115
300.01754796
)
;

boundaryField
{
    emptyPatch
    {
        type            empty;
    }
    minY
    {
        type            calculated;
        value           nonuniform List<scalar> 0();
    }
    maxY
    {
        type            calculated;
        value           nonuniform List<scalar> 0();
    }
    maxX
    {
        type            calculated;
        value           nonuniform List<scalar> 
37
(
300
300
300
300
300
300
300
300
300
300
300
300
300
300
300
300
300
300
300
300
300
300
300
300
300
300
300
300
300
300
300
300
300
300
300
300
300
)
;
    }
    water_to_heater
    {
        type            calculated;
        value           nonuniform List<scalar> 
60
(
792.305938391
792.374587113
792.370177228
792.417804082
792.468388397
792.468090541
792.590378919
792.545640117
792.544939983
792.467548034
792.444076538
792.371875701
792.284114785
792.254589139
792.187557618
792.192632264
792.190073204
792.244097574
792.243165354
792.324021929
792.324266699
792.419292579
792.434831986
792.590419464
792.608953953
792.662901284
792.665487145
792.70582482
792.710189918
792.734322806
792.732428928
792.739585572
792.736548939
792.736461806
792.734074048
792.722434903
792.692662975
792.68883244
792.63668605
792.641385575
792.63788751
792.669944872
792.668631051
792.693500602
792.693014252
792.707460234
792.707542432
792.72083048
792.786328417
792.767725882
792.83675964
792.78854561
792.798102224
792.746863317
792.748121858
792.676773124
792.663281029
792.605730254
792.534301744
792.509144349
)
;
    }
    procBoundary1to0
    {
        type            processor;
        value           nonuniform List<scalar> 
41
(
322.185617025
309.623629244
304.640025431
302.490795947
301.420636496
300.956909127
300.755948418
300.641620273
300.556739749
300.484580984
300.420439051
300.362952924
300.311123571
300.263570548
300.219061943
300.17738679
300.1392958
300.10590329
300.078540334
300.057901089
300.014415915
300.012980935
300.011627917
300.010084229
300.008189804
300.006068384
300.004096799
300.002964517
300.003028409
300.003770857
300.004660582
300.0051586
300.005415323
300.005619742
300.005758526
300.005664524
300.04270311
300.029702
300.021574468
300.014415915
300.018010877
)
;
    }
    procBoundary1to3
    {
        type            processor;
        value           nonuniform List<scalar> 
41
(
300.34704385
300.258307067
300.194358234
300.148570135
300.113334881
300.083053974
300.055717527
300.032172567
300.014414618
300.004360563
300.000811721
300.000088548
300.000003483
314.540393039
306.080890733
302.633667907
301.389822135
300.883266308
300.622404122
300.457974382
300.457974382
300.00000047
300.000000592
300.000000846
300.000000786
300.000003724
300.000009664
300.000014061
300.000016206
300.000015948
300.000016003
300.000018012
300.000021625
300.000026839
300.000031087
300.000033077
300.000036955
300.000041291
300.000043644
300.00004186
300.00003895
)
;
    }
}


// ************************************************************************* //
