/*--------------------------------*- C++ -*----------------------------------*\
| =========                 |                                                 |
| \\      /  F ield         | OpenFOAM: The Open Source CFD Toolbox           |
|  \\    /   O peration     | Version:  2312                                  |
|   \\  /    A nd           | Website:  www.openfoam.com                      |
|    \\/     M anipulation  |                                                 |
\*---------------------------------------------------------------------------*/
FoamFile
{
    version     2.0;
    format      ascii;
    arch        "LSB;label=32;scalar=64";
    class       volVectorField;
    location    "0.565/water";
    object      U.gas;
}
// * * * * * * * * * * * * * * * * * * * * * * * * * * * * * * * * * * * * * //

dimensions      [0 1 -1 0 0 0 0];

internalField   nonuniform List<vector> 
1497
(
(0.115015647073 1.44857970969 0)
(0.0993657786995 1.41219017874 0)
(0.0731103125493 1.33666149146 0)
(0.0433037295266 1.22754604464 0)
(0.0192601664328 1.12772178545 0)
(0.00470504779832 1.0546394559 0)
(-0.00169763605254 0.997804387457 0)
(-0.00260707221359 0.945324383761 0)
(-4.50941435291e-05 0.892154548201 0)
(0.00491242736955 0.837415210643 0)
(0.0116492687364 0.782157498927 0)
(0.0200993820141 0.726679430218 0)
(0.0304457075237 0.668667559245 0)
(0.0649995630976 2.02873546695 0)
(0.129192954102 1.78444422946 0)
(0.118319114761 1.72806799802 0)
(0.102479751027 1.69502110467 0)
(0.0935765012506 1.62840360303 0)
(0.0847948683411 1.56250055133 0)
(0.0689001775148 1.52457489582 0)
(0.0424838242578 1.50878642227 0)
(0.0038115531895 1.48447711601 0)
(-0.0402516793365 1.39457402375 0)
(-0.0749282083493 1.24621000241 0)
(-0.0917631821312 1.11044645962 0)
(-0.093589316869 1.02092536121 0)
(-0.0868725486589 0.960486069158 0)
(-0.0754934798371 0.909680747439 0)
(-0.061457612402 0.858624984745 0)
(-0.0466093083384 0.805189522073 0)
(-0.0321892105013 0.750752464438 0)
(-0.0179232340149 0.696530263565 0)
(-0.0031520839936 0.640662509563 0)
(0.0782854366614 1.78843861012 0)
(0.14582584917 1.66300363979 0)
(0.132666540882 1.63384212004 0)
(0.125956626434 1.63193244381 0)
(0.112281166413 1.59728649721 0)
(0.0874837382759 1.55361886889 0)
(0.0531882774769 1.52688652202 0)
(0.0131358312195 1.5231626109 0)
(-0.0310513544688 1.51303418747 0)
(-0.0754693292985 1.41977924524 0)
(-0.11199106748 1.24170043367 0)
(-0.131590300208 1.06701694284 0)
(-0.133731788015 0.960786102428 0)
(-0.125170008176 0.895497976106 0)
(-0.110414479781 0.849263016295 0)
(-0.0919704161767 0.805158495727 0)
(-0.0723587533088 0.757432695855 0)
(-0.0537811228797 0.707691714212 0)
(-0.0366343345183 0.657813284087 0)
(-0.0204688938702 0.606770656263 0)
(0.0627338750116 1.36296939126 0)
(0.117467287247 1.51571401465 0)
(0.106665043424 1.53291666256 0)
(0.101990458521 1.55291159275 0)
(0.095312416368 1.55503700363 0)
(0.080970221745 1.54606314527 0)
(0.0588798192605 1.53854475887 0)
(0.0330212692362 1.54112353011 0)
(0.00649946984917 1.53485460131 0)
(-0.0243380648636 1.4516801374 0)
(-0.0636764868323 1.26599965151 0)
(-0.0925999161826 1.02562746455 0)
(-0.10181492694 0.904592689769 0)
(-0.102072534278 0.833148969085 0)
(-0.095199337947 0.787536086683 0)
(-0.0820242775341 0.750533768245 0)
(-0.0652577882876 0.709455932673 0)
(-0.0485621936216 0.665411472686 0)
(-0.0334028808928 0.620736596309 0)
(-0.0197759337381 0.575236713309 0)
(0.0168197759046 1.0673865809 0)
(0.0375737423369 1.42894746915 0)
(0.0457288867585 1.47750956329 0)
(0.0532682746703 1.50224802988 0)
(0.0570518396603 1.52891420554 0)
(0.0544453597565 1.55249793035 0)
(0.0458754479328 1.56651893066 0)
(0.0339130922155 1.57539051588 0)
(0.0202558474704 1.57056470611 0)
(0.00295927654054 1.50589542869 0)
(-0.022008688295 1.33193747347 0)
(-0.042348997752 1.0117689228 0)
(-0.0500946845262 0.873935262485 0)
(-0.0529271674863 0.796180177369 0)
(-0.0524262153292 0.746234149655 0)
(-0.0470595674806 0.711776935275 0)
(-0.0367209613332 0.674907777269 0)
(-0.0251453953007 0.634874055272 0)
(-0.0148497078637 0.594151653373 0)
(-0.0061264359937 0.553149180209 0)
(0.00585437711241 1.0104713163 0)
(0.0126560579372 1.37621694715 0)
(0.0160021161018 1.43269874641 0)
(0.0216317433121 1.46624798166 0)
(0.0265983207503 1.5146012659 0)
(0.0275099907298 1.56328151214 0)
(0.0240775259433 1.59337973068 0)
(0.0183381963793 1.60744265997 0)
(0.0121607189357 1.60402837123 0)
(0.00581931593545 1.54658696491 0)
(-0.00270004400123 1.38308288704 0)
(-0.00912011706154 1.01441851771 0)
(-0.0107150101991 0.866381894956 0)
(-0.0109228191143 0.784185048652 0)
(-0.0104474950265 0.729808114868 0)
(-0.00820577917971 0.693824614702 0)
(-0.00269403612122 0.65815663299 0)
(0.0040809581266 0.619904032526 0)
(0.00971289244216 0.581253640969 0)
(0.0137193301699 0.543019055591 0)
(-0.00139785980901 1.05063523951 0)
(-0.00625469557537 1.38733822505 0)
(-0.0119369309041 1.43657183855 0)
(-0.014822672715 1.46748043829 0)
(-0.0157103999026 1.52210748697 0)
(-0.0163608146182 1.57940299968 0)
(-0.0175906896077 1.61457167492 0)
(-0.0185835158004 1.62614919578 0)
(-0.0170061821373 1.61435416008 0)
(-0.010978616953 1.5485658854 0)
(-0.000159980002121 1.38126266657 0)
(0.0101906430371 1.00597639745 0)
(0.01533173524 0.867580826886 0)
(0.018056127908 0.786011405902 0)
(0.0206211501836 0.729905575214 0)
(0.023424100329 0.691999854581 0)
(0.027281277727 0.65592947907 0)
(0.0313234254925 0.618010306287 0)
(0.0340017060034 0.580131005099 0)
(0.0347733939172 0.543334584442 0)
(-0.00733488871493 1.17595532223 0)
(-0.0291388814523 1.50048934284 0)
(-0.0594947278078 1.54908271753 0)
(-0.0893753640482 1.56595489851 0)
(-0.109022720423 1.58332099583 0)
(-0.113755667877 1.61092110009 0)
(-0.108373192593 1.62671096978 0)
(-0.0975520397986 1.62429442143 0)
(-0.0835023133591 1.59887652353 0)
(-0.0649454211135 1.51222391232 0)
(-0.0195589415978 1.25651928943 0)
(0.0217272738146 0.983206206167 0)
(0.0317371436497 0.868130174746 0)
(0.037641738794 0.7923529011 0)
(0.0427945676544 0.738020850626 0)
(0.0473909739393 0.699735363535 0)
(0.0512506126222 0.66298298775 0)
(0.0541571590344 0.624908272958 0)
(0.055369240848 0.587408875998 0)
(0.0538666341244 0.551560957344 0)
(-0.0106965078757 1.46772559529 0)
(-0.0563325358432 1.81697223355 0)
(-0.134824155394 1.88372758049 0)
(-0.223322167569 1.87958414714 0)
(-0.297734639057 1.79235675227 0)
(-0.330523920656 1.68393667107 0)
(-0.298068846948 1.51731308386 0)
(-0.223302132516 1.49506824279 0)
(-0.143617320793 1.45938816002 0)
(-0.0592602294313 1.35343172037 0)
(0.00182586006859 1.10714081144 0)
(0.0275162713447 0.958297172937 0)
(0.0409847128657 0.866754989442 0)
(0.050589082011 0.800081801949 0)
(0.0589560124714 0.750673906589 0)
(0.0654381100311 0.712968197749 0)
(0.0696657052127 0.67566470811 0)
(0.0723763314837 0.637669359881 0)
(0.0731443422952 0.60097494708 0)
(0.0687588953708 0.565864448006 0)
(0.0323802676552 1.71835538817 0)
(0.0149250805257 2.30185997498 0)
(-0.0916186900855 2.41911902702 0)
(-0.211589086212 2.40700610158 0)
(-0.325465721104 2.1818306866 0)
(-0.320452554307 1.50762660549 0)
(-0.232546953078 1.30107167598 0)
(-0.166677269496 1.27867590913 0)
(-0.100484049575 1.24717012071 0)
(-0.0420937652175 1.15778472845 0)
(0.000355591619799 1.02967509002 0)
(0.0270425463591 0.933262955912 0)
(0.0446310886358 0.86316878547 0)
(0.0587624664681 0.80822906027 0)
(0.0700336951022 0.765382160741 0)
(0.0774952436212 0.728504474445 0)
(0.0825865579069 0.691574109387 0)
(0.0863831193384 0.654879397339 0)
(0.0868206593054 0.620462369372 0)
(0.07579718816 0.583090910982 0)
(0.058599621542 1.70758656071 0)
(0.0793174259365 2.6926966458 0)
(0.00661531565717 2.88462535583 0)
(-0.0710382157323 2.89396379423 0)
(-0.15305251685 2.5692731026 0)
(-0.187449498271 1.2287023652 0)
(-0.165715205121 1.14404795412 0)
(-0.124968039028 1.12767182247 0)
(-0.0764576311029 1.10625290322 0)
(-0.0306260294568 1.0510389782 0)
(0.00496207686019 0.971465458135 0)
(0.0301110049619 0.910278453043 0)
(0.0497401821313 0.859432870728 0)
(0.0656808766299 0.816266521375 0)
(0.0770003402076 0.779081662785 0)
(0.085005476838 0.744090425426 0)
(0.0921497224845 0.709784646816 0)
(0.0977230562554 0.677275906001 0)
(0.091848060463 0.643547618519 0)
(0.0682756262305 0.598095077673 0)
(0.0542141768861 1.62365926303 0)
(0.0863827690838 2.86659737546 0)
(0.0453018006673 3.13351380378 0)
(0.00214025425733 3.18216595618 0)
(-0.0554583082424 2.85745430426 0)
(-0.106555372775 1.20186666556 0)
(-0.117770557605 1.05818991103 0)
(-0.0939911130293 1.033203059 0)
(-0.0567619883446 1.01556456947 0)
(-0.0195571002569 0.980774771092 0)
(0.011151840499 0.933869645849 0)
(0.0352649990376 0.894025952224 0)
(0.0546407844741 0.857015669168 0)
(0.0692682146571 0.822437771406 0)
(0.080387181507 0.789974905343 0)
(0.0909541994812 0.759345757872 0)
(0.100942222242 0.731436991264 0)
(0.0997653398316 0.703086118039 0)
(0.0759919329361 0.663085137259 0)
(0.0465976917146 0.607360320386 0)
(0.0542421699134 1.56154603314 0)
(0.0918829427691 2.90819334196 0)
(0.0663519911653 3.22338464271 0)
(0.0508767859058 3.29548838306 0)
(0.0307864732711 3.03331073787 0)
(-0.0204990768193 1.34316310415 0)
(-0.0652980613068 1.02973554396 0)
(-0.0641713055257 0.971547052562 0)
(-0.0418728303867 0.952683928615 0)
(-0.013071506552 0.93304075344 0)
(0.0141018047045 0.905377976354 0)
(0.0364813943978 0.878652579433 0)
(0.0541432651568 0.850827242753 0)
(0.0689762089597 0.823030029296 0)
(0.0835687167843 0.796732856427 0)
(0.0971465721918 0.773585632765 0)
(0.097867530716 0.752855643476 0)
(0.0737366089258 0.723907233395 0)
(0.0414371074125 0.674684364495 0)
(0.025719419527 0.607728405991 0)
(0.0423094502755 1.53851761616 0)
(0.0735490825106 2.87562962115 0)
(0.0653440030936 3.18091418204 0)
(0.0762070362143 3.25158366878 0)
(0.086858456708 3.05129747664 0)
(0.0541284542506 1.58428870713 0)
(-0.00249313936881 1.09861212942 0)
(-0.0266420146882 0.95570231641 0)
(-0.0226785075911 0.912533880524 0)
(-0.00552071665427 0.894651831294 0)
(0.0151051201627 0.877105784143 0)
(0.0346687778983 0.858529514 0)
(0.0527582173662 0.837899079698 0)
(0.0706989579879 0.817028019919 0)
(0.0859203395116 0.79846351589 0)
(0.085988090225 0.782695312159 0)
(0.0622532852315 0.76683099135 0)
(0.0310576878954 0.736637871991 0)
(0.016064107248 0.674529771828 0)
(0.0168118719126 0.597557485213 0)
(0.0163520226628 1.65849514141 0)
(0.0463462657695 2.72254927054 0)
(0.0828154699053 2.98010940379 0)
(0.133747005763 3.03864150925 0)
(0.188058620221 2.88948786215 0)
(0.153598547274 1.95226228084 0)
(0.0652535026043 1.24495355477 0)
(0.0222245748295 1.00587902305 0)
(0.00463800577183 0.90749008777 0)
(0.00737028617474 0.869881916885 0)
(0.0203759904205 0.85174378234 0)
(0.0374331701102 0.837071947329 0)
(0.0552415949615 0.821615771725 0)
(0.0686928180756 0.807576727078 0)
(0.0668462662893 0.7964064866 0)
(0.0462340021501 0.786664492483 0)
(0.0218402825519 0.775187029579 0)
(0.0100609227988 0.738511645484 0)
(0.0119215285833 0.661469698859 0)
(0.0188084985988 0.580831674802 0)
(0.0292875831709 1.72310217274 0)
(0.0737190173878 2.4922260254 0)
(0.109571561298 2.70423858336 0)
(0.15337535299 2.75220936346 0)
(0.194919203371 2.65096842863 0)
(0.208717604299 2.19567679013 0)
(0.150610688163 1.51685353169 0)
(0.0737526132541 1.11018103723 0)
(0.0398763879091 0.941579947411 0)
(0.0288151315498 0.863798544903 0)
(0.0325574926487 0.834198718476 0)
(0.0427252468442 0.818778639055 0)
(0.0512963603905 0.806372125061 0)
(0.0484477210943 0.79901122045 0)
(0.0327365074009 0.795081683707 0)
(0.0163673469893 0.790165702152 0)
(0.00972606500826 0.776728198183 0)
(0.0122779906561 0.72696624714 0)
(0.0194187182212 0.642462216387 0)
(0.0275569337569 0.563606150387 0)
(0.032270680678 1.60571587585 0)
(0.0799038233048 2.27752446683 0)
(0.114214056895 2.45948843082 0)
(0.153884916044 2.5032037355 0)
(0.192901854391 2.44405634148 0)
(0.211863330567 2.17083892749 0)
(0.189293287828 1.78113364662 0)
(0.118426226966 1.33568508776 0)
(0.0589297469373 0.997727511691 0)
(0.0445735887959 0.869569227606 0)
(0.0425620940406 0.824661628354 0)
(0.043225319593 0.805751834906 0)
(0.0397844451957 0.795528776766 0)
(0.029290075913 0.795044106162 0)
(0.0182380594131 0.797120903218 0)
(0.0141348349296 0.790911904364 0)
(0.0158086380223 0.768558168709 0)
(0.0215016714796 0.707917893104 0)
(0.0302008063995 0.623705171072 0)
(0.0391252559671 0.550118754406 0)
(0.0265108333 1.4909347433 0)
(0.0608395367184 2.10556780335 0)
(0.0800196865898 2.26933287136 0)
(0.10384465341 2.31334843039 0)
(0.126329155616 2.28566091294 0)
(0.136138696797 2.13737608473 0)
(0.121760678815 1.90571433243 0)
(0.0808397155637 1.59649715517 0)
(0.0487981587749 1.04364727231 0)
(0.0429546221726 0.875803862005 0)
(0.0420493353249 0.820900713773 0)
(0.0401531943238 0.799501686064 0)
(0.0352727806815 0.79145840205 0)
(0.0287064743462 0.797032310152 0)
(0.0247243198056 0.800512811983 0)
(0.0241511956129 0.787995857242 0)
(0.0260548559119 0.755777236492 0)
(0.0323528266016 0.687907818803 0)
(0.041914614484 0.608908742499 0)
(0.0516535111186 0.542491135839 0)
(0.0201787927506 1.44015179855 0)
(0.0419179578069 2.01018929505 0)
(0.0480262225364 2.15876683882 0)
(0.0579763824871 2.20629615071 0)
(0.0673348660272 2.20529285198 0)
(0.0693313898799 2.13083776928 0)
(0.0597369384232 1.98574555615 0)
(0.0400049610448 1.74250562412 0)
(0.0302106988729 1.05341647102 0)
(0.0344968609016 0.876421920665 0)
(0.0375639276072 0.819917032646 0)
(0.0386158349054 0.798401556814 0)
(0.0374949632495 0.792190303617 0)
(0.0353297285737 0.801007762695 0)
(0.0338063233719 0.802586720399 0)
(0.0333786807899 0.783722149204 0)
(0.0359744784489 0.741599159362 0)
(0.043583951148 0.671702866903 0)
(0.0540021275495 0.60000597123 0)
(0.0644129254552 0.541307167255 0)
(0.0156622011027 1.45008862339 0)
(0.0291133999371 1.97652274045 0)
(0.0271334075361 2.11160907045 0)
(0.0279220874916 2.16339693723 0)
(0.027635392114 2.18043306597 0)
(0.0242607388357 2.14309910464 0)
(0.0207023556981 2.0203455896 0)
(0.0176582134146 1.80288055457 0)
(0.0215830957206 1.02905710888 0)
(0.0307187700618 0.870999710655 0)
(0.0360312365371 0.81883017812 0)
(0.0391124084745 0.798572547151 0)
(0.0399154738602 0.79322059577 0)
(0.039524760045 0.80193850034 0)
(0.0394935877557 0.800991829258 0)
(0.0408300297595 0.776798080182 0)
(0.0458879175364 0.728068338273 0)
(0.0552957676114 0.661111805602 0)
(0.0664365212426 0.597072691562 0)
(0.0767237434849 0.545845456522 0)
(0.00921823465896 1.52336514276 0)
(0.0113085760266 2.0041120832 0)
(-0.000580053963108 2.12547926726 0)
(-0.0105038584168 2.18307901497 0)
(-0.0224299080417 2.21227069282 0)
(-0.0365802676983 2.18540161817 0)
(-0.0489807753793 2.04618151754 0)
(-0.0217548263605 1.69365760243 0)
(0.0185045413007 0.986823169927 0)
(0.0304898069129 0.861940637862 0)
(0.0369898769103 0.817107703291 0)
(0.0409183839796 0.798670525862 0)
(0.0427215896986 0.793390915249 0)
(0.0436355238931 0.79985456543 0)
(0.0454196814944 0.795746132915 0)
(0.0494233578287 0.768038890702 0)
(0.0570178012314 0.717895261619 0)
(0.0676910482719 0.656349509134 0)
(0.0790496490813 0.599762757922 0)
(0.0877200020779 0.554498221755 0)
(0.00179553819665 1.67721846897 0)
(-0.00937857153833 2.10497234582 0)
(-0.03251524302 2.21084467555 0)
(-0.0526385321861 2.27079332669 0)
(-0.0724889152074 2.30094620206 0)
(-0.0862792958321 2.24438229286 0)
(-0.0919908330032 2.0817551359 0)
(-0.0428639334002 1.38001708791 0)
(0.0166250184947 0.943228376113 0)
(0.0300182058064 0.852479133839 0)
(0.0381428441972 0.816190757988 0)
(0.0435352505337 0.799971933685 0)
(0.0467821224468 0.794339985384 0)
(0.0491528434016 0.79748001582 0)
(0.0527902195391 0.789821830745 0)
(0.0591556097493 0.760838682019 0)
(0.0685639947784 0.712772351216 0)
(0.0799629660765 0.657199470647 0)
(0.0904702119199 0.607409060448 0)
(0.0959111588398 0.565286449646 0)
(-0.00487004967546 1.90536038441 0)
(-0.0285813982154 2.2867846996 0)
(-0.0660583461516 2.38249617803 0)
(-0.103295399277 2.43843083831 0)
(-0.135326428079 2.4362492545 0)
(-0.16259497833 2.34294821847 0)
(-0.103338271411 1.8098054844 0)
(-0.0106855606891 1.12278685608 0)
(0.0169492158441 0.909938934765 0)
(0.0305252810041 0.846026098212 0)
(0.0400694304762 0.818120565788 0)
(0.0469674804927 0.804120311531 0)
(0.0516167804907 0.797618601831 0)
(0.0553918076923 0.796928555214 0)
(0.0606810808839 0.786032152051 0)
(0.0687410133478 0.757245439569 0)
(0.079218428423 0.712662537388 0)
(0.0903651937804 0.663041470954 0)
(0.0981557800899 0.617944097309 0)
(0.0993981445978 0.576379337268 0)
(0.00295379034787 2.15505138179 0)
(-0.0162077843261 2.5426830013 0)
(-0.0639319084114 2.64407319738 0)
(-0.116741698946 2.69326647178 0)
(-0.160928510191 2.6099111313 0)
(-0.133173144275 2.24254113848 0)
(-0.0534658748971 1.39391058067 0)
(-0.00335509356865 1.01659696882 0)
(0.0194990916233 0.888797136968 0)
(0.0331081366794 0.845170626883 0)
(0.0433893174663 0.824690491301 0)
(0.0508852098582 0.812467045747 0)
(0.0561943951633 0.804416589619 0)
(0.0611256844383 0.79947255712 0)
(0.0678507753156 0.785651697736 0)
(0.0769071649774 0.757414305611 0)
(0.0873384521369 0.716550434056 0)
(0.0961540329682 0.671635500578 0)
(0.0995683396449 0.628202350367 0)
(0.0969363073154 0.586097287067 0)
(0.0372910842196 2.27008134016 0)
(0.0451675243142 2.83401140768 0)
(-0.0167292163379 2.96830490441 0)
(-0.0855359332918 3.02156527964 0)
(-0.153844311403 2.85716074307 0)
(-0.118590539519 1.78492274953 0)
(-0.0275386647034 1.181292303 0)
(0.00732190055472 0.95170662131 0)
(0.0257801962733 0.877428077022 0)
(0.0386437546042 0.849091414636 0)
(0.0480507883266 0.834459822067 0)
(0.0551613851359 0.823542604958 0)
(0.0608118199863 0.813761572027 0)
(0.0664206116985 0.804475694246 0)
(0.0736132524675 0.787849973854 0)
(0.0821995487709 0.759727177034 0)
(0.0902927358404 0.721482548156 0)
(0.0948982775931 0.678885439342 0)
(0.0944541220581 0.635539247098 0)
(0.0889477499644 0.592672833567 0)
(0.0654193350521 2.17002011414 0)
(0.103367723718 3.05857999522 0)
(0.0536490143136 3.24900621432 0)
(0.00854084488212 3.30910206467 0)
(-0.0332872891263 3.10611462805 0)
(-0.0378530471313 1.43286331744 0)
(-0.0076163797984 1.05238108111 0)
(0.0172108393758 0.91664580725 0)
(0.0324326861223 0.872290865709 0)
(0.0430704569797 0.854158435451 0)
(0.0512068112102 0.843397109853 0)
(0.0584006483042 0.833425306031 0)
(0.0651015998327 0.822360492903 0)
(0.0716389844386 0.809487753348 0)
(0.0780984453804 0.790001287646 0)
(0.0838979077516 0.761117342374 0)
(0.0878313142313 0.723900473733 0)
(0.0885920768492 0.682221307624 0)
(0.0854321394187 0.638939046444 0)
(0.0776032636414 0.595456209716 0)
(0.0633264366438 2.00271921654 0)
(0.104332613715 3.17336509624 0)
(0.064715669931 3.43238221882 0)
(0.0316432597779 3.48983032387 0)
(0.0145091653913 3.22503668265 0)
(0.00706276687704 1.38418160903 0)
(0.00873492217044 0.993744346077 0)
(0.0226922662791 0.899667012598 0)
(0.0335587431281 0.870516437997 0)
(0.0425432344743 0.858399842293 0)
(0.0512869969094 0.849950962937 0)
(0.0598405941921 0.840426562313 0)
(0.0675699449698 0.828303142967 0)
(0.0741031250723 0.812819604597 0)
(0.079233651596 0.790953009735 0)
(0.0826541988769 0.761065940341 0)
(0.0837130840768 0.724071533668 0)
(0.0816368368895 0.682738645715 0)
(0.0760168836009 0.639535099697 0)
(0.0665362522709 0.596040623795 0)
(0.0584960742519 1.88245025089 0)
(0.0998703337465 3.22766167875 0)
(0.0696977925113 3.55613068731 0)
(0.0471302889388 3.60853075656 0)
(0.0507056775024 3.20869996351 0)
(0.0446936004081 1.48622494434 0)
(0.0241827782593 1.0099002867 0)
(0.024918834376 0.902584252761 0)
(0.0310675101077 0.87362591506 0)
(0.0399105700827 0.86274752201 0)
(0.0497578106555 0.854920586361 0)
(0.0594441032637 0.845285653737 0)
(0.0680503820889 0.832313827328 0)
(0.0749457228317 0.81525889045 0)
(0.0796605670371 0.79218496904 0)
(0.0818464536302 0.761736164745 0)
(0.0805677919268 0.724068122166 0)
(0.0756289682017 0.68203566907 0)
(0.0684195802338 0.638955803309 0)
(0.0587300488452 0.596055861715 0)
(0.0609453094164 1.77686493881 0)
(0.109402026468 3.21218389534 0)
(0.0933976332692 3.58585016049 0)
(0.0937683657482 3.62549753833 0)
(0.106752317463 3.14829118144 0)
(0.0910005905071 1.67450631991 0)
(0.054216549927 1.11155801297 0)
(0.0382568133212 0.943496896251 0)
(0.0361575698558 0.89066426261 0)
(0.0425695213423 0.871374650042 0)
(0.052230698066 0.86017223943 0)
(0.0623714828398 0.849036590223 0)
(0.071545797344 0.835284500455 0)
(0.0788040264221 0.81770771112 0)
(0.0831413966285 0.794268439642 0)
(0.0829457069688 0.762838848998 0)
(0.0778716910313 0.722954134465 0)
(0.0709702428645 0.679283762949 0)
(0.0641603803473 0.636808447038 0)
(0.0554409906919 0.595166668704 0)
(0.0564949179379 1.66831071557 0)
(0.106136062145 3.10096805297 0)
(0.110628573913 3.46503090449 0)
(0.142133560235 3.48525445689 0)
(0.175047198891 3.07627604261 0)
(0.163293658912 1.87162948998 0)
(0.116266018229 1.27365311153 0)
(0.0814640997306 1.02921855327 0)
(0.0648005604337 0.932129782774 0)
(0.0616138211401 0.890252549322 0)
(0.0668000981042 0.867847340754 0)
(0.0754505541477 0.851698548067 0)
(0.0841209412199 0.835757930792 0)
(0.0899017687124 0.817133565976 0)
(0.0899099464652 0.79251296705 0)
(0.0840473242149 0.759084908492 0)
(0.0765952627622 0.717269618239 0)
(0.0712465993483 0.672693254124 0)
(0.0667290477747 0.631827506197 0)
(0.0595637377923 0.592814640018 0)
(0.0256588354971 1.68538093907 0)
(0.0700055576772 2.85817410682 0)
(0.122044850333 3.1637630445 0)
(0.194872439791 3.17128475332 0)
(0.265924084858 2.87331092611 0)
(0.270889887916 2.05467557378 0)
(0.215601945418 1.4488992055 0)
(0.167275535599 1.13808875966 0)
(0.135581268933 0.995208605953 0)
(0.117916608554 0.920760284898 0)
(0.110967180727 0.878716311959 0)
(0.110199619295 0.851354663379 0)
(0.110440736393 0.829200446533 0)
(0.107113411126 0.806951856672 0)
(0.0996484867035 0.780344946195 0)
(0.0920317124621 0.746670042325 0)
(0.0878066315016 0.706363569617 0)
(0.0861860676539 0.663731357114 0)
(0.0835438065586 0.625588963302 0)
(0.0766392477275 0.590772582272 0)
(0.0352542238355 1.67210406995 0)
(0.0969264902958 2.52065490131 0)
(0.163206258468 2.75129605617 0)
(0.247474293389 2.75079649804 0)
(0.32749683955 2.54414087317 0)
(0.368493609736 2.09797613981 0)
(0.339480781801 1.64618241507 0)
(0.274584711975 1.29030018668 0)
(0.227515478675 1.07794948241 0)
(0.199824581732 0.96823974654 0)
(0.180846030965 0.899090195515 0)
(0.166212940773 0.853934579952 0)
(0.152665538996 0.821522579003 0)
(0.139602561707 0.794211102614 0)
(0.129215122652 0.766799804086 0)
(0.12349873725 0.735529273276 0)
(0.121693076657 0.698993572641 0)
(0.121196944088 0.659772308263 0)
(0.11818369257 0.624323132016 0)
(0.109347471897 0.593895199825 0)
(0.0292778873341 1.49123294889 0)
(0.0855074010493 2.18311517887 0)
(0.147905744604 2.34772567691 0)
(0.221439577707 2.34112707433 0)
(0.291685431417 2.20906247034 0)
(0.340875785631 1.96215741222 0)
(0.364200967223 1.71833461777 0)
(0.353593722454 1.44243332767 0)
(0.305212466973 1.23415018613 0)
(0.258275990417 1.04552171254 0)
(0.232317862367 0.939836060412 0)
(0.213246656008 0.874195746894 0)
(0.197323285198 0.831062016718 0)
(0.184444055991 0.798819751955 0)
(0.175551130941 0.769908144282 0)
(0.170522813752 0.739130691617 0)
(0.168175097785 0.704249177993 0)
(0.166870118 0.667059657437 0)
(0.163123839995 0.633615651373 0)
(0.152513779367 0.60690739064 0)
(0.0219236926602 1.32992356802 0)
(0.0599981484614 1.91118084018 0)
(0.101241240003 2.01929660533 0)
(0.154369864553 2.00995225216 0)
(0.206925534906 1.93246447841 0)
(0.247856303795 1.79802038146 0)
(0.271109929967 1.64828286226 0)
(0.277421651274 1.50074962207 0)
(0.272024206902 1.36206096214 0)
(0.259235779403 1.12264880146 0)
(0.246032859815 0.986287121987 0)
(0.236400860793 0.906422903546 0)
(0.228291533952 0.85557903228 0)
(0.221521346529 0.818588458492 0)
(0.216476858917 0.78639729114 0)
(0.213523372713 0.753815496835 0)
(0.212692844995 0.7190351447 0)
(0.213161485407 0.683622208888 0)
(0.21116199291 0.65302073099 0)
(0.200959680198 0.630238993338 0)
(0.00561597185856 1.29942924417 0)
(0.0141433774251 1.77808161195 0)
(0.0332091696289 1.79849272367 0)
(0.0715349428037 1.76627786015 0)
(0.114149990583 1.72233812034 0)
(0.150061683341 1.65514089281 0)
(0.176982736932 1.57155368316 0)
(0.197209849811 1.47127159288 0)
(0.219493351948 1.33556693633 0)
(0.239802499081 1.13436355909 0)
(0.248161246014 1.00803711458 0)
(0.249562304027 0.929027981438 0)
(0.248644901294 0.87618765641 0)
(0.247381766865 0.836538930008 0)
(0.247321670203 0.802312847016 0)
(0.249482008623 0.769373876856 0)
(0.254050240989 0.736419766411 0)
(0.259892417065 0.70481924478 0)
(0.262435549637 0.678982626374 0)
(0.255408343255 0.660330764117 0)
(-0.0236003864549 1.55403372291 0)
(-0.0689585646558 1.90292624899 0)
(-0.106641734234 1.8120552001 0)
(-0.0881550166434 1.51298342312 0)
(-0.0192427420116 1.48627317123 0)
(0.0449150514985 1.47065088218 0)
(0.101045342545 1.42549575727 0)
(0.153249563242 1.34757447617 0)
(0.198782936211 1.22622748604 0)
(0.227673244606 1.095740003 0)
(0.242048928536 1.00374438157 0)
(0.250598157246 0.936439452183 0)
(0.256569136351 0.886915808529 0)
(0.262578661078 0.847844393312 0)
(0.270492716503 0.814216543861 0)
(0.281221757733 0.783263654482 0)
(0.294483967546 0.754073879613 0)
(0.307921043765 0.727206339955 0)
(0.316094259568 0.70491897561 0)
(0.315164015943 0.688463768801 0)
(-0.0099650858183 1.91488147961 0)
(-0.0368306567841 2.18448716879 0)
(-0.0429772940879 1.87026424552 0)
(-0.0225826054175 1.32286183414 0)
(0.00789066572677 1.25967273285 0)
(0.0530603617919 1.26343932132 0)
(0.10070645272 1.24632541294 0)
(0.143596686904 1.19601025967 0)
(0.178379326693 1.12382247124 0)
(0.205394557901 1.05152966762 0)
(0.226104702975 0.985929054194 0)
(0.242365742372 0.932343603976 0)
(0.257012364944 0.889211027559 0)
(0.272590090497 0.853579967522 0)
(0.290632011237 0.822956623541 0)
(0.311272573548 0.794952702352 0)
(0.332586024762 0.768204914198 0)
(0.350357317993 0.742094461414 0)
(0.36222644812 0.718426953033 0)
(0.371576638091 0.702317448863 0)
(0.0111737730111 2.16363277864 0)
(0.035038665933 2.28348980677 0)
(0.0513557388863 1.81730135394 0)
(0.0504737142823 1.29989361 0)
(0.0528550445784 1.14999232564 0)
(0.0740869140416 1.12736031323 0)
(0.105048162355 1.1198858893 0)
(0.137887117566 1.09619157381 0)
(0.168534901993 1.0557309809 0)
(0.195406031438 1.00890688504 0)
(0.218842609499 0.962957169274 0)
(0.240456228132 0.921717992573 0)
(0.262419114616 0.886167539481 0)
(0.286364760984 0.855250523618 0)
(0.312050990439 0.82702789415 0)
(0.33648392712 0.798909871612 0)
(0.356392124668 0.769752378752 0)
(0.372494638849 0.740329530053 0)
(0.39011579974 0.714868797759 0)
(0.412306425007 0.705236165165 0)
(0.0425943242428 0.609085855599 0)
(0.0563919621968 0.559830353993 0)
(0.0722719506431 0.533374267965 0)
(0.0900950833024 0.515458817563 0)
(0.106701605135 0.477093170911 0)
(0.121137606187 0.420782555686 0)
(0.135484178774 0.353435662071 0)
(0.15126411514 0.275962298804 0)
(0.172111621046 0.193687201728 0)
(0.194895186861 0.119663785509 0)
(0.183780789441 0.0640600406054 0)
(0.121563273152 0.0714043104455 0)
(0.0329479196332 0.270763245887 0)
(-0.0170413718777 0.466370015684 0)
(-0.020134940516 0.494786287592 0)
(-0.0200308437635 0.505213951039 0)
(-0.0158236740392 0.507188718381 0)
(-0.00985064914332 0.436629164298 0)
(-0.00596828806161 -0.110734984229 0)
(-0.00249867511017 -0.246494801167 0)
(0.012208221061 0.582504111358 0)
(0.0281442272375 0.530413991083 0)
(0.0456099940201 0.492860957861 0)
(0.0638041563944 0.464946783393 0)
(0.0794495550948 0.432398394944 0)
(0.0922516239709 0.378853818127 0)
(0.104675538877 0.31227574204 0)
(0.121376810182 0.233376885868 0)
(0.1422678339 0.154402487968 0)
(0.13745348034 0.0948312229535 0)
(0.0914079136661 0.0681967021247 0)
(0.0117978390342 0.271350627887 0)
(-0.0346870703841 0.416628473416 0)
(-0.0295167125789 0.441116177138 0)
(-0.023514052927 0.458854109555 0)
(-0.0174574930427 0.458178175905 0)
(-0.0127674823208 0.451249000735 0)
(-0.0130527324474 0.380255897517 0)
(-0.0104860503799 -0.14024848413 0)
(-0.00283851678322 -0.235005316382 0)
(-0.00507694019075 0.553587475524 0)
(0.0101533072896 0.503158251391 0)
(0.026037240899 0.460415078406 0)
(0.0408001682366 0.423435766538 0)
(0.0522750007163 0.39233227146 0)
(0.0603341035563 0.34491244282 0)
(0.0685082102787 0.280337565113 0)
(0.0827993408407 0.200156210431 0)
(0.0907827213625 0.126300217029 0)
(0.0668504652895 0.086531216743 0)
(-0.0465465623825 0.357963237488 0)
(-0.13482941779 0.415405909692 0)
(-0.107820866109 0.294979131592 0)
(-0.0517087687045 0.279710819413 0)
(-0.00624465297136 0.357863079293 0)
(0.00800873727396 0.411421705029 0)
(0.00612422713268 0.41713115848 0)
(-0.00682486363282 0.358187460303 0)
(-0.0131167894929 -0.164498203809 0)
(-0.00437381374604 -0.221581984266 0)
(-0.00751914185124 0.528201480176 0)
(0.00398328763006 0.48190815933 0)
(0.0150580418444 0.43861383323 0)
(0.0241004537901 0.397723269218 0)
(0.0294219871584 0.364168223946 0)
(0.0311865320464 0.32349153184 0)
(0.0344652690475 0.262643503157 0)
(0.0440853676271 0.185135801941 0)
(0.0457511373684 0.119700460491 0)
(0.0198101559652 0.10237557946 0)
(-0.0318691785663 0.700308169785 0)
(-0.0554288788072 0.370979861078 0)
(-0.0482793476345 0.189267299259 0)
(-0.0474105421282 0.130025915717 0)
(-0.0270249224205 0.18866555144 0)
(0.016220099151 0.270930156252 0)
(0.0320383113765 0.425541901223 0)
(0.00348462941937 0.398502709759 0)
(-0.0147889233403 -0.166853327017 0)
(-0.00611498522935 -0.202838232637 0)
(0.00115358038222 0.511411258192 0)
(0.00743575690032 0.469698086877 0)
(0.0123526988409 0.428317120961 0)
(0.0145964997438 0.387343488273 0)
(0.0139460678527 0.351401930587 0)
(0.0119475172963 0.314839732787 0)
(0.0128628312937 0.259572612669 0)
(0.0193366723801 0.19181157771 0)
(0.0194903093094 0.138381375085 0)
(-0.0033450445815 0.135240183976 0)
(-0.00648842132915 0.677612125167 0)