/*--------------------------------*- C++ -*----------------------------------*\
| =========                 |                                                 |
| \\      /  F ield         | OpenFOAM: The Open Source CFD Toolbox           |
|  \\    /   O peration     | Version:  2312                                  |
|   \\  /    A nd           | Website:  www.openfoam.com                      |
|    \\/     M anipulation  |                                                 |
\*---------------------------------------------------------------------------*/
FoamFile
{
    version     2.0;
    format      ascii;
    arch        "LSB;label=32;scalar=64";
    class       volScalarField;
    location    "0.72/water";
    object      alpha.gas;
}
// * * * * * * * * * * * * * * * * * * * * * * * * * * * * * * * * * * * * * //

dimensions      [0 0 0 0 0 0 0];

internalField   nonuniform List<scalar> 
1504
(
0.68205794007
0.672735374418
0.676228740577
0.674059292733
0.645726528127
0.578910210225
0.492349797925
0.398579493454
0.311838593525
0.275554478615
0.27534934257
0.27481360814
0.27534934257
0.27459285454
0.284751670594
0.35150934892
0.36656874888
0.314517842647
0.192243398807
0.063968108679
0.676244261902
0.659666648319
0.66780579165
0.652678507647
0.602070797432
0.525316072263
0.43732508154
0.346992074848
0.282231030627
0.27534934257
0.274920475129
0.275141394875
0.274525040134
0.27534934257
0.294330038877
0.360074024876
0.366668226072
0.320526864092
0.210553743579
0.0800879629521
0.682039110568
0.639959274014
0.640793476978
0.609652372032
0.545596650915
0.462982371706
0.374157306072
0.296141714689
0.27534934257
0.274946428326
0.275141394875
0.27435931007
0.275141394875
0.274378561883
0.314137111613
0.366445927269
0.367756232559
0.334652897934
0.239397047954
0.101952188846
0.676078164661
0.615907087705
0.59890410614
0.552666285165
0.480664547133
0.394869380943
0.311525868514
0.275453416714
0.275019748527
0.275141394875
0.274341250441
0.27495051024
0.274119028071
0.275903235775
0.33654590811
0.368081280862
0.372097959648
0.356112535864
0.27595219118
0.129606043193
0.681434933263
0.581658956589
0.542518086447
0.482729072086
0.408300270889
0.327778691518
0.276684393192
0.275031990309
0.275141394875
0.274254792217
0.27495051024
0.273837945853
0.27495051024
0.289535626006
0.34473863374
0.366613703717
0.375933276481
0.374135903389
0.308933109715
0.160604048624
0.676078164661
0.530899052522
0.473799828478
0.404581017152
0.337779957966
0.281613607433
0.275007275924
0.275141394875
0.274077184339
0.27495051024
0.273654943618
0.274810448544
0.273888924152
0.300704399976
0.342607568733
0.361220836156
0.375944046534
0.384251839617
0.333522143148
0.194705467248
0.677036278145
0.461217103363
0.400726617013
0.339184615432
0.29308040919
0.275053713007
0.275141394875
0.273910535306
0.27495051024
0.273477011857
0.274810448544
0.273561441684
0.274810448544
0.302906523177
0.330294192656
0.352757631972
0.375619335163
0.385975717181
0.356697596543
0.234606904619
0.650119043748
0.381245734767
0.349057848808
0.316657387582
0.284804475654
0.275141394875
0.273954413912
0.27495051024
0.273477011857
0.274810448544
0.273442768674
0.274643314902
0.276420229959
0.29575651636
0.310222140332
0.341153887164
0.372886480189
0.385948613544
0.379339006734
0.278076849425
0.553806694968
0.341773397412
0.340890420231
0.320373014934
0.287764017738
0.274626830602
0.275141394875
0.273522752539
0.274823363614
0.273441702007
0.274643314902
0.274008825169
0.277782115563
0.27864647005
0.288276211429
0.321915334288
0.362316641986
0.385935834783
0.39370001815
0.322274967084
0.463042415915
0.361448009857
0.371624503502
0.357221622819
0.31234245175
0.28075976672
0.274966625335
0.277884048075
0.283200661282
0.287381405263
0.282167799497
0.273625833657
0.269247439989
0.265847746605
0.268861264248
0.291624213805
0.337475526273
0.380339712065
0.399574087526
0.379528680495
0.468785981969
0.474417850733
0.488711535756
0.46826073544
0.403815503838
0.350231903021
0.327698398765
0.319384843291
0.313649328451
0.299491858042
0.28102854966
0.267388054646
0.261202739209
0.258991273639
0.257517054017
0.262020316749
0.298033585211
0.361815268855
0.402740260931
0.405006714472
0.57614943715
0.632884718859
0.624875554554
0.610119683475
0.564809632002
0.513889372253
0.462769358963
0.409761159996
0.360572510806
0.316916757751
0.283749784454
0.264709058139
0.256676474009
0.255065151451
0.253349176133
0.251504857525
0.262852093033
0.329477421969
0.399710353287
0.404610214715
0.706589249619
0.705222560814
0.696662320702
0.693303790333
0.680856781128
0.658988928134
0.620254431475
0.547957596954
0.454385522585
0.371497565614
0.306619057012
0.267572439213
0.253712724694
0.25243810722
0.251865599706
0.250144809083
0.250252981446
0.289775276088
0.382879862373
0.405058411686
0.726565711588
0.719606181146
0.720773792194
0.721610212301
0.719596144896
0.712941183954
0.698117049818
0.654783182306
0.560188513884
0.45312176163
0.354799824316
0.280897126888
0.252094285365
0.250939724422
0.251075103627
0.249811353588
0.249218986426
0.258854065773
0.349422031528
0.404610214715
0.730686674419
0.724327156636
0.726366462847
0.725859707758
0.725904828311
0.724892735921
0.718455888011
0.694549568304
0.618940357287
0.510076604337
0.397800495221
0.299737959309
0.251843683684
0.249876916382
0.250506953819
0.249706977115
0.249147518078
0.249170647286
0.310700059604
0.404865000122
0.726967523929
0.726325288403
0.726345164407
0.726955877819
0.725859707758
0.72589826494
0.724357315581
0.705356444654
0.640089520642
0.534487784527
0.417206878025
0.30961560067
0.252320726443
0.249280801497
0.249827587092
0.249676037537
0.249050878476
0.249032524308
0.280328263353
0.395324281739
0.730963480593
0.726741591581
0.727319996719
0.726345164407
0.727248448546
0.725859707758
0.725621949867
0.708280855815
0.645413775855
0.540050745746
0.42001520658
0.30925681791
0.251943897063
0.249202882724
0.249175129798
0.249499400864
0.249032524308
0.248834289076
0.262805764041
0.376055398721
0.727192915255
0.727062532434
0.726745922446
0.727462654506
0.72618657173
0.726586561206
0.725623703066
0.708265072114
0.643672997817
0.535940444647
0.412393938674
0.299177754305
0.250059219232
0.249147518078
0.249065466481
0.249127489241
0.24894965067
0.248933184993
0.254361784385
0.358057735804
0.730963480593
0.726950213375
0.727311501054
0.726461848751
0.726998943683
0.725876669084
0.725744487667
0.704959304215
0.632128089364
0.51747528662
0.389491477602
0.280389653576
0.249147518078
0.249022023111
0.249032524308
0.248956795906
0.248933184993
0.24870285548
0.250915406461
0.345332210005
0.726967968811
0.726868055656
0.726524439615
0.726998943683
0.725876669084
0.726471641218
0.725418612296
0.694876446052
0.608049018479
0.486149692848
0.357569789744
0.26277561962
0.24901881643
0.249032524308
0.248811796206
0.248933184993
0.248827163713
0.248815989876
0.249979381089
0.336871436729
0.730095592449
0.72621179798
0.726867537787
0.725876669084
0.72677543746
0.725418612296
0.722867072326
0.674780833093
0.573580284139
0.447362418246
0.322182236405
0.251871117779
0.249032524308
0.248702950609
0.248933184993
0.248702078269
0.248815989876
0.248592105556
0.250652669562
0.333223696142
0.726524958342
0.724647916985
0.725876669084
0.72659735624
0.725418612296
0.725323544012
0.711013720791
0.641400021091
0.52933550713
0.402026155805
0.286814018022
0.249032524308
0.248756276828
0.248933184993
0.248515233603
0.248815989876
0.248631149391
0.248703887234
0.253167024752
0.333236132487
0.728087905181
0.720560456665
0.72600573832
0.725418612296
0.725861149922
0.724170634559
0.685208301235
0.594085859348
0.475401292598
0.350172941506
0.258876036514
0.248818156881
0.248933184993
0.24835014311
0.248815989876
0.248433022432
0.248706580234
0.248507615712
0.25756164109
0.333724270482
0.725876669084
0.712491678025
0.725418612296
0.725342850283
0.724800972217
0.709920877906
0.641855228598
0.535500104967
0.414022788082
0.29682790142
0.249049694382
0.248933184993
0.248311457513
0.248815989876
0.248154032872
0.248703887234
0.248440756724
0.24859317501
0.26213264392
0.333220203523
0.726149311151
0.697493760076
0.721054342082
0.722032994561
0.715525253048
0.672287087114
0.582883166886
0.469984008759
0.349927116062
0.258736251564
0.248933184993
0.24828509121
0.248815989876
0.247873927644
0.248703887234
0.248150966061
0.24859317501
0.248421808996
0.264206318642
0.32919764684
0.717804377981
0.675583533094
0.698910072273
0.698964200986
0.677974996696
0.613265891122
0.515867208631
0.402895638975
0.291662699978
0.248933184993
0.248431598238
0.248815989876
0.247655825422
0.248703887234
0.247767414361
0.24859317501
0.248264485586
0.248514116904
0.263441751888
0.320106635911
0.692021273805
0.636169053302
0.65661168647
0.650694264262
0.615734962515
0.543018116218
0.446803687729
0.338762899578
0.255865516149
0.248690013465
0.248933184993
0.247624405408
0.248824088543
0.247428603681
0.248703887234
0.248026741995
0.251372539407
0.248540894301
0.256547497934
0.304484732791
0.655881420066
0.578454359427
0.60204749138
0.589605290001
0.545504039467
0.470486740972
0.378541197972
0.282817555465
0.248983167312
0.249032524308
0.247771190294
0.248943553761
0.24728764152
0.248815989876
0.248150357945
0.264142838983
0.257391979006
0.24087685253
0.23954998137
0.282770351981
0.615947805459
0.529079838874
0.55213595355
0.53705160785
0.485238939164
0.404064575792
0.316246662261
0.252214377203
0.249147518078
0.248063627478
0.249032524308
0.247285371405
0.248933184993
0.247526297273
0.283265127228
0.279715385301
0.255097286375
0.228434795162
0.217343621743
0.257465634938
0.577753781129
0.527121146412
0.527152213593
0.516778691976
0.452462851485
0.358154091959
0.275900711566
0.249280801497
0.248426225381
0.249147518078
0.247295740198
0.249032524308
0.246855273781
0.299649131938
0.309708332145
0.279277489858
0.252089674273
0.224764299149
0.205405363552
0.229579527789
0.556226976984
0.527086226661
0.543257588739
0.527852199054
0.454083399335
0.352233197371
0.271121087027
0.24885885917
0.249280801497
0.247321390842
0.249147518078
0.264888292322
0.32553941943
0.35067210112
0.312450267004
0.277888446091
0.254386431249
0.226673986097
0.204914862349
0.207445379523
0.59098287909
0.588499225833
0.600570798388
0.580253879269
0.499731256495
0.387155041478
0.297549444291
0.259379216462
0.255603667337
0.273213111002
0.33098393468
0.410821107684
0.435245116865
0.382857493935
0.317042297626
0.282594763341
0.264482785343
0.235909492316
0.204912072561
0.204691080504
0.686590209882
0.669383322274
0.670023412664
0.657495716987
0.605491641293
0.508635327106
0.406741826223
0.345479287223
0.350869774644
0.415066440116
0.51738525728
0.568293318544
0.529857582401
0.436470069609
0.347700711284
0.299795837857
0.279460231611
0.251992864711
0.21027506068
0.204567311319
0.696309964679
0.696571496168
0.696231068564
0.696234657595
0.683300883025
0.633679930652
0.548218475181
0.480149707216
0.48405718055
0.534983191927
0.601518013931
0.628209335141
0.602163952494
0.520777844727
0.415941626494
0.334052022504
0.294637073874
0.266500636505
0.224757867127
0.204691080504
0.701677037606
0.696309964679
0.697948643682
0.696231068564
0.697075656536
0.677629245954
0.616436255912
0.548367577097
0.533618948317
0.559855937506
0.613976897328
0.631072103844
0.630627850731
0.585666711355
0.486037181212
0.377503513286
0.310654303149
0.276219724933
0.240700584224
0.206281915846
0.696955370202
0.69732693005
0.696309964679
0.697799262628
0.696231068564
0.684840810789
0.629534449839
0.560315917709
0.538727706778
0.560915718371
0.614981927176
0.630627850731
0.63116302934
0.606731303613
0.521632614372
0.408460831862
0.324046781076
0.28119239103
0.249398436255
0.212631530957
0.701626328225
0.696738571488
0.697799262628
0.696309964679
0.697084291017
0.684442821886
0.627620027187
0.558230184367
0.53671993217
0.558379877209
0.612653458526
0.63116302934
0.630627850731
0.608516254275
0.527127122833
0.416020961372
0.327682732316
0.281570274985
0.250467452272
0.217309334148
0.696955370202
0.697010933522
0.696469655433
0.6972956568
0.696231068564
0.676079817728
0.610455532117
1.00004829022e-15
1.00665042586e-15
1.02344668643e-15
1.02406183317e-15
1.02344668643e-15
1.02358461942e-15
1.02337273724e-15
1.01211740529e-15
1.00389384262e-15
1.00308961121e-15
1.00466607914e-15
1.00793365909e-15
1.01205618677e-15
1.0187110579e-15
1.0362246934e-15
1.02806645571e-15
1.67196048629e-15
0.00673827904138
8.58497600591e-05
1e-15
1e-15
1.00004124321e-15
1.02381364591e-15
1.02344668643e-15
1.02386889302e-15
1.02344668643e-15
1.02271815723e-15
1.01195219548e-15
1.00869802571e-15
1.00846933799e-15
1.00923086249e-15
1.01077960217e-15
1.01348575633e-15
1.01938062349e-15
1.03786298946e-15
1.02721972548e-15
1.68982226817e-15
0.0102800402064
0.000174754854172
1e-15
1e-15
1e-15
1.02344668643e-15
1.02407515443e-15
1.02344668643e-15
1.02362088282e-15
1.01898318558e-15
1.01104874158e-15
1.00950649909e-15
1.00952400518e-15
1.01007534816e-15
1.01138138204e-15
1.01380995064e-15
1.0191534746e-15
1.03899286529e-15
1.02613751374e-15
1.70529322535e-15
0.0152298907835
0.000316330612355
1e-15
1e-15
1e-15
1.02141639801e-15
1.02344668643e-15
1.02375189282e-15
1.02344668643e-15
1.01430626173e-15
1.00997938176e-15
1.00934587716e-15
1.00939788379e-15
1.00990220316e-15
1.01108253556e-15
1.01327641039e-15
1.01798024621e-15
1.03963344725e-15
1.02617103053e-15
1.71807687301e-15
0.0222663870394
0.00056176870042
1.85093918823e-08
1e-15
1e-15
1.0143951335e-15
1.02366942752e-15
1.02344668643e-15
1.01852448678e-15
1.01056511037e-15
1.00862197272e-15
1.00825767928e-15
1.0083254831e-15
1.00875809828e-15
1.0097684944e-15
1.01170843833e-15
1.01602650451e-15
1.03992184315e-15
1.02683278588e-15
1.72797339059e-15
0.0322552192987
0.00102487516099
3.50401980123e-07
1e-15
1e-15
1e-15
1.01950123418e-15
1.02028207047e-15
1.01179808659e-15
1.00774592219e-15
1.00673746089e-15
1.00642913549e-15
1.00650227929e-15
1.00688994374e-15
1.00776504673e-15
1.00948449493e-15
1.01344318526e-15
1.0401777875e-15
1.03164002053e-15
1.73509425413e-15
0.0464947751038
0.00192244405973
2.51955951048e-06
1e-15
1e-15
1e-15
1.00734793171e-15
1.01172115024e-15
1.00703298449e-15
1.00506928711e-15
1.00440193187e-15
1.00419766833e-15
1.0042881356e-15
1.00462308452e-15
1.00535214476e-15
1.00683309543e-15
1.01041707379e-15
1.04068113182e-15
1.0407797635e-15
1.74093497091e-15
0.0675809449834
0.00381723727644
1.46645316081e-05
1e-15
1e-15
1e-15
1.00154417705e-15
1.00515882829e-15
1.00345891596e-15
1.00243767356e-15
1.00204820483e-15
1.00196601785e-15
1.00205880897e-15
1.00231040625e-15
1.00284617156e-15
1.00400860618e-15
1.00668537067e-15
1.0417888628e-15
1.05148600418e-15
1.74849177781e-15
0.100815880158
0.00850712379038
8.09706161836e-05
8.74947533948e-08
1e-15
1e-15
1e-15
1.00086345443e-15
1.00081420045e-15
1.00044144033e-15
1.0003272168e-15
1.00032108198e-15
1.00037301365e-15
1.00048727052e-15
1.00075173154e-15
1.0015181144e-15
1.00494083357e-15
1.04444403549e-15
1.06601341728e-15
1.76381813587e-15
0.153114651297
0.0207707599408
0.000423725972685
1.61896260768e-06
1e-15
1e-15
1e-15
1e-15
1e-15
1e-15
1e-15
1e-15
1e-15
1e-15
1.00000362435e-15
1.00013754194e-15
1.00588906033e-15
1.04905216129e-15
1.08813280568e-15
1.80776980328e-15
0.225713451234
0.0500638428564
0.00206916260267
1.91067714381e-05
5.08810508836e-09
1e-15
1e-15
1e-15
1e-15
1e-15
1e-15
1e-15
1e-15
1e-15
1e-15
1e-15
1.00939335094e-15
1.05525913859e-15
1.11781297679e-15
1.85856588717e-15
0.296627074818
0.105352684388
0.00902098527076
0.000169525148553
2.75437775776e-07
1e-15
1e-15
1e-15
1e-15
1e-15
1e-15
1e-15
1e-15
1e-15
1e-15
1e-15
1.01383820717e-15
1.0626189303e-15
1.14924925816e-15
1.85856573203e-15
0.348960546657
0.177049054772
0.0297235945799
0.00110940306595
6.22220544118e-06
1e-15
1e-15
1e-15
1e-15
1e-15
1e-15
1e-15
1e-15
1e-15
1e-15
1e-15
1.01899257782e-15
1.07099953813e-15
1.1796245422e-15
1.85856588717e-15
0.384469041773
0.241587492353
0.0683294428272
0.0051834758471
7.12733959168e-05
3.72211091873e-09
1e-15
1e-15
1e-15
1e-15
1e-15
1e-15
1e-15
1e-15
1e-15
1e-15
1.02531942446e-15
1.08020280081e-15
1.20779926993e-15
1.85484772199e-15
0.405004917089
0.289305724865
0.115489745684
0.0161917977294
0.000504200105164
7.05832056819e-07
1e-15
1e-15
1e-15
1e-15
1e-15
1e-15
1e-15
1e-15
1e-15
1e-15
1.03261135247e-15
1.08980141875e-15
1.23214970101e-15
1.84812576952e-15
0.404610214715
0.322754121656
0.160894786646
0.0351388165692
0.00213734870275
1.43532853265e-05
1.02446278112e-15
1e-15
1e-15
1e-15
1e-15
1e-15
1e-15
1e-15
1e-15
1e-15
1.04046554077e-15
1.09930807395e-15
1.25196454394e-15
1.84897174036e-15
0.405038458026
0.347883638917
0.201186556593
0.0596832097145
0.00602740258476
0.000103195201245
1.15132039943e-15
1e-15
1e-15
1e-15
1e-15
1e-15
1e-15
1e-15
1e-15
1.01652590926e-15
1.04899274766e-15
1.10852892005e-15
1.26719373804e-15
1.85729302077e-15
0.404610214715
0.367522716345
0.237319357616
0.0875754553361
0.0129863399455
0.000430367169397
3.12837550912e-07
1e-15
1e-15
1e-15
1e-15
1e-15
1e-15
1e-15
1.0108886818e-15
1.02749528628e-15
1.05825281922e-15
1.11754458467e-15
1.2793056626e-15
1.87093724915e-15
0.40487021329
0.382943624391
0.270409493185
0.117726051673
0.0235035044627
0.00130405719229
5.65560487705e-06
1e-15
1e-15
1e-15
1.00518995688e-15
1.00866501648e-15
1.01238705673e-15
1.01820674622e-15
1.02338126019e-15
1.03625673374e-15
1.06735041965e-15
1.12631630902e-15
1.29024630615e-15
1.88811607657e-15
0.404610214715
0.394088756931
0.299086872063
0.148419122365
0.0377090608743
0.00319815066022
3.72392442229e-05
1.06781959326e-15
1e-15
1e-15
1.01692455595e-15
1.02248746307e-15
1.02355060748e-15
1.02546751263e-15
1.02919888957e-15
1.04383470479e-15
1.07507658619e-15
1.13450490117e-15
1.30147134917e-15
1.90819997218e-15
0.404704562965
0.401401507519
0.320541080914
0.177048644039
0.0550990907042
0.00675067724814
0.000161912686084
2.1961064261e-09
1e-15
1e-15
1.01399316397e-15
1.02589546762e-15
1.02823037328e-15
1.02982624332e-15
1.0336293515e-15
1.04930953294e-15
1.08058387186e-15
1.14171289995e-15
1.31333912042e-15
1.93045755992e-15
0.404610214715
0.404905047226
0.337245282335
0.203319932816
0.0752521219106
0.0127194403029
0.000559330866172
1.38983497409e-06
1e-15
1e-15
1.00190693923e-15
1.02403015207e-15
1.03025058691e-15
1.03197584423e-15
1.03636374919e-15
1.05226500497e-15
1.0834371246e-15
1.14751086621e-15
1.32601073821e-15
1.95230816e-15
0.404742363596
0.404610214715
0.352690504618
0.230880174023
0.09943338825
0.0223054466607
0.00172554772326
1.98486982338e-05
1e-15
1e-15
1.00073613276e-15
1.01969007783e-15
1.02972347873e-15
1.03160983531e-15
1.03680333749e-15
1.05248184672e-15
1.08372851506e-15
1.15200222285e-15
1.33984889825e-15
1.97185002915e-15
0.404023506569
0.404903991802
0.368366514217
0.263200407804
0.131101597438
0.0380158637439
0.00481886141321
0.000157787862889
2.53097443791e-07
1e-15
1e-15
1.00163964818e-15
1.02100160517e-15
1.027967041e-15
1.03475815277e-15
1.04992236581e-15
1.08176340966e-15
1.15495919025e-15
1.35450015933e-15
1.99034171082e-15
0.40218529877
0.404610214715
0.391054843429
0.306067070738
0.174967126147
0.06358467322
0.0120436993855
0.000886158863645
1.43866494417e-05
1e-15
1e-15
1e-15
1.00977426283e-15
1.02184579343e-15
1.02947825784e-15
1.04374797467e-15
1.07674398485e-15
1.15550764519e-15
1.37095307127e-15
2.01438818964e-15
0.399131760822
0.4051222434
0.404610214715
0.347745800985
0.228352798035
0.101596257979
0.0265684091073
0.00353220692545
0.000176786968321
1.47093964027e-06
1e-15
1e-15
1.00093841953e-15
1.01588330696e-15
1.02071689674e-15
1.03292638327e-15
1.06712800371e-15
1.1526865357e-15
1.37792705887e-15
2.06069029978e-15
0.394388499187
0.404610214715
0.405120999767
0.380491926752
0.281033497164
0.147494843708
0.0498618515305
0.00998326027579
0.00107897159407
4.09363641909e-05
1.09444106506e-07
1e-15
1e-15
1e-15
1.00618440473e-15
1.01511627377e-15
1.04942986466e-15
1.14152880206e-15
1.37204691082e-15
2.15564949722e-15
0.386625938879
0.405248581443
0.404610214715
0.404877583611
0.325649417938
0.192828711419
0.079018275362
0.0213442913272
0.00373976625257
0.000322645770469
5.70075690415e-06
1e-15
1e-15
1e-15
1.00000403139e-15
1.00008530261e-15
1.01466441134e-15
1.11478887064e-15
1.34197672959e-15
2.32411710216e-15
0.375860210789
0.404610214715
0.405487071512
0.404610214715
0.351200289389
0.23030522598
0.109229804941
0.0367194899885
0.00875205486281
0.00131398182811
6.88844038046e-05
2.07904753754e-07
1e-15
1e-15
1e-15
1e-15
1e-15
1.03121574905e-15
1.24564934161e-15
2.56752623475e-15
0.35727430288
0.404950641723
0.404610214715
0.405169356097
0.366062896254
0.258747844259
0.136807463732
0.0537749881808
0.0157668465946
0.00327337613255
0.000315715746397
4.45226253911e-06
1e-15
1e-15
1e-15
1e-15
1e-15
1.03654723517e-15
1.03631439814e-15
2.83663349377e-15
0.325177573896
0.403233895514
0.405486579087
0.404610214715
0.377776464604
0.281861039417
0.161390442019
0.0709017280625
0.0238783435249
0.00596768562439
0.000836360517714
2.86650687984e-05
4.49753384313e-09
1e-15
6.60356049103e-15
4.1719998206e-14
1.00094235481e-13
3.38463607719e-14
1.42403985817e-15
3.29980515947e-15
0.281305704645
0.389920992101
0.404610214715
0.405363531671
0.395631071774
0.306050597741
0.185880002084
0.0889582552715
0.0331181238429
0.00925050599434
0.00162756851955
0.000100208263499
1.97773845144e-07
2.04851992788e-11
9.19940327556e-11
1.45115515034e-10
1.4875264522e-10
3.39662927934e-11
2.85908977388e-12
2.78798063788e-12
0.231662655088
0.349725207157
0.405127060929
0.404610214715
0.405111502206
0.333161382154
0.216689024944
0.112878568488
0.0466100472305
0.0146144169994
0.00310220818614
0.000306390122142
5.3416888789e-06
1.64294395531e-07
2.7354553871e-07
3.10618350903e-07
3.31312266154e-08
4.35998116823e-09
7.4471465474e-10
1.59438486e-09
0.204989344115
0.2871531293
0.398344868613
0.405505994399
0.404610214715
0.365138855321
0.262295370631
0.152742010423
0.0728951489662
0.027684232048
0.00785119964624
0.00147502654064
0.000188218070755
9.46723325935e-05
0.000222684417853
0.000387162160965
6.4201938052e-05
4.49409541696e-06
8.72957239789e-08
6.07769974691e-08
0.204541858227
0.233031393106
0.357829171667
0.404610214715
0.405427008448
0.404610214715
0.334537255295
0.227091193401
0.132006099942
0.0667985415126
0.0299593897762
0.0121996341914
0.00445821077142
0.00409181389012
0.0150439489385
0.0325417429095
0.0114610876533
0.00155806640983
5.57043979581e-05
3.93079637851e-07
0.204691080504
0.204882627745
0.28675144151
0.39898713077
0.404610214715
0.405319521461
0.394798242628
0.332898722999
0.246095472228
0.170479354482
0.117185655688
0.074549494201
0.0351668265173
0.0416197104534
0.204684462614
0.350509437887
0.193057303658
0.0542246134384
0.00558731346634
1.28612443896e-05
0.204539092213
0.204691080504
0.234527879248
0.355003882294
0.405402036458
0.404610214715
0.405208837251
0.402914758829
0.376407808302
0.331260033293
0.265403682456
0.166709034224
0.165077372898
0.392034109134
0.662194755911
0.646431888507
0.509354154906
0.287902379169
0.0635191788057
0.000224018035328
0.204691080504
0.204396624321
0.208996931804
0.287550038571
0.394030799888
0.405582348946
0.404610214715
0.405224531334
0.404610214715
0.381474782764
0.30653531746
0.317589531019
0.546087795426
0.685994332381
0.688275311089
0.685994332381
0.599011864822
0.378426334366
0.115950843004
0.000799736991025
)
;

boundaryField
{
    emptyPatch
    {
        type            empty;
    }
    minY
    {
        type            fixedValue;
        value           nonuniform List<scalar> 0();
    }
    maxY
    {
        type            inletOutlet;
        phi             phi.gas;
        inletValue      nonuniform List<scalar> 0();
        value           nonuniform List<scalar> 0();
    }
    water_to_cooler
    {
        type            zeroGradient;
    }
    water_to_heater
    {
        type            zeroGradient;
    }
    procBoundary3to1
    {
        type            processor;
        value           nonuniform List<scalar> 
41
(
0.541672998167
0.524080639258
0.546643489581
0.604011348544
0.630627850731
0.630897437109
0.604077987846
0.52107987982
0.4114792618
0.32400036647
0.277911490402
0.248074078332
0.216926815011
0.700226511711
0.686444723782
0.69667469141
0.696231068564
0.692026438503
0.648898871605
0.541672998167
0.570142035491
0.204604438813
0.204691080504
0.204344135189
0.237585374014
0.345042643305
0.404610214715
0.405198429571
0.404610214715
0.401616355739
0.36948177482
0.369460366147
0.543319238966
0.68609939889
0.689946313455
0.685994332381
0.686320964892
0.571565398195
0.320528048593
0.0610113034974
0.000266502668982
)
;
    }
    procBoundary3to2
    {
        type            processor;
        value           nonuniform List<scalar> 
41
(
0.676271160543
0.676541813237
0.676028941905
0.676281067665
0.66999994205
0.618708005203
0.533987210184
0.438811740651
0.344882209404
0.28121122681
0.275299748387
0.27534934257
0.274822337059
0.275579983824
0.281924083293
0.34688114056
0.366469271498
0.311008620786
0.178103745347
0.0504966986649
1e-15
1.0191411619e-15
1.02375436671e-15
1.02344668643e-15
1.02386993729e-15
1.02344668643e-15
1.02303856326e-15
1.01119605647e-15
1e-15
1e-15
1e-15
1.00020846794e-15
1.00691554898e-15
1.0169362574e-15
1.03390965664e-15
1.02743918083e-15
1.65239602919e-15
0.00409915828431
3.34640862114e-05
1e-15
1e-15
)
;
    }
}


// ************************************************************************* //
