/*--------------------------------*- C++ -*----------------------------------*\
| =========                 |                                                 |
| \\      /  F ield         | OpenFOAM: The Open Source CFD Toolbox           |
|  \\    /   O peration     | Version:  2312                                  |
|   \\  /    A nd           | Website:  www.openfoam.com                      |
|    \\/     M anipulation  |                                                 |
\*---------------------------------------------------------------------------*/
FoamFile
{
    version     2.0;
    format      ascii;
    arch        "LSB;label=32;scalar=64";
    class       volScalarField;
    location    "0.38/water";
    object      alphat.gas;
}
// * * * * * * * * * * * * * * * * * * * * * * * * * * * * * * * * * * * * * //

dimensions      [1 -1 -1 0 0 0 0];

internalField   nonuniform List<scalar> 
6000
(
1.97226721697e-07
8.19653182854e-08
3.52526415834e-08
2.44243291058e-08
9.43432861004e-08
6.95457968384e-07
2.95403913204e-06
6.68473092657e-06
1.01096981317e-05
1.22840243234e-05
1.34218671697e-05
1.39508795426e-05
1.41720050498e-05
1.42511938317e-05
1.42704399285e-05
1.42673189426e-05
1.4257842494e-05
1.42482017586e-05
1.4240402627e-05
1.42348260404e-05
9.02378397921e-07
6.44691457887e-07
3.31551741676e-07
1.76644272635e-07
7.49205241317e-08
5.71012152679e-08
1.20474698047e-07
7.03138067461e-07
3.05661438158e-06
6.993865993e-06
1.04051666821e-05
1.24827464472e-05
1.35389963363e-05
1.40148878021e-05
1.4203566702e-05
1.4263141442e-05
1.42704280876e-05
1.4259997082e-05
1.42462240926e-05
1.42344634108e-05
1.24082328308e-06
1.07555413384e-06
7.15155681615e-07
3.9663055865e-07
2.20611206546e-07
1.06089435248e-07
7.61707477149e-08
1.7786954804e-07
9.55422280281e-07
3.43830088654e-06
7.10857294161e-06
1.03002527972e-05
1.23590090293e-05
1.34748438056e-05
1.40067893401e-05
1.42282779016e-05
1.43019394154e-05
1.43128291838e-05
1.43015393803e-05
1.42858563133e-05
1.47084450762e-06
1.33245381729e-06
9.80166545687e-07
6.18109652596e-07
4.04434720322e-07
1.92523160702e-07
1.02881068312e-07
9.80125419202e-08
3.64470335954e-07
1.69623635288e-06
4.63446045431e-06
8.09491649496e-06
1.08653501587e-05
1.26359191792e-05
1.36104058603e-05
1.40833164265e-05
1.42817624863e-05
1.43461386359e-05
1.43527961272e-05
1.43394386515e-05
1.64153172868e-06
1.52344315871e-06
1.17318663852e-06
8.03885187495e-07
4.88343766935e-07
3.25874462269e-07
1.40460973573e-07
9.06931400499e-08
1.75021313448e-07
8.6216252762e-07
2.98841270186e-06
6.22217974374e-06
9.33598450213e-06
1.16272451913e-05
1.30491833068e-05
1.38240641663e-05
1.41965548534e-05
1.43485445687e-05
1.43928513767e-05
1.43915799973e-05
1.75050673239e-06
1.65943770377e-06
1.31894356904e-06
9.4868438121e-07
6.26187991452e-07
3.60226266146e-07
2.21129879701e-07
9.4239553749e-08
1.05187444731e-07
4.3802683634e-07
1.88997322307e-06
4.71076968713e-06
7.9085771594e-06
1.05590505737e-05
1.23760511763e-05
1.34632956896e-05
1.40405212959e-05
1.43088058372e-05
1.44105425855e-05
1.44326383362e-05
1.79245065343e-06
1.72056539298e-06
1.40157685697e-06
1.0465189004e-06
7.31250748794e-07
4.63693101357e-07
2.45476609948e-07
1.30173365874e-07
7.1997097205e-08
2.13942821341e-07
1.13547086353e-06
3.48949538607e-06
6.6221762642e-06
9.5015961349e-06
1.1643822992e-05
1.30270495413e-05
1.3821144755e-05
1.42255649628e-05
1.44016884751e-05
1.44581994318e-05
1.80877587466e-06
1.7487686946e-06
1.44622898054e-06
1.10846587718e-06
8.06446860785e-07
5.46209247136e-07
3.23390285288e-07
1.61181436934e-07
7.17400601478e-08
9.52056514124e-08
6.059744338e-07
2.47986633734e-06
5.46846045315e-06
8.48988490398e-06
1.08929535458e-05
1.25426435953e-05
1.35512523244e-05
1.41022651191e-05
1.43653196247e-05
1.44658149572e-05
1.81769732521e-06
1.76343978945e-06
1.47037802348e-06
1.14600551839e-06
8.57814655573e-07
6.09605385433e-07
3.92701993276e-07
2.06949920452e-07
1.00126284055e-07
5.08756563531e-08
2.46208621557e-07
1.59695402632e-06
4.40295268161e-06
7.52747682145e-06
1.01472848575e-05
1.20325661258e-05
1.32445710708e-05
1.39446433917e-05
1.43023222384e-05
1.44542080337e-05
1.82259502162e-06
1.77206848784e-06
1.48438833765e-06
1.16779566573e-06
8.91560083623e-07
6.57235790414e-07
4.50824182651e-07
2.64551756826e-07
1.1362301462e-07
5.26403504708e-08
7.80453086978e-08
8.12938661304e-07
3.36034554842e-06
6.58806760538e-06
9.40846563935e-06
1.15076849675e-05
1.29105663338e-05
1.37576481529e-05
1.42140371054e-05
1.44221971078e-05
1.81645311826e-06
1.77389721638e-06
1.48936534583e-06
1.17810958084e-06
9.12945673611e-07
6.9304452656e-07
4.9869495473e-07
3.16144720733e-07
1.52225920552e-07
5.04585257098e-08
4.00457472413e-08
2.71108711376e-07
2.27612943512e-06
5.60922958253e-06
8.64330933413e-06
1.09575698288e-05
1.25487969118e-05
1.35431121046e-05
1.40999311214e-05
1.43687154823e-05
1.80544219724e-06
1.77001616525e-06
1.48657007857e-06
1.17954600096e-06
9.26220238418e-07
7.20818725279e-07
5.3760428097e-07
3.5984744586e-07
1.88225440832e-07
6.29899229465e-08
3.28919220157e-08
8.18773780261e-08
1.21716685007e-06
4.52622109824e-06
7.78843426685e-06
1.03487631955e-05
1.21458183026e-05
1.32939790986e-05
1.39582286039e-05
1.42932294724e-05
1.78981767375e-06
1.76330339837e-06
1.48074560864e-06
1.1793156838e-06
9.37882883727e-07
7.44725120863e-07
5.69703876747e-07
3.95547040674e-07
2.1895830563e-07
7.64055324416e-08
2.58070963269e-08
4.15336890237e-08
4.70815167982e-07
3.3172690923e-06
6.75334021257e-06
9.61162030803e-06
1.16675711296e-05
1.30008970045e-05
1.37872057151e-05
1.41958349195e-05
1.78853285579e-06
1.75940548702e-06
1.47840298117e-06
1.18544633142e-06
9.54612170225e-07
7.68980381057e-07
5.97687152144e-07
4.25239209268e-07
2.45457434471e-07
9.07977462216e-08
2.77736014198e-08
2.85166954568e-08
1.52516701402e-07
1.98645378303e-06
5.43499809796e-06
8.675771595e-06
1.10821979127e-05
1.26514141751e-05
1.35836069302e-05
1.40767977974e-05
1.79625672368e-06
1.76319783479e-06
1.49371570801e-06
1.21121180938e-06
9.83751555303e-07
7.96413668238e-07
6.23846688454e-07
4.51934122832e-07
2.70803656657e-07
1.08857506482e-07
3.27406604849e-08
1.92984154149e-08
5.25636690759e-08
8.98096629026e-07
3.91645381504e-06
7.50101588748e-06
1.03520120663e-05
1.22273782796e-05
1.33415436736e-05
1.39358046552e-05
1.82809391135e-06
1.81243524498e-06
1.56196031906e-06
1.27443584953e-06
1.02792110715e-06
8.25528815182e-07
6.48197025342e-07
4.77440254793e-07
2.99344570317e-07
1.34978722183e-07
4.12013749557e-08
1.8568157769e-08
2.95402778453e-08
3.05523085707e-07
2.40586785099e-06
6.08318536543e-06
9.44036352838e-06
1.17067951475e-05
1.30521299188e-05
1.37710212207e-05
1.94363666072e-06
1.95164021699e-06
1.6865293242e-06
1.35650911766e-06
1.07112603139e-06
8.49580910871e-07
6.6890520612e-07
5.03235707455e-07
3.36145783816e-07
1.70051102973e-07
5.40940844663e-08
2.01987617764e-08
2.16789367155e-08
8.02638922945e-08
1.16954676837e-06
4.50542957987e-06
8.32702186071e-06
1.10673917488e-05
1.27035715103e-05
1.3578206317e-05
2.10118432983e-06
2.10624667323e-06
1.78776475218e-06
1.40901011552e-06
1.09667866713e-06
8.64239961413e-07
6.84478550466e-07
5.29804392539e-07
3.7738739364e-07
2.12820976571e-07
7.25867702316e-08
2.30409784797e-08
1.75697910543e-08
3.59146110136e-08
3.82808630233e-07
2.94862988653e-06
7.03298042408e-06
1.0295147511e-05
1.22832467828e-05
1.33506532775e-05
2.1591368388e-06
2.13981262652e-06
1.81380268666e-06
1.42885436485e-06
1.1082358288e-06
8.71097546157e-07
6.95066881779e-07
5.5285597257e-07
4.16173117252e-07
2.57753213522e-07
9.61586230392e-08
2.69502173291e-08
1.75958673792e-08
2.22337438417e-08
9.15116668015e-08
1.53157578932e-06
5.61061888919e-06
9.38540293471e-06
1.17789380642e-05
1.30796815275e-05
2.19091723091e-06
2.17327306735e-06
1.8400234323e-06
1.44569892095e-06
1.11666917021e-06
8.7508091773e-07
7.02191832508e-07
5.70710510697e-07
4.47913211504e-07
2.96533573253e-07
1.1981786509e-07
3.13500415929e-08
1.75537206119e-08
2.04033530442e-08
5.02859398381e-08
4.92505944032e-07
4.11284411338e-06
8.34436868669e-06
1.11801061675e-05
1.27555761587e-05
2.20952820171e-06
2.19739853801e-06
1.86234537233e-06
1.46271894186e-06
1.12483376085e-06
8.78180477144e-07
7.06992804983e-07
5.83895113937e-07
4.72858503037e-07
3.27536094092e-07
1.38818025325e-07
3.47043387288e-08
1.73684091263e-08
1.888529343e-08
3.0112440613e-08
1.4508035687e-07
2.63779651127e-06
7.22437632054e-06
1.0485656887e-05
1.23693502595e-05
2.21388845788e-06
2.21029330586e-06
1.87751136766e-06
1.47448141512e-06
1.13058300221e-06
8.80106793701e-07
7.10364780738e-07
5.95077064406e-07
4.94551678708e-07
3.51803278374e-07
1.5251940179e-07
3.68838022035e-08
1.70834017109e-08
1.75983125028e-08
2.52833412109e-08
8.43803204759e-08
1.37119620811e-06
6.03938523973e-06
9.68785444187e-06
1.19102888485e-05
2.20620323367e-06
2.21942533846e-06
1.88778242909e-06
1.48064984209e-06
1.13334455059e-06
8.81322702509e-07
7.14687872843e-07
6.08140693985e-07
5.1531203887e-07
3.70251755843e-07
1.62253284057e-07
3.85519250165e-08
1.69366752875e-08
1.67451715439e-08
2.1739066894e-08
5.82695210363e-08
6.137056384e-07
4.77550192744e-06
8.76901118457e-06
1.1364903798e-05
2.21153624528e-06
2.22776831252e-06
1.89268691019e-06
1.48169282033e-06
1.13375592806e-06
8.83612671772e-07
7.22673221794e-07
6.24664352534e-07
5.34329653083e-07
3.83757140884e-07
1.70224406483e-07
4.07487358881e-08
1.70735799097e-08
1.63982581344e-08
1.95664493093e-08
3.60426615202e-08
2.81267985552e-07
3.51032577156e-06
7.72190417916e-06
1.07194948892e-05
2.22053470632e-06
2.2392525079e-06
1.89923640932e-06
1.48272859716e-06
1.1348650362e-06
8.88928763105e-07
7.35375105995e-07
6.42995613362e-07
5.50332920319e-07
3.93416563166e-07
1.77514456054e-07
4.38036326665e-08
1.74888095611e-08
1.64535038926e-08
1.86638408976e-08
2.51824932375e-08
1.37678261232e-07
2.33739365647e-06
6.54420865744e-06
9.95936906855e-06
2.23842829077e-06
2.25301302217e-06
1.90690072717e-06
1.48496657048e-06
1.13775968059e-06
8.97282771046e-07
7.51076146861e-07
6.60724614524e-07
5.63082515571e-07
3.99309032851e-07
1.83610648116e-07
4.712997584e-08
1.80045990033e-08
1.6768969892e-08
1.85835638448e-08
2.18679625314e-08
7.11946262878e-08
1.35077915102e-06
5.26801838382e-06
9.07677241365e-06
2.24867004269e-06
2.26315204949e-06
1.91111601827e-06
1.48580898285e-06
1.14123543806e-06
9.07543155906e-07
7.67467935743e-07
6.76574696985e-07
5.71991377956e-07
4.00473264852e-07
1.87005862314e-07
4.96599784703e-08
1.83951688111e-08
1.70847301284e-08
1.89160146644e-08
2.10983527779e-08
4.49257575447e-08
6.58238867334e-07
3.99314324631e-06
8.08175447948e-06
2.25734885937e-06
2.26794371227e-06
1.90761026959e-06
1.48257373242e-06
1.14451822292e-06
9.1939781624e-07
7.83980075538e-07
6.90194003138e-07
5.7526971976e-07
3.95488905397e-07
1.86606666807e-07
5.09811851873e-08
1.87158354685e-08
1.72936424264e-08
1.93264462276e-08
2.11287461305e-08
3.33167110348e-08
2.65143456905e-07
2.80800029644e-06
6.98861366756e-06
2.25774908566e-06
2.25287976357e-06
1.88787729673e-06
1.47298636342e-06
1.14884137752e-06
9.34077686266e-07
8.01053676443e-07
7.00339810794e-07
5.70754863216e-07
3.84533730528e-07
1.8282832903e-07
5.25071192238e-08
1.93382133833e-08
1.74335626101e-08
1.94487679534e-08
2.11552214159e-08
2.41640794339e-08
1.02977781947e-07
1.77449489339e-06
5.81520891009e-06
2.23115267964e-06
2.20531983522e-06
1.85882281923e-06
1.46993539231e-06
1.16338764169e-06
9.55066684653e-07
8.18655847857e-07
7.04075959942e-07
5.57498564437e-07
3.6936910397e-07
1.79863293494e-07
5.64606659211e-08
2.03250018568e-08
1.75126019624e-08
1.933150592e-08
2.0973358028e-08
2.28624723191e-08
5.44856435902e-08
9.76913502016e-07
4.61357886784e-06
2.19783000931e-06
2.17796222705e-06
1.86751618802e-06
1.50232875707e-06
1.19951187774e-06
9.8432249078e-07
8.33375745576e-07
6.96737076578e-07
5.38082908379e-07
3.58732384098e-07
1.84959596643e-07
6.31796766854e-08
2.18465150491e-08
1.76184161104e-08
1.91590302978e-08
2.0630760143e-08
2.19647226082e-08
4.01037955643e-08
4.49091575172e-07
3.44202824164e-06
2.22658483016e-06
2.2371288165e-06
1.94965651081e-06
1.58065302233e-06
1.25337845275e-06
1.01368187908e-06
8.37007128855e-07
6.82373445162e-07
5.26054324268e-07
3.6299602849e-07
2.00245094803e-07
7.38079180239e-08
2.42960544834e-08
1.78506647103e-08
1.90379803293e-08
2.03013773376e-08
2.12605056213e-08
2.60195372804e-08
1.70551074624e-07
2.34132908501e-06
2.31806765202e-06
2.36325755665e-06
2.08092094975e-06
1.67484188046e-06
1.3093742266e-06
1.04028913571e-06
8.39755288623e-07
6.77191045115e-07
5.31994621606e-07
3.85956808094e-07
2.29124683785e-07
9.11347927236e-08
2.83535723069e-08
1.83262779867e-08
1.9041872065e-08
2.0106775487e-08
2.07492852943e-08
2.31359914405e-08
7.24636902291e-08
1.39437864746e-06
2.46652405577e-06
2.53603968265e-06
2.22002607843e-06
1.77293891907e-06
1.38212485524e-06
1.08378788886e-06
8.58901235674e-07
6.90147766519e-07
5.55830273492e-07
4.2563245622e-07
2.73551226368e-07
1.18843384075e-07
3.51370176367e-08
1.92032787115e-08
1.91998636467e-08
2.00585013013e-08
2.04135389474e-08
2.20251748333e-08
4.80242394655e-08
6.81089131613e-07
2.60455487055e-06
2.67519851042e-06
2.31903908341e-06
1.86951077273e-06
1.47510348229e-06
1.14802435605e-06
8.95477175232e-07
7.15489055063e-07
5.87579262529e-07
4.72475075258e-07
3.28726940726e-07
1.58065625353e-07
4.58153441757e-08
2.06465845102e-08
1.94917508839e-08
2.00927994592e-08
2.00537401746e-08
2.12410709757e-08
3.02107349945e-08
2.4792743453e-07
2.66255718669e-06
2.73843945679e-06
2.38298987298e-06
1.95182531855e-06
1.56452050286e-06
1.22044631151e-06
9.37939173804e-07
7.4139779541e-07
6.15221745557e-07
5.13820996605e-07
3.82979357709e-07
2.03619755139e-07
6.05543154266e-08
2.27626463456e-08
1.98545754945e-08
2.01023390853e-08
1.9675664516e-08
2.05651800187e-08
2.65293360949e-08
9.80721656954e-08
2.67698177302e-06
2.76759969665e-06
2.43314166584e-06
2.02143067204e-06
1.63673183839e-06
1.28021014498e-06
9.73793142117e-07
7.6008865107e-07
6.32994262166e-07
5.42542934733e-07
4.25453694486e-07
2.45995792115e-07
7.79435098425e-08
2.56009195956e-08
2.02523425488e-08
2.01282538138e-08
1.94069953729e-08
1.98714300699e-08
2.4345958799e-08
6.70277112645e-08
2.67377948889e-06
2.77946522342e-06
2.46634774766e-06
2.07323218186e-06
1.69241533138e-06
1.32202735004e-06
9.96894965025e-07
7.7109426994e-07
6.42888580022e-07
5.59572896957e-07
4.52327094182e-07
2.77015175408e-07
9.52411012047e-08
2.91940196244e-08
2.07239187868e-08
2.0190111073e-08
1.92467716458e-08
1.92491890497e-08
2.24997356743e-08
4.28535092912e-08
2.68513024772e-06
2.79535933714e-06
2.49195202053e-06
2.10963814178e-06
1.72976360847e-06
1.34682327593e-06
1.00896760718e-06
7.77599203508e-07
6.49711094216e-07
5.70417394392e-07
4.67938237768e-07
2.95054985062e-07
1.08046368862e-07
3.28684372061e-08
2.13005624313e-08
2.02834830092e-08
1.91901094443e-08
1.87923795775e-08
2.09927596084e-08
3.38938880835e-08
2.70934549729e-06
2.82543171735e-06
2.52338087103e-06
2.14000959475e-06
1.75270119981e-06
1.35610111573e-06
1.01123833415e-06
7.80556827099e-07
6.55379494757e-07
5.78270118852e-07
4.76368551287e-07
3.03316318278e-07
1.15498320446e-07
3.57409687798e-08
2.18593427274e-08
2.04021703821e-08
1.92250760126e-08
1.85186421188e-08
1.98758155521e-08
2.90735869723e-08
2.73367301788e-06
2.86027079182e-06
2.56121915507e-06
2.16918739734e-06
1.76553027461e-06
1.35317102115e-06
1.00695367301e-06
7.82128657644e-07
6.61167640836e-07
5.8432655484e-07
4.79482355043e-07
3.04319302597e-07
1.18443114539e-07
3.76486231414e-08
2.23228073873e-08
2.0521407762e-08
1.93271037623e-08
1.83873581209e-08
1.91135257868e-08
2.55234236883e-08
2.75960272743e-06
2.90197788913e-06
2.6068333665e-06
2.19952748235e-06
1.77209283197e-06
1.34409890107e-06
1.00195223257e-06
7.85061263604e-07
6.67523801111e-07
5.88442630798e-07
4.7806114169e-07
3.0011446137e-07
1.18227718004e-07
3.87291452119e-08
2.2670221888e-08
2.06318121736e-08
1.94505123898e-08
1.83448421975e-08
1.86209951018e-08
2.29361092906e-08
2.79350357392e-06
2.95371450024e-06
2.65741984803e-06
2.23034183715e-06
1.77476682078e-06
1.33577953336e-06
1.00093949143e-06
7.90657424532e-07
6.73902469815e-07
5.89942025059e-07
4.7266786785e-07
2.92547653461e-07
1.16238193515e-07
3.92755868275e-08
2.29243269153e-08
2.07238921334e-08
1.95645693987e-08
1.83365134337e-08
1.82549937397e-08
2.10437273809e-08
2.8526914268e-06
3.01718489396e-06
2.71123991608e-06
2.26115544642e-06
1.77706771833e-06
1.33334184593e-06
1.00549158822e-06
7.98546175196e-07
6.79121766923e-07
5.8825024131e-07
4.6422401031e-07
2.83551450751e-07
1.13832281345e-07
3.96620601808e-08
2.31455814593e-08
2.07986236966e-08
1.96566123761e-08
1.83105031474e-08
1.79368818521e-08
1.96408747742e-08
2.93505612444e-06
3.10094272087e-06
2.7825746869e-06
2.3033667881e-06
1.78871217538e-06
1.34051577353e-06
1.01507277948e-06
8.07209157668e-07
6.81782076099e-07
5.83260335493e-07
4.54120693491e-07
2.75050766933e-07
1.12168299818e-07
4.02784863167e-08
2.34285472836e-08
2.08685303937e-08
1.97131650298e-08
1.82434355802e-08
1.76420697281e-08
1.8583458902e-08
3.03464161686e-06
3.21149789518e-06
2.88770783044e-06
2.37322330613e-06
1.82252476687e-06
1.36048753693e-06
1.02858238182e-06
8.14587233749e-07
6.80844415451e-07
5.75614372561e-07
4.44144901576e-07
2.68583509167e-07
1.12022707361e-07
4.15092889197e-08
2.38902054755e-08
2.09331693493e-08
1.97172257021e-08
1.8141448245e-08
1.73724137691e-08
1.77717199984e-08
3.16521262895e-06
3.37631357995e-06
3.05209434259e-06
2.48669150156e-06
1.88658999726e-06
1.39332085617e-06
1.04339835785e-06
8.18683743882e-07
6.76513060246e-07
5.66860360805e-07
4.35765059763e-07
2.64540828022e-07
1.13745522324e-07
4.36812945313e-08
2.46319363879e-08
2.09884688876e-08
1.9652513563e-08
1.80312142154e-08
1.7140896321e-08
1.71412871886e-08
3.39277222574e-06
3.66935219034e-06
3.30029724104e-06
2.63727595452e-06
1.96928214436e-06
1.43060487103e-06
1.0552345299e-06
8.19233823658e-07
6.70913094186e-07
5.58925090922e-07
4.28853824079e-07
2.62122638418e-07
1.17345594491e-07
4.68183827186e-08
2.56286316566e-08
2.10061924992e-08
1.95074482571e-08
1.79411108642e-08
1.69621795255e-08
1.66660182092e-08
3.58622262268e-06
3.87345680242e-06
3.4712228653e-06
2.74589460809e-06
2.03422469265e-06
1.4596564269e-06
1.06315625658e-06
8.19492504876e-07
6.6756893414e-07
5.53023071501e-07
4.22383928315e-07
2.61046181882e-07
1.21998837827e-07
5.02691904064e-08
2.66286738523e-08
2.09303784501e-08
1.92773669696e-08
1.78706319029e-08
1.68285133958e-08
1.62858535979e-08
3.18391665003e-06
3.69662771456e-06
3.43658688527e-06
2.7741541628e-06
2.06837082885e-06
1.47968089235e-06
1.07192980074e-06
8.23904779498e-07
6.68770082277e-07
5.49075184666e-07
4.16439740917e-07
2.59916384567e-07
1.25209114331e-07
5.26941532143e-08
2.72034400278e-08
2.06920420876e-08
1.89506403552e-08
1.77744017259e-08
1.67071645124e-08
1.59406390302e-08
2.8502735829e-06
3.66257882539e-06
3.42438804836e-06
2.77336588061e-06
2.07161379122e-06
1.48468898914e-06
1.07941398883e-06
8.31968360199e-07
6.73527565032e-07
5.46839460392e-07
4.09936916467e-07
2.55015145563e-07
1.24245895047e-07
5.27677768962e-08
2.69897280068e-08
2.02337771308e-08
1.85113281717e-08
1.75901610832e-08
1.65623165273e-08
1.56107419122e-08
2.68468707408e-06
3.58242316974e-06
3.32640291103e-06
2.69538252668e-06
2.0228025371e-06
1.46488042401e-06
1.07989927954e-06
8.40012491473e-07
6.79877575229e-07
5.45263227698e-07
4.00042980219e-07
2.43995564016e-07
1.17989135992e-07
5.01576781442e-08
2.5933343321e-08
1.95393407854e-08
1.79576024571e-08
1.72918688285e-08
1.63816924989e-08
1.52762111439e-08
2.5073701457e-06
3.3059659561e-06
3.12410554095e-06
2.55039902243e-06
1.93449953632e-06
1.42634542938e-06
1.07264553826e-06
8.45961214128e-07
6.86598271882e-07
5.42172926177e-07
3.84862410818e-07
2.27193123019e-07
1.07497909598e-07
4.57817814021e-08
2.43404547811e-08
1.86707050238e-08
1.73231351228e-08
1.68933224238e-08
1.6153749605e-08
1.49226333892e-08
2.33153817234e-06
3.06922239394e-06
2.90644272754e-06
2.37864173684e-06
1.82915882608e-06
1.38003499789e-06
1.06233638927e-06
8.52888277316e-07
6.94367470666e-07
5.36529930964e-07
3.65056481605e-07
2.07187611942e-07
9.57110528825e-08
4.12559373033e-08
2.27317733158e-08
1.77764800395e-08
1.66548365747e-08
1.64138125145e-08
1.58823053625e-08
1.45970281218e-08
2.13665551437e-06
2.81251993743e-06
2.67288361819e-06
2.20228725255e-06
1.72823548545e-06
1.34095216142e-06
1.06466079877e-06
8.70381822981e-07
7.04730804237e-07
5.27797066146e-07
3.43632215242e-07
1.8831623395e-07
8.6037886295e-08
3.80478503581e-08
2.16042480637e-08
1.70262069782e-08
1.59916378069e-08
1.58698857016e-08
1.55810362332e-08
1.43428315672e-08
1.95047477239e-06
2.51206337345e-06
2.42559360322e-06
2.05624906674e-06
1.66758473365e-06
1.34289002259e-06
1.09567450054e-06
9.00557211295e-07
7.16088169049e-07
5.17071555737e-07
3.25970616706e-07
1.75564583675e-07
8.10436613464e-08
3.7012095033e-08
2.12902722931e-08
1.65674199344e-08
1.53755950346e-08
1.52700076183e-08
1.52352184988e-08
1.41486095325e-08
1.84552677379e-06
2.26195322362e-06
2.28206219618e-06
2.02728935022e-06
1.71001294e-06
1.40450298316e-06
1.1452007946e-06
9.30319608836e-07
7.24035512697e-07
5.11394118393e-07
3.19066927972e-07
1.72820835203e-07
8.20082956296e-08
3.83789315228e-08
2.18069352823e-08
1.64554462864e-08
1.48486313008e-08
1.46382721677e-08
1.48197985523e-08
1.39787890887e-08
2.03140271735e-06
2.3348481942e-06
2.41813814716e-06
2.20615163841e-06
1.85902005029e-06
1.48793257571e-06
1.18547865565e-06
9.52350652865e-07
7.36391037037e-07
5.2073075553e-07
3.283824224e-07
1.81561681141e-07
8.85078686599e-08
4.16788937789e-08
2.29719905117e-08
1.66708303207e-08
1.45216550169e-08
1.40550457103e-08
1.43484453263e-08
1.38171776289e-08
2.44194709901e-06
2.86298001483e-06
2.90605576141e-06
2.55036662313e-06
2.02844105794e-06
1.55251510525e-06
1.21992920281e-06
9.82891669778e-07
7.66467547942e-07
5.51993912954e-07
3.57437424924e-07
2.03696122399e-07
1.01513960483e-07
4.72559546573e-08
2.48088122988e-08
1.7200000404e-08
1.45383737867e-08
1.3637509664e-08
1.39027545435e-08
1.36869672336e-08
3.27580063614e-06
3.70284971521e-06
3.54287522796e-06
2.89412021217e-06
2.17175933988e-06
1.62858234132e-06
1.28733736476e-06
1.04715845484e-06
8.28986492378e-07
6.13991760435e-07
4.13307160205e-07
2.45251735699e-07
1.24884796984e-07
5.66082838597e-08
2.76806654941e-08
1.80792657958e-08
1.49555961213e-08
1.35563042221e-08
1.36084371781e-08
1.36028083442e-08
4.21853399894e-06
4.54909458155e-06
4.11554237811e-06
3.19159312081e-06
2.36791740701e-06
1.79991921141e-06
1.43575819569e-06
1.17083387287e-06
9.36547161919e-07
7.12553445541e-07
5.01567462632e-07
3.14019788079e-07
1.65497535535e-07
7.28742754354e-08
3.24132176421e-08
1.94275068145e-08
1.56591285981e-08
1.40248473482e-08
1.35641631498e-08
1.36028765104e-08
4.40322870407e-06
4.83797925679e-06
4.42660168243e-06
3.52630538964e-06
2.69548225018e-06
2.08405155183e-06
1.66403491268e-06
1.35202779625e-06
1.08334049075e-06
8.36807524773e-07
6.11621553117e-07
4.07054461953e-07
2.27861253852e-07
1.00091878655e-07
4.03023911203e-08
2.1491759302e-08
1.65074596751e-08
1.4878568888e-08
1.38445378681e-08
1.37559812062e-08
3.70296256086e-06
4.78316185985e-06
4.62071419148e-06
3.89143015641e-06
3.0907955901e-06
2.40941740079e-06
1.91054161525e-06
1.53917197704e-06
1.23188792463e-06
9.5893340301e-07
7.17909771791e-07
5.02841359124e-07
3.02697487792e-07
1.38658420537e-07
5.24762930734e-08
2.45974002523e-08
1.74223300249e-08
1.5669922392e-08
1.46127851331e-08
1.40943126841e-08
3.36658357457e-06
4.73195667293e-06
4.74541556104e-06
4.13178598743e-06
3.3947190028e-06
2.70484645744e-06
2.13126345378e-06
1.68941662341e-06
1.34532769155e-06
1.05437168543e-06
8.03071531872e-07
5.82592466743e-07
3.7268932685e-07
1.82258909878e-07
6.87263740711e-08
2.90008855167e-08
1.84654274103e-08
1.60988991369e-08
1.53347729966e-08
1.45021040619e-08
3.16332535936e-06
4.55434461359e-06
4.73045091231e-06
4.25647378302e-06
3.59183177304e-06
2.90784361004e-06
2.29407139455e-06
1.7952363323e-06
1.41809547353e-06
1.11740544787e-06
8.64162577705e-07
6.42768447172e-07
4.29789088068e-07
2.24868635942e-07
8.82758999837e-08
3.50170615475e-08
1.99124919052e-08
1.62792076277e-08
1.55684798935e-08
1.47595282614e-08
3.04759611692e-06
4.25845431242e-06
4.55530246186e-06
4.24575868499e-06
3.68087965381e-06
3.02808607566e-06
2.39899975638e-06
1.86858013449e-06
1.4662993289e-06
1.15733955368e-06
9.05105268139e-07
6.85171379567e-07
4.71892094229e-07
2.61462963509e-07
1.09108298205e-07
4.2600515896e-08
2.20177818051e-08
1.65496311221e-08
1.53879209276e-08
1.47610262894e-08
3.04156313474e-06
3.99169606968e-06
4.31428917164e-06
4.13479655619e-06
3.66909592855e-06
3.06081830026e-06
2.43967581153e-06
1.90390205739e-06
1.49294134615e-06
1.18125392204e-06
9.31707153983e-07
7.14344887394e-07
5.01718335251e-07
2.89173868145e-07
1.27181699595e-07
5.01862620268e-08
2.44233315959e-08
1.70037802589e-08
1.5106120771e-08
1.44512840348e-08
2.99199405901e-06
3.79952201155e-06
4.10200983522e-06
3.98502630426e-06
3.58056202689e-06
3.01022605727e-06
2.41233571545e-06
1.89325151647e-06
1.49145891563e-06
1.18680564337e-06
9.44507468253e-07
7.32165797663e-07
5.21492619106e-07
3.08606088406e-07
1.41297290235e-07
5.69284583236e-08
2.68349499259e-08
1.75989364148e-08
1.49028647342e-08
1.39947923192e-08
2.92783145088e-06
3.70079244077e-06
3.9655699341e-06
3.8371285838e-06
3.43761118307e-06
2.88601999919e-06
2.32009732423e-06
1.8344858891e-06
1.457927774e-06
1.17165289741e-06
9.43230779629e-07
7.39361601287e-07
5.32188984475e-07
3.20336101897e-07
1.51077307537e-07
6.23478956201e-08
2.9031987681e-08
1.82550601517e-08
1.4813601575e-08
1.35185457994e-08
2.92299802081e-06
3.70311564093e-06
3.90204571414e-06
3.69635548025e-06
3.25333440316e-06
2.70371388302e-06
2.17382355836e-06
1.73279873795e-06
1.39473074067e-06
1.1376722712e-06
9.29718911882e-07
7.3712555632e-07
5.34393268951e-07
3.24725313533e-07
1.56454712701e-07
6.6180605674e-08
3.08530329976e-08
1.88906951717e-08
1.4816924355e-08
1.31034056564e-08
2.95256082267e-06
3.73630714899e-06
3.85691725394e-06
3.54424068127e-06
3.03500548952e-06
2.48143782433e-06
1.98958621086e-06
1.60205993068e-06
1.31265166067e-06
1.09272847612e-06
9.08937866156e-07
7.27669452637e-07
5.29037653311e-07
3.224585891e-07
1.57829240167e-07
6.84439054149e-08
3.22347425093e-08
1.9449525646e-08
1.48711227359e-08
1.27835409442e-08
2.97040633111e-06
3.72908236307e-06
3.76583663683e-06
3.35336330411e-06
2.7876193806e-06
2.23891659692e-06
1.79379309678e-06
1.46610848121e-06
1.23008864346e-06
1.04940871333e-06
8.87305976868e-07
7.13727804282e-07
5.17854183613e-07
3.15117649154e-07
1.56351097426e-07
6.95574695835e-08
3.32691046676e-08
1.99278796659e-08
1.49401544439e-08
1.25489215611e-08
2.94123632441e-06
3.69658861378e-06
3.62621412453e-06
3.13148373276e-06
2.53798492921e-06
2.01185806085e-06
1.62012061268e-06
1.35301064913e-06
1.16803101634e-06
1.01967246593e-06
8.69550279938e-07
6.98491435753e-07
5.03688114683e-07
3.05640951813e-07
1.54073815556e-07
7.03960061271e-08
3.42353993287e-08
2.03968831646e-08
1.50180353579e-08
1.23711152512e-08
2.88293661082e-06
3.5912539443e-06
3.41334805026e-06
2.87813208941e-06
2.30290527257e-06
1.82641341659e-06
1.49634906482e-06
1.28691421108e-06
1.14166873147e-06
1.00853105894e-06
8.59240864289e-07
6.8677606029e-07
4.91140116437e-07
2.98582453944e-07
1.53884173118e-07
7.22178150327e-08
3.55833872271e-08
2.10283949582e-08
1.51698177302e-08
1.22469737552e-08
2.80845431453e-06
3.38507409851e-06
3.14575681589e-06
2.62490565145e-06
2.10978056568e-06
1.70693771844e-06
1.44405992357e-06
1.28059559737e-06
1.15269907211e-06
1.01766510869e-06
8.62602295531e-07
6.84085795753e-07
4.86579317966e-07
2.99514219301e-07
1.59043887759e-07
7.66367972088e-08
3.80736579154e-08
2.21744918906e-08
1.55513681029e-08
1.22163910935e-08
2.74375080116e-06
3.1330226819e-06
2.90094065282e-06
2.44295272954e-06
2.00796792846e-06
1.68328550646e-06
1.47483050804e-06
1.33242527165e-06
1.20060814436e-06
1.05239523915e-06
8.83925630831e-07
6.95924336724e-07
4.97016086895e-07
3.13698924091e-07
1.73551038335e-07
8.63802472363e-08
4.29758825321e-08
2.43555457649e-08
1.63895391307e-08
1.23708347424e-08
2.75734233284e-06
3.0135840237e-06
2.81069588932e-06
2.41840498994e-06
2.04684025299e-06
1.7733525241e-06
1.58883673777e-06
1.44039231622e-06
1.28429359327e-06
1.10999167418e-06
9.2308477558e-07
7.26392690941e-07
5.27942498301e-07
3.48048532484e-07
2.04268495821e-07
1.0578090959e-07
5.20682612153e-08
2.82624258369e-08
1.79535909445e-08
1.28173929092e-08
2.90070104706e-06
3.14215455061e-06
2.95466947542e-06
2.58702061569e-06
2.23234873037e-06
1.96503484538e-06
1.76742508463e-06
1.58375314201e-06
1.38545890993e-06
1.1794115371e-06
9.76182730804e-07
7.77740894323e-07
5.87148286337e-07
4.11932503495e-07
2.59480644399e-07
1.40915747412e-07
6.82056652678e-08
3.48111210343e-08
2.04895244567e-08
1.36123992646e-08
3.18734981261e-06
3.43328318062e-06
3.24679530037e-06
2.86344242498e-06
2.48094259983e-06
2.19023892758e-06
1.96685646304e-06
1.7406423225e-06
1.49574967448e-06
1.26002421419e-06
1.04744812186e-06
8.54235211361e-07
6.73475977939e-07
5.01059276879e-07
3.3802982212e-07
1.95443665489e-07
9.51559926932e-08
4.48649711298e-08
2.40820496626e-08
1.46802339586e-08
3.51235721135e-06
3.70229414924e-06
3.4560415893e-06
3.04306448697e-06
2.64904474405e-06
2.36415029128e-06
2.14383206033e-06
1.89284968832e-06
1.61243553624e-06
1.35656596868e-06
1.13742588623e-06
9.45405525801e-07
7.68827061176e-07
5.97953328803e-07
4.26794745262e-07
2.60996376222e-07
1.30070719806e-07
5.82390963706e-08
2.82897817646e-08
1.57555130247e-08
3.33071053249e-06
3.52507808587e-06
3.365611088e-06
3.03602494071e-06
2.6960391374e-06
2.4474115469e-06
2.25272051987e-06
2.00416370364e-06
1.71134012577e-06
1.44742700735e-06
1.22056975996e-06
1.02401895337e-06
8.47540541133e-07
6.78595944517e-07
5.03629599081e-07
3.20686511776e-07
1.63221224136e-07
7.10995171814e-08
3.19773602401e-08
1.64796418954e-08
2.53778630168e-06
3.34047389709e-06
3.3783964669e-06
3.07212807936e-06
2.73033162536e-06