/*--------------------------------*- C++ -*----------------------------------*\
| =========                 |                                                 |
| \\      /  F ield         | OpenFOAM: The Open Source CFD Toolbox           |
|  \\    /   O peration     | Version:  2312                                  |
|   \\  /    A nd           | Website:  www.openfoam.com                      |
|    \\/     M anipulation  |                                                 |
\*---------------------------------------------------------------------------*/
FoamFile
{
    version     2.0;
    format      ascii;
    arch        "LSB;label=32;scalar=64";
    class       volScalarField;
    location    "0.1/water";
    object      d.gas;
}
// * * * * * * * * * * * * * * * * * * * * * * * * * * * * * * * * * * * * * //

dimensions      [0 1 0 0 0 0 0];

internalField   nonuniform List<scalar> 
750
(
0.00496599878979
0.00496613434816
0.0049657523712
0.00496547510024
0.00496536305998
0.00496662764297
0.00496604498897
0.0049661750966
0.00496760922275
0.00496824207083
0.00496394061351
0.00496401127282
0.00496410622696
0.00496425987675
0.0049643632739
0.00496432294515
0.00496430630905
0.00496428713224
0.00496427822895
0.00496427052
0.00496426220066
0.00496425248029
0.00496424176547
0.0049642299749
0.00496421711564
0.00496420441799
0.00496419351536
0.00496417915445
0.00496415649865
0.00496420795628
0.00496456491037
0.00496460100656
0.00496462431668
0.00496472398854
0.00496479157519
0.00496473606984
0.0049647155754
0.0049646841589
0.00496465712038
0.00496462902366
0.00496460014062
0.00496457209486
0.00496454596742
0.00496452322413
0.00496450479688
0.00496448943779
0.00496446933379
0.00496443845224
0.00496442561316
0.00496447411431
0.00496507754019
0.00496486548226
0.00496483937378
0.0049650066374
0.00496496936583
0.00496493537885
0.0049649176954
0.00496489199394
0.00496486817472
0.0049648411591
0.00496481180036
0.00496478190223
0.00496475392561
0.00496473138214
0.00496471523212
0.00496470088308
0.00496467332652
0.00496464530178
0.00496465870689
0.00496466353531
0.00496493658349
0.0049650030158
0.00496511781969
0.00496517317529
0.00496505328434
0.00496505292837
0.00496504062721
0.00496502270946
0.00496500714173
0.00496498844341
0.00496496609978
0.00496494121072
0.0049649167104
0.00496489460009
0.00496487735452
0.004964863138
0.00496483185348
0.00496481142011
0.00496483664247
0.00496481069982
0.0049648408405
0.00496493546718
0.0049651148076
0.00496520786164
0.00496511259721
0.00496511306367
0.0049651096223
0.00496509878409
0.00496509122603
0.00496508196077
0.00496506926887
0.00496505340159
0.00496503713527
0.00496502210601
0.00496501021554
0.00496500379977
0.00496499165177
0.00496497592406
0.00496499949826
0.00496494005135
0.00496490745233
0.00496496919279
0.00496510836637
0.00496528660861
0.00496517196459
0.00496517299621
0.00496517390068
0.00496516587516
0.00496516180052
0.00496515773358
0.00496515116321
0.00496514184304
0.00496513214165
0.00496512328815
0.00496511732772
0.00496511788858
0.00496513373482
0.00496514868008
0.00496515909956
0.0049650476434
0.00496529067414
0.0049651575332
0.00496518445496
0.00496532321139
0.00496527732444
0.00496524386711
0.00496524440672
0.00496524503609
0.00496524193902
0.004965238534
0.00496523452788
0.00496522674905
0.00496521802256
0.0049652108108
0.00496520657297
0.004965215161
0.00496524490521
0.00496529643766
0.00496530124102
0.00496513308668
0.00496556345862
0.00496543895793
0.0049653873835
0.00496549637995
0.00496540713546
0.00496529586947
0.00496529637888
0.00496529678311
0.00496529679244
0.00496529666596
0.00496529839637
0.00496529437041
0.00496528752051
0.0049652853507
0.00496528664045
0.00496528986705
0.00496530570451
0.00496536338038
0.00496536851628
0.00496519617135
0.00496525386188
0.00496529752003
0.00496535467575
0.00496553964748
0.00496553871603
0.00496534862801
0.00496534906428
0.00496534962281
0.00496535007215
0.00496534858728
0.00496534860783
0.00496534199099
0.00496532991836
0.00496532178679
0.00496531675807
0.00496531206164
0.00496531574612
0.00496535215463
0.00496535944214
0.00496524326228
0.00496502365424
0.0049651107833
0.00496520054464
0.00496538095456
0.00496557796799
0.00496539080294
0.00496539175762
0.00496539253539
0.00496539313468
0.00496539354092
0.00496539830872
0.00496540877216
0.00496541392055
0.00496542137689
0.00496543120727
0.00496544057346
0.00496545296687
0.00496549571407
0.00496553120863
0.00496542963288
0.00496497101956
0.00496505598617
0.00496513842558
0.00496526248445
0.00496548460657
0.00496554713294
0.00496543686703
0.00496543770685
0.0049654383717
0.00496543883004
0.00496543915292
0.00496544842289
0.00496544994096
0.00496545089805
0.00496545638115
0.00496546249711
0.00496547076705
0.00496551220317
0.00496556292602
0.00496544707562
0.0049656334464
0.00496540834756
0.00496535985787
0.00496536904704
0.00496546006441
0.0049655872769
0.00496551983261
0.00496548544557
0.00496548579063
0.00496548599484
0.00496548605649
0.00496549580942
0.00496550839105
0.00496551889558
0.00496553720713
0.00496555794903
0.00496558033845
0.00496563511718
0.00496570939098
0.00496560253377
0.00496611416535
0.00496594270745
0.0049657886158
0.00496571239971
0.00496568044718
0.00496576108613
0.00496572028008
0.00496553316671
0.00496553347414
0.00496553368612
0.00496553377999
0.0049655366579
0.00496554253063
0.00496552687701
0.00496551025878
0.00496549902097
0.00496549264196
0.00496551872656
0.00496557034024
0.00496546554307
0.00496577698709
0.00496579839276
0.00496579823493
0.00496577473715
0.00496575539503
0.00496584461688
0.00496587417695
0.00496558259104
0.00496558284849
0.00496558315635
0.00496558334863
0.00496558348245
0.00496559761415
0.00496557847281
0.00496555361283
0.00496553837023
0.0049655312476
0.00496555325181
0.00496559865431
0.00496550917711
0.00496551831918
0.00496556277194
0.00496560009615
0.00496562055773
0.00496564189664
0.00496575682122
0.00496587747755
0.00496562301832
0.00496562337784
0.004965623584
0.00496562352787
0.00496562327529
0.00496565362508
0.00496563691448
0.00496561986349
0.00496561782307
0.00496562369553
0.00496565741771
0.00496571350342
0.00496564051066
0.00496535459654
0.00496541101784
0.00496544989983
0.00496548622518
0.00496552119856
0.00496560802632
0.00496579207594
0.00496569966028
0.00496567354667
0.00496567363647
0.00496567345795
0.00496567536084
0.00496571685382
0.00496567253475
0.00496563996297
0.00496562980352
0.0049656293764
0.00496565767084
0.00496570964136
0.00496563383936
0.00496612073766
0.00496578058334
0.00496570675499
0.00496570172349
0.00496571009357
0.00496573880985
0.00496588993365
0.00496592501462
0.00496573219117
0.00496573225732
0.00496573206491
0.00496574139132
0.00496579597624
0.00496572033594
0.00496567198379
0.00496565578134
0.00496565197675
0.00496568062512
0.00496573448941
0.00496565315683
0.00496606646397
0.00496603823061
0.00496614922877
0.00496617096225
0.00496603014313
0.00496595497383
0.00496607266962
0.00496628867858
0.00496580914067
0.00496580837239
0.00496581067924
0.00496583244359
0.00496590922773
0.0049658262865
0.00496575219179
0.00496573590452
0.0049657367711
0.00496577228184
0.00496583540812
0.00496575158106
0.00496619450208
0.00496627759391
0.00496639782093
0.00496644558322
0.00496632553409
0.00496618611872
0.00496649678043
0.00496676421228
0.00496595142111
0.00496599174564
0.00496606476563
0.00496616323556
0.00496628388504
0.00496629985949
0.00496622364937
0.00496624407117
0.00496628894302
0.00496636851251
0.00496647286374
0.00496639922858
0.00496766599831
0.00496768906728
0.00496772946213
0.00496777180408
0.00496786554611
0.00496836758339
0.00497048497645
0.00496962652091
0.00496900612319
0.00496900234423
0.0049690977523
0.00496916518771
0.00496923338009
0.00496928180866
0.00496918732532
0.00496909446873
0.00496907276273
0.00496911812798
0.00496920715635
0.00496910599909
0.0049683648196
0.00496842229123
0.00496876399299
0.00496979563842
0.00497197385822
0.00497407870792
0.0049729860347
0.00497220501629
0.00497221589811
0.00497244818079
0.00497264330224
0.00497281944292
0.00497301385668
0.00497321128405
0.00497330765761
0.00497322243992
0.00497307760008
0.00497298766464
0.00497296067547
0.00497275862124
0.00497114322952
0.00497425882903
0.00498182056033
0.00498119742494
0.00497821386232
0.00497734855057
0.00497757590498
0.00497821474513
0.0049788832224
0.0049794556441
0.00498000098491
0.00498060605427
0.00498121789782
0.00498170115584
0.00498195768521
0.00498194852572
0.00498172770297
0.00498142662741
0.00498114042964
0.0049807844622
0.00502517003774
0.00500072731491
0.00499980503591
0.00499954673464
0.00499814437981
0.0049963275244
0.00499483030982
0.00499375650946
0.00499301942904
0.00499260286456
0.00499249797611
0.00499272201659
0.00499328606984
0.00499407900192
0.0049947674236
0.00499490229647
0.0049942419649
0.00499301500031
0.0049916428617
0.00499050748426
0.00500000165763
0.00499999535676
0.0049999940012
0.00499999543682
0.00499999687619
0.00499999789214
0.00499990061017
0.00499908851115
0.00499836275927
0.00499776336681
0.00499726534593
0.00499685563465
0.00499652725147
0.00499627683918
0.0049961113161
0.00499603584919
0.00499601661742
0.00499601901338
0.00499608471943
0.00499603108345
0.00499999181584
0.00499999193657
0.00499999232206
0.0049999927717
0.00499999318367
0.00499999343273
0.00499999336455
0.00499989155876
0.00499952287383
0.00499922754297
0.004998973247
0.00499874730264
0.00499854575421
0.00499836643753
0.00499820768155
0.00499807549096
0.0049979963481
0.00499798156672
0.00499803472257
0.00499811513301
0.00499998676511
0.00499998692992
0.00499998708531
0.00499998722358
0.00499998731961
0.0049999873586
0.00499998749616
0.0049999879522
0.00499994879818
0.00499981145579
0.00499969845456
0.004999601958
0.00499951523221
0.00499943721235
0.00499936699922
0.00499930236413
0.00499924286886
0.00499920757472
0.00499921127991
0.00499923989304
0.00500000537865
0.00500000551013
0.00500000560497
0.0050000056486
0.00500000564321
0.00500000559375
0.00500000559068
0.00500000573051
0.0050000792676
0.00499997891011
0.00499991735225
0.00499988018574
0.00499984672209
0.004999814684
0.00499978410166
0.00499975480584
0.00499972525433
0.00499970311759
0.00499969790726
0.00499967340926
0.00500004396665
0.00500004440281
0.00500004484733
0.00500004531841
0.00500004582583
0.00500004637252
0.00500004702408
0.00500004793145
0.0050004369953
0.00500031486005
0.00500022515491
0.00500018934023
0.00500016663733
0.00500014693897
0.00500012946162
0.00500011391038
0.00500009941199
0.00500008842077
0.00500008311652
0.00500006478551
0.00500007904766
0.00500007917239
0.00500007927826
0.00500007938724
0.00500007950693
0.00500007962972
0.0050000797516
0.00500007997185
0.00500021898351
0.00500020003387
0.00500012231615
0.00500011012326
0.00500011720695
0.00500012465856
0.00500013175245
0.00500013877865
0.00500014541991
0.00500015096521
0.00500015591564
0.00500015545622
0.00500009476333
0.00500009513622
0.00500009552739
0.00500009593559
0.00500009636992
0.00500009682996
0.00500009728463
0.00500009779551
0.00500009831147
0.00500011809767
0.00500007117523
0.00500004350728
0.00500002998637
0.00500001839159
0.00500000713228
0.00499999631655
0.00499998573482
0.00499997571836
0.00499997128348
0.00499997086868
0.00500006979685
0.00500007111616
0.00500007219691
0.00500007299202
0.00500007350823
0.00500007378302
0.00500007385644
0.00500007381858
0.00500007379601
0.00500011413032
0.00500006413421
0.00500001504472
0.00499998054401
0.00499994966011
0.00499992012171
0.00499989191589
0.00499986520109
0.00499984272085
0.00499983108123
0.00499982668117
0.00500001470829
0.00500001509537
0.00500001547895
0.00500001576787
0.00500001595204
0.00500001606408
0.0050000161377
0.00500001622077
0.00500001633042
0.00500005658005
0.00500001748277
0.00499997266932
0.00499994172429
0.00499991457142
0.0049998888679
0.0049998647942
0.00499984296362
0.00499982498235
0.00499981419524
0.00499980901054
0.00499992716581
0.00499992729169
0.00499992740248
0.00499992745729
0.00499992744335
0.00499992738644
0.00499992732226
0.00499992728282
0.0049999272785
0.00499995413256
0.00499993121119
0.00499990217431
0.00499988536007
0.00499987182839
0.00499985942347
0.00499984847946
0.0049998394045
0.00499983251986
0.00499982888635
0.00499982682379
0.00499984167167
0.00499984139013
0.00499984109755
0.00499984080385
0.0049998404945
0.00499984018623
0.00499983992143
0.00499983973559
0.00499983961907
0.00499984022282
0.00499982640626
0.00499980746918
0.00499979872394
0.00499979254861
0.00499978704801
0.00499978271486
0.00499977986596
0.00499977720893
0.00499977456904
0.00499977322995
0.00499979947022
0.00499979890779
0.00499979828482
0.00499979770619
0.00499979715423
0.00499979663091
0.00499979616189
0.00499979578905
0.00499979552595
0.00499977519804
0.00499975981486
0.00499973857092
0.00499972586119
0.00499971525203
0.00499970505761
0.00499969830829
0.00499969881437
0.00499970417217
0.0049997070517
0.00499970872624
0.00499982889342
0.00499982839137
0.00499982773637
0.00499982702547
0.00499982628349
0.00499982550774
0.00499982468744
0.00499982381368
0.00499982261487
0.00499980697084
0.00499978331175
0.00499976002143
0.00499974568236
0.00499973292077
0.00499972065675
0.00499971530962
0.00499972207895
0.00499973832054
0.00499975050299
0.00499975287894
0.00499993273528
0.00499993258261
0.00499993236197
0.00499993217014
0.00499993203657
0.00499993195352
0.00499993189083
0.0049999318224
0.00499998471134
0.00499996059387
0.00499991430548
0.00499990209996
0.00499989878985
0.00499989621035
0.00499989394543
0.00499989594894
0.00499990585068
0.00499992252485
0.00499993690714
0.00499992701518
)
;

boundaryField
{
    emptyPatch
    {
        type            empty;
    }
    minY
    {
        type            calculated;
        value           nonuniform List<scalar> 0();
    }
    maxY
    {
        type            calculated;
        value           uniform 0.005;
    }
    maxX
    {
        type            calculated;
        value           nonuniform List<scalar> 
37
(
0.00496420795628
0.00496447411431
0.00496466353531
0.00496481069983
0.00496494005135
0.00496504764341
0.00496513308669
0.00496519617136
0.00496524326229
0.00496542963289
0.00496544707563
0.00496560253378
0.00496546554308
0.00496550917712
0.00496564051066
0.00496563383937
0.00496565315684
0.00496575158107
0.00496639922859
0.00496910599911
0.00497275862127
0.00498078446223
0.0049905074843
0.00499603108349
0.00499811513308
0.00499923989313
0.00499967340935
0.00500006478562
0.00500015545632
0.00499997086878
0.00499982668128
0.00499980901068
0.00499982682394
0.00499977323011
0.00499970872643
0.00499975287916
0.00499992701546
)
;
    }
    water_to_heater
    {
        type            calculated;
        value           nonuniform List<scalar> 0();
    }
    procBoundary2to1
    {
        type            processor;
        value           nonuniform List<scalar> 
20
(
0.00496360763355
0.00496367158178
0.00496374089628
0.00496386154134
0.00496396444506
0.00496393041141
0.00496391466556
0.0049639013732
0.00496389981917
0.00496390302145
0.00496390827333
0.00496391468444
0.00496392106115
0.00496392560275
0.00496392833322
0.00496393308814
0.00496394559832
0.00496396090514
0.00496395453017
0.00496400029809
)
;
    }
    procBoundary2to3
    {
        type            processor;
        value           nonuniform List<scalar> 
39
(
0.00496419534973
0.00496443211063
0.00496570641841
0.00496484549366
0.00496481059879
0.00496493046196
0.00496560733652
0.00496562223715
0.00496521302104
0.0049649930221
0.00496496185455
0.00496496185455
0.00496605819222
0.00496612689062
0.00496574966392
0.00496546906758
0.00496535468146
0.00496671288981
0.00496602639818
0.00496616959647
0.0049676027673
0.00496825202525
0.00497120615464
0.00497120615464
0.00502347652084
0.00500000502815
0.00499999197926
0.00499998653522
0.0050000051064
0.00500004358838
0.00500007888987
0.0050000945905
0.00500006895274
0.00500001452299
0.00499992706031
0.00499984176607
0.00499979965308
0.00499982898773
0.00499993274573
)
;
    }
}


// ************************************************************************* //
