/*--------------------------------*- C++ -*----------------------------------*\
| =========                 |                                                 |
| \\      /  F ield         | OpenFOAM: The Open Source CFD Toolbox           |
|  \\    /   O peration     | Version:  2312                                  |
|   \\  /    A nd           | Website:  www.openfoam.com                      |
|    \\/     M anipulation  |                                                 |
\*---------------------------------------------------------------------------*/
FoamFile
{
    version     2.0;
    format      ascii;
    arch        "LSB;label=32;scalar=64";
    class       volScalarField;
    location    "0.745/cooler";
    object      T;
}
// * * * * * * * * * * * * * * * * * * * * * * * * * * * * * * * * * * * * * //

dimensions      [0 0 0 1 0 0 0];

internalField   nonuniform List<scalar> 
188
(
300.001031494
300.000940094
300.000870744
300.001033713
300.000939192
300.000867718
300.000819623
300.000795423
300.001032917
300.000934709
300.000860621
300.000810837
300.000785799
300.001030946
300.000928423
300.000851264
300.000799491
300.000773472
300.001030405
300.000922897
300.000842181
300.000788107
300.000760958
300.001034514
300.000921312
300.000836512
300.000779791
300.00075134
300.001046627
300.000926956
300.000837493
300.000777735
300.000747786
300.001070089
300.000942944
300.000848106
300.000784842
300.000753161
300.001108557
300.000972221
300.000870926
300.000803489
300.000769755
300.001167627
300.001018443
300.00090863
300.000835847
300.000799522
300.001259973
300.001088957
300.000965902
300.000885241
300.000845202
300.001416956
300.001200369
300.001052066
300.000957428
300.00091109
300.001718006
300.001393072
300.001188067
300.001064096
300.001005196
300.002348228
300.00176268
300.001424206
300.00123401
300.001147774
300.003664192
300.002500419
300.001866614
300.001531987
300.001386929
300.006199344
300.003927545
300.002716362
300.002094304
300.001830591
300.010598198
300.006535472
300.004333772
300.003192748
300.0027072
300.017673634
300.011069352
300.007334609
300.005334391
300.004465472
300.028470515
300.018595925
300.012691316
300.009385907
300.007907804
300.044268086
300.030525885
300.021795811
300.016662226
300.014289852
300.066532535
300.048526817
300.036362314
300.028839596
300.025245078
300.096684578
300.074209177
300.058098722
300.047649536
300.042500876
300.135952279
300.108941399
300.088509818
300.074686347
300.067692664
300.186245562
300.154667393
300.129599499
300.112001045
300.102894607
300.251665248
300.215297044
300.185063581
300.163106969
300.151514727
300.339424655
300.297638643
300.2611446
300.23372877
300.218972791
300.458488921
300.410123313
300.365580993
300.330972704
300.312001664
300.614178166
300.557461661
300.502686898
300.458943251
300.434623915
300.805785774
300.738294396
300.671051082
300.616536911
300.586023777
301.042329987
300.959978339
300.877154463
300.809989995
300.772454497
301.355696587
301.25062112
301.146195471
301.062667398
301.016421115
301.800646169
301.659083891
301.522086805
301.414809732
301.356189847
302.406219878
302.214986341
302.034752376
301.896014316
301.82094816
303.137152588
302.901827477
302.681167968
302.511408455
302.419506968
303.915783381
303.662283808
303.420004321
303.230498356
303.126777191
304.635229589
304.396755661
304.159003865
303.967171204
303.860201395
305.153116634
304.953365526
304.740561604
304.561833049
304.46003202
305.350773468
305.186682251
305.000284018
304.83910803
304.746149403
)
;

boundaryField
{
    emptyPatch
    {
        type            empty;
    }
    minY
    {
        type            zeroGradient;
    }
    maxY
    {
        type            zeroGradient;
    }
    maxX
    {
        type            zeroGradient;
    }
    cooler_to_water
    {
        type            compressible::turbulentTemperatureTwoPhaseRadCoupledMixed;
        refValue        nonuniform List<scalar> 
38
(
300.004487543
300.004623783
300.004779207
300.004958779
300.005166436
300.005406387
300.005686306
300.006025804
300.006477647
300.00718158
300.008515323
300.011479148
300.018537284
300.035010872
300.070463252
300.136743949
300.238078129
300.369882614
300.522894332
300.687266522
300.854081796
301.01862963
301.182016126
301.349046675
301.528525265
301.730925984
301.973795217
302.287284721
302.709657086
303.324215183
304.277608474
305.76445648
307.780447573
309.691923033
310.805726743
310.792781413
309.802674344
308.647340204
)
;
        refGradient     uniform 0;
        valueFraction   nonuniform List<scalar> 
38
(
0.0164734652115
0.0164711551641
0.0164628658239
0.0164528108918
0.0164425585641
0.0164328822207
0.0164239172683
0.0164154890925
0.01640622052
0.0163924392854
0.0163779648453
0.0163657317854
0.0163578029551
0.0163567760996
0.0163633204029
0.0163691564847
0.0163692012766
0.016369201163
0.0163692013213
0.0163692012053
0.0163673750129
0.0163649360546
0.0163620495761
0.0163501317009
0.016311170771
0.0162199866422
0.0160660998134
0.0158615182335
0.0156298387967
0.015369482366
0.0151152774751
0.0152266797754
0.0157489256711
0.0162485156453
0.0163617437536
0.0163641857968
0.0163641781101
0.016359562853
)
;
        source          uniform 0;
        value           nonuniform List<scalar> 
38
(
300.001088201
300.001092605
300.001094335
300.001095295
300.001098116
300.001106037
300.001122483
300.001151061
300.001196217
300.001265688
300.001378058
300.001580343
300.00199052
300.002876903
300.004745647
300.008314018
300.014284715
300.023385104
300.036494551
300.054712609
300.079335716
300.11168485
300.152983876
300.205177519
300.272417564
300.361931542
300.482796874
300.640720357
300.835583301
301.077455689
301.399912388
301.861067439
302.490967636
303.243842558
304.028856722
304.736557356
305.229985635
305.405462285
)
;
        kappaMethod     solidThermo;
        Tnbr            T.liquid;
        region          solid;
        otherPhase      gas;
    }
    procBoundary3to2
    {
        type            processor;
        value           nonuniform List<scalar> 6(300.001024501 300.000936014 300.00086886 300.000824101 300.000824101 300.000800716);
    }
}


// ************************************************************************* //
