/*--------------------------------*- C++ -*----------------------------------*\
| =========                 |                                                 |
| \\      /  F ield         | OpenFOAM: The Open Source CFD Toolbox           |
|  \\    /   O peration     | Version:  2312                                  |
|   \\  /    A nd           | Website:  www.openfoam.com                      |
|    \\/     M anipulation  |                                                 |
\*---------------------------------------------------------------------------*/
FoamFile
{
    version     2.0;
    format      ascii;
    arch        "LSB;label=32;scalar=64";
    class       volScalarField;
    location    "0.895/water";
    object      alpha.gas_0;
}
// * * * * * * * * * * * * * * * * * * * * * * * * * * * * * * * * * * * * * //

dimensions      [0 0 0 0 0 0 0];

internalField   nonuniform List<scalar> 
1504
(
0.687108476475
0.498717908629
0.422797067813
0.359513198368
0.316382606149
0.292192689856
0.292259152214
0.291261406179
0.292121433555
0.29103831901
0.29194278147
0.291387297822
0.320925935897
0.345359948054
0.35028287873
0.356622395544
0.36061670461
0.289941673181
0.142956743508
0.0260162953256
0.682393149079
0.434200092441
0.364808089985
0.320108149835
0.301934787161
0.292443186055
0.291380903506
0.292259152214
0.293254383786
0.295700184577
0.291730349243
0.294583987445
0.309047269793
0.319658456968
0.335499272324
0.36260069166
0.382063464351
0.327934526334
0.18155252791
0.0387218318521
0.664650748105
0.3590496729
0.329631428358
0.313517085368
0.304301216567
0.296672013541
0.300752225004
0.305421983111
0.30627652577
0.299125998819
0.286991011797
0.281068674974
0.281509866975
0.292551546712
0.326196852703
0.372891693761
0.384684287326
0.369956516482
0.230215251154
0.0597822976387
0.563875247653
0.325901153557
0.325228836302
0.321565051017
0.316767886689
0.310467227662
0.310764967066
0.30898636591
0.301550627335
0.28485097775
0.267382190464
0.258983932401
0.260519677771
0.275834031625
0.320313395183
0.374431154865
0.384733171387
0.383837553693
0.272739478389
0.0929933912407
0.453577727326
0.337235046557
0.354571661472
0.356405448158
0.334798251635
0.316370114652
0.307128206346
0.296815293859
0.279045831337
0.261218691557
0.251199448258
0.248235106465
0.250640229524
0.26262665882
0.307389701381
0.368588656121
0.384782055071
0.385559640013
0.307192470926
0.139299261628
0.451559163496
0.447687185366
0.470705681116
0.436760111522
0.371682129949
0.327752271901
0.302800743796
0.281209254027
0.262207949707
0.249578237366
0.244675413413
0.243606460904
0.24504734043
0.249695957522
0.280578824498
0.34851914423
0.384587078763
0.385913733389
0.340763659888
0.196045369123
0.557887119469
0.646426464154
0.625727643671
0.577708460291
0.495818606244
0.40707989744
0.332375787714
0.287630732176
0.262055512321
0.247055036412
0.240991178111
0.240270096066
0.241194083129
0.242080649422
0.251701257625
0.311747944646
0.379256864986
0.386017518964
0.379964074375
0.257386260003
0.74296929734
0.763147538053
0.735216388916
0.711994065124
0.675623281913
0.603887446059
0.479403983825
0.356787130209
0.285503246997
0.251004617598
0.23868530595
0.238297165963
0.238901099179
0.239384284755
0.239758362249
0.268490307765
0.358195814411
0.386114421813
0.386211056658
0.309254357852
0.84107707537
0.794992049762
0.775721419278
0.769986314373
0.761485091492
0.733054699779
0.647064944632
0.490245729233
0.353328728665
0.271452342773
0.238076211849
0.237815823947
0.238083967141
0.238331510632
0.238278750257
0.243383964703
0.322082165622
0.385717991727
0.386305900723
0.346430766265
0.846675343712
0.801367650044
0.789750517161
0.787407701456
0.783072638802
0.76402751712
0.70736672165
0.576746519577
0.421870113922
0.303597853064
0.237815823947
0.237649361735
0.237815823947
0.238034213506
0.238087555818
0.238225121477
0.285079617744
0.380476240928
0.386411927267
0.369668044792
0.844950602596
0.804338825133
0.797022103116
0.794707276806
0.790022347805
0.770523059146
0.717885027318
0.606251791128
0.456748907756
0.324235833182
0.238004027708
0.237574494899
0.237570904843
0.237815823947
0.237865663623
0.237932581626
0.258364940257
0.364684494822
0.386517953017
0.382313253538
0.84797233363
0.805828031871
0.80148153855
0.798533727727
0.792764258215
0.771764599545
0.718338173274
0.611689606225
0.467076242293
0.328887060263
0.241293981357
0.237290976477
0.237574494899
0.237505060077
0.237815823947
0.237692084534
0.243207875816
0.340279244032
0.386623977972
0.388144426803
0.845329133209
0.806231768538
0.803442660049
0.799918732084
0.792930618219
0.769796816094
0.713258166892
0.607322197471
0.464870794762
0.324541079589
0.241196640076
0.237327463523
0.237180234285
0.237574494899
0.237473207266
0.237815823947
0.237715489669
0.316359127853
0.384516884467
0.389071524135
0.847591158801
0.805412472132
0.803173801265
0.798986241134
0.789948842212
0.760852548403
0.697524522302
0.589756195539
0.449612217089
0.310324699628
0.23919370611
0.237058775345
0.237327463523
0.237147243946
0.237574494899
0.237434741443
0.237815823947
0.299009327784
0.378698219953
0.389212185206
0.84540818225
0.802513715323
0.799251336985
0.792860325119
0.778946047417
0.741968303796
0.671310462695
0.560409046183
0.422366496268
0.290521354649
0.237620407937
0.237158405814
0.236867480765
0.237327463523
0.237201576509
0.237574494899
0.237492466213
0.288102971998
0.369214031655
0.38966529371
0.847535523743
0.798834093477
0.786400143672
0.775812781479
0.755788014475
0.711875621181
0.634638652405
0.521205926777
0.386018772715
0.267998773167
0.237158405814
0.236793615865
0.237158405814
0.236818895177
0.237327463523
0.237318794214
0.237574494899
0.281519770412
0.358114135282
0.392163310137
0.845201837216
0.790827028993
0.759410790797
0.743238641128
0.717476266429
0.667356369383
0.584048833139
0.468873556604
0.339241999392
0.246823846116
0.236916038259
0.237057046503
0.236505939389
0.237158405814
0.236929969201
0.237332899007
0.237536927345
0.279376337286
0.349060441608
0.395569082907
0.848101638472
0.758814243755
0.713534846254
0.691564093693
0.659626244692
0.60223942707
0.513487739807
0.398835700503
0.284177198421
0.23741157402
0.237057046503
0.236440751358
0.237057046503
0.236479279356
0.237158405814
0.237260261473
0.240007099587
0.279580292308
0.34351106719
0.399769244935
0.844567790294
0.678348433807
0.645849626999
0.614925684658
0.574162154041
0.508920747486
0.417563292393
0.31269574482
0.24297236925
0.237057046503
0.236480778166
0.23687127047
0.236315622469
0.237057046503
0.23668614267
0.237576418593
0.244721622005
0.279885097841
0.340832347366
0.401799968186
0.847633939962
0.598838386198
0.55264674067
0.503071070305
0.452653920905
0.384742390672
0.304139408182
0.245229724656
0.237057046503
0.236432398071
0.23687127047
0.236031868486
0.23687127047
0.236450034709
0.237057046503
0.238147024078
0.249528395433
0.278798228669
0.338269843915
0.401799640017
0.844129401707
0.529229281542
0.439130600945
0.362111179796
0.310510230629
0.26374065717
0.238771993807
0.237057046503
0.236246698455
0.23687127047
0.235860016538
0.236686920381
0.236179488729
0.23687127047
0.237571656169
0.242683603642
0.251409462299
0.273069549583
0.334528264131
0.402540139784
0.845020336055
0.447472582556
0.321882185219
0.249746923507
0.238171961505
0.23675424084
0.237057046503
0.235629624466
0.23687127047
0.23533182779
0.236686920381
0.235731421237
0.236686920381
0.236785357371
0.243564305715
0.245284781873
0.247341182627
0.262487747438
0.327990053293
0.401518760998
0.816531290557
0.339416230415
0.245232840429
0.237158405814
0.235932451953
0.237057046503
0.234560701111
0.23687127047
0.234272305344
0.236686920381
0.235103758788
0.236686920381
0.236041059068
0.242626450269
0.24462042404
0.243975105585
0.238022361588
0.248832123889
0.314379408722
0.394751335561
0.708355006735
0.265742060021
0.237158405814
0.235332746256
0.237057046503
0.233548780947
0.23687127047
0.233117200925
0.236686920381
0.234212591046
0.236686920381
0.235584194336
0.239049254223
0.24462042404
0.244689902884
0.239243079327
0.229329290272
0.232621878163
0.288977800583
0.377472556427
0.571293238077
0.288405013625
0.247050179055
0.237057046503
0.233668275943
0.23687127047
0.233103029707
0.236686920381
0.233525202292
0.236686920381
0.23530070624
0.236686920381
0.24257038656
0.244233557595
0.243025168065
0.234470345185
0.224816408642
0.221898554789
0.254685821766
0.349206195462
0.552218669152
0.429975582876
0.376039911302
0.32719332681
0.294254211335
0.276999099209
0.271112874312
0.260371607428
0.249335261452
0.240500512416
0.237745291967
0.236751813146
0.237576732835
0.236543555017
0.236329851638
0.23148520598
0.223856875149
0.221039303659
0.226969908406
0.31109866725
0.637877605645
0.672442667386
0.636150304297
0.588188182358
0.541485113178
0.514107910231
0.491633957602
0.440695262841
0.352793542809
0.280348373447
0.245785959322
0.232279744839
0.22606646573
0.225060868844
0.227495249027
0.228256166537
0.223722876067
0.220951942776
0.221039303659
0.263831676662
0.792165828088
0.811189057412
0.791973071613
0.778339662581
0.763519619964
0.752053367477
0.739842572836
0.697820824341
0.581933302302
0.413129138674
0.288829868525
0.23719093159
0.22199364148
0.221058810362
0.221683226065
0.223733025085
0.223360423824
0.221039303659
0.22087225688
0.225792128562
0.86636605918
0.835234825488
0.828837053396
0.828639458333
0.828245086875
0.827008127347
0.824561134205
0.806135774086
0.738877471164
0.588558848393
0.40037551452
0.274217761188
0.223784134822
0.220982874641
0.221039303659
0.221170468704
0.221798227538
0.220869070645
0.221039303659
0.220845132791
0.871717054972
0.839243250032
0.839181486769
0.839635111124
0.840680388816
0.840641406882
0.83892222044
0.823391613587
0.772761666983
0.663638408729
0.49917855925
0.340948173763
0.235755199256
0.221039303659
0.220929822556
0.221039303659
0.221020256391
0.221039303659
0.220642391538
0.221039303659
0.870465534434
0.842502669534
0.844279165569
0.843648934439
0.844096405649
0.843880880923
0.841531803795
0.824432576866
0.774252699626
0.674795487665
0.532578360608
0.381656987748
0.255791554085
0.220811957912
0.221039303659
0.220765437746
0.221039303659
0.220820271521
0.221039303659
0.22037956478
0.871772057048
0.845322425723
0.845387422509
0.844797212173
0.844673175442
0.844512014376
0.840591139632
0.820051937118
0.767176147096
0.670639258332
0.534870230466
0.389452893661
0.262839887739
0.221039303659
0.220575431089
0.221039303659
0.220586740766
0.221039303659
0.220533851922
0.221039303659
0.870511553389
0.847367961768
0.845605923406
0.843166695935
0.843112391092
0.842052135697
0.833750864356
0.805117653637
0.745315522019
0.649803926001
0.522745094746
0.382485249015
0.258559166702
0.220839088909
0.221039303659
0.220332966721
0.221039303659
0.220395502589
0.221039303659
0.220192979714
0.871657326011
0.847208402386
0.841533062517
0.83523910012
0.834806736501
0.831848570158
0.817534616452
0.78040266586
0.712587960159
0.613083134703
0.489324427143
0.354365398185
0.241678434738
0.221039303659
0.220452022489
0.221039303659
0.220140521673
0.221039303659
0.220210070163
0.221039303659
0.870291186984
0.841445304232
0.827995616443
0.818230755824
0.816933470443
0.811907528693
0.79287529912
0.7491926331
0.673980330103
0.568528792996
0.442604239445
0.309781597439
0.224653612867
0.220747925471
0.221039303659
0.220114848754
0.221039303659
0.220024762314
0.221039303659
0.220011198792
0.870823177785
0.822226592735
0.803322980236
0.793304530484
0.791401676144
0.784406689844
0.761353182965
0.711122557142
0.628189033268
0.517198763065
0.388153454384
0.262205257679
0.220954606136
0.221039303659
0.220228718223
0.221039303659
0.21987888452
0.221039303659
0.219952453072
0.221039303659
0.870049636405
0.782713925804
0.767835483763
0.761802764967
0.760270162146
0.750633418562
0.721330489866
0.662017123338
0.571231512808
0.455716189346
0.325751042262
0.228483638926
0.221039303659
0.220327084527
0.221039303659
0.219775424222
0.221039303659
0.219771892199
0.221039303659
0.219911751958
0.862398253732
0.71783537901
0.721062710344
0.721828381063
0.721504414508
0.707216366981
0.667317852252
1e-15
1.01441580373e-15
1.02833185066e-15
1.02859844681e-15
1.02833185066e-15
1.02500106801e-15
1.01225278407e-15
1.00640820608e-15
1.00548277198e-15
1.00533853438e-15
1.00551720549e-15
1.00606180958e-15
1.00730257314e-15
1.0112891093e-15
1.02305174949e-15
1.01587408944e-15
1.69098670257e-15
0.000756157024935
2.43165988642e-07
1e-15
1e-15
1e-15
1.0230602479e-15
1.02757581913e-15
1.02360718802e-15
1.01386723915e-15
1.00624305708e-15
1.00436799544e-15
1.00391325744e-15
1.00382027923e-15
1.00396781393e-15
1.00437613298e-15
1.00530647093e-15
1.0081510543e-15
1.02289957339e-15
1.01572052839e-15
1.75002950348e-15
0.00143271388762
2.48293028176e-06
1e-15
1e-15
1e-15
1.01219394175e-15
1.01775110589e-15
1.01227839615e-15
1.00615338772e-15
1.00348112802e-15
1.00261265815e-15
1.00228513083e-15
1.0022290253e-15
1.00234954115e-15
1.00266664749e-15
1.00338817713e-15
1.0053272351e-15
1.02280048618e-15
1.02151583649e-15
1.79211510739e-15
0.00314038813239
1.74560246119e-05
1e-15
1e-15
1e-15
1.00125723444e-15
1.008678725e-15
1.00540070161e-15
1.00267025155e-15
1.00142478254e-15
1.00093117351e-15
1.00075475137e-15
1.00073731315e-15
1.00081770118e-15
1.00101273462e-15
1.00149655818e-15
1.00292421197e-15
1.02142435603e-15
1.03006193251e-15
1.79367012621e-15
0.00767914816497
0.000100760800786
1.50013683515e-07
1e-15
1e-15
1e-15
1.00375800787e-15
1.00182908672e-15
1.00060590725e-15
1.00009662373e-15
1.0000094387e-15
1e-15
1.00000024499e-15
1.00000926039e-15
1.00003515343e-15
1.00020580046e-15
1.00100580299e-15
1.02085448309e-15
1.03580298597e-15
1.79211510739e-15
0.0190127609345
0.000503764012651
2.22175215803e-06
1e-15
1e-15
1.00012322674e-15
1.00087831731e-15
1.00009037038e-15
1e-15
1e-15
1e-15
1e-15
1e-15
1e-15
1e-15
1e-15
1.00002355142e-15
1.02193121418e-15
1.04223680433e-15
1.79306189611e-15
0.0438725934269
0.0022033759091
2.22627274627e-05
1.57993650638e-09
1e-15
1.00005225828e-15
1e-15
1e-15
1e-15
1e-15
1e-15
1e-15
1e-15
1e-15
1e-15
1e-15
1e-15
1.0252120234e-15
1.05210099163e-15
1.79211510739e-15
0.0880061280467
0.00823032696777
0.000166906049087
1.46107649567e-07
1e-15
1e-15
1e-15
1e-15
1e-15
1e-15
1e-15
1e-15
1e-15
1e-15
1e-15
1e-15
1e-15
1.03024835414e-15
1.06555044e-15
1.79186358117e-15
0.147632469393
0.0248013190837
0.000945328980348
3.66770024292e-06
1e-15
1e-15
1e-15
1e-15
1e-15
1e-15
1e-15
1e-15
1e-15
1e-15
1e-15
1e-15
1.00117501792e-15
1.03675164287e-15
1.08255815345e-15
1.77736788234e-15
0.208099045693
0.0558346500999
0.00400330485326
4.16485703586e-05
1.08932310753e-15
1e-15
1e-15
1e-15
1e-15
1e-15
1e-15
1e-15
1e-15
1e-15
1e-15
1e-15
1.01252804037e-15
1.04447079802e-15
1.10233599302e-15
1.76591569543e-15
0.257377104041
0.0961483598911
0.0120210883818
0.000280484092753
6.99870897452e-08
1e-15
1e-15
1e-15
1e-15
1e-15
1e-15
1e-15
1e-15
1e-15
1e-15
1e-15
1.01947676023e-15
1.05301899319e-15
1.12319454978e-15
1.76517529504e-15
0.292364404
0.136151381025
0.0260140573273
0.00117167104182
3.29226302462e-06
1e-15
1e-15
1e-15
1e-15
1e-15
1e-15
1e-15
1e-15
1e-15
1.00009795557e-15
1.01325471749e-15
1.02579049168e-15
1.06212915118e-15
1.1427540729e-15
1.77382871582e-15
0.315458609116
0.170254597993
0.0443041133674
0.0032950624266
2.86733874161e-05
1.06177202761e-15
1e-15
1e-15
1e-15
1e-15
1e-15
1e-15
1.00272850534e-15
1.00900185088e-15
1.01807104178e-15
1.02381012029e-15
1.03329381506e-15
1.07185095885e-15
1.15893636698e-15
1.78725259672e-15
0.330888365285
0.198431021085
0.0645750753648
0.00702150858379
0.000120924795185
1e-15
1e-15
1e-15
1.00240186837e-15
1.01210860867e-15
1.0147012642e-15
1.01725035759e-15
1.01962604181e-15
1.02240371409e-15
1.02577034848e-15
1.03009335445e-15
1.04143969147e-15
1.08193805431e-15
1.1712059802e-15
1.80100743164e-15
0.343226181296
0.223412797677
0.085468611959
0.0123354315326
0.000336518202161
4.78728422107e-08
1e-15
1e-15
1.00260553866e-15
1.02021813108e-15
1.02403304592e-15
1.02479143501e-15
1.02596575831e-15
1.02798746911e-15
1.03100916234e-15
1.03542509308e-15
1.04907829319e-15
1.09160728242e-15
1.18057487839e-15
1.82296473398e-15
0.355416246349
0.247674291222
0.106884562479
0.0191479506645
0.000733669119309
8.52843868516e-07
1e-15
1e-15
1e-15
1.02118623688e-15
1.02765509418e-15
1.02847825817e-15
1.02955198612e-15
1.03145793161e-15
1.03445515631e-15
1.03897595393e-15
1.05504215842e-15
1.10008463751e-15
1.18928848911e-15
1.84215699281e-15
0.370525787747
0.274554964593
0.130411150761
0.0278023753215
0.00141849947689
4.25716903039e-06
1e-15
1.00010392735e-15
1e-15
1.01833759521e-15
1.02779148091e-15
1.02960338742e-15
1.03065843239e-15
1.03240366002e-15
1.03533113864e-15
1.04003333854e-15
1.05871062195e-15
1.10716248572e-15
1.19959403752e-15
1.85396220333e-15
0.392072751431
0.306402162642
0.157141172834
0.0390432288113
0.00265735105312
1.68320676082e-05
1e-15
1e-15
1e-15
1.00689533523e-15
1.02369669349e-15
1.02810521136e-15
1.02918408675e-15
1.03078235449e-15
1.03363439127e-15
1.03863636741e-15
1.0602446787e-15
1.11318470428e-15
1.21087214843e-15
1.86290366519e-15
0.406228415051
0.332114719823
0.186534551511
0.0548533588676
0.00511794268934
6.4125137357e-05
1e-15
1e-15
1.0007211409e-15
1.00338184784e-15
1.01682714769e-15
1.02327994218e-15
1.02501756492e-15
1.02661327946e-15
1.02938748436e-15
1.03466842897e-15
1.06036952754e-15
1.11888157364e-15
1.22004575742e-15
1.87056395135e-15
0.406077636911
0.355592890864
0.224096570062
0.078853080394
0.010127459944
0.00024770354254
1.86939285051e-07
1e-15
1e-15
1e-15
1.00459625706e-15
1.01696540036e-15
1.01978942263e-15
1.02134302462e-15
1.02397869572e-15
1.02935432657e-15
1.0598066936e-15
1.12477139675e-15
1.22603511921e-15
1.87625773182e-15
0.406405884082
0.389162970603
0.273518986788
0.114962174293
0.0205555868738
0.00101579945385
8.30685884036e-06
1e-15
1e-15
1e-15
1.00158532634e-15
1.01105516071e-15
1.01409231786e-15
1.01569098798e-15
1.01817458052e-15
1.02359430433e-15
1.05963405907e-15
1.13147442191e-15
1.22850194513e-15
1.87707958698e-15
0.406077636911
0.406336663507
0.3197133653
0.166413376764
0.0422674646449
0.00383208597957
9.9683996761e-05
3.50527876773e-07
1e-15
1e-15
1e-15
1.00345741468e-15
1.00881077291e-15
1.01026331211e-15
1.01243745356e-15
1.0178237267e-15
1.06047255976e-15
1.14125580082e-15
1.22828284318e-15
1.87761468656e-15
0.406622400751
0.406077636911
0.366241821591
0.233094619691
0.0807287968892
0.0119904842696
0.000730578925945
1.24736053963e-05
1e-15
1e-15
1e-15
1.00081255995e-15
1.00449155978e-15
1.00550930535e-15
1.00722158817e-15
1.01217863954e-15
1.06329037007e-15
1.16064325382e-15
1.23273998351e-15
1.87814978614e-15
0.406077636911
0.406727372641
0.405670141038
0.295188185842
0.133625939967
0.0305870609243
0.00342441948892
0.000158432368215
7.96665967229e-07
1e-15
1e-15
1.00052284832e-15
1.00073452817e-15
1.00126441923e-15
1.00242925254e-15
1.0065993349e-15
1.06590287849e-15
1.19017209183e-15
1.25875304053e-15
1.87868488571e-15
0.406500057455
0.406077636911
0.406585998886
0.334022022458
0.190107050366
0.0626274422128
0.0111755143147
0.001077748199
2.83267552895e-05
1.30107939598e-09
1e-15
1e-15
1e-15
1e-15
1.00004095711e-15
1.00120852664e-15
1.06463360162e-15
1.18553528264e-15
1.29504356704e-15
1.88188595776e-15
0.406077636911
0.406899145329
0.406077636911
0.35987987984
0.240601979347
0.105254115586
0.0275477872415
0.00437853138264
0.000308989590012
2.4080225071e-06
1e-15
1e-15
1e-15
1e-15
1e-15
1e-15
1.05777664047e-15
1.16490694085e-15
1.29799264043e-15
1.93202612857e-15
0.400022412813
0.406077636911
0.406845855381
0.387737856777
0.286119487883
0.153753650132
0.054966253233
0.0127326501713
0.00177086885296
7.87954717026e-05
8.75255153693e-09
1e-15
1e-15
1e-15
1e-15
1e-15
1.04155727548e-15
1.14291121556e-15
1.29705038584e-15
2.02047913142e-15
0.37529594432
0.406693741714
0.406077636911
0.406447445026
0.328373928585
0.207358463576
0.0946438516212
0.0296765381238
0.0062959847824
0.000721664766954
1.82742541201e-05
3.4639686002e-11
1e-15
1e-15
1e-15
1e-15
1.0155300142e-15
1.11841280961e-15
1.29292615867e-15
2.12773835044e-15
0.332898787094
0.406077636911
0.407197988347
0.406077636911
0.365637276223
0.263743389212
0.145035658043
0.057902773752
0.0165062281772
0.00318384950912
0.000275386817797
3.21584759356e-06
2.19551552052e-14
1e-15
1e-15
1e-15
1e-15
1.08117908291e-15
1.26926157421e-15
2.25726764752e-15
0.285737079542
0.40455503056
0.406077636911
0.406875719167
0.405002037742
0.319485536007
0.199329200536
0.095350766878
0.0340908205998
0.00897122288291
0.00152938592952
0.000102115045421
1.90810372159e-07
5.04119864273e-14
1.0645641725e-15
1.17599972463e-15
1.16862100126e-15
1.08283732256e-15
1.18331549048e-15
2.39274968852e-15
0.249345081359
0.39305900663
0.407350845583
0.406077636911
0.406597031035
0.357510217892
0.249776529433
0.135912673341
0.0573069485593
0.0186605020791
0.00452093766284
0.000628707121754
2.4690585624e-05
3.21087385139e-09
7.99769453607e-12
1.23223093416e-11
9.13450866335e-12
7.62066767406e-13
6.27707138993e-15
2.68955293486e-15
0.228810549977
0.373569042327
0.406077636911
0.407350568987
0.406077636911
0.38249853484
0.289912277825
0.172861424799
0.0821236168488
0.0311951188328
0.00932997076874
0.001967290595
0.000194566123171
2.46981885561e-06
6.0536823062e-08
1.01714226494e-07
8.59259316698e-08
1.31668639666e-08
1.2519831996e-10
9.19631889159e-13
0.220541677292
0.349744053493
0.407266591232
0.406077636911
0.406897677413
0.405699718984
0.323848146621
0.206232736261
0.107568232148
0.0462468776035
0.0162467216691
0.00444055587772
0.000742630042438
5.0497458039e-05
2.6441849601e-05
5.34249907327e-05
5.53316425352e-05
1.68947811422e-05
5.28919162258e-07
7.98748275499e-09
0.221039303659
0.326329726601
0.406077636911
0.40765591408
0.406077636911
0.406629856787
0.355800688893
0.248096301852
0.142091801256
0.0689466335023
0.0284870573347
0.00982771974496
0.00257480012458
0.000654791981968
0.0012580681382
0.00319018392613
0.00416755824645
0.0025666284192
0.000236963498631
4.82046477129e-06
0.219994070028
0.302854218066
0.406706182373
0.406077636911
0.407463864258
0.406077636911
0.391255928158
0.310087629821
0.203315120553
0.115359314653
0.0583312639308
0.0270286423754
0.0118827689583
0.0067323727004
0.0115967824184
0.0376566240812
0.0699475574395
0.0717337743433
0.016158563799
0.000417923353153
0.221039303659
0.279078776145
0.403354384009
0.407655432469
0.406077636911
0.407123434916
0.406077636911
0.37931469518
0.305495814341
0.216697344259
0.142764054676
0.0924229834241
0.0642204296696
0.0456620172322
0.0529484136105
0.148404970055
0.408253067974
0.468691554207
0.168318379711
0.00495118968912
0.219847879417
0.259092474134
0.388983803083
0.406077636911
0.407471719751
0.406077636911
0.406845104563
0.406077636911
0.392267975684
0.353757784237
0.304238103951
0.256075185117
0.210448666028
0.18301604971
0.253738435419
0.536409562812
0.721185001779
0.719831948497
0.392857656087
0.014920930162
0.221039303659
0.240782845709
0.357410644715
0.406761081934
0.406077636911
0.407187951259
0.406077636911
0.406746231993
0.406077636911
0.40619179061
0.401005089035
0.382453030921
0.348601443946
0.401900009042
0.633345031865
0.721985244131
0.719831948497
0.722685380587
0.460218711707
0.0220111658887
)
;

boundaryField
{
    emptyPatch
    {
        type            empty;
    }
    minY
    {
        type            fixedValue;
        value           nonuniform List<scalar> 0();
    }
    maxY
    {
        type            inletOutlet;
        phi             phi.gas;
        inletValue      nonuniform List<scalar> 0();
        value           nonuniform List<scalar> 0();
    }
    maxX
    {
        type            zeroGradient;
    }
    water_to_heater
    {
        type            zeroGradient;
    }
    procBoundary3to1
    {
        type            processor;
        value           nonuniform List<scalar> 
41
(
0.597078342427
0.49961860166
0.381131000438
0.260650866328
0.221039303659
0.220488374746
0.221039303659
0.219709050196
0.221039303659
0.219544872283
0.221039303659
0.219774478101
0.221039303659
0.8341593979
0.632763514042
0.661260981823
0.668733342374
0.668395759564
0.646196698928
0.597078342427
0.593489174507
0.219873764155
0.227313530921
0.314392320502
0.395568481894
0.406719940575
0.406077636911
0.406932099836
0.406077636911
0.406673609563
0.406077636911
0.406190132934
0.399238048946
0.401509291832
0.544287138971
0.720802043821
0.719446998662
0.722561856961
0.719873325323
0.466571428312
0.0236564166404
)
;
    }
    procBoundary3to2
    {
        type            processor;
        value           nonuniform List<scalar> 
41
(
0.682492875518
0.546626492025
0.483555119623
0.420344869392
0.358300692564
0.302822288497
0.2921085173
0.292259152214
0.291261406179
0.292121433555
0.291090089878
0.292121433555
0.314192169226
0.355103021497
0.357412848064
0.356697768639
0.334560498566
0.252544759206
0.113916853218
0.018172546652
1e-15
1.0245487332e-15
1.02904117988e-15
1.02833185066e-15
1.02873238872e-15
1.02833185066e-15
1.02232055417e-15
1.00953309072e-15
1.00693652255e-15
1.00671754234e-15
1.00692087078e-15
1.0075866579e-15
1.00911403734e-15
1.01433688131e-15
1.02310099012e-15
1.0165765815e-15
1.67579561991e-15
0.000445651005435
3.54457161104e-09
1e-15
1e-15
)
;
    }
}


// ************************************************************************* //
