/*--------------------------------*- C++ -*----------------------------------*\
| =========                 |                                                 |
| \\      /  F ield         | OpenFOAM: The Open Source CFD Toolbox           |
|  \\    /   O peration     | Version:  2312                                  |
|   \\  /    A nd           | Website:  www.openfoam.com                      |
|    \\/     M anipulation  |                                                 |
\*---------------------------------------------------------------------------*/
FoamFile
{
    version     2.0;
    format      ascii;
    arch        "LSB;label=32;scalar=64";
    class       volScalarField;
    location    "1/water";
    object      T.gas;
}
// * * * * * * * * * * * * * * * * * * * * * * * * * * * * * * * * * * * * * //

dimensions      [0 0 0 1 0 0 0];

internalField   nonuniform List<scalar> 
1503
(
354.77099808
323.63609993
310.21519647
304.182205508
301.74878447
300.388326277
300.018256046
300.000111519
300.000000078
300
300
300
300
300
300
300
300
300
300
300
398.489634802
335.254463558
312.082484984
304.264936819
301.525060555
300.55264733
300.183157958
300.021871984
300.000405003
300.000000497
300
300
300
300
300
300
300
300
300
300
401.96423993
335.387990323
311.362055783
303.645194412
301.172858866
300.384825575
300.127630388
300.033660741
300.002705329
300.000026303
300.00000001
300
300
300
300
300
300
300
300
300
400.77620711
336.913059122
312.264796884
303.885393066
301.198425864
300.366790554
300.112369672
300.033811278
300.006096336
300.000233116
300.000000723
300
300
300
300
300
300
300
300
300
397.367396805
337.031934215
312.999588433
304.274405753
301.343793796
300.412388647
300.124553601
300.036824104
300.010436349
300.001047006
300.000014144
300.000000005
300
300
300
300
300
300
300
300
392.669438086
335.908838857
313.091354456
304.461397045
301.442797606
300.453729221
300.140808358
300.042679241
300.012540405
300.002605545
300.000102398
300.000000462
300
300
300
300
300
300
300
300
390.552331317
334.987566484
312.86843808
304.469891683
301.47115857
300.471165911
300.150255776
300.047299259
300.014394064
300.004303949
300.000469916
300.000005658
300.000000001
300
300
300
300
300
300
300
389.829042684
334.234732385
312.510044416
304.362186719
301.451493385
300.471423526
300.15401421
300.050321329
300.01577953
300.004839778
300.001212477
300.000043693
300.000000039
300
300
300
300
300
300
300
389.581865206
334.092925979
312.480410307
304.366094839
301.46477007
300.481281713
300.160498908
300.054235378
300.017462552
300.005313088
300.001679108
300.000214143
300.000001301
300
300
300
300
300
300
300
389.639243942
334.145682283
312.545170445
304.425531952
301.504329783
300.503715705
300.172013342
300.060061594
300.019880556
300.00595912
300.001802522
300.000551834
300.000020546
300.000000017
300
300
300
300
300
300
389.693885131
334.036473927
312.494750746
304.439773881
301.535108966
300.527851836
300.185943188
300.06723918
300.022987915
300.006824541
300.001945232
300.0006263
300.000099306
300.000000692
300
300
300
300
300
300
389.881876279
333.555114861
312.189704305
304.336897666
301.520876751
300.537239928
300.196434938
300.073900192
300.026354796
300.007895752
300.00212739
300.000629397
300.000215552
300.000008749
300.000000006
300
300
300
300
300
389.916986027
332.615873031
311.550740669
304.067004496
301.438535673
300.521204168
300.19769498
300.077654509
300.02906417
300.009006645
300.00233361
300.000629636
300.000212581
300.000030167
300.000000128
300
300
300
300
300
389.90441622
332.06118913
311.119817334
303.83206552
301.342272294
300.491449329
300.191909692
300.078527401
300.030842982
300.009986274
300.002543967
300.000628191
300.000190332
300.00005318
300.000000893
300
300
300
300
300
389.736894718
331.990421951
310.960858145
303.703290536
301.272234794
300.463849971
300.184202055
300.077992676
300.032029262
300.010865588
300.002763807
300.000627989
300.000167909
300.000061
300.000002818
300.000000002
300
300
300
300
389.28601359
332.133275599
310.969289775
303.66480148
301.235076201
300.443844174
300.177588235
300.077559691
300.033279303
300.011865149
300.003050124
300.000638129
300.000146611
300.000045251
300.000004627
300.000000011
300
300
300
300
387.334824847
331.728572444
310.859007459
303.598862644
301.191944433
300.423388365
300.172017904
300.078149899
300.035283747
300.013325771
300.003515286
300.000681721
300.000131005
300.000031495
300.000006124
300.00000006
300
300
300
300
386.418469795
331.408300126
310.644269836
303.463913847
301.128709861
300.402598063
300.169582552
300.081229656
300.038798821
300.01559965
300.004319564
300.000809063
300.000134073
300.000025408
300.000005637
300.000000216
300
300
300
300
389.397045681
333.037531463
311.286313055
303.624396007
301.160064342
300.413801749
300.178911114
300.089087869
300.044449669
300.018842402
300.005515705
300.001065254
300.00016974
300.000028415
300.000005278
300.000000536
300
300
300
300
394.994802153
335.748467624
312.563236228
304.150493156
301.338787761
300.473674235
300.203432122
300.102041367
300.052001016
300.022844855
300.007044469
300.001428079
300.000240094
300.00003933
300.000006847
300.000000926
300
300
300
300
396.656181594
337.016619634
313.433886242
304.631001669
301.55160602
300.554381933
300.235453311
300.11739073
300.060409939
300.027151998
300.008713218
300.001857025
300.000320008
300.000053471
300.000009023
300.000001236
300
300
300
300
397.11177639
337.252371997
313.693435952
304.839155409
301.677074602
300.613723004
300.26242145
300.131403963
300.068669637
300.031362054
300.010315695
300.002306965
300.000411951
300.000069899
300.000011419
300.000001522
300
300
300
300
397.301044647
336.639553993
313.379181098
304.754445116
301.681630581
300.63318085
300.277712108
300.142143122
300.075884116
300.035189312
300.011800128
300.002705878
300.000500571
300.000085686
300.000013761
300.000001764
300
300
300
300
397.217668061
336.115266382
313.031644232
304.594718403
301.632396544
300.628446549
300.284533985
300.149918728
300.081161853
300.038335495
300.013079438
300.00305304
300.000572514
300.000098701
300.000015792
300.000001979
300
300
300
300
397.213747769
335.673863474
312.691302825
304.426589478
301.569278584
300.614300097
300.286661242
300.154751843
300.084509959
300.040560346
300.014163811
300.003357764
300.000627582
300.000108462
300.000017531
300.00000223
300
300
300
300
397.020457254
335.353130571
312.422474413
304.298515598
301.52247353
300.603531638
300.28770997
300.15651217
300.0862246
300.041943432
300.015135028
300.003635843
300.000674232
300.000117171
300.000019401
300.00000256
300
300
300
300
396.934970345
334.995092189
312.168859639
304.195747413
301.493314856
300.599166153
300.288742411
300.156702222
300.086503044
300.04257959
300.015799245
300.003929907
300.000705163
300.000126712
300.00002139
300.000002847
300
300
300
300
396.613400744
334.274344873
311.719958505
304.017889888
301.443488682
300.589091024
300.285874767
300.155259393
300.085654407
300.042388447
300.016210754
300.004113955
300.000773101
300.000136576
300.000021654
300.000002736
300
300
300
300
396.364495581
334.032739889
311.567205818
303.926803747
301.407579845
300.577606336
300.27992257
300.151952081
300.083651522
300.041775198
300.016328157
300.004306124
300.00085975
300.00014356
300.00002035
300.000002339
300
300
300
300
396.153597523
334.216229093
311.706788302
303.970143687
301.411149404
300.57348531
300.275139237
300.148209335
300.081618108
300.041136784
300.016721239
300.004880225
300.000959192
300.000148761
300.000018445
300.000001523
300
300
300
300
395.923582071
334.545497761
311.943243827
304.082783058
301.446222324
300.578458149
300.272956938
300.145794993
300.08061737
300.04188207
300.018256511
300.005567182
300.001076207
300.000156166
300.000017263
300.000000576
300
300
300
300
394.237688324
334.230722594
311.916166536
304.115350336
301.456383126
300.571447915
300.265896769
300.143038047
300.081281282
300.044062864
300.020129526
300.006418007
300.001228771
300.000165976
300.000017137
300.000000025
300
300
300
300
390.872104199
332.86661907
311.417007165
303.923170778
301.359841445
300.52178087
300.245817441
300.138353282
300.082837373
300.047188646
300.022635544
300.007431424
300.001379965
300.000173297
300.000017012
300
300
300
300
300
387.246104098
331.938111171
311.121369799
303.714332623
301.212270062
300.449467758
300.224281873
300.136990166
300.087130861
300.052061826
300.026077858
300.008809906
300.001580828
300.00017955
300.00001717
300
300
300
300
300
385.251360082
331.735245922
311.199805439
303.666386187
301.102175552
300.394242185
300.214879023
300.142204453
300.094937143
300.058932626
300.030553797
300.010685989
300.001915786
300.000206474
300.000020325
300
300
300
300
300
385.411720192
332.132098471
311.652213922
303.85198939
301.107600228
300.382475176
300.222278173
300.154227038
300.105908287
300.06754062
300.036050682
300.013111988
300.002435244
300.000267984
300.000027473
300.00000088
300
300
300
300
387.712305057
333.129854293
312.288265942
304.173787002
301.227544855
300.419397081
300.241666645
300.170148151
300.118909535
300.077280281
300.042308017
300.016011932
300.003155696
300.000373701
300.000040652
300.000002703
300
300
300
300
390.976258136
334.096123179
312.64174087
304.361278486
301.339492544
300.47250623
300.266624893
300.18708842
300.132217555
300.087075668
300.048653392
300.019088725
300.004028758
300.000526017
300.000061995
300.00000563
300
300
300
300
300
300
300
300
300
300
300
300
300
300
300
300
300
300
300
300
300
300
300
300
300
300
300
300
300
300
300
300
300
300
300
300
300
300
300
300
300
300
300
300
300
300
300
300
300
300
300
300
300
300
300
300
300
300
300
300
300
300
300
300
300
300
300
300
300
300
300
300
300
300
300
300
300
300
300
300
300
300
300
300
300
300
300
300
300
300
300
300
300
300
300
300
300
300
300
300
300
300
300
300
300
300
300
300
300
300
300
300
300
300
300
300
300
300
300
300
300
300
300
300
300
300
300
300
300
300
300
300
300
300
300
300
300
300
300
300
300
300
300
300
300
300
300
300
300
300
300
300
300
300
300
300
300
300
300
300
300
300
300
300
300
300
300
300
300
300
300
300
300
300
300
300
300
300
300
300
300
300
300
300
300
300
300
300
300
300
300
300
300
300
300
300
300
300
300
300
300
300
300
300
300
300
300
300
300
300
300
300
300
300
300
300
300
300
300
300
300
300
300
300
300
300
300
300
300
300
300
300
300
300
300
300
300
300
300
300
300
300
300
300
300
300
300
300
300
300
300
300
300
300
300
300
300
300
300
300
300
300
300
300
300
300
300
300
300
300
300
300
300
300
300
300
300
300
300
300
300
300
300
300
300
300
300
300
300
300
300
300
300
300
300
300
300
300
300
300
300
300
300
300
300
300
300
300
300
300
300
300
300
300
300
300
300
300
300
300
300
300
300
300
300
300
300
300
300
300
300
300
300
300
300
300
300
300
300
300
300
300
300
300
300
300
300
300
300
300
300
300
300
300
300
300
300
300
300
300
300
300
300
300
300
300
300
300
300
300
300
300
300
300
300
300
300
300
300
300
300
300
300
300
300
300
300
300
300
300
300
300
300
300
300
300
300
300
300
300
300
300
300
300
300
300
300
300
300
300
300
300
300
300
300
300
300
300
300
300
300
300
300
300
300
300
300
300
300
300
300
300
300
300
300
300
300
300
300
300
300
300
300
300
300
300
300
300
300
300
300
300
300
300
300
300
300
300
300
300
300
300
300
300
300
300
300
300
300
300
300
300
300
300
300
300
300
300
300
300
300
300
300
300
300
300
300
300
300
300
300
300
300
300
300
300
300
300
300
300
300
300
300
300
300
300
300
300
300
300
300
300
300
300
300
300
300
300
300
300
300
300
300
300
300
300
300
300
300
300
300
300
300
300
300
300
300
300
300
300
300
300
300
300
300
300
300
300
300
300
300
300
300
300
300
300
300
300
300
300
300
300
300
300
300
300
300
300
300
300
300
300
300
300
300
300
300
300
300
300
300
300
300
300
300
300
300
300
300
300
300
300
300
300
300
300
300
300
300
300
300
300
300
300
300
300
300
300
300
300
300
300
300
300
300
300
300
300
300
300
300
300
300
300
300
300
300
300
300
300
300
300
300
300
300
300
300
300
300
300
300
300
300
300
300
300
300
300
300
300
300
300
300
300
300
300
300
300
300
300
300
300
300
300
300
300
300
300
300
300
300
300
300
300
300
300
300
300
300
300
300
300
300
300
300
300
300
300
300
300
300
300
300
300
300
300
300
300
300
300
300
300
300
300
300
300
300
300
300
300
300
300
300
300
300
300
300
300
300
300
300
300
300
300
300
300
300
300
300
300
300
300
300
300
300
300
300
300
300
300
300
300
300
300
300
300
300
)
;

boundaryField
{
    emptyPatch
    {
        type            empty;
    }
    minY
    {
        type            fixedValue;
        value           uniform 300;
    }
    maxY
    {
        type            inletOutlet;
        inletValue      nonuniform List<scalar> 0();
        value           nonuniform List<scalar> 0();
    }
    water_to_cooler
    {
        type            copiedFixedValue;
        sourceFieldName T.liquid;
        value           nonuniform List<scalar> 
37
(
300
300
300
300
300
300
300
300
300
300
300
300
300
300
300
300
300
300
300
300
300
300
300
300
300
300
300
300
300
300
300
300
300
300
300
300
300
)
;
    }
    water_to_heater
    {
        type            copiedFixedValue;
        sourceFieldName T.liquid;
        value           nonuniform List<scalar> 
61
(
785.364576792
785.316151585
785.044101481
785.044768048
784.904499865
784.904278104
784.82670199
784.827472163
784.798939304
784.799018051
784.786489557
784.786220975
784.77881333
784.77893811
784.772801911
784.772465171
784.763136467
784.762793009
784.7475462
784.747934572
784.729441581
784.729169152
784.710280737
784.710529676
784.691813792
784.692735962
784.675414317
784.675663313
784.660603117
784.658728302
784.647985411
784.644664868
784.637436039
784.63775734
784.631886345
784.631571942
784.626955424
784.627293288
784.624671958
784.624333851
784.623206906
784.622881167
784.620986021
784.621249433
784.619694619
784.619485546
784.620134448
784.620279555
784.623030351
784.62327451
784.626899548
784.628099105
784.634319483
784.636367337
784.649612507
784.650683354
784.674219041
784.672553261
784.708418551
784.706711479
784.759665984
)
;
    }
    procBoundary2to3
    {
        type            processor;
        value           nonuniform List<scalar> 
41
(
392.46523951
334.710925175
312.756684576
304.324483864
301.346582169
300.501553619
300.287860519
300.202033283
300.143604987
300.095412377
300.054045058
300.021797574
300.004892797
300.00070093
300.000089467
300.000009472
300
300
300
300
300
300
300
300
300
300
300
300
300
300
300
300
300
300
300
300
300
300
300
300
300
)
;
    }
}


// ************************************************************************* //
