/*--------------------------------*- C++ -*----------------------------------*\
| =========                 |                                                 |
| \\      /  F ield         | OpenFOAM: The Open Source CFD Toolbox           |
|  \\    /   O peration     | Version:  2312                                  |
|   \\  /    A nd           | Website:  www.openfoam.com                      |
|    \\/     M anipulation  |                                                 |
\*---------------------------------------------------------------------------*/
FoamFile
{
    version     2.0;
    format      ascii;
    arch        "LSB;label=32;scalar=64";
    class       volScalarField;
    location    "0.895/water";
    object      T.gas;
}
// * * * * * * * * * * * * * * * * * * * * * * * * * * * * * * * * * * * * * //

dimensions      [0 0 0 1 0 0 0];

internalField   nonuniform List<scalar> 
1496
(
459.663141226
361.372687742
321.28995897
307.838494229
303.336870991
301.744138106
301.094467096
300.793055561
300.63206095
300.531359744
300.459309038
300.403868162
300.362429402
300.328164838
300.296252615
300.264959991
300.23351762
300.201384913
300.168184678
300.134175716
515.710301975
354.112366331
315.036028517
305.360170132
302.434962019
301.433734912
301.004553247
300.784615699
300.651549079
300.56029385
300.490900308
300.434996557
300.390007651
300.350462346
300.313059114
300.276939261
300.241741697
300.206855716
300.17133327
300.135273933
529.880711348
348.620420485
310.925060812
303.472368219
301.696311929
301.142595735
300.896226672
300.752181053
300.65121368
300.57207441
300.507383526
300.452672858
300.405209933
300.360711572
300.318411077
300.278261507
300.240048783
300.203105203
300.166265709
300.129354131
539.855502014
349.098007503
309.712409417
302.696094512
301.333523678
300.977625371
300.824183671
300.724003153
300.643277426
300.571557956
300.510501438
300.455752991
300.405137764
300.356939526
300.311274706
300.268401914
300.228201191
300.190005146
300.152916192
300.116755188
551.762331053
356.033079715
311.267169085
303.070423304
301.345272539
300.932349816
300.790227293
300.705244869
300.631533563
300.56332565
300.502368821
300.445442666
300.391815352
300.341027416
300.293339863
300.248956499
300.207733997
300.169321602
300.133361889
300.09984803
558.205077568
368.911748813
317.627724978
305.863660365
302.136886761
301.105184203
300.815596561
300.700559462
300.622224136
300.552202014
300.487169131
300.426366516
300.3695419
300.316482161
300.267287778
300.222086475
300.180890494
300.143792555
300.110701796
300.081551943
563.525268192
381.953588613
325.823542618
309.885923761
303.946161836
301.762570855
301.010797711
300.746511781
300.626164674
300.542315181
300.469160238
300.402635672
300.341780815
300.285931696
300.235196484
300.189763765
300.150013387
300.115667561
300.086613539
300.061980445
569.841314455
392.720317067
333.258716372
313.751648208
305.931273169
302.677221881
301.373069956
300.866785243
300.654374205
300.537381578
300.450148607
300.375750346
300.309676066
300.250565811
300.198938158
300.154570182
300.117128828
300.086707013
300.061306271
300.041445124
576.270921998
399.607589682
338.018217278
316.323798501
307.362732397
303.419180612
301.714659579
301.001676895
300.693618355
300.534508044
300.428343534
300.344717136
300.273498644
300.212693638
300.161678028
300.119394497
300.085799119
300.058824729
300.039157771
300.025410242
582.053361982
401.69414507
339.245769817
317.259584474
307.922853538
303.73114179
301.872634329
301.067615911
300.707075238
300.519138665
300.399214701
300.309418178
300.236006895
300.17601401
300.126844814
300.087499311
300.057241649
300.036963103
300.024083065
300.015758961
586.305627669
402.602973115
339.796636422
317.296713436
307.815547554
303.659030808
301.839818745
301.04580934
300.679101436
300.484370965
300.362290959
300.272550482
300.200910451
300.142977499
300.095561069
300.059307218
300.036853901
300.023407052
300.015455377
300.010662926
580.58276902
398.465994539
338.727765887
316.384522981
307.241010603
303.354437194
301.69088268
300.963031965
300.619484918
300.437445691
300.322246122
300.237288625
300.169488804
300.11330097
300.068086501
300.041179343
300.02495497
300.016071421
300.011241289
300.008500366
564.156488415
383.679177513
334.528948008
314.518005013
306.309398124
302.906862601
301.472194411
300.840239052
300.545524979
300.387692387
300.284135735
300.206175976
300.142315098
300.087122557
300.051915085
300.031550666
300.019019218
300.013036875
300.009830329
300.008162565
556.191640601
383.889109453
330.996738692
312.258798513
305.186595536
302.37782316
301.205183506
300.704803715
300.473469052
300.342197208
300.251969879
300.181187489
300.118818164
300.073059588
300.04567774
300.027193876
300.017623554
300.012816247
300.01025367
300.008975443
553.414972334
380.579748527
327.233387396
310.081677171
304.084151858
301.819948951
300.945909626
300.58753609
300.412599317
300.306016751
300.228138986
300.162074075
300.107071053
300.070522754
300.044759042
300.028231484
300.019387896
300.01459666
300.011966354
300.010601559
553.925130816
379.804775159
325.37838525
308.499271163
303.090167366
301.358004422
300.747660669
300.49755652
300.36756554
300.28114435
300.213433352
300.153613762
300.108236869
300.073456257
300.048518982
300.032964291
300.023566854
300.017997261
300.014754055
300.012934176
556.09152832
380.675260669
324.547145665
306.877547698
302.281358117
301.014519145
300.605632169
300.43658416
300.33873667
300.268152912
300.207970104
300.157255611
300.115893898
300.081544261
300.057489892
300.041036616
300.030101027
300.023052771
300.018645805
300.015982812
548.127301125
376.973592088
320.664925055
305.167040361
301.649666313
300.780993795
300.519923825
300.401638632
300.325532539
300.264952924
300.212344571
300.167951122
300.128110595
300.095841553
300.07115507
300.052704642
300.039373348
300.0300736
300.023817182
300.019822949
490.269329151
360.540234282
314.113040822
303.477334503
301.17366888
300.642965325
300.474007771
300.387413193
300.323089885
300.270003417
300.223525441
300.182044641
300.145657129
300.114704912
300.08897081
300.068146625
300.051857807
300.039569534
300.030699016
300.024752502
433.824501779
342.373479051
309.963870385
302.48256112
300.919177851
300.57252402
300.457745024
300.386151047
300.329443983
300.28107114
300.238145917
300.200363001
300.166661976
300.136512744
300.109905217
300.086889127
300.067535434
300.051826153
300.039721825
300.03116417
403.917293005
336.239254588
309.583728338
302.368400484
300.859501643
300.563548845
300.465209816
300.39869132
300.34478059
300.298700606
300.258234159
300.222341417
300.189986954
300.160194656
300.132848459
300.107989608
300.085789818
300.066604155
300.050937215
300.03923594
394.694555686
338.722126515
312.691860203
303.172319755
301.04320094
300.634203792
300.504292675
300.429403526
300.372395701
300.326086459
300.286239557
300.250088623
300.216608743
300.185859942
300.157292288
300.130608549
300.105815783
300.083333985
300.064105587
300.04902216
413.494906099
356.443580442
322.896657724
307.133516982
302.032876252
300.905067848
300.610326901
300.493765241
300.423179044
300.369887258
300.325488222
300.286272827
300.249950489
300.215651292
300.183879103
300.154465025
300.126916126
300.101304542
300.078639087
300.060212087
501.568444339
382.924138654
333.349903057
312.264915271
304.205101402
301.607100864
300.843640811
300.607584167
300.502050472
300.434320902
300.380497762
300.333419357
300.290687579
300.251747669
300.215087626
300.180719699
300.14896649
300.119886474
300.093882715
300.072259166
580.337482873
401.024146171
339.020930887
314.94349856
305.61157806
302.26219923
301.136502097
300.752810116
300.593676224
300.505443625
300.441845985
300.388492095
300.338698947
300.292357952
300.24982845
300.210530946
300.173405061
300.139183978
300.109362765
300.084657686
605.154600097
408.401087039
340.655963426
315.455638399
305.960089106
302.503772912
301.288086421
300.851319411
300.66914606
300.567012951
300.495771964
300.438099025
300.383479108
300.332263016
300.284681543
300.24013232
300.198565303
300.159713593
300.12510591
300.096992157
611.56701788
409.464977573
339.593878385
314.556306993
305.586641814
302.417688584
301.303084687
300.892098963
300.714321709
300.611855363
300.53780915
300.477258654
300.418563203
300.363467332
300.312712201
300.265541383
300.220633535
300.178287965
300.14017298
300.10875706
613.253930579
407.979641819
337.088845902
312.956719976
304.878153199
302.173129222
301.24331821
300.894889139
300.735988107
300.63955399
300.56631428
300.504160345
300.443033909
300.385050894
300.331857365
300.283033349
300.236945911
300.192692388
300.152419896
300.11899792
612.86800596
404.286657821
333.76479005
311.192642764
304.133301544
301.904579291
301.161623308
300.879101379
300.742189986
300.653140703
300.58139665
300.518843351
300.456635837
300.39734029
300.343035717
300.293413435
300.246887114
300.202282743
300.161141727
300.127047115
609.420412604
398.68659013
330.237110818
309.485751336
303.438619384
301.649572074
301.075168178
300.853146103
300.737702149
300.656644817
300.586345741
300.523271252
300.460547755
300.401244829
300.347200135
300.297951907
300.251894174
300.207760341
300.166889707
300.133266954
602.537107539
392.050211769
326.508711508
307.859312999
302.821583775
301.429187048
300.998255421
300.827577015
300.730846189
300.654330761
300.585123686
300.520448973
300.457504664
300.39894123
300.345999128
300.297883636
300.252931337
300.209883671
300.170362589
300.138363142
593.18637746
384.311844733
322.704707365
306.389383149
302.31721558
301.262314581
300.944989261
300.810279193
300.722719709
300.647649506
300.578856945
300.512939556
300.450236522
300.392951867
300.3416194
300.295075752
300.251540201
300.209819952
300.172698748
300.143194051
579.913308763
374.892711324
318.776739086
305.088104904
301.940093663
301.158566955
300.910524126
300.795334024
300.712177539
300.638947265
300.569572039
300.503052725
300.441128163
300.38543971
300.335895306
300.291007696
300.2487532
300.208931379
300.175167348
300.148812192
559.426694974
363.177724471
314.631253328
304.083184649
301.70647367
301.08529534
300.884460217
300.782300093
300.702189213
300.629236097
300.559204547
300.492813295
300.432055095
300.378008822
300.330093579
300.28652447
300.245447498
300.208825758
300.178934139
300.156015465
530.544578399
349.800875271
311.929876075
303.453486459
301.516310732
301.028436852
300.86627766
300.772327079
300.693684412
300.619844371
300.549497137
300.483764015
300.424249747
300.371559887
300.324804402
300.282117657
300.243437942
300.210710152
300.185086639
300.165544959
504.875265235
344.641062847
310.59371845
302.986452028
301.369756384
300.988281561
300.854766211
300.766695456
300.687471283
300.612422595
300.541991633
300.476975176
300.418343183
300.366326669
300.320215988
300.279307045
300.244139006
300.215890094
300.194605785
300.177877236
471.936500391
348.957912362
313.717730393
303.484034259
301.363082679
300.973591273
300.851296002
300.765404628
300.684538796
300.608082453
300.537208664
300.472198241
300.413604016
300.362008216
300.317531032
300.279578571
300.249007522
300.225727907
300.2080565
300.193460078
300.025249883
300.017070841
300.011502493
300.00786036
300.005498366
300.003905175
300.002897185
300.002763593
300.003532985
300.003727074
300.003925956
300.004120935
300.004278745
300.004401327
300.004441678
300.004260886
300.102069824
300.075086957
300.053313369
300.036800634
300.024800214
300.016565861
300.011120282
300.007660853
300.005475127
300.004071234
300.003280484
300.003315525
300.00373651
300.004049542
300.004280977
300.004507519
300.004698766
300.004823747
300.004867001
300.004676209
300.10154366
300.073381285
300.051375629
300.034909647
300.023035229
300.015100078
300.010151648
300.007238995
300.005434556
300.004223178
300.003506634
300.003602744
300.004043326
300.004353182
300.004645955
300.004928777
300.005146767
300.005285947
300.00534509
300.005163312
300.09557048
300.067977562
300.046841402
300.030643103
300.019160567
300.012194452
300.008338018
300.006161356
300.004930141
300.004120821
300.003660836
300.0039234
300.00431412
300.004651445
300.005013268
300.005366753
300.005654634
300.005850373
300.005949645
300.005780406
300.084716899
300.059343214
300.039653909
300.023614063
300.013630905
300.008607803
300.006132149
300.005180222
300.004590019
300.004039378
300.003844245
300.004100788
300.004511281
300.004890636
300.005338796
300.005833124
300.006291103
300.006648483
300.006878563
300.006707296
300.071453126
300.049360582
300.031122323
300.01580644
300.008577175
300.00613324
300.005402556
300.005028087
300.004560106
300.004135533
300.004019251
300.004295054
300.004708991
300.00514516
300.00571391
300.006417786
300.007197284
300.00796162
300.008601316
300.008404008
300.057754316
300.038481601
300.021255339
300.009408495
300.006306045
300.005745609
300.005519251
300.00521454
300.004728083
300.004337643
300.004243471
300.004492284
300.004963958
300.005469923
300.006202472
300.007246403
300.008682868
300.0104794
300.012490661
300.01242207
300.041945532
300.026444035
300.013135355
300.00671398
300.006163741
300.006143408
300.005943186
300.005573135
300.005082386
300.004613501
300.004494571
300.004732461
300.005253325
300.005847411
300.006805213
300.008391088
300.011113606
300.015326887
300.02191877
300.022660101
300.026559895
300.016247481
300.009127445
300.006378625
300.006739429
300.006895711
300.006596927
300.006041111
300.005513918
300.004912268
300.004768178
300.0050268
300.005588107
300.006316118
300.007635075
300.010191963
300.015425707
300.024660259
300.042700632
300.045705474
300.01625254
300.010726773
300.007409261
300.006615661
300.007508191
300.007866034
300.007491879
300.006635558
300.005936898
300.005312468
300.005060016
300.005373163
300.006005541
300.007012573
300.009144013
300.013990016
300.024904593
300.044763314
300.085150603
300.090737318
300.01063649
300.007966255
300.0068604
300.007147503
300.00834994
300.008944092
300.008579342
300.007407947
300.006376481
300.005750734
300.005343573
300.005726728
300.006508947
300.007903224
300.01130292
300.020068038
300.040579763
300.077455988
300.155792467
300.167199936
300.008020283
300.007035309
300.007109326
300.007950929
300.009317946
300.010077407
300.009711942
300.008293712
300.006857783
300.006190764
300.005677473
300.00614505
300.007135917
300.008909605
300.013634677
300.027107119
300.060378308
300.121682732
300.26158997
300.287039264
300.007269757
300.007177617
300.007812774
300.009013419
300.010439848
300.011239517
300.010763598
300.009111635
300.00746413
300.006726816
300.006225706
300.006811544
300.008263517
300.010756527
300.017207897
300.036704104
300.088133602
300.188748392
300.431196062
300.487811151
300.007617565
300.00794865
300.008848891
300.010259676
300.011706918
300.012454777
300.011737282
300.00986002
300.008248579
300.007679219
300.007259886
300.008209855
300.010915821
300.015666239
300.026023901
300.056671437
300.140908721
300.312998527
300.718970196
300.840722057
300.008641844
300.009065451
300.010141909
300.011657306
300.013112075
300.013710968
300.012675724
300.010741499
300.009680594
300.009741951
300.009640398
300.011609719
300.016933155
300.027766239
300.047390452
300.100042626
300.253210702
300.542504989
301.143741466
301.345467305
300.010157406
300.010513445
300.011618265
300.013170976
300.014638795
300.01500751
300.013711824
300.012248169
300.012866249
300.014058331
300.015240317
300.019511136
300.028671218
300.050644743
300.085963967
300.178361657
300.440347295
300.875329179
301.588089747
301.826158675
300.012139567
300.012236425
300.013254797
300.014848893
300.0163008
300.016452705
300.015214953
300.015395774
300.019543358
300.023192646
300.027384987
300.035145726
300.048805762
300.08513263
300.138002726
300.24603244
300.545935844
301.104150536
301.853516336
302.127929725
300.014563521
300.014230776
300.015099164
300.016749631
300.01819847
300.018154065
300.017547173
300.020742328
300.03012023
300.038570248
300.048044704
300.06011686
300.078097717
300.129779339
300.204642718
300.302866472
300.527973577
301.109625387
301.906662999
302.235094066
300.017468176
300.016581085
300.017266401
300.018966049
300.020362754
300.020190106
300.020486342
300.026796136
300.041321068
300.055604298
300.070901221
300.087842131
300.109774734
300.171540463
300.251495161
300.318903252
300.492812406
300.946223062
301.843243897
302.218432342
300.021105792
300.019496974
300.019896787
300.021525969
300.022777972
300.022483269
300.02318769
300.030695592
300.047241628
300.065260752
300.083900403
300.1051689
300.13147011
300.190713166
300.234036217
300.283165843
300.461827897
301.061052561
301.781883305
301.99570031
300.025804076
300.023144012
300.022988964
300.024363706
300.025496463
300.025017924
300.025209686
300.031399811
300.04615097
300.064210869
300.083178973
300.106468045
300.134340477
300.184877587
300.206271174
300.257097498
300.49584651
301.437427241
301.936059504
302.018191224
300.031637639
300.027595184
300.026597226
300.02753306
300.028589642
300.027984232
300.027150437
300.030560882
300.041422751
300.057816276
300.077277637
300.100648631
300.129529097
300.179433006
300.21066453
300.256015304
300.59273744
301.622026141
302.089388573
302.150797673
300.038725614
300.032969757
300.030850829
300.031143362
300.032110603
300.031586233
300.029873268
300.03027049
300.0365776
300.050732354
300.070321788
300.096391727
300.134351696
300.189233275
300.240272876
300.311196315
300.531279441
301.565009512
302.241514269
302.302041187
300.047088346
300.03928136
300.035837524
300.035322678
300.03610686
300.035820911
300.033728961
300.031851339
300.03462195
300.047974422
300.068247593
300.098848453
300.157006737
300.218693298
300.296764268
300.397703952
300.601038491
301.460144813
302.30528944
302.376588474
300.056404761
300.046480777
300.041571702
300.040167304
300.040630619
300.040536695
300.038353205
300.035165837
300.036574614
300.053935335
300.077288887
300.118274893
300.194155516
300.28723578
300.40238237
300.531647016
300.709347604
301.242632121
302.384854164
302.477420314
300.066234591
300.054329394
300.047922918
300.045667858
300.045708543
300.045514802
300.043055478
300.039440967
300.04333315
300.070649316
300.099068094
300.150991346
300.263666671
300.407787494
300.55817236
300.692043586
300.869834364
301.281232771
302.586226176
302.754667627
300.076184094
300.06248227
300.054703939
300.051690238
300.051220388
300.05046621
300.047293208
300.044589837
300.056333148
300.091680183
300.130831135
300.206854245
300.349766424
300.521067251
300.694744187
300.876821887
301.101623827
301.501942633
302.884625478
303.065006024
300.085802495
300.070584474
300.061713354
300.058005674
300.056871078
300.054945208
300.050954585
300.051879686
300.073888406
300.106406445
300.153183075
300.245818093
300.411040577
300.60568447
300.827031949
301.068495185
301.374613687
301.845536179
303.192492644
303.396210985
300.094548152
300.078232925
300.068642206
300.064321116
300.062179488
300.058605404
300.054921206
300.062642116
300.085308383
300.117145531
300.170426332
300.274349114
300.447623611
300.672056857
300.930054235
301.225919242
301.609452144
302.177411636
303.463126937
303.709558197
300.102057785
300.085197485
300.075252464
300.070376405
300.06682277
300.061799719
300.060593664
300.072634394
300.095739338
300.132613053
300.201722263
300.328101964
300.503996552
300.723720601
301.005173685
301.361567118
301.834055802
302.446507373
303.67965817
303.981228528
300.108554327
300.091727363
300.081684127
300.076172285
300.071059343
300.065325378
300.066378639
300.077811999
300.102914294
300.150144666
300.24637713
300.386263501
300.550555966
300.75945838
301.053610197
301.433204623
301.929536493
302.583058482
303.785384606
304.174563349
300.114708106
300.098281055
300.088263236
300.082093751
300.075676465
300.069953549
300.069914877
300.078366429
300.101466704
300.151482695
300.25371573
300.377608585
300.527148858
300.71640455
300.989498039
301.334458098
301.827336623
302.517336729
303.800189993
304.350079817
300.12121478
300.105394761
300.095456172
300.088814854
300.081869976
300.076207951
300.073138922
300.075640698
300.089905506
300.127652356
300.20619039
300.300621032
300.413421176
300.562398644
300.777582086
301.091757011
301.599746426
302.348591983
303.868919774
304.619876236
300.128817564
300.11360163
300.103756819
300.096999799
300.090809856
300.084476
300.078987038
300.075138502
300.077593711
300.096301719
300.143861119
300.208084726
300.275765089
300.370472428
300.537733792
300.858972119
301.439496939
302.320534402
304.293616159
305.12757054
300.138014529
300.123399654
300.113638165
300.107791379
300.101935234
300.095447867
300.088654432
300.080691396
300.073485562
300.073711894
300.090081698
300.127811284
300.173579542
300.225646289
300.348463274
300.717128747
301.522271155
302.890542928
305.569348699
306.292522653
300.149203478
300.135276415
300.125982653
300.120468704
300.114550404
300.108344229
300.10105954
300.0908175
300.078406187
300.068671631
300.065937453
300.072919911
300.08706639
300.110369342
300.195160032
300.614692796
302.058944152
304.583504564
308.551100689
309.264638717
300.162792221
300.149539175
300.140499956
300.134491487
300.128568035
300.122079529
300.113938797
300.101889277
300.087134244
300.07319896
300.063080991
300.058365641
300.061054089
300.068189643
300.105007195
300.59270368
304.59363626
308.493849948
313.931239273
314.979529872
300.179487433
300.166713476
300.156899886
300.149906178
300.143350973
300.135840033
300.12599487
300.112259953
300.095724132
300.079268383
300.065553559
300.056329527
300.05329875
300.038187236
300
301.18779692
309.575871687
316.419713816
324.470425772
323.031933355
)
;

boundaryField
{
    emptyPatch
    {
        type            empty;
    }
    minY
    {
        type            fixedValue;
        value           nonuniform List<scalar> 0();
    }
    maxY
    {
        type            inletOutlet;
        inletValue      uniform 373;
        value           nonuniform List<scalar> 
40
(
471.93648087
348.957913362
313.717730818
303.484034498
301.363082703
300.973591264
300.851295985
300.765404588
300.68453873
300.608082376
300.537208587
300.472198167
300.413603946
300.362008156
300.31753099
300.279578557
300.249007542
300.225727953
300.208056557
300.193460137
300.179487485
300.166713518
300.156899916
300.149906199
300.143350991
300.135840051
300.125994889
300.112259973
300.095724149
300.079268388
300.065553548
300.056329505
300.053298733
300.038187215
373
301.187796898
309.57586445
373
373
373
)
;
    }
    maxX
    {
        type            fixedValue;
        value           uniform 300;
    }
    water_to_heater
    {
        type            copiedFixedValue;
        sourceFieldName T.liquid;
        value           nonuniform List<scalar> 
59
(
788.982835078
788.997758455
789.106989733
789.136341065
789.14483779
789.156882439
789.163547305
789.192865179
789.196399844
789.260539645
789.263761497
789.375956321
789.379439252
789.46282207
789.465947583
789.497578533
789.499254211
789.512369716
789.502219277
789.522542986
789.517851129
789.58640244
789.584941689
789.637304953
789.635934115
789.673421258
789.673474033
789.705971382
789.619528584
789.646969216
789.576169355
789.594764453
789.59067187
789.60681467
789.606812618
789.63892866
789.723919193
789.750396952
789.870740646
789.876212015
789.893210719
789.892045621
789.89536391
789.88668869
789.886195352
789.857265737
789.855584397
789.795896411
789.791801176
789.677500484
789.672433495
789.50210163
789.490282461
789.317698656
789.294294598
789.094713675
789.041583723
788.895145131
788.820691689
)
;
    }
    procBoundary0to1
    {
        type            processor;
        value           nonuniform List<scalar> 
41
(
406.750474803
349.70589333
320.536472172
308.050369898
303.362680371
301.652727436
301.000880525
300.721623981
300.576890034
300.485393938
300.41887067
300.366916403
300.329088978
300.299028816
300.271820851
300.24519708
300.21784588
300.189063367
300.158740071
300.127480766
300.024780447
300.017187796
300.011816519
300.0080993
300.005446173
300.00366048
300.002574983
300.002360427
300.002807876
300.003525132
300.003589901
300.003739638
300.00388109
300.003995856
300.004038672
300.003881056
300.098004572
300.073272044
300.052866961
300.036915091
300.036915091
)
;
    }
}


// ************************************************************************* //
