/*--------------------------------*- C++ -*----------------------------------*\
| =========                 |                                                 |
| \\      /  F ield         | OpenFOAM: The Open Source CFD Toolbox           |
|  \\    /   O peration     | Version:  2312                                  |
|   \\  /    A nd           | Website:  www.openfoam.com                      |
|    \\/     M anipulation  |                                                 |
\*---------------------------------------------------------------------------*/
FoamFile
{
    version     2.0;
    format      ascii;
    arch        "LSB;label=32;scalar=64";
    class       volScalarField;
    location    "0.015/water";
    object      nut.gas;
}
// * * * * * * * * * * * * * * * * * * * * * * * * * * * * * * * * * * * * * //

dimensions      [0 2 -1 0 0 0 0];

internalField   nonuniform List<scalar> 
1503
(
3.24836660319e-07
1.17304333977e-07
4.75032500257e-08
2.121681831e-08
3.48617259871e-08
1.46383359884e-07
4.49657573409e-07
7.25827372974e-07
1.16583999329e-06
2.60560098482e-06
5.61244223547e-06
8.76922327808e-06
1.12038920309e-05
1.34284234364e-05
1.51671995485e-05
1.61041935473e-05
1.64645805409e-05
1.65698937321e-05
1.65979654918e-05
1.66082177449e-05
1.65216819629e-06
7.8535481241e-07
2.40807067814e-07
6.54704259992e-08
3.32353700083e-08
1.88963347627e-08
2.55971963388e-08
6.22210897156e-08
1.36394896857e-07
2.65219814444e-07
4.61915474752e-07
6.96867121131e-07
1.09269801742e-06
2.336682383e-06
5.19059943317e-06
8.47669535465e-06
1.03011648638e-05
1.08339071603e-05
1.08977230347e-05
1.08628699147e-05
2.15030664067e-06
1.20266155256e-06
5.00911470694e-07
1.78761143236e-07
7.57496891224e-08
4.05412553975e-08
1.7396326266e-08
1.17422066535e-08
1.6434471955e-08
3.262867988e-08
6.1640700581e-08
1.03372141377e-07
1.69751444823e-07
3.06170522449e-07
6.15911049006e-07
1.47167529217e-06
3.20738077651e-06
4.68917142823e-06
5.13985783152e-06
5.17298790061e-06
2.44937824634e-06
1.43641763096e-06
6.82567631493e-07
2.93585494886e-07
1.33998414864e-07
7.60372861215e-08
2.8024451296e-08
7.98694080142e-09
3.18011418159e-09
3.37498023021e-09
6.21523693036e-09
1.19491802054e-08
2.28163961725e-08
4.31701940801e-08
8.18016956712e-08
1.68617391554e-07
4.16230677687e-07
1.02782206382e-06
1.6884275668e-06
1.90113835574e-06
2.63427335784e-06
1.57648086033e-06
7.89555287308e-07
3.74087888596e-07
1.88136989713e-07
9.81093386314e-08
4.10013698495e-08
8.78802328206e-09
1.49868682472e-09
5.40954643368e-10
6.13933986586e-10
1.12806339552e-09
2.38629565834e-09
5.04667518042e-09
1.02706709924e-08
2.0831695638e-08
4.62331657511e-08
1.22838976565e-07
3.28208077042e-07
5.6114482637e-07
2.7291096942e-06
1.65601341511e-06
8.52518216324e-07
4.25586354937e-07
2.2748740936e-07
1.12345155033e-07
4.74654921381e-08
9.67351042931e-09
1.1116124718e-09
2.01353530311e-10
1.31129658609e-10
1.7617788943e-10
3.11563817338e-10
6.15060745659e-10
1.27755433554e-09
2.70630261943e-09
5.9462476294e-09
1.44513203061e-08
4.17344998564e-08
1.18191813585e-07
2.7602677204e-06
1.6905914874e-06
8.88026838214e-07
4.59340454038e-07
2.5485463795e-07
1.28426342731e-07
4.5294583766e-08
9.5709310944e-09
9.38041791107e-10
1.26493272188e-10
6.47441074504e-11
6.8665120073e-11
9.4100927324e-11
1.47920817089e-10
2.57448287198e-10
4.90134762024e-10
1.02668020926e-09
2.36862997486e-09
6.1847146523e-09
1.91652804307e-08
2.75821176508e-06
1.7014556434e-06
9.1061910619e-07
4.83307733314e-07
2.73548986567e-07
1.39472630723e-07
4.54170820106e-08
8.22853323436e-09
7.83855516799e-10
9.58415730216e-11
4.64273817487e-11
4.44621533344e-11
5.21942266848e-11
6.94284790798e-11
1.03192272515e-10
1.69942788113e-10
3.13480682311e-10
6.50824136243e-10
1.53356991741e-09
4.16961358534e-09
2.74399261686e-06
1.70310548794e-06
9.25171556702e-07
5.00806514481e-07
2.86092513219e-07
1.46165768688e-07
4.6732183793e-08
7.25887249408e-09
6.26283620574e-10
7.66518507645e-11
3.78960118872e-11
3.48469486085e-11
3.76487228885e-11
4.52487617511e-11
6.08385578613e-11
9.16020995754e-11
1.55117072676e-10
2.99112105364e-10
6.56151219342e-10
1.62660373503e-09
2.71810880503e-06
1.69635313954e-06
9.35310504976e-07
5.15020573448e-07
2.95272329364e-07
1.50102344846e-07
4.72265506991e-08
6.90955746591e-09
5.25978408365e-10
6.39019806665e-11
3.29821745949e-11
2.99641687167e-11
3.09337000804e-11
3.4939385929e-11
4.37718654534e-11
6.13924900102e-11
9.75180948851e-11
1.82005199222e-10
3.94256955076e-10
9.6448261319e-10
2.69731501955e-06
1.68683211376e-06
9.40600876093e-07
5.26012006981e-07
3.02374088903e-07
1.52558233693e-07
4.72657315034e-08
6.7288444568e-09
4.80662192083e-10
5.73577713351e-11
3.02727926901e-11
2.74342384501e-11
2.76637686617e-11
3.0085325844e-11
3.57757646291e-11
4.70619148651e-11
7.02231357277e-11
1.27124385522e-10
2.74555154619e-10
6.80566516054e-10
2.70453694308e-06
1.6764341775e-06
9.37778569899e-07
5.32296476442e-07
3.07557043502e-07
1.54334632036e-07
4.72964983516e-08
6.65085408366e-09
4.61346158984e-10
5.45362929064e-11
2.90238367254e-11
2.62511828375e-11
2.61231652942e-11
2.77518469407e-11
3.18210161038e-11
3.98256086238e-11
5.61946317135e-11
9.74806857266e-11
2.08520258515e-10
5.27226832601e-10
2.74194380902e-06
1.66698003083e-06
9.29225588848e-07
5.3489918746e-07
3.11222670586e-07
1.55928892313e-07
4.76478612281e-08
6.69366588398e-09
4.53558173642e-10
5.24500930883e-11
2.80462120631e-11
2.54773133911e-11
2.52240400215e-11
2.64349022806e-11
2.96568191959e-11
3.60084411467e-11
4.87429871929e-11
8.08571226167e-11
1.7226523904e-10
4.52460635069e-10
2.78073877732e-06
1.65170214473e-06
9.16817261492e-07
5.36619982695e-07
3.14562233915e-07
1.57712160326e-07
4.83884566216e-08
6.86504663607e-09
4.60123619639e-10
5.12788146573e-11
2.71945994366e-11
2.47969157103e-11
2.45091970033e-11
2.54819788071e-11
2.82252160506e-11
3.37042729686e-11
4.44580208676e-11
7.15350072497e-11
1.52933169716e-10
4.14707901361e-10
2.83084550302e-06
1.64449240653e-06
9.04718471709e-07
5.38615779564e-07
3.17840824039e-07
1.59158464801e-07
4.90730027381e-08
7.06781882473e-09
4.77605130043e-10
5.20210556286e-11
2.69699008932e-11
2.44181819387e-11
2.40259203582e-11
2.48030620435e-11
2.72118999548e-11
3.21295955415e-11
4.17218993901e-11
6.60827495253e-11
1.41581333196e-10
3.86711714466e-10
2.88474015167e-06
1.67388962444e-06
9.09721554426e-07
5.43653230198e-07
3.21584053291e-07
1.60637093117e-07
4.98229289666e-08
7.33805868678e-09
5.08485522027e-10
5.45219544522e-11
2.74919181729e-11
2.45796237204e-11
2.39508513602e-11
2.44790741855e-11
2.65801197038e-11
3.10639236393e-11
3.98983083003e-11
6.26263738925e-11
1.3383273165e-10
3.63226169378e-10
2.91972374283e-06
1.71836106515e-06
9.33968643683e-07
5.56215312199e-07
3.27274022158e-07
1.62725350341e-07
5.090647697e-08
7.71174662003e-09
5.54701737091e-10
5.84950290161e-11
2.83765130259e-11
2.50125849806e-11
2.41615985784e-11
2.44685568881e-11
2.63088661956e-11
3.04508826049e-11
3.87262593825e-11
6.02556560235e-11
1.27892698959e-10
3.42608287487e-10
2.92566334314e-06
1.75409926908e-06
9.6752158971e-07
5.77454059363e-07
3.36564824285e-07
1.6572169902e-07
5.22114935504e-08
8.130138983e-09
6.01206619533e-10
6.1740485728e-11
2.8831103795e-11
2.51808878939e-11
2.4245571428e-11
2.44602810565e-11
2.617744864e-11
3.0130977504e-11
3.80136578836e-11
5.85548616755e-11
1.23044391015e-10
3.23233685178e-10
2.91574125973e-06
1.77984454415e-06
9.97140537096e-07
6.00666874617e-07
3.48217539218e-07
1.69702564359e-07
5.37962829592e-08
8.59987280603e-09
6.48871892484e-10
6.4158759876e-11
2.88057228678e-11
2.50115725797e-11
2.40864910615e-11
2.42946938068e-11
2.59574981774e-11
2.98022065067e-11
3.7447586843e-11
5.73257337371e-11
1.19048252962e-10
3.0459973314e-10
2.90275052193e-06
1.79897939439e-06
1.02350636679e-06
6.24684295941e-07
3.6129071489e-07
1.74153871482e-07
5.54492009121e-08
9.10544004699e-09
7.04771166525e-10
6.74452718363e-11
2.89980160987e-11
2.49167787446e-11
2.39491813063e-11
2.41283841815e-11
2.57297287364e-11
2.94543308347e-11
3.68972132902e-11
5.62861416202e-11
1.15305066634e-10
2.89107782583e-10
2.87842334597e-06
1.81042337185e-06
1.04987325096e-06
6.52380145246e-07
3.77524194284e-07
1.79919285009e-07
5.75218346172e-08
9.76455367575e-09
7.89248793849e-10
7.32959219253e-11
2.98348932408e-11
2.52205905726e-11
2.40898701733e-11
2.41558557015e-11
2.5648473761e-11
2.92386511675e-11
3.64931477466e-11
5.54405003107e-11
1.11843319821e-10
2.78663341001e-10
2.8255906894e-06
1.81042826828e-06
1.08171949043e-06
6.92396908995e-07
4.03034416398e-07
1.89608919793e-07
6.0950717317e-08
1.07439073951e-08
9.17721455024e-10
8.26004327875e-11
3.11490457687e-11
2.57418123795e-11
2.44293215583e-11
2.43648821687e-11
2.57269747895e-11
2.9185244902e-11
3.62883889967e-11
5.48578223897e-11
1.08935469074e-10
2.72235173138e-10
2.72826072146e-06
1.78261386493e-06
1.11799845394e-06
7.5339175601e-07
4.45152044588e-07
2.05706488838e-07
6.60324161668e-08
1.20432125054e-08
1.07544603192e-09
9.24146380216e-11
3.20461666852e-11
2.59649476222e-11
2.45778216209e-11
2.44827413869e-11
2.57833775264e-11
2.91710239757e-11
3.61561350314e-11
5.4388189491e-11
1.06492825626e-10
2.68346737771e-10
2.56787604711e-06
1.71857760693e-06
1.15361372545e-06
8.32614355879e-07
5.03491030907e-07
2.27933406733e-07
7.21824695085e-08
1.34474523675e-08
1.2388676427e-09
1.01537069979e-10
3.2390231638e-11
2.57826070533e-11
2.43949332185e-11
2.43257068218e-11
2.56348761165e-11
2.90128249249e-11
3.5924723982e-11
5.38431467161e-11
1.04315302567e-10
2.65996438976e-10
2.36917517992e-06
1.6437237616e-06
1.20514229203e-06
9.32604848997e-07
5.76398010049e-07
2.55439963106e-07
7.91557699355e-08
1.49208145401e-08
1.41226130119e-09
1.11364752757e-10
3.28389069832e-11
2.55989035796e-11
2.41437964512e-11
2.40656048366e-11
2.53796903757e-11
2.87314147172e-11
3.5550733895e-11
5.314739189e-11
1.02417384516e-10
2.64713363448e-10
2.14598821269e-06
1.58724157162e-06
1.29903809324e-06
1.07015722697e-06
6.73296320592e-07
2.92491372578e-07
8.83943525238e-08
1.68277380379e-08
1.64719092741e-09
1.2571843755e-10
3.39432068188e-11
2.57208705475e-11
2.40983775891e-11
2.39416271992e-11
2.5201798124e-11
2.84860406741e-11
3.51935377369e-11
5.24553571363e-11
1.00880014443e-10
2.64083489198e-10
1.91872063083e-06
1.60412864934e-06
1.493402383e-06
1.28216639114e-06
8.07822214589e-07
3.4192053856e-07
1.00345064609e-07
1.92084697284e-08
1.95080612763e-09
1.44932563529e-10
3.54478038553e-11
2.60034364913e-11
2.4225031762e-11
2.3987319701e-11
2.51504640681e-11
2.83351708246e-11
3.49453338864e-11
5.19249984763e-11
9.97654756303e-11
2.64262366099e-10
1.76278592478e-06
1.8641275219e-06
1.93658659156e-06
1.63697032295e-06
9.84975263429e-07
3.93963854417e-07
1.10639957007e-07
2.10412432705e-08
2.17085884557e-09
1.58259065766e-10
3.61329478565e-11
2.59700532596e-11
2.41979746414e-11
2.39817747383e-11
2.51053010071e-11
2.82250892775e-11
3.47663480493e-11
5.15181227059e-11
9.89018838354e-11
2.64416343075e-10
2.51322742235e-06
3.07193587252e-06
2.87088494505e-06
2.07823725453e-06
1.10135306481e-06
4.05000372393e-07
1.10355952702e-07
2.10205633735e-08
2.17250880061e-09
1.57141834176e-10
3.55167834945e-11
2.55648365985e-11
2.3926032176e-11
2.37956985805e-11
2.49452797089e-11
2.80689049039e-11
3.45881014662e-11
5.12003364563e-11
9.81499091048e-11
2.64622183513e-10
5.19092682567e-06
4.41060837834e-06
3.18984390061e-06
1.97717068657e-06
9.66536177257e-07
3.52733226742e-07
9.98659648472e-08
1.95058855107e-08
2.01212519517e-09
1.46855841924e-10
3.45117825339e-11
2.51905881599e-11
2.36493823599e-11
2.35840868233e-11
2.47864055644e-11
2.7927817633e-11
3.44138751453e-11
5.08710935084e-11
9.7602556016e-11
2.65180333518e-10
5.68780996395e-06
4.67691851967e-06
3.11813052063e-06
1.76743238557e-06
8.2130704138e-07
3.04094910882e-07
9.00461010593e-08
1.79772645143e-08
1.8543762369e-09
1.37538689182e-10
3.40646193281e-11
2.52211258709e-11
2.36526868667e-11
2.3561655728e-11
2.47749653095e-11
2.79258184251e-11
3.43839035113e-11
5.0699232758e-11
9.7372689771e-11
2.6647453539e-10
5.74908832331e-06
4.8816249495e-06
3.21187877666e-06
1.6890673084e-06
7.40996927339e-07
2.74201162576e-07
8.33840790381e-08
1.68308255522e-08
1.74429482714e-09
1.31624656372e-10
3.41209907172e-11
2.55791202458e-11
2.39494133911e-11
2.37843966249e-11
2.49554295846e-11
2.80919518142e-11
3.45384236731e-11
5.07865211714e-11
9.76866894509e-11
2.68842301165e-10
5.67861284478e-06
4.86004168081e-06
3.2209956966e-06
1.58898446172e-06
6.64335441853e-07
2.47901698919e-07
7.70487370344e-08
1.55111269087e-08
1.59228298444e-09
1.22521131768e-10
3.38013153753e-11
2.58571191424e-11
2.42660701169e-11
2.40746571065e-11
2.52119376475e-11
2.8334092822e-11
3.47968256705e-11
5.1082727933e-11
9.84230831051e-11
2.71916298704e-10
5.59518647463e-06
4.75720122752e-06
3.18919602996e-06
1.43819870048e-06
5.7073397408e-07
2.18850064745e-07
6.93333992734e-08
1.36283429294e-08
1.34702335752e-09
1.06864379642e-10
3.27697435673e-11
2.5883841462e-11
2.44323596858e-11
2.4280020614e-11
2.54226796175e-11
2.85493373728e-11
3.50468356107e-11
5.14381430503e-11
9.93330787193e-11
2.75388610172e-10
5.3101405403e-06
4.52001524132e-06
3.06023765554e-06
1.30631857311e-06
4.85633827934e-07
1.92286392638e-07
6.12354706758e-08
1.14849450307e-08
1.06632013145e-09
8.94252937146e-11
3.16137533237e-11
2.58478386651e-11
2.45243130569e-11
2.44313803476e-11
2.56171674353e-11
2.87732371638e-11
3.53020542656e-11
5.17967388511e-11
1.00305058223e-10
2.79164681418e-10
5.11704223659e-06
4.29781276331e-06
2.87768081868e-06
1.21948923556e-06
4.24342473727e-07
1.72174733659e-07
5.40919398491e-08
9.56955672303e-09
8.26715058119e-10
7.53800852978e-11
3.09230982056e-11
2.60038807109e-11
2.4713330564e-11
2.46460239223e-11
2.58888195752e-11
2.91021765444e-11
3.56683201133e-11
5.22562005479e-11
1.01488253835e-10
2.83500912859e-10
5.04705115784e-06
4.18790885225e-06
2.77862427534e-06
1.17310104248e-06
3.86169345622e-07
1.57559609974e-07
4.79655026316e-08
7.97852801457e-09
6.42829210378e-10
6.5274335399e-11
3.06612822412e-11
2.63451605153e-11
2.50365695464e-11
2.4964554609e-11
2.62565897899e-11
2.95394818192e-11
3.61768516025e-11
5.29108159221e-11
1.03067179918e-10
2.88712655701e-10
5.08133049664e-06
4.20378499488e-06
2.77058654608e-06
1.16405432019e-06
3.68477474261e-07
1.4739021592e-07
4.27145168621e-08
6.64004580818e-09
4.99419127629e-10
5.74631977182e-11
3.03884831064e-11
2.66129339775e-11
2.53353398765e-11
2.52816092271e-11
2.66267320266e-11
2.99825896314e-11
3.67267401656e-11
5.36945954068e-11
1.04932964996e-10
2.9435480327e-10
1.6614038381e-05
1.6617828753e-05
1.66202733148e-05
1.66217950254e-05
1.6622736156e-05
1.66233630274e-05
1.66238857709e-05
1.66244628858e-05
1.66251058448e-05
1.66249750497e-05
1.66185704238e-05
1.65792347148e-05
1.64025251269e-05
1.575900949e-05
1.3857541749e-05
9.59498772278e-06
3.78528051553e-06
6.07227890223e-07
1.429115109e-07
6.60360549881e-07
1.08168685824e-05
1.07748635614e-05
1.0738648112e-05
1.07076706083e-05
1.06813866133e-05
1.06593537218e-05
1.06412251335e-05
1.06267230802e-05
1.06155944228e-05
1.06073504371e-05
1.05996664092e-05
1.05798683797e-05
1.0487641102e-05
1.00883659931e-05
8.70977156518e-06
5.41882582639e-06
1.58398048919e-06
2.19321035865e-07
2.38018386409e-07
1.1988039492e-06
5.13490999852e-06
5.09447100768e-06
5.05963680917e-06
5.03031013658e-06
5.00586001971e-06
4.98575533871e-06
4.96958117131e-06
4.95700875252e-06
4.94777646372e-06
4.94165083584e-06
4.93822158011e-06
4.93565396359e-06
4.92394746084e-06
4.8531168364e-06
4.50856785211e-06
3.25100704472e-06
1.0356904284e-06
1.44298666449e-07
3.13973657658e-07
1.53361938095e-06
1.91584000081e-06
1.90183237591e-06
1.88754601309e-06
1.87554835401e-06
1.86573972779e-06
1.85787297609e-06
1.85174639171e-06
1.8472005164e-06
1.84411033512e-06
1.84237450254e-06
1.84189852481e-06
1.842488031e-06
1.84320949793e-06
1.83873936297e-06
1.79947253238e-06
1.56919341415e-06
7.10468460267e-07
9.7545531078e-08
3.43767793952e-07
1.69455420052e-06
6.32215985245e-07
6.37753319877e-07
6.34614993737e-07
6.31331592243e-07
6.28653984707e-07
6.26563931199e-07
6.24999630939e-07
6.23909138669e-07
6.23251336374e-07
6.22992922451e-07
6.23106609439e-07
6.23562577934e-07
6.24280308962e-07
6.24813845016e-07
6.22360870201e-07
5.97627668321e-07
4.11101696461e-07
6.43726568652e-08
3.45071373559e-07
1.75637090879e-06
2.00294618437e-07
2.23570554286e-07
2.25794558506e-07
2.25287216569e-07
2.24679090932e-07
2.2420405616e-07
2.23863685967e-07
2.23644867548e-07
2.23536235729e-07
2.2352849198e-07
2.23614093183e-07
2.23786366918e-07
2.24035829038e-07
2.24323437701e-07
2.24393763185e-07
2.2225445799e-07
1.93375504093e-07
4.03404189359e-08
3.41381332343e-07
1.78002522975e-06
5.51120348543e-08
9.09010670594e-08
1.00527757323e-07
1.01573832351e-07
1.01538718691e-07
1.01440884313e-07
1.01369959156e-07
1.013290733e-07
1.01315616898e-07
1.01327151828e-07
1.01361660208e-07
1.01417456463e-07
1.01492806883e-07
1.01583276847e-07
1.01661337813e-07
1.01494649585e-07
9.66935104791e-08
2.68117872874e-08
3.42271952563e-07
1.79663596011e-06
1.29938318657e-08
3.64442718479e-08
5.76994511502e-08
6.27123405457e-08
6.32396448046e-08
6.3261170388e-08
6.32497118998e-08
6.32433203221e-08
6.32437602278e-08
6.32505406837e-08
6.32631353627e-08
6.32811208501e-08
6.33040974357e-08
6.33313872874e-08
6.335921199e-08
6.33528333387e-08
6.20804992387e-08
2.10335965732e-08
3.47107944337e-07
1.81738404069e-06
4.30325615493e-09
1.25656292531e-08
3.3114669244e-08
4.79823658516e-08
5.06482350433e-08
5.08853621553e-08
5.08995858355e-08
5.09003639935e-08
5.09019818909e-08
5.09051111187e-08
5.09096607053e-08
5.09155464648e-08
5.09226769783e-08
5.09309436386e-08
5.09397299235e-08
5.09423195577e-08
5.02990767894e-08
1.8877747574e-08
3.54381487269e-07
1.84203944887e-06
2.41015573623e-09
5.75499128025e-09
1.55649122263e-08
3.61042771742e-08
4.5659323783e-08
4.68011634107e-08
4.68813502054e-08
4.68864656293e-08
4.68877294281e-08
4.68891047665e-08
4.68907508556e-08
4.68926765251e-08
4.68948659697e-08
4.68973173243e-08
4.68999237969e-08
4.69007970044e-08
4.63847700044e-08
1.81551368567e-08
3.62973699489e-07
1.86896658901e-06
1.74621057078e-09
3.95179570155e-09
8.52826643043e-09
2.23048960699e-08
4.1137770103e-08
4.52937741748e-08
4.56104155418e-08
4.56279914518e-08
4.56293136443e-08
4.56299303346e-08
4.56305318047e-08
4.56311625787e-08
4.56318214687e-08
4.56325247146e-08
4.56332522961e-08
4.563300766e-08
4.51314706538e-08
1.79559635682e-08
3.72268637612e-07
1.89709391094e-06
1.37908635677e-09
3.1213156956e-09
6.09811702676e-09
1.36299079583e-08
3.38040594863e-08
4.42561350408e-08
4.52041366371e-08
4.52545980136e-08
4.52569738956e-08
4.52572740154e-08
4.52574782611e-08
4.52576748213e-08
4.52578618943e-08
4.52580549088e-08
4.52582456119e-08
4.52575777112e-08
4.47401582936e-08
1.79429142958e-08
3.81981859866e-07
1.92590009154e-06
1.1678756858e-09
2.55136219122e-09
4.74043042509e-09
9.54835245835e-09
2.52739185081e-08
4.29610092487e-08
4.50394373915e-08
4.51496084212e-08
4.51542195432e-08
4.51544057713e-08
4.51544330031e-08
4.51544636529e-08
4.51544933849e-08
4.515453362e-08
4.51545749494e-08
4.51537509483e-08
4.46109825611e-08
1.80019521618e-08
3.91994938814e-07
1.95515454773e-06
1.04089020972e-09
2.21571224612e-09
3.95732466688e-09
7.37446666115e-09
1.8968902688e-08
4.13586056107e-08
4.4930346976e-08
4.51206871777e-08
4.51284851807e-08
4.51286784121e-08
4.51286209225e-08
4.51285796839e-08
4.51285500972e-08
4.5128540543e-08
4.5128539423e-08
4.51276392085e-08
4.4555749936e-08
1.8097692858e-08
4.02260408713e-07
1.98475192611e-06
9.58546535634e-10
2.04956654778e-09
3.61883328864e-09
6.290520494e-09
1.54318206314e-08
3.9642107362e-08
4.48321532566e-08
4.51118266758e-08
4.51233306796e-08
4.51236177502e-08
4.51235338803e-08
4.51234693152e-08
4.51234222833e-08
4.51234000872e-08
4.5123390186e-08
4.51224368918e-08
4.45191952066e-08
1.82199913771e-08
4.12756081874e-07
2.0146297722e-06
8.99355723043e-10
1.95016905287e-09
3.45200701593e-09
5.72245630681e-09
1.35365511806e-08
3.81286046202e-08
4.47446405082e-08
4.51081734724e-08
4.5123273884e-08
4.51236987003e-08
4.51236263769e-08
4.51235683468e-08
4.51235272843e-08
4.51235107606e-08
4.512350636e-08
4.51225074786e-08
4.44860627939e-08
1.83661099967e-08
4.23466781382e-07
2.044737827e-06
8.51294709551e-10
1.87183327044e-09
3.32619336449e-09
5.37431655176e-09
1.25283008817e-08
3.71237127788e-08
4.46778963094e-08
4.51063424573e-08
4.51243818504e-08
4.51249459206e-08
4.51249030898e-08
4.51248662736e-08
4.51248425798e-08
4.51248403339e-08
4.51248477369e-08
4.51238048651e-08
4.4452372797e-08
1.85352655598e-08
4.34377852465e-07
2.07502778513e-06
8.07103756439e-10
1.80644324994e-09
3.23390376989e-09
5.18473365424e-09
1.20340905382e-08
3.65811214889e-08
4.46310285867e-08
4.51054471236e-08
4.51257506727e-08
4.51264387281e-08
4.512642987e-08
4.51264183749e-08
4.5126415238e-08
4.51264295548e-08
4.51264502344e-08
4.51253614522e-08
4.44171410513e-08
1.87271308971e-08
4.45475262954e-07
2.10545553943e-06
7.68372335732e-10
1.76310880428e-09
3.19584176135e-09
5.11207203607e-09
1.1727005581e-08
3.62196496764e-08
4.45933398051e-08
4.51049332832e-08
4.5127211356e-08
4.51280113631e-08
4.51280329191e-08
4.51280439544e-08
4.51280590406e-08
4.5128087924e-08
4.51281201838e-08
4.51269814231e-08
4.4380133815e-08
1.89414613133e-08
4.56745985316e-07
2.13598162379e-06
7.42065139665e-10
1.74836169927e-09
3.21062380259e-09
5.10094289663e-09
1.14783922578e-08
3.58662127284e-08
4.45546052725e-08
4.5104419486e-08
4.5128763256e-08
4.51296684652e-08
4.51297108295e-08
4.51297364752e-08
4.5129763408e-08
4.51298017289e-08
4.51298414819e-08
4.5128646962e-08
4.4341284852e-08
1.91780534275e-08
4.68179625474e-07
2.16657469467e-06
7.26200199406e-10
1.75166928513e-09
3.25526614136e-09
5.12414714002e-09
1.12419515954e-08
3.5472916562e-08
4.45120184766e-08
4.51038433177e-08
4.51304343043e-08
4.51314346962e-08
4.5131483516e-08
4.51315120632e-08
4.51315415366e-08
4.51315819716e-08
4.51316235798e-08
4.51303666205e-08
4.43005463106e-08
1.94367582696e-08
4.79768702778e-07
2.19721098286e-06
7.14896765854e-10
1.76026013692e-09
3.30817591623e-09
5.15460476303e-09
1.1007389246e-08
3.50727398891e-08
4.44691966527e-08
4.51033808229e-08
4.51322329521e-08
4.5133309519e-08
4.51333483548e-08
4.51333668292e-08
4.51333887685e-08
4.5133423568e-08
4.51334611824e-08
4.51321351296e-08
4.42578443296e-08
1.97175446454e-08
4.91510197611e-07
2.22787731445e-06
7.05398225772e-10
1.76948512263e-09
3.36152646992e-09
5.18625324417e-09
1.07937453292e-08
3.4701171756e-08
4.44280719562e-08
4.51030646753e-08
4.51341182954e-08
4.51352501929e-08
4.51352639496e-08
4.51352609166e-08
4.51352669639e-08
4.51352902347e-08
4.5135319933e-08
4.51339201459e-08
4.42130649284e-08
2.00205327909e-08
5.03405556767e-07
2.25856994351e-06
6.97068710863e-10
1.77954999755e-09
3.42222244098e-09
5.23369075608e-09
1.06242189172e-08
3.43380015145e-08
4.43859232073e-08
4.51026737623e-08
4.51359974295e-08
4.51371700421e-08
4.51371464079e-08
4.51371132183e-08
4.51370984922e-08
4.51371086851e-08
4.51371316512e-08
4.51356589635e-08
4.4166048334e-08
2.03460487486e-08
5.15461634537e-07
2.28929648124e-06
6.90141615758e-10
1.79202162577e-09
3.49686525499e-09
5.3063878439e-09
1.04973714698e-08
3.39323503479e-08
4.43378307182e-08
4.51018700133e-08
4.51377401328e-08
4.5138945094e-08
4.51388710533e-08
4.51387966521e-08
4.51387536538e-08
4.51387479877e-08
4.51387679684e-08
4.51372319891e-08
4.41165724585e-08
2.06946314152e-08
5.27689910955e-07
2.32007350493e-06
6.86161097232e-10
1.80887962143e-09
3.58409935881e-09
5.40220360627e-09
1.0393166394e-08
3.34635580427e-08
4.42829721352e-08
4.51005451634e-08
4.51392070507e-08
4.5140436373e-08
4.51402965561e-08
4.51401639405e-08
4.51400735609e-08
4.51400294854e-08
4.51400196189e-08
4.51383870069e-08
4.40641964888e-08
2.10670413622e-08
5.40106374865e-07
2.35092626222e-06
6.85513370962e-10
1.82803970228e-09
3.67030716977e-09
5.49473343213e-09
1.0284359884e-08
3.29929675472e-08
4.4230499065e-08
4.50991030837e-08
4.51402719252e-08
4.51415110005e-08
4.51412953351e-08
4.51410944871e-08
4.51409444666e-08
4.51408465943e-08
4.51407865027e-08
4.51390275594e-08
4.40086609923e-08
2.14642676561e-08
5.52730122243e-07
2.38188421432e-06
6.87275696517e-10
1.84685947758e-09
3.74681681354e-09
5.57001536305e-09
1.01898193323e-08
3.26342920855e-08
4.41928531195e-08
4.50980210635e-08
4.51408237073e-08
4.51420498197e-08
4.51417611324e-08
4.5141496773e-08
4.51412918036e-08
4.51411459846e-08
4.51410443119e-08
4.51391697079e-08
4.39498624085e-08
2.18875384784e-08
5.65583955101e-07
2.41298468174e-06
6.90601474621e-10
1.86576333938e-09
3.8183643874e-09
5.65668319754e-09
1.01793805083e-08
3.24520801352e-08
4.41743523839e-08
4.50973325211e-08
4.51407688678e-08
4.51419562341e-08
4.51416098596e-08
4.51412971513e-08
4.5141051852e-08
4.51408728853e-08
4.51407454029e-08
4.51387687812e-08
4.38875635485e-08
2.23382040924e-08
5.786901667e-07
2.44425948814e-06
6.94973675698e-10
1.88695351504e-09
3.8977345918e-09
5.76256065558e-09
1.02487811e-08
3.23969557386e-08
4.41703459052e-08
4.50967571015e-08
4.514004548e-08
4.51411762991e-08
4.51407917231e-08
4.51404477707e-08
4.51401768939e-08
4.51399772372e-08
4.51398340031e-08
4.51377588072e-08
4.38214986153e-08
2.28177029164e-08
5.92069822626e-07
2.47573460959e-06
7.00396259445e-10
1.91124789813e-09
3.98911012474e-09
5.89907813348e-09
1.03734075642e-08
3.24090245872e-08
4.41768219644e-08
4.50961521046e-08
4.51386466736e-08
4.51397085647e-08
4.51393029988e-08
4.51389430102e-08
4.51386591558e-08
4.51384490105e-08
4.51382979778e-08
4.51361256602e-08
4.37514718791e-08
2.33274935972e-08
6.05740904124e-07
2.50742541546e-06
7.07164140232e-10
1.93714258413e-09
4.0814295191e-09
6.03908970632e-09
1.0512936277e-08
3.25051418949e-08
4.41982854183e-08
4.50958083785e-08
4.51366259322e-08
4.5137596614e-08
4.51371839923e-08
4.51368210245e-08
4.51365350927e-08
4.51363234564e-08
4.51361718252e-08
4.5133902886e-08
4.36773453475e-08
2.38690015803e-08
6.19717302373e-07
2.53933415151e-06
7.1536229355e-10
1.96301119191e-09
4.1664663283e-09
6.17059345882e-09
1.06854745722e-08
3.27820493801e-08
4.42419518339e-08
4.50960461797e-08
4.51340623164e-08
4.51349140237e-08
4.51345079118e-08
4.51341546504e-08
4.51338771324e-08
4.5133672613e-08
4.51335271085e-08
4.5131160915e-08
4.35990329815e-08
2.44435623431e-08
6.34007967529e-07
2.57144851598e-06
7.247554051e-10
1.98920817501e-09
4.24791467577e-09
6.30340142079e-09
1.09160274151e-08
3.32556497547e-08
4.43053953129e-08
4.50967307406e-08
4.51310421376e-08
4.51317609714e-08
4.51313764203e-08
4.51310460775e-08
4.51307876553e-08
4.51305989132e-08
4.5130466195e-08
4.51280015268e-08
4.35165014528e-08
2.5052350085e-08
6.48616034794e-07
2.6037413561e-06
7.34915248845e-10
2.01753107099e-09
4.33810886078e-09
6.46386892679e-09
1.12368828409e-08
3.38757388914e-08
4.43793249153e-08
4.50974545879e-08
4.51276719758e-08
4.51282664067e-08
4.51279191973e-08
4.51276248424e-08
4.5127395937e-08
4.51272313488e-08
4.51271177436e-08
4.51245525996e-08
4.34297689781e-08
2.56963084784e-08
6.63538358982e-07
2.63617262291e-06
7.45670067318e-10
2.04897896449e-09
4.4436788586e-09
6.66623774179e-09
1.16454648995e-08
3.4561887178e-08
4.44549363849e-08
4.50979221424e-08
4.51240913704e-08
4.51245842726e-08
4.51242882413e-08
4.51240408803e-08
4.51238501833e-08
4.51237167431e-08
4.51236274811e-08
4.51209586682e-08
4.3338902917e-08
2.63760554698e-08
6.78764436785e-07
2.66869005919e-06
7.57187397474e-10
2.08221943934e-09
4.55515049789e-09
6.88435133831e-09
1.20874074657e-08
3.52737899693e-08
4.45296239598e-08
4.50981529088e-08
4.51204636394e-08
4.51208791756e-08
4.51206441606e-08
4.51204517761e-08
4.5120305416e-08
4.51202083357e-08
4.51201470181e-08
4.51173700098e-08
4.32440388914e-08
2.70909948909e-08
6.94248540356e-07
2.70108075283e-06
7.69323298771e-10
2.11452907243e-09
4.65989940077e-09
)
;

boundaryField
{
    emptyPatch
    {
        type            empty;
    }
    minY
    {
        type            calculated;
        value           nonuniform List<scalar> 
40
(
1.89930422421e-05
1.89923562226e-05
1.89923151625e-05
1.89922822164e-05
1.89923253514e-05
1.89924305483e-05
1.89925901009e-05
1.89927967875e-05
1.89930447906e-05
1.89933280168e-05
1.89936421484e-05
1.89939836191e-05
1.89943475073e-05
1.89947287243e-05
1.89951240198e-05
1.89955310251e-05
1.89959464002e-05
1.89963659108e-05
1.89967854747e-05
1.8997201312e-05
1.89975999028e-05
1.89979620064e-05
1.89982823079e-05
1.89985651638e-05
1.89988146118e-05
1.89990343564e-05
1.89992277818e-05
1.89993979721e-05
1.89995477343e-05
1.89996796217e-05
1.89997959535e-05
1.89998988301e-05
1.89999901602e-05
1.90000717646e-05
1.90001456416e-05
1.90002140886e-05
1.90002788194e-05
1.90003422547e-05
1.90004201282e-05
1.90011399876e-05
)
;
    }
    maxY
    {
        type            calculated;
        value           nonuniform List<scalar> 0();
    }
    maxX
    {
        type            nutkWallFunction;
        blending        stepwise;
        value           uniform 0;
    }
    water_to_heater
    {
        type            nutkWallFunction;
        blending        stepwise;
        value           uniform 0;
    }
    procBoundary2to3
    {
        type            processor;
        value           nonuniform List<scalar> 
41
(
5.10475808926e-06
4.23280416218e-06
2.80634043997e-06
1.1824826195e-06
3.63616188368e-07
1.40581230489e-07
3.84229858482e-08
5.54058970194e-09
3.88006908069e-10
5.11579528619e-11
2.99610282608e-11
2.6698491885e-11
2.55152584398e-11
2.55113387463e-11
2.69082864646e-11
3.03306618132e-11
3.71950912124e-11
5.44375697001e-11
1.06759177502e-10
2.99697186745e-10
7.09150219159e-09
1.25435786769e-08
3.60317721676e-08
4.46034565313e-08
4.50980577184e-08
4.51167375198e-08
4.51170969271e-08
4.51169287618e-08
4.51167957795e-08
4.5116697429e-08
4.51166396094e-08
4.51166085604e-08
4.51137168715e-08
4.31446899727e-08
2.78487095891e-08
7.10181242204e-07
2.73524950095e-06
7.81523302621e-10
2.14446723208e-09
7.09150219159e-09
4.75669717024e-09
)
;
    }
}

