/*--------------------------------*- C++ -*----------------------------------*\
| =========                 |                                                 |
| \\      /  F ield         | OpenFOAM: The Open Source CFD Toolbox           |
|  \\    /   O peration     | Version:  2312                                  |
|   \\  /    A nd           | Website:  www.openfoam.com                      |
|    \\/     M anipulation  |                                                 |
\*---------------------------------------------------------------------------*/
FoamFile
{
    version     2.0;
    format      ascii;
    arch        "LSB;label=32;scalar=64";
    class       volScalarField;
    location    "0.33/water";
    object      Tf.gasAndLiquid;
}
// * * * * * * * * * * * * * * * * * * * * * * * * * * * * * * * * * * * * * //

dimensions      [0 0 0 1 0 0 0];

internalField   nonuniform List<scalar> 
1496
(
335.832601947
310.259855363
303.498735633
301.644912287
301.0575031
300.806277676
300.644959726
300.526251516
300.435646158
300.363118703
300.301916317
300.248159385
300.201081502
300.161345078
300.128916449
300.102153533
300.077991246
300.054335588
300.032697618
300.016801179
334.959755615
311.305602802
303.775761957
301.651334011
301.023452493
300.774941122
300.622943592
300.508710489
300.420346778
300.350662354
300.293334677
300.243757494
300.200525962
300.164049162
300.133655378
300.107400863
300.082768927
300.058303453
300.035760246
300.018966355
332.334304042
312.159421555
304.239120444
301.760947925
301.015530245
300.749978892
300.602302305
300.49186344
300.406149449
300.339686723
300.286166453
300.240531145
300.201040123
300.167561002
300.138878198
300.11298594
300.087809208
300.062437011
300.038937629
300.021150642
328.788779365
311.720186763
304.369211424
301.842444739
301.02166651
300.73308794
300.584833062
300.477270499
300.394503967
300.331350327
300.281276226
300.23918923
300.203145238
300.172254776
300.144923398
300.119105143
300.093103198
300.06668557
300.042169663
300.023328865
325.965739738
310.773383739
304.199449247
301.848101159
301.027997741
300.724047859
300.571723539
300.465718568
300.386039238
300.326212479
300.279400345
300.240762193
300.207736669
300.178801948
300.152148233
300.125874227
300.09875715
300.07118037
300.045534438
300.025554877
323.013136247
309.855964271
303.953090376
301.801298389
301.021324252
300.715092455
300.560681343
300.457345034
300.38179155
300.325884225
300.282358215
300.24637133
300.215397142
300.187473254
300.160712694
300.133494398
300.105078612
300.076201455
300.049254805
300.027999544
319.482585601
308.540108535
303.524933307
301.662478305
300.973645601
300.692468842
300.549624471
300.454569432
300.384550946
300.332046125
300.290843747
300.256598429
300.226582503
300.198566396
300.170899281
300.14237177
300.112494898
300.082112155
300.053637422
300.030899434
316.395463934
307.223928228
303.066037077
301.495308321
300.911306527
300.673543362
300.549617162
300.463020188
300.39692461
300.346118057
300.306108242
300.272459967
300.241862343
300.212526863
300.18323022
300.153027823
300.121448112
300.089289236
300.059002457
300.034503312
314.983688694
306.854011446
303.051675166
301.519413156
300.926725211
300.689806718
300.572364432
300.489383883
300.423441989
300.372035031
300.330962746
300.295342495
300.262168348
300.230114539
300.198295496
300.165878273
300.132224815
300.097955089
300.065534423
300.038958703
316.407097062
308.384744791
304.110336861
302.055040104
301.145860313
300.769716154
300.627028607
300.540428682
300.47085648
300.414814782
300.368236824
300.326850362
300.288417004
300.251777264
300.216170968
300.18076205
300.144561139
300.107839729
300.073015087
300.04411981
323.316087662
311.838118584
305.879997781
302.919656344
301.527986561
300.923692404
300.710566475
300.615812778
300.540179373
300.474550646
300.417347473
300.366422696
300.319936105
300.276703943
300.235943712
300.196681978
300.157496827
300.11814623
300.080871772
300.049634762
334.846203074
314.252421003
306.628818148
303.255645134
301.72419407
301.060676162
300.799593831
300.688875314
300.608674086
300.535461407
300.468464218
300.407484942
300.352046128
300.30155197
300.255247934
300.211867583
300.16959743
300.127738852
300.088299763
300.055011149
340.121096887
315.354657991
306.818600268
303.301853082
301.774723256
301.121963565
300.853364528
300.730021807
300.648139461
300.575406802
300.505760432
300.4395841
300.378155114
300.322235114
300.271567678
300.224734062
300.179698163
300.135702553
300.094653869
300.059829151
341.825980492
315.774180707
306.885337203
303.32439921
301.807004079
301.157579077
300.881017711
300.74872423
300.664480186
300.594396362
300.526556429
300.459911345
300.396251024
300.337485871
300.28401034
300.234500502
300.187026414
300.141324884
300.099212441
300.063384322
342.745523672
316.031240758
306.987655841
303.408210892
301.872151966
301.200421074
300.903704362
300.758344073
300.669207614
300.600236882
300.535116782
300.470284528
300.406873308
300.34725252
300.292208308
300.240514356
300.191020627
300.144278661
300.101710106
300.065449501
343.938555407
316.282465013
307.129185671
303.542341639
301.971725618
301.257578395
300.929487047
300.76618197
300.66948873
300.599280614
300.535646723
300.472899804
300.410998626
300.351853495
300.295863648
300.242360808
300.191753923
300.144764029
300.102312387
300.066120168
345.541212373
316.563076333
307.173081279
303.594983718
302.036459042
301.30053387
300.948514462
300.769770274
300.665874641
300.593420266
300.530198266
300.469208073
300.409321081
300.351202392
300.294522855
300.24029304
300.189708742
300.143225299
300.10140116
300.065695802
346.215331403
314.842628704
306.034176826
303.131969511
301.890988158
301.261429955
300.935405611
300.759847669
300.655389288
300.581932415
300.519071873
300.459808865
300.402146911
300.345177366
300.288703072
300.235090384
300.185562551
300.140275977
300.09953982
300.064675838
341.125781967
311.322384832
304.212993922
302.323033311
301.568089765
301.139881049
300.886408755
300.734963867
300.637683615
300.564794629
300.502924333
300.445692302
300.390367425
300.334819903
300.279688406
300.227832411
300.180238395
300.136750823
300.097514688
300.063727045
335.09950377
309.118321563
302.995253788
301.716562679
301.27922875
301.006272869
300.825874011
300.702758127
300.61376857
300.543421364
300.483537951
300.428763902
300.375785075
300.321965674
300.269081633
300.219866095
300.17489084
300.133692778
300.096241423
300.063610919
333.194083541
308.611235919
302.481911533
301.369685682
301.07695859
300.901146809
300.77010208
300.668408622
300.587405752
300.520842164
300.463678044
300.411491368
300.360510594
300.308622645
300.258654397
300.212683052
300.170776911
300.13217149
300.096654869
300.065139121
332.968891418
310.29935462
302.697338698
301.256180649
300.961761411
300.830178999
300.726389685
300.638453492
300.563919195
300.500871487
300.446256424
300.396068485
300.346316135
300.296735868
300.250153797
300.207690506
300.169050403
300.133315431
300.099722902
300.068929796
330.541510823
311.366865782
303.487632852
301.411516986
300.938566854
300.792903428
300.697278258
300.616126277
300.546030626
300.485785716
300.432866904
300.383479788
300.334847523
300.288131314
300.245101828
300.20637427
300.171161954
300.137892611
300.105463236
300.074785845
324.777274216
310.512868008
303.811614832
301.615734997
300.978981066
300.782718005
300.681073973
300.60177685
300.534405111
300.476060082
300.423813402
300.375072199
300.328502583
300.285118192
300.245810251
300.210341007
300.177380025
300.145228392
300.113176339
300.082013184
319.494118016
308.656758353
303.50825539
301.630149362
301.003567802
300.784742034
300.675708868
300.596171165
300.529939953
300.472623122
300.421402785
300.374072777
300.329955119
300.28956091
300.252956165
300.219181796
300.186801365
300.154653722
300.122242033
300.090076556
316.163618692
307.375953369
303.239788616
301.622884565
301.032125651
300.802762849
300.685161436
300.602636461
300.535872107
300.478865188
300.428374621
300.382475651
300.340382507
300.301802794
300.266002445
300.231916227
300.198691326
300.165586289
300.132100607
300.098399225
315.353624069
307.493059
303.660736153
301.941715021
301.201404778
300.877852032
300.720234534
300.624970087
300.55480765
300.496830775
300.446576634
300.401461841
300.359896049
300.320778035
300.283384989
300.247262614
300.212000078
300.177029457
300.14179623
300.106509404
318.906696497
310.281080416
305.229606068
302.673848515
301.518832949
301.007954562
300.778298004
300.662556532
300.587599885
300.52732053
300.475459134
300.4284693
300.384444245
300.342412011
300.301925268
300.262779432
300.224738561
300.187555852
300.150692918
300.11348616
332.091955424
313.721739716
306.054499602
302.921172802
301.640375642
301.087736022
300.835076506
300.709754344
300.627373033
300.561511949
300.505030377
300.453964736
300.406255704
300.360829935
300.317190046
300.275403808
300.235260921
300.196180915
300.157290452
300.117869622
344.685675051
314.870632759
305.767674667
302.682566506
301.557478789
301.088004953
300.864552881
300.739284209
300.652408322
300.582657257
300.523201089
300.469577595
300.419659063
300.372436742
300.327251418
300.283873247
300.242062599
300.201219229
300.160399073
300.118810963
347.868713221
314.605834482
305.203585473
302.348391035
301.416089062
301.045541561
300.859380386
300.7432789
300.657776083
300.588086257
300.52868054
300.474983921
300.42497633
300.37745761
300.33175787
300.287611274
300.244742212
300.202515353
300.159937266
300.116141451
346.726248322
313.743137357
304.571257109
302.009458407
301.264896829
300.987351871
300.839855563
300.737213751
300.655469129
300.586692481
300.527815558
300.474540759
300.425020413
300.377834365
300.332200858
300.287766545
300.24417466
300.200728511
300.156292219
300.110157289
345.284362009
313.17399253
304.254394537
301.81770473
301.167151192
300.945218142
300.825899951
300.733510346
300.654162978
300.585709216
300.525874747
300.47235394
300.422983697
300.37602615
300.330462102
300.285753987
300.241408255
300.196593408
300.149912778
300.101651097
341.193934713
313.627212812
305.14373178
302.220263307
301.265949517
300.952718332
300.822329505
300.733232297
300.656785008
300.587849309
300.526186638
300.471186416
300.42101937
300.373696617
300.327832101
300.282584624
300.23725349
300.190663855
300.141520575
300.091570152
330.327546716
313.261246862
306.091756582
303.000122829
301.600142996
301.049252245
300.847278658
300.741447454
300.663382079
300.593748601
300.529814324
300.472208607
300.420137747
300.371661971
300.324987415
300.278871223
300.232225623
300.183385561
300.13198222
300.080465976
322.288971594
311.216536087
305.774158424
303.037095637
301.725763747
301.114428214
300.88138084
300.755885891
300.671894208
300.601207812
300.535491255
300.475007299
300.420325992
300.370059345
300.322167237
300.2749075
300.22639605
300.175308458
300.121675007
300.069165297
318.076918443
308.897901711
304.794316218
302.727579545
301.676686399
301.132211546
300.899494132
300.765496909
300.6774234
300.606345766
300.540110024
300.477642092
300.420575808
300.368422574
300.319061628
300.270128657
300.21969051
300.166568184
300.111061737
300.05926233
300.001324257
300.000835316
300.000496019
300.000277695
300.000140597
300.000058524
300.000016002
300.000000337
300
300
300
300
300.000000442
300.000004417
300.000009446
300.000010832
300.008437655
300.004848008
300.003188332
300.002176974
300.00142469
300.000876157
300.000514615
300.000290086
300.000153901
300.000071814
300.000025543
300.000003814
300
300
300
300
300
300.00000145
300.000007698
300.000009923
300.009755763
300.005604314
300.003601769
300.002374021
300.001495764
300.000888816
300.000508599
300.000281312
300.00014859
300.000071286
300.000027644
300.000005803
300
300
300
300
300
300.000000609
300.000006984
300.000009028
300.011052117
300.006327694
300.003974799
300.002526615
300.001527174
300.000868367
300.000477742
300.000255349
300.000130582
300.000060484
300.000022254
300.000004085
300
300
300
300
300
300.000000103
300.00000632
300.000008607
300.012323946
300.007015535
300.004303178
300.00263386
300.001522657
300.000824151
300.000431432
300.000220661
300.000107421
300.000046085
300.000014153
300.00000109
300
300
300
300
300
300.000000038
300.000006389
300.000008523
300.013607133
300.007704774
300.004614351
300.002718607
300.001505001
300.000779547
300.000386628
300.000187833
300.000086447
300.000033162
300.000007308
300
300
300
300
300
300
300.000000034
300.000006669
300.000008525
300.015025732
300.00845952
300.004955329
300.00282536
300.001511975
300.000758966
300.000359954
300.000165963
300.000072812
300.000025136
300.000003789
300
300
300
300
300
300
300.000000041
300.00000698
300.000008686
300.016741754
300.009391629
300.005398111
300.002999836
300.001570463
300.000775892
300.000359552
300.000159966
300.000068664
300.000023161
300.000003646
300
300
300.000000025
300
300
300
300.000000048
300.000007376
300.000008969
300.01892078
300.01060363
300.006007074
300.003280839
300.001697727
300.000831831
300.000382332
300.000168155
300.000071195
300.000025037
300.000005564
300.000000107
300
300
300
300
300
300.00000012
300.000007792
300.000009257
300.021652208
300.012139815
300.006799908
300.003668871
300.001883956
300.000914996
300.000415355
300.000179175
300.000073094
300.000026401
300.000007135
300.000000573
300
300
300
300
300
300.00000015
300.000008212
300.000009447
300.024852579
300.013945391
300.007730466
300.004121722
300.002094061
300.001000958
300.000442205
300.000179845
300.000067888
300.000023958
300.000006599
300.000000577
300
300
300
300
300
300.000001086
300.000008657
300.000009537
300.028318839
300.015893069
300.008707721
300.004578909
300.00229084
300.001067428
300.000449544
300.000166104
300.000055884
300.000018369
300.000004419
300.000000186
300
300
300
300
300
300.00000319
300.000009109
300.000009656
300.031783056
300.017843775
300.009656443
300.004984813
300.00243655
300.001096752
300.000438529
300.000145015
300.000042652
300.000012538
300.00000217
300
300
300
300
300
300
300.000004997
300.000008974
300.000009168
300.034946583
300.019571867
300.010427043
300.005262929
300.002504221
300.001086332
300.000411159
300.000122326
300.000032361
300.000008305
300.000000912
300
300
300
300
300
300
300.000005264
300.000007353
300.000008309
300.037295366
300.020807907
300.010897328
300.005368885
300.002475665
300.001030851
300.000365737
300.000099706
300.000025564
300.000006038
300.000000365
300
300
300
300
300
300
300.000003305
300.000006855
300.000007753
300.03868289
300.021447988
300.011018717
300.005278408
300.002344463
300.000927257
300.000302348
300.000078963
300.000022015
300.000005345
300.00000022
300
300
300
300
300
300
300.000001119
300.000006283
300.000007399
300.039146308
300.021510227
300.010800203
300.004995209
300.002115745
300.00077551
300.000229566
300.000062535
300.000020174
300.000004976
300.00000068
300.000000295
300
300
300
300
300.000000062
300.000000782
300.000006262
300.000007926
300.038887817
300.021125666
300.010334681
300.004584321
300.001826704
300.000603902
300.00016851
300.000052384
300.000017988
300.000003677
300.000001158
300.000000496
300
300
300
300
300.00000053
300.000002166
300.000007741
300.00000972
300.038284423
300.02056268
300.009839257
300.004182702
300.001563524
300.000480684
300.000140476
300.00004899
300.000016061
300.000001868
300.000000759
300.00000002
300
300
300
300.000013362
300.000003232
300.000005677
300.000011285
300.000016894
300.037844329
300.020263484
300.009610415
300.003970415
300.001441305
300.000458928
300.000151577
300.000054693
300.000017822
300.000001589
300.000000017
300.000000964
300.000001368
300
300.000005921
300.000010826
300.000005881
300.000010346
300.000039859
300.000065054
300.038180925
300.020742471
300.00989567
300.004116761
300.001552093
300.000560664
300.000207072
300.000077578
300.000028174
300.000006249
300.000000692
300.000002752
300
300
300.000011926
300.000005838
300.00000506
300.000051387
300.000277379
300.00038248
300.040026414
300.022240795
300.010910771
300.00476541
300.00194909
300.0007874
300.000315897
300.000129321
300.000052188
300.000017757
300.00000458
300.000004123
300.000000092
300.000006837
300.000005827
300.000004153
300.000018338
300.00031484
300.001582516
300.001892842
300.043540683
300.024945226
300.012746402
300.00589628
300.002575418
300.001112103
300.000483728
300.000211332
300.000089856
300.000035968
300.000012986
300.000005417
300.000001387
300.000008919
300.000002604
300.000002794
300.000169488
300.001737996
300.006264855
300.007051261
300.048513178
300.028620554
300.015200147
300.007367757
300.003379923
300.00151
300.000678808
300.000302478
300.000131085
300.000055571
300.000022607
300.0000092
300.00000402
300.000003496
300.000005744
300.000075409
300.001080872
300.008494136
300.019783186
300.021189777
300.054420923
300.032913395
300.01801684
300.009054154
300.004288602
300.00194501
300.000861032
300.000375432
300.000160762
300.000069244
300.000031373
300.000018381
300.000016777
300.000028018
300.000107583
300.000889593
300.005700236
300.033171151
300.052791122
300.05465982
300.06079319
300.037496913
300.020999693
300.010780733
300.005173513
300.002344554
300.001006725
300.000417713
300.000175703
300.000082716
300.000055166
300.000067292
300.000110361
300.00022401
300.000771908
300.005151843
300.027587588
300.089493142
300.119033231
300.121833424
300.067319863
300.042077135
300.023801513
300.012305535
300.005909053
300.002650638
300.001100679
300.000437991
300.000200105
300.000138841
300.000171064
300.000302291
300.000578194
300.001226546
300.004697819
300.021583678
300.084993259
300.178944113
300.22598262
300.231211147
300.073455255
300.046015406
300.025996559
300.013376587
300.006361699
300.002798489
300.001126896
300.000473989
300.000311879
300.000361121
300.000570231
300.001036418
300.002019633
300.004529862
300.019977308
300.074739618
300.186634991
300.306263452
300.365388537
300.375254577
300.078101967
300.048533857
300.027056135
300.013677076
300.006348332
300.002694962
300.001086021
300.00061205
300.000657246
300.000975103
300.001566869
300.002722161
300.00507587
300.011612427
300.058483219
300.197160979
300.340150333
300.45551283
300.527450603
300.541134611
300.080187781
300.04882488
300.026452825
300.012899568
300.00567968
300.002282109
300.001067635
300.000988421
300.00143831
300.0022706
300.003620262
300.005990435
300.010869399
300.025572189
300.107097493
300.263843678
300.405080135
300.57016705
300.688643611
300.718345107
300.079009169
300.046440955
300.024001278
300.010950718
300.004405626
300.001750572
300.001242518
300.001739511
300.002888449
300.004702017
300.007388651
300.012271633
300.023419749
300.051606017
300.102816289
300.148092916
300.280478618
300.572196413
300.81230396
300.896290901
300.074523014
300.041604772
300.020003792
300.0082272
300.002999062
300.001501286
300.00169761
300.002896608
300.005154894
300.0084464
300.013586575
300.023051846
300.040324785
300.067699879
300.090219245
300.133093961
300.2227064
300.533459097
300.914899411
301.076557495
300.067340644
300.034984335
300.015125135
300.00547254
300.002059075
300.001558892
300.002374384
300.004481904
300.008173884
300.014019605
300.022308152
300.02980239
300.044407728
300.065282301
300.079746265
300.12454958
300.288464112
300.651525714
301.129495356
301.264611801
300.058337755
300.027390614
300.010339632
300.003404377
300.001649499
300.001795853
300.003170015
300.006348236
300.012221875
300.020360451
300.025571151
300.031885424
300.043988792
300.059639871
300.072424891
300.109142018
300.23259664
300.65511626
301.251089615
301.385048775
300.048263141
300.019911212
300.006560751
300.002302463
300.001535502
300.00206389
300.003987326
300.008489419
300.016020236
300.020953189
300.025496203
300.031582435
300.0414357
300.054468961
300.070352222
300.111512393
300.229772635
300.818502761
301.439908968
301.570104575
300.038165347
300.013741939
300.00423606
300.001787252
300.00154838
300.002311317
300.004713624
300.010069196
300.014846596
300.0187433
300.023034327
300.02867432
300.037601773
300.052698256
300.077134514
300.130723056
300.297838285
301.195527039
301.73049089
301.819080279
300.029474024
300.009587492
300.0031088
300.001623997
300.001587712
300.002450255
300.004957748
300.008623632
300.011918804
300.015184007
300.018919727
300.024023921
300.034298949
300.056707246
300.097703594
300.179455407
300.516996949
301.783102024
302.216956432
302.301370576
300.023484698
300.007484847
300.002831767
300.001692625
300.00161803
300.002325254
300.003979874
300.006290811
300.008786684
300.011375166
300.014473523
300.019464106
300.034157061
300.07462952
300.154724162
300.286028375
300.944028386
302.41902661
302.844810294
302.990171293
)
;

boundaryField
{
    emptyPatch
    {
        type            empty;
    }
    minY
    {
        type            calculated;
        value           nonuniform List<scalar> 0();
    }
    maxY
    {
        type            calculated;
        value           nonuniform List<scalar> 
40
(
318.076799395
308.897870191
304.794302041
302.727574397
301.676685121
301.132211419
300.89949422
300.765496938
300.677423288
300.606345498
300.540109602
300.477641547
300.420575182
300.368421878
300.31906084
300.270127759
300.21968954
300.166567189
300.111060863
300.059261762
300.023484454
300.007484783
300.002831756
300.001692623
300.00161803
300.002325252
300.003979872
300.006290809
300.008786682
300.011375163
300.01447352
300.019464103
300.03415706
300.07462953
300.154724201
300.286028418
300.944028207
302.419026429
302.844814697
302.99017994
)
;
    }
    water_to_cooler
    {
        type            calculated;
        value           nonuniform List<scalar> 
38
(
300.000001314
300.000001218
300.000001137
300.000001105
300.000001064
300.000001047
300.000001052
300.000001068
300.000001106
300.000001141
300.000001105
300.000001098
300.000001039
300.000001009
300.000001032
300.000001017
300.0000009
300.00000096
300.000001289
300.000003737
300.000017879
300.000084437
300.000328803
300.001097482
300.003171761
300.00796645
300.017161885
300.031758616
300.052830611
300.083187005
300.128490077
300.204127671
300.337236962
300.559107727
300.894073128
301.350930925
301.919162112
302.432651778
)
;
    }
    water_to_heater
    {
        type            calculated;
        value           nonuniform List<scalar> 
59
(
795.536368473
795.499635535
795.498103917
795.439592911
795.399561132
795.387271933
795.368425068
795.348252265
795.327664014
795.320991195
795.3055005
795.315773461
795.317896466
795.326598772
795.322435389
795.332290244
795.339846085
795.353564068
795.431484424
795.484552113
795.491327975
795.529085607
795.52658679
795.56721452
795.571632088
795.613704226
795.611301332
795.64720221
795.639318088
795.648021855
795.642479292
795.641526806
795.64148253
795.634393387
795.636034252
795.582893825
795.521626976
795.519664337
795.502274601
795.537362187
795.540855595
795.593294405
795.592084023
795.620557957
795.683789368
795.68377583
795.803047879
795.740110545
795.762677415
795.618915791
795.618875322
795.411207308
795.367728721
795.176610377
795.04879383
794.897298031
794.872390886
794.791184149
794.793133959
)
;
    }
    procBoundary0to1
    {
        type            processor;
        value           nonuniform List<scalar> 
41
(
342.269496302
311.420239621
303.974078678
301.869147372
301.149588203
300.842155902
300.66385536
300.542199086
300.450187641
300.375523542
300.310834444
300.253114395
300.202422301
300.159274334
300.124492927
300.097207603
300.073534686
300.050681987
300.02993949
300.01480122
300.001209963
300.000777757
300.000458844
300.000245084
300.000109996
300.000037696
300.000006852
300
300
300
300
300.000000592
300.000003661
300.000008662
300.000012243
300.000012871
300.007171972
300.004097961
300.002761294
300.001954607
300.001954607
)
;
    }
}


// ************************************************************************* //
