/*--------------------------------*- C++ -*----------------------------------*\
| =========                 |                                                 |
| \\      /  F ield         | OpenFOAM: The Open Source CFD Toolbox           |
|  \\    /   O peration     | Version:  2312                                  |
|   \\  /    A nd           | Website:  www.openfoam.com                      |
|    \\/     M anipulation  |                                                 |
\*---------------------------------------------------------------------------*/
FoamFile
{
    version     2.0;
    format      ascii;
    arch        "LSB;label=32;scalar=64";
    class       volScalarField;
    location    "0.11/water";
    object      alpha.gas;
}
// * * * * * * * * * * * * * * * * * * * * * * * * * * * * * * * * * * * * * //

dimensions      [0 0 0 0 0 0 0];

internalField   nonuniform List<scalar> 
6000
(
0.17308592877
0.10440790001
0.029585660078
0.00732141667974
0.00134487368554
0.000203413116536
2.57507335475e-05
2.06419628311e-06
5.19160821553e-08
5.33804494848e-10
3.08083736613e-12
1.36713321294e-14
1e-15
1e-15
1e-15
1e-15
1e-15
1e-15
1e-15
1e-15
0.611593416777
0.26318520763
0.109207368546
0.0369707141616
0.0115209910754
0.00305208539982
0.000697450865497
0.0001291432235
1.50137540403e-05
4.62381509282e-07
2.14195486661e-09
4.18878113075e-12
6.75472056842e-15
1e-15
1e-15
1e-15
1e-15
1e-15
1e-15
1e-15
0.613294019074
0.346779439444
0.17170149615
0.0733022957879
0.0280699746224
0.00935326929702
0.00265450193659
0.000621994755189
0.000103395010659
7.23034793397e-06
5.60632926338e-08
8.4543342389e-11
9.14320390527e-14
1.00217298356e-15
1e-15
1e-15
1e-15
1e-15
1e-15
1e-15
0.613295062351
0.424505020039
0.249611060441
0.128292758508
0.0579549617955
0.022455085375
0.00730390023463
0.00195688704931
0.000397755966555
4.48997847847e-05
1.03043981652e-06
1.29338281115e-09
8.3192780255e-13
1.38773105353e-15
1e-15
1e-15
1e-15
1e-15
1e-15
1e-15
0.598905488472
0.472068505755
0.329992816368
0.203401202447
0.109309619709
0.0495367700559
0.0183473679055
0.00542229399146
0.00122650516718
0.000175351971096
8.84014505741e-06
2.48490323341e-08
1.31221746854e-11
6.63020109952e-15
1.00005983139e-15
1e-15
1e-15
1e-15
1e-15
1e-15
0.571777342499
0.488615352763
0.390885972938
0.282640080341
0.180111684854
0.0974683026254
0.0428028247687
0.0145072229464
0.00360580394004
0.000584961111826
4.35654809068e-05
4.53834039966e-07
2.59677356214e-10
9.9307698587e-14
1.02818304671e-15
1e-15
1e-15
1e-15
1e-15
1e-15
0.5481580028
0.487016613552
0.42435634141
0.345528963872
0.253598022926
0.161739472691
0.0856611331449
0.0351938914571
0.0102785949407
0.00190241986707
0.000177393657598
4.56156645136e-06
3.36664412816e-09
1.19950411669e-12
1.39233224595e-15
1.000005959e-15
1e-15
1e-15
1e-15
1e-15
0.54144018445
0.485407022795
0.438858491985
0.384408246874
0.311649904723
0.22653163495
0.141605101575
0.0712826920785
0.025979642816
0.00592905484687
0.000697506597475
3.01462662832e-05
1.28086704777e-07
4.01496302151e-11
1.11999539134e-14
1.00162525539e-15
1e-15
1e-15
1e-15
1e-15
0.538212364048
0.485433494598
0.451930969144
0.411915215251
0.354755504221
0.281109256378
0.198984802456
0.119320822535
0.0547503316053
0.0163842556486
0.00261108238622
0.000171808436889
2.76485763341e-06
8.71430622591e-10
1.72529677669e-13
1.02864203814e-15
1e-15
1e-15
1e-15
1e-15
0.540175977738
0.490716124781
0.467077916386
0.435807840458
0.388273015411
0.324023778437
0.249642967969
0.170885348139
0.0959564247431
0.0380529492892
0.00862261688648
0.000880629111423
2.93033544082e-05
7.7188604058e-08
9.47589024193e-12
1.93379930464e-15
1e-15
1e-15
1e-15
1e-15
0.557973721799
0.504159298039
0.480788840001
0.45414757518
0.413843433453
0.35729704031
0.290548855856
0.21811680962
0.143452098869
0.0731478642218
0.0236003485357
0.00374588654902
0.000216338668658
2.62883872471e-06
2.07859967826e-10
1.31010385144e-14
1e-15
1e-15
1e-15
1e-15
0.587345497255
0.512989747369
0.482836213079
0.458955897413
0.426980772146
0.379358423297
0.320714461615
0.256773184487
0.188875872461
0.117264977882
0.0515801160017
0.0123745461611
0.00117927436983
2.94024184576e-05
4.54675960385e-08
5.25580803138e-13
1.03758451648e-15
1e-15
1e-15
1e-15
0.592699017506
0.511448553995
0.478939753979
0.454925443489
0.425670105675
0.387388521921
0.339710578517
0.285567565803
0.226523526446
0.161438970715
0.0902994703118
0.0309429061051
0.0045755711373
0.00019058985935
1.20509931521e-06
4.12517776844e-11
4.9724684509e-15
1.00136911042e-15
1.00038604427e-15
1e-15
0.593286919405
0.505472395568
0.473234716723
0.447047615647
0.420459821555
0.388477755288
0.351096839835
0.306837756531
0.256691380838
0.200404454431
0.133083811554
0.0604712198152
0.0130222960323
0.000847103961245
1.04170827116e-05
4.72613680851e-09
1.47719906366e-13
1.01708755323e-15
1.00388149135e-15
1.00105366266e-15
0.592699017506
0.498342354617
0.468973738193
0.441811702105
0.416473641383
0.389610041316
0.360297363622
0.324644453579
0.281681650219
0.233877227187
0.17545187956
0.0986229073104
0.0289843056763
0.00278298314415
5.55544098385e-05
1.02797422404e-07
6.0974743846e-12
1.42209153349e-15
1.00471795021e-15
1.00328613531e-15
0.593105485878
0.493175477432
0.467091248242
0.44154476642
0.417094347517
0.393561050763
0.370158232772
0.339856109216
0.301781958618
0.262719830152
0.216122191972
0.142502560328
0.0539079082288
0.00730509202068
0.000224062948563
1.05835515843e-06
1.29016540304e-10
8.98265055822e-15
1.00451923396e-15
1.00327938479e-15
0.593024175203
0.490474200846
0.466141928827
0.443444700194
0.422222533745
0.4017838896
0.378827496481
0.347641143565
0.314079705051
0.286287263509
0.254407700401
0.189493275907
0.0877657014937
0.0162189168103
0.00076698417146
7.35295190452e-06
3.44592091644e-09
1.67092468539e-13
1.00919623928e-15
1.00254585233e-15
0.5936839237
0.489425635694
0.466938850257
0.449364236866
0.432481148335
0.411598558474
0.381643620739
0.346503234263
0.318386875065
0.305168473855
0.290360558001
0.237859525076
0.128772137116
0.0315750587595
0.002359406113
4.49325841976e-05
1.3476134649e-07
2.9952371671e-12
1.04907811877e-15
1.0017692456e-15
0.594251764008
0.489712349067
0.476065776592
0.462227976365
0.445341296558
0.418300707913
0.380148088384
0.341655066153
0.321084126038
0.322773489808
0.324107732795
0.283429839471
0.172299910104
0.0552094848953
0.00673590875027
0.000256239592121
2.35788265916e-06
1.10632587456e-10
1.31623319729e-15
1.0020217938e-15
0.594173056831
0.492314300381
0.491425734344
0.479830804312
0.457760831853
0.420415830365
0.374528371418
0.335588426271
0.32696113415
0.34011005012
0.35341332353
0.315220112399
0.210602334189
0.0879826883318
0.0176429702549
0.00127691491137
2.31036087238e-05
2.49582141572e-08
1.36903021214e-15
1.00716218431e-15
0.594086309756
0.498047042496
0.504405904539
0.495002501937
0.467996771406
0.420571099321
0.367323532979
0.334268302336
0.333777768367
0.354862632137
0.356012434649
0.326628713671
0.238824757315
0.128299338701
0.0404628078178
0.0050572975052
0.000149090133295
4.92092201219e-07
1.98355358043e-15
1.05646683841e-15
0.593872988855
0.503888945316
0.512519430043
0.505313012617
0.475330858683
0.420348898103
0.362891567323
0.334326511387
0.338780426442
0.355995075955
0.355944589344
0.325338700646
0.257079762538
0.172867669082
0.0790196511205
0.0151346911519
0.000643648008663
3.38289211125e-06
4.93415573688e-14
1.45083418953e-15
0.59384325748
0.511555730855
0.518867969613
0.511984369089
0.478850501437
0.419394566642
0.36175901071
0.335161515158
0.343577097807
0.355689156337
0.351825565287
0.316763677847
0.271045427172
0.22128193435
0.131097726935
0.0333498592061
0.00184161049083
1.29747757457e-05
9.11738356386e-12
4.538372698e-15
0.593709601789
0.525653027671
0.532150598826
0.521434966071
0.482079284762
0.418887714407
0.362246729564
0.34062617021
0.345868473113
0.351512023396
0.336701944565
0.305150832685
0.291528907524
0.274741204387
0.186317987901
0.0556078713101
0.00387072111253
3.90260267255e-05
9.24144568516e-09
3.5000548056e-14
0.599883739793
0.547694543012
0.553250195365
0.536456231896
0.488308670896
0.420915993169
0.365861879183
0.346915073368
0.345706135196
0.339171511534
0.312262860461
0.304882153526
0.327476709889
0.328465303631
0.231588003895
0.0790458568328
0.00756096584178
0.000136353548929
3.96480672065e-07
4.9440691846e-13
0.621426688163
0.56971811287
0.5753926133
0.555360876488
0.500972293209
0.429825857555
0.375066543756
0.352119082771
0.341358204589
0.320144284624
0.292849773352
0.306913022881
0.363728629219
0.363757618452
0.269246146464
0.109602614229
0.0161260509792
0.000618101221986
5.4866066906e-06
8.06706142358e-11
0.621657894897
0.581398332488
0.589059094843
0.571745013983
0.520298578736
0.447858193356
0.389042034441
0.35576346616
0.331270700919
0.299625974564
0.290835724122
0.325629266837
0.363757618452
0.364256002053
0.300758206351
0.154401371903
0.0367272437247
0.00287533189926
5.21204615224e-05
6.72206219744e-08
0.625099323393
0.587095777854
0.590835414415
0.581333081007
0.540233904781
0.470193032035
0.404516110496
0.357694165468
0.320343955855
0.290838549272
0.290731183828
0.336571346441
0.364286269176
0.363757618452
0.327629194685
0.210681568484
0.0772921998562
0.0108735225306
0.000348027110207
1.45892394038e-06
0.621831019798
0.590405860246
0.590780092764
0.588566124098
0.555482165779
0.488222107781
0.416710371698
0.357938266735
0.311405417299
0.290730150343
0.290835724122
0.335854388314
0.363757618452
0.364097530387
0.34502706309
0.260910885
0.13305350751
0.0298882718972
0.00158622470262
1.20626326841e-05
0.626466047731
0.590966604049
0.590910529092
0.590742437199
0.563121763964
0.497417768445
0.422064200383
0.356856262382
0.305670114452
0.290835724122
0.290679684834
0.334940307792
0.364012076221
0.363757618452
0.346167908004
0.289891597112
0.184091631941
0.0583555992294
0.00477242196289
5.7813697842e-05
0.622073046734
0.589668380101
0.590742437199
0.590691402421
0.565763785409
0.50058359799
0.423038900125
0.355121302101
0.304058192877
0.290679684834
0.291999049034
0.338617217002
0.362013202121
0.358218572914
0.341943511145
0.308458282422
0.222542118524
0.0870971395902
0.00995174955206
0.000181020205622
0.627009548054
0.585271548735
0.590691402421
0.590541778453
0.565811476388
0.50083383448
0.422825405926
0.353878512926
0.304720873894
0.291144512938
0.307347499608
0.340129787263
0.346096932845
0.338876431896
0.34306622012
0.335763201454
0.260320472584
0.114838730435
0.0170847778683
0.000455151712481
0.622073046734
0.579414935147
0.590541778453
0.589783538822
0.563861557721
0.499164959575
0.421233425097
0.353581899226
0.309418201205
0.305408831744
0.317450124289
0.328558620431
0.316947534892
0.326133459932
0.370460963342
0.383875035436
0.303394196281
0.150516846453
0.0295756353627
0.00119193386163
0.626923585601
0.573161321522
0.590254805438
0.587214328674
0.558416950048
0.494051866777
0.418253516427
0.355304798893
0.321486965465
0.322083388294
0.318927420784
0.305008680149
0.298965079443
0.342485478751
0.388726225162
0.387772185002
0.351026379396
0.211851861193
0.0565341989522
0.0034627393063
0.622043684075
0.566702603949
0.58736271886
0.581779850773
0.54937176672
0.485637673742
0.414885498835
0.360992058635
0.336912955589
0.327887899286
0.313208823921
0.283289528013
0.297216988769
0.383421877637
0.387772185002
0.38865826174
0.387772185002
0.285742451004
0.104261332939
0.00966957949787
0.625775741852
0.55915308871
0.580555095336
0.573022216269
0.537646189902
0.475162374775
0.411157365542
0.366531186397
0.343571800279
0.325872462056
0.297757065698
0.278864710434
0.316130964489
0.387772185002
0.389424356611
0.387772185002
0.388368966271
0.335417248638
0.162135235393
0.0220477215951
0.621831019798
0.550456293835
0.569645537073
0.5607696195
0.523848983255
0.463591716435
0.406350107733
0.366785840207
0.342587056809
0.31635664815
0.280528678643
0.278832027811
0.349027435591
0.389501202923
0.387772185002
0.389026544649
0.387772185002
0.362242162956
0.210180603233
0.0387628455774
0.623670075034
0.541273336635
0.556296148425
0.545579583696
0.507968424586
0.450917845497
0.39972892107
0.363844673102
0.334642229378
0.297903931106
0.278237852799
0.279732697291
0.374787397805
0.387772185002
0.389432582585
0.387772185002
0.388420074167
0.376128553536
0.240692893761
0.0551108953057
0.621645786503
0.535860986124
0.549514606216
0.534880349384
0.494799802459
0.438999421693
0.390619727753
0.353638583791
0.316744231877
0.280009691894
0.278259260823
0.289033399143
0.386385771333
0.389476380287
0.387772185002
0.388994588879
0.387772185002
0.382639222213
0.25628029123
0.0682090826563
0.621671237893
0.535743065903
0.549371309717
0.533625586651
0.490734469239
0.431876437821
0.380296861383
0.3368996988
0.295221605964
0.278259260823
0.278229271417
0.310183909729
0.388495581848
0.387772185002
0.389178868119
0.387772185002
0.388387861273
0.383446933957
0.262882698157
0.0787216970715
0.617745043162
0.536239338886
0.551336325484
0.53635345627
0.492710558248
0.431393453203
0.374128435494
0.324942461632
0.285544554588
0.278229271417
0.278252837803
0.344160655863
0.387772185002
0.388863493025
0.387772185002
0.388734752192
0.387772185002
0.382855521133
0.266515032728
0.0883855901328
0.616643091629
0.541707166101
0.557243584377
0.546299493592
0.503385301579
0.436019982236
0.374409316018
0.323841410732
0.287652253722
0.282012233064
0.30355324995
0.369338758896
0.386627287425
0.387772185002
0.38835653928
0.387772185002
0.388194942636
0.380766016645
0.269226950544
0.0985792149976
0.616475484106
0.550240362192
0.566374663089
0.562489718072
0.524201758319
0.450638244974
0.380906431079
0.330537466168
0.30626421177
0.31519905143
0.354092245263
0.3702683583
0.371217350843
0.364744994673
0.375417014049
0.388080926963
0.387772185002
0.375233869493
0.271616167939
0.110342702446
0.616055904564
0.557601328385
0.57839703713
0.581033832479
0.547504717936
0.473325060763
0.399403648671
0.354404787333
0.348073829061
0.363384495005
0.378512638608
0.369068501755
0.340928035035
0.319443990334
0.336060187782
0.369117419567
0.381978635968
0.362443724805
0.275400196875
0.124804062489
0.611580636909
0.560682468492
0.588090256644
0.59639573082
0.566451264775
0.496395497741
0.426118579977
0.387758828991
0.38310290218
0.385836456119
0.381239412536
0.359075225879
0.312910849179
0.287984847073
0.296751066061
0.326978755324
0.350222575434
0.341886298943
0.282489271714
0.14262504199
0.60269069474
0.560729113231
0.591980340228
0.60697294354
0.580446938537
0.514149706221
0.447111284888
0.408254182875
0.391788430356
0.386744729939
0.378534392931
0.346511330898
0.29804334485
0.28288979323
0.283038973283
0.29044905546
0.307117785213
0.321319778638
0.291004302968
0.164985063634
0.593113449212
0.56077582088
0.591099102056
0.614271253007
0.591548027963
0.526591385394
0.457088982346
0.412338704766
0.390932893194
0.382973362279
0.369627785523
0.334898907351
0.292124221195
0.282816297076
0.28288979323
0.28277795626
0.28377026524
0.303257018666
0.305045649167
0.194410339847
0.585569805486
0.560822591567
0.589967119025
0.622087392849
0.603495719736
0.537824664257
0.462286920835
0.411708431749
0.385694157383
0.372026520278
0.355276979462
0.32538567074
0.290673374884
0.28288979323
0.282590279376
0.28288979323
0.282509034508
0.293423257701
0.344245846341
0.233048583456
0.573590180214
0.560855160286
0.595170729591
0.638652334383
0.623278625238
0.556179882114
0.4707533532
0.411529376785
0.378243682493
0.359039007905
0.343352697007
0.321165170769
0.290816865465
0.282700127375
0.28288979323
0.282150275893
0.28288979323
0.301062827497
0.447462401334
0.294508818539
0.564119155604
0.560854355846
0.614076608127
0.666616769845
0.653210985404
0.590476222897
0.495583088939
0.419243103339
0.378145480594
0.355660544597
0.341208876749
0.321520437863
0.292606795772
0.28288979323
0.28223909974
0.28288979323
0.281078945276
0.352865990825
0.567114251985
0.39614270812
0.564415111433
0.577754855883
0.643804970284
0.680977034897
0.68048015959
0.637958963099
0.550304733332
0.45493454051
0.392708544313
0.362238028597
0.346638051398
0.328705131059
0.300293031977
0.282629315596
0.28288979323
0.281246317259
0.28288979323
0.476128775666
0.574094446797
0.541845838814
0.566843854866
0.600896227539
0.672061371414
0.682802196298
0.680977034897
0.675848955247
0.620516165226
0.529479434067
0.446805822165
0.398885599425
0.376713678472
0.356503613108
0.32070504625
0.28288979323
0.281904204727
0.28288979323
0.287871516668
0.572768488327
0.57139651436
0.573293782706
0.580509262418
0.622302073527
0.68192758331
0.681055469337
0.682893715077
0.680977034897
0.668413454516
0.6124602965
0.538472542322
0.480775966045
0.445962387852
0.41125322885
0.352848793966
0.282752484085
0.28288979323
0.280745524371
0.39480700899
0.571488579874
0.575483408877
0.57139651436
0.602805753008
0.643571074484
0.68115618195
0.683071207972
0.681055469337
0.682505495535
0.680977034897
0.661121641126
0.618018696272
0.568578656529
0.521833516757
0.462548321277
0.372800496071
0.28288979323
0.281528524371
0.28288979323
0.544718660772
0.575895511673
0.571488579874
0.573721336655
0.624554471162
0.656374755352
0.682110504298
0.68115618195
0.683014884031
0.681055469337
0.681905702371
0.677091458771
0.652032437103
0.609431754556
0.553201951112
0.474568174753
0.371843064705
0.282734137217
0.28288979323
0.395096209268
0.575026243674
0.571488579874
0.575464869194
0.57139651436
0.632966865386
0.659406849356
0.681242415588
0.682528898999
0.68115618195
0.682195924922
0.681055469337
0.679821257627
0.65580637323
0.61228254999
0.552021444633
0.46685562702
0.360393648906
0.286161695533
0.335803732455
0.562195939969
0.57139651436
0.575949812813
0.57139651436
0.573571653038
0.633025880973
0.66107770116
0.681520023657
0.681242415588
0.68210999075
0.68115618195
0.681399329976
0.675883387559
0.648069701947
0.600722762136
0.531549813521
0.437513643342
0.357736927685
0.352604387962
0.517422724647
0.57139651436
0.575971130443
0.57139651436
0.575118005949
0.57139651436
0.636351908985
0.670608804527
0.681326537193
0.681504318559
0.681242415588
0.681391504896
0.672937403102
0.651441004043
0.613289979577
0.555791431836
0.478653307716
0.416295199625
0.393198058394
0.506843080215
0.571284415808
0.575721546893
0.57139651436
0.575807893725
0.57139651436
0.573010111672
0.672531169531
0.690127227703
0.682315430973
0.680496632997
0.674679737178
0.658237976993
0.62969338783
0.591335145071
0.54124893125
0.475921686791
0.420828775115
0.422421632493
0.506048079205
0.571187147586
0.575510528296
0.571284415808
0.575831884997
0.57139651436
0.574258454689
0.571291156907
0.747394555879
0.713427332833
0.687264437991
0.67254821415
0.645804966288
0.600868993603
0.55303195044
0.505452451707
0.450068986995
0.397452843137
0.403504827254
0.478644067946
0.57118117403
0.575165411646
0.571187147586
0.575802020605
0.571284415808
0.57493833569
0.571291156907
0.571698289896
0.807007008108
0.736956428426
0.694393626809
0.663945406118
0.611034573274
0.540284026909
0.478701507569
0.425794199022
0.376335671021
0.363288229797
0.420527240376
0.561275582042
0.574527015677
0.57118117403
0.575659627581
0.571187147586
0.575124588882
0.571284415808
0.572948649663
0.557569639496
0.828214605273
0.749642029965
0.697612712822
0.656657755812
0.588295588148
0.501882962174
0.42824464118
0.372316915622
0.33589867593
0.357759634126
0.478115842794
0.573408966989
0.57118117403
0.575238132647
0.57118117403
0.57509084684
0.571187147586
0.573752244514
0.571187147586
0.521961218162
0.828282343525
0.750365309074
0.695912158026
0.644021320851
0.565945087321
0.470486308405
0.388546754319
0.331902763307
0.311104844177
0.362388326811
0.532225199526
0.57106634621
0.574749815875
0.57118117403
0.574901242199
0.57118117403
0.573855561932
0.571187147586
0.571669436055
0.475574654592
0.827482065674
0.744696838145
0.685757967413
0.619926039135
0.530045939469
0.426244776597
0.339094344005
0.283732209337
0.282290086862
0.371531318562
0.558163098658
0.574293171264
0.57106634621
0.574633420033
0.57118117403
0.573747309959
0.57118117403
0.571816294385
0.550440309807
0.413939536441
0.823369994492
0.726677630687
0.660547140477
0.577694477686
0.472577151097
0.360808274906
0.276219319867
0.243436177268
0.251564940551
0.379047880429
0.568730445097
0.57106634621
0.574352788291
0.57106634621
0.573596353525
0.57118117403
0.571807015977
0.56949646667
0.490297579177
0.342711161073
0.808356753638
0.70191470748
0.617936035448
0.516438252402
0.397187657712
0.289448507266
0.243520600794
0.242784738123
0.243248471272
0.374383855517
0.569650112106
0.573531270067
0.57106634621
0.573382355068
0.57106634621
0.571676328538
0.569399054911
0.524087999595
0.403672047663
0.278786151943
0.781439610504
0.676422325285
0.559695240602
0.438500009243
0.318405549486
0.247613891032
0.242908999871
0.243248471272
0.241273523412
0.375832127797
0.57065105656
0.57106634621
0.572445526517
0.57106634621
0.57158190472
0.55984033965
0.51855492694
0.42723793842
0.315857797083
0.23363357825
0.760066049148
0.634024197548
0.480488321333
0.348017828017
0.258939773466
0.243033630653
0.243248471272
0.241120536629
0.243043805941
0.377730218736
0.564070038511
0.571338660037
0.570359533311
0.55998926531
0.536009589165
0.486742064906
0.409494045913
0.320491646762
0.254207201749
0.207878179593
0.748830319028
0.564126084089
0.388630536514
0.272196104944
0.243241700932
0.243248471272
0.241462230463
0.243043805941
0.240339004247
0.370958298039
0.531370252802
0.54333593364
0.526746106711
0.488471477763
0.430767422558
0.360150075503
0.292255639944
0.248162657649
0.225650440966
0.194118913732
0.740055090402
0.479502868759
0.308371705568
0.244884080247
0.243248471272
0.24172567825
0.243043805941
0.239795058012
0.243043805941
0.323764214938
0.444713755541
0.450535316842
0.415947943831
0.357313959237
0.29341890347
0.242126106154
0.218879478893
0.21706927312
0.214478176022
0.186015475662
0.707022564312
0.414897283935
0.274087099709
0.243248471272
0.242122438559
0.243043805941
0.239823017353
0.243043805941
0.239339679734
0.249955798839
0.318795859687
0.316466018192
0.275907314299
0.226414698067
0.192066838434
0.179920078825
0.188589196801
0.20412652072
0.207782684
0.183828660802
0.625111038328
0.380951320494
0.272920627724
0.242787394422
0.243043805941
0.240222167648
0.243043805941
0.239258368008
0.243040805625
0.240738940362
0.244637545943
0.228548790975
0.192385332659
0.166102716394
0.156240562013
0.158983342357
0.173944987139
0.192722419284
0.200414669954
0.187323556179
0.555650285695
0.403372101172
0.31124515559
0.266677676516
0.245783571248
0.243043805941
0.23959596766
0.243043805941
0.239012928135
0.251681963966
0.250797355974
0.219799631386
0.184599844745
0.161596521224
0.151054437461
0.150351646521
0.160161606462
0.176541547152
0.191784977835
0.197442463505
0.584531546104
0.538897557453
0.480948115573
0.418158669724
0.367383826159
0.342453246295
0.340385966623
0.345132524966
0.349825917661
0.332903207496
0.294207812863
0.244545729834
0.200207760007
0.167788943368
0.151023315831
0.145576329828
0.148208273914
0.15800948719
0.179441781006
0.204508986179
0.711421693053
0.743264104927
0.716728330055
0.673074849378
0.632148319709
0.612329609928
0.608461380003
0.606978143042
0.579639360171
0.516880206443
0.434115322345
0.354517975517
0.275864802042
0.203413791545
0.15677220378
0.144144006299
0.144163924712
0.146203805601
0.161615787217
0.208912688391
0.848287501515
0.851109191679
0.829107917839
0.807486641918
0.792898185236
0.784846564627
0.779308963844
0.767836572172
0.736457250011
0.674298341371
0.590712586727
0.498636780352
0.397591311422
0.285863543173
0.182084573862
0.144098437371
0.144137482962
0.144079756749
0.147743231639
0.212667495881
0.872621513065
0.871272583999
0.854396553888
0.8338615618
0.823653510013
0.817192710377
0.809450737153
0.794662768415
0.765314600732
0.714217423631
0.642522660024
0.557361714913
0.461636935172
0.34997042037
0.221033360622
0.144137482962
0.143851944847
0.144137482962
0.143992841508
0.22274116322
0.873917120496
0.872621513065
0.859355991113
0.836827226647
0.824616045121
0.816873997282
0.807631026692
0.79101425824
0.760516897887
0.711067439842
0.64276581467
0.561564934688
0.469979296312
0.361869134396
0.234696472314
0.144015582119
0.144137482962
0.143414987102
0.144137482962
0.247422483628
0.872621513065
0.872706599892
0.858625134558
0.833620917846
0.817682757934
0.805911072194
0.791780102848
0.768931606624
0.733004842975
0.683622920398
0.621645130157
0.548186154554
0.461293418505
0.354803013052
0.22861529457
0.144137482962
0.143603181059
0.144137482962
0.143223289689
0.288307819147
0.873880928764
0.872276595977
0.850381270476
0.819052509836
0.797159461984
0.779428910635
0.757075665862
0.72326413209
0.677813961061
0.626202885549
0.569635351441
0.505088083634
0.425340920096
0.321191654725
0.198356141177
0.143963644865
0.144137482962
0.142687861138
0.160007583274
0.322885509651
0.872486471438
0.864259046042
0.828842694818
0.791545139104
0.766311666908
0.742934228839
0.710238985577
0.663431808581
0.609031129638
0.554615096377
0.500311281193
0.440109968541
0.363160411162
0.259268350099
0.1561080167
0.144137482962
0.142965435604
0.144137482962
0.222669764854
0.325584809863
0.873166993189
0.842903069942
0.794139132533
0.755541883839
0.730188805042
0.701192616286
0.656874699988
0.598317255348
0.536936066651
0.480461308906
0.426737024884
0.366734274605
0.287442623705
0.187039758557
0.144137482962
0.143346011496
0.144137482962
0.142435119443
0.301924912366
0.325820131247
0.872439604933
0.808005978826
0.749469673684
0.713874744416
0.688207970373
0.651554912106
0.596192324
0.528578524998
0.462623343567
0.405038029583
0.350787669291
0.287928360092
0.206778462843
0.145932934508
0.143695387829
0.144137482962
0.142429657238
0.170129991109
0.367824536852
0.297537562736
0.867251841915
0.75725947859
0.697577170239
0.664757679515
0.634555363212
0.588501374148
0.524151485001
0.451376461039
0.383687347045
0.325192369304
0.268307794172
0.203633198491
0.149668347691
0.143859973366
0.144137482962
0.142429657238
0.144137482962
0.315450707034
0.371121840344
0.234689855935
0.846615898965
0.688669696003
0.637610082588
0.600823183419
0.561485241528
0.506113125932
0.436810734477
0.363989756026
0.297036842764
0.237054149112
0.182350264667
0.147337463301
0.143883597284
0.144137482962
0.142429657238
0.144137482962
0.221579152822
0.460047836838
0.371981577695
0.185788382313
0.800041614083
0.609011321773
0.559520123887
0.513008501777
0.463815260234
0.402821205544
0.334910825164
0.267483116265
0.204134129986
0.158683810836
0.144144049687
0.143833524296
0.144137482962
0.142435119443
0.144137482962
0.221360309084
0.474102714007
0.495627976229
0.358216555422
0.178037897377
0.73562566076
0.510470669279
0.456859106304
0.404395803016
0.351349126339
0.292674360163
0.233624066401
0.177636338646
0.146287403985
0.144137482962
0.143369252076
0.144137482962
0.142744937787
0.156431426078
0.277160536305
0.490503951326
0.552455875146
0.512338201373
0.37308240169
0.196249846278
0.648039021592
0.410162525355
0.356822372491
0.313085057586
0.269121450803
0.220935344481
0.174783788618
0.144114844794
0.144137482962
0.142891486091
0.144137482962
0.153258809938
0.237570274962
0.380543776723
0.521057353079
0.552455875146
0.553684500678
0.542975173682
0.432530016894
0.261008822746
0.543080842004
0.37643552649
0.34218658696
0.305404093035
0.262702396627
0.216072277846
0.173239672479
0.145953838636
0.144855665806
0.157613915912
0.215479939542
0.350229500373
0.478506293262
0.542844513121
0.552455875146
0.553656582109
0.552455875146
0.553179041092
0.489305966625
0.348375404643
0.495652807246
0.421426295302
0.39848483852
0.367904294934
0.323753699589
0.278909904719
0.247234245205
0.235366702108
0.250510611322
0.304400848421
0.40655272747
0.497143765373
0.535334321682
0.550269502553
0.552797302955
0.552455875146
0.552918295369
0.552455875146
0.503825065874
0.409547366454
0.553678056099
0.580476678723
0.577914084602
0.566349757538
0.538116410873
0.515117555256
0.509496393275
0.516514649171
0.527948228323
0.530797481861
0.52346719699
0.520553406029
0.527363505415
0.533834937232
0.540570833807
0.546486672481
0.548489374328
0.540080741419
0.503564865225
0.438675620497
0.696833651741
0.734119831929
0.735580470222
0.737250582189
0.733472070952
0.731636667524
0.735615919708
0.740356909753
0.740495228148
0.716011461456
0.65221089555
0.577353896093
0.533148594555
0.511799252494
0.507911510338
0.511849058398
0.51618647111
0.511867882629
0.500293832544
0.452651064269
0.779706210094
0.780667741444
0.781936463666
0.784469136289
0.785045879176
0.785869497705
0.785456196256
0.786279063532
0.785456196256
0.784820523308
0.762609065032
0.702172223011
0.616464046468
0.54168216267
0.500741735161
0.478957764198
0.473941651877
0.482925418685
0.490376293864
0.459693970817
0.786440434153
0.785456196256
0.786097073784
0.785456196256
0.786710433692
0.785456196256
0.786965234641
0.785456196256
0.786932462226
0.785456196256
0.786103138071
0.775406050803
0.720967475614
0.625028222205
0.537570176488
0.481658560641
0.452451213523
0.460356018679
0.476633448154
0.462076537962
0.785456196256
0.785770098604
0.785456196256
0.78659079235
0.785456196256
0.787061657334
0.785456196256
0.787145944168
0.785456196256
0.786850433971
0.785456196256
0.78551462535
0.753476771935
0.678733257898
0.591338897621
0.50511187346
0.446281012121
0.443994320543
0.46356990231
0.460982362649
0.786625397675
0.785454199956
0.786195579205
0.785456196256
0.786792894602
0.785456196256
0.787009925634
0.785456196256
0.786955581064
0.785456196256
0.786252270376
0.785456196256
0.754303021
0.688932731363
0.613062328036
0.523494903719
0.444457373572
0.430964957044
0.451353233816
0.457310299064
0.785456196256
0.7856326891
0.785456196256
0.786222902554
0.785456196256
0.786657168463
0.785456196256
0.786740392536
0.785456196256
0.786521130855
0.785456196256
0.785130955877
0.750284508493
0.687970567184
0.615395557306
0.525083279581
0.438556083092
0.417485973515
0.440432432147
0.453841913559
0.785923785959
0.785284429295
0.785646751979
0.785456196256
0.786220941682
0.785456196256
0.786389449422
0.785456196256
0.786359645005
0.785456196256
0.785850293217
0.780977910548
0.73864079623
0.681077557539