/*--------------------------------*- C++ -*----------------------------------*\
| =========                 |                                                 |
| \\      /  F ield         | OpenFOAM: The Open Source CFD Toolbox           |
|  \\    /   O peration     | Version:  2312                                  |
|   \\  /    A nd           | Website:  www.openfoam.com                      |
|    \\/     M anipulation  |                                                 |
\*---------------------------------------------------------------------------*/
FoamFile
{
    version     2.0;
    format      ascii;
    arch        "LSB;label=32;scalar=64";
    class       surfaceScalarField;
    location    "0.115/water";
    object      phi.gas;
}
// * * * * * * * * * * * * * * * * * * * * * * * * * * * * * * * * * * * * * //

dimensions      [0 3 -1 0 0 0 0];

oriented        oriented;

internalField   nonuniform List<scalar> 
2914
(
2.75335084769e-07
6.41180510664e-07
2.45424888626e-07
6.54275664429e-07
2.39148331987e-07
6.78471746128e-07
2.68479719668e-07
7.79267493012e-07
3.53554624464e-07
1.07246835382e-06
4.73634469537e-07
1.85184918738e-06
5.29555959594e-07
2.07914354235e-06
4.62083154847e-07
2.02172126556e-06
3.74242349186e-07
1.41752443089e-06
3.25856505414e-07
1.02952664988e-06
3.15570557373e-07
8.37981536082e-07
3.2749981776e-07
7.56057871979e-07
3.47955522611e-07
7.25123716633e-07
3.73789316574e-07
7.20654943017e-07
3.52791014386e-07
7.41423466546e-07
3.01295565554e-07
8.29991087788e-07
2.77228103133e-07
8.94225399253e-07
2.37863179792e-07
9.32611881082e-07
1.94960392651e-07
9.45429337251e-07
8.54232818699e-07
1.59805120697e-07
2.70968863118e-07
6.65597215501e-07
2.21565456947e-07
6.77440499243e-07
1.98348757025e-07
6.99735031111e-07
1.95990648795e-07
7.80141612746e-07
2.34147011528e-07
1.02027027256e-06
4.3123774189e-07
1.63889924024e-06
4.22119310452e-07
2.07065589549e-06
3.46492982641e-07
2.09189181671e-06
3.53647526905e-07
1.40657546607e-06
3.51986764626e-07
1.0348805137e-06
3.58938674397e-07
8.47628259727e-07
3.75876510375e-07
7.62890673647e-07
3.94393731372e-07
7.3000757093e-07
4.09054891506e-07
7.25805997464e-07
3.7401810364e-07
7.55634725756e-07
3.23380608754e-07
8.53475459106e-07
2.96211124436e-07
9.18450245874e-07
2.5079960523e-07
9.55151607244e-07
2.01063122475e-07
9.66860976977e-07
8.74733150723e-07
1.63299962102e-07
2.60707183182e-07
7.0498712791e-07
1.9945944055e-07
7.16645920371e-07
1.59520402117e-07
7.38643758e-07
1.3081040961e-07
8.07064174051e-07
1.28332471842e-07
1.01789340015e-06
2.12788752104e-07
1.55782806806e-06
1.53258211745e-07
2.10628025755e-06
2.36052782087e-07
2.00087293504e-06
3.22624187447e-07
1.32239103064e-06
3.60429896868e-07
1.00786220135e-06
3.85154823225e-07
8.44202559815e-07
4.08418547264e-07
7.66916250704e-07
4.26648040026e-07
7.37102432233e-07
4.29540917385e-07
7.34330259726e-07
3.84534073163e-07
7.74923256351e-07
3.36724621362e-07
8.82825231759e-07
3.03763068768e-07
9.47662231068e-07
2.53517981377e-07
9.81748865463e-07
2.00626357364e-07
9.92150558264e-07
8.96485494631e-07
1.61487684238e-07
2.60044635455e-07
7.66500965612e-07
1.71038170528e-07
7.78149892294e-07
1.09720946739e-07
8.03170226465e-07
4.57787210411e-08
8.70789202869e-07
-5.86085355585e-09
1.07379231126e-06
1.72425901601e-08
1.54917787362e-06
-1.02161738818e-07
2.20337466571e-06
1.67286323531e-07
1.73792001535e-06
2.90215279164e-07
1.21685190555e-06
3.52959979314e-07
9.64724213759e-07
3.89302075393e-07
8.33142499134e-07
4.15947195146e-07
7.69548922502e-07
4.31340702522e-07
7.46058322692e-07
4.22452297809e-07
7.44634992207e-07
3.7476803863e-07
7.96482901102e-07
3.27615211643e-07
9.15701639013e-07
2.92840576799e-07
9.78220044613e-07
2.42842032474e-07
1.00830749251e-06
1.90081464814e-07
1.01664428491e-06
9.16447637068e-07
1.53032082787e-07
2.39151569076e-07
8.55244958955e-07
1.28242823292e-07
8.65777273614e-07
4.54469677686e-08
8.91950547296e-07
-4.44334284619e-08
9.61378134326e-07
-1.16203248273e-07
1.15359496771e-06
-1.33590389096e-07
1.58263169886e-06
-4.28516737202e-08
2.12966406565e-06
1.1206578339e-07
1.61385666365e-06
2.38449848869e-07
1.12378205945e-06
3.11433415002e-07
9.19967792995e-07
3.52038845068e-07
8.19109298634e-07
3.74653848163e-07
7.70748560452e-07
3.84472337606e-07
7.54346294087e-07
3.70572465702e-07
7.53281550094e-07
3.2917151168e-07
8.13126516433e-07
2.89663338747e-07
9.46164889702e-07
2.59256367835e-07
1.00270235141e-06
2.15229324973e-07
1.02788377709e-06
1.70137742921e-07
1.03422998124e-06
9.30521558816e-07
1.38103281896e-07
2.74698844515e-07
9.42925992134e-07
1.49330535241e-07
9.55510186956e-07
5.23064154382e-08
9.91965841445e-07
-5.35712910483e-08
1.06380167567e-06
-1.29123371409e-07
1.23574119503e-06
-1.64224090351e-07
1.63315346302e-06
-7.62720118641e-08
2.0923039322e-06
4.85102801722e-08
1.52969854904e-06
1.50373168626e-07
1.05815430228e-06
2.15766917888e-07
8.80961208431e-07
2.50058833505e-07
8.02443828739e-07
2.63862044146e-07
7.67540834103e-07
2.73711370676e-07
7.57279489087e-07
2.66803088085e-07
7.55643304405e-07
2.47029787162e-07
8.14261026235e-07
2.21826881253e-07
9.63233092372e-07
2.0540613804e-07
1.01219974339e-06
1.75417938918e-07
1.03330705551e-06
1.43194566535e-07
1.0381462898e-06
9.35374289103e-07
1.19554695653e-07
3.14016683142e-07
9.93631963581e-07
2.13708895229e-07
1.0196289256e-06
1.29090803504e-07
1.07133268973e-06
3.44591152079e-08
1.15117822389e-06
-3.77816965686e-08
1.31198852725e-06
-9.07482788674e-08
1.70532063942e-06
-1.03244113851e-07
2.14457858813e-06
-4.8359295146e-08
1.50023925824e-06
7.08884855581e-09
1.0234035849e-06
5.3569504905e-08
8.49945452961e-07
8.16698563502e-08
7.81641615434e-07
9.74803360376e-08
7.56068150447e-07
1.18178019882e-07
7.50178739941e-07
1.2890747964e-07
7.49007572987e-07
1.40592441593e-07
7.94993602982e-07
1.405069663e-07
9.54750953586e-07
1.44164838233e-07
1.00015785027e-06
1.32022955446e-07
1.01995165925e-06
1.16813858171e-07
1.02494965579e-06
9.29355839075e-07
1.01854962937e-07
3.89216301462e-07
9.68152573324e-07
3.31527847709e-07
1.03143604799e-06
2.88049389018e-07
1.1002968773e-06
2.45425748935e-07
1.1813847327e-06
2.15411175757e-07
1.34622954337e-06
9.67415562958e-08
1.81734463676e-06
-1.28417056353e-07
2.35248389583e-06
-1.75064165024e-07
1.53839006463e-06
-1.75067204169e-07
1.01777456245e-06
-1.42269291973e-07
8.26795279252e-07
-1.0542281457e-07
7.55264445069e-07
-7.25402963133e-08
7.33251487437e-07
-3.60071822522e-08
7.30824422245e-07
-3.31244110643e-09
7.32847236184e-07
3.24828465277e-08
7.64647026355e-07
7.06469724747e-08
9.08284543577e-07
9.35328782203e-08
9.68022985688e-07
9.87520901463e-08
9.89498218847e-07
9.72473722761e-08
9.9622731566e-07
9.14209803235e-07
8.98915301056e-08
4.2192614992e-07
8.06047274844e-07
3.90172511345e-07
9.6718743484e-07
3.84018990523e-07
1.05748578674e-06
3.84952953532e-07
1.14100335277e-06
3.83630735562e-07
1.30968955917e-06
1.97623377385e-07
1.90151508109e-06
-1.08251266421e-07
2.55956015629e-06
-2.05238250836e-07
1.58060150208e-06
-2.6890970525e-07
1.03508796386e-06
-2.66365442557e-07
8.22366849778e-07
-2.22483522007e-07
7.31023453079e-07
-1.7425874904e-07
7.05019528884e-07
-1.2636140112e-07
7.05132675123e-07
-8.09659682292e-08
7.11106469899e-07
-3.92664831605e-08
7.34706593392e-07
3.47286069916e-08
8.37922630364e-07
6.80559026006e-08
9.23226856914e-07
8.375160754e-08
9.48394721246e-07
9.06381979558e-08
9.5803877044e-07
8.92920124681e-07
8.58762315051e-08
2.15009461427e-07
7.24674836182e-07
1.10787720176e-07
9.81504038296e-07
1.46589608867e-08
1.07630063322e-06
-7.83075154329e-08
1.16298073849e-06
-2.12919926018e-07
1.35926626577e-06
-1.39124368497e-07
1.73515116354e-06
2.83573693898e-07
2.04432946183e-06
1.11518320796e-07
1.68829980167e-06
-9.99240637613e-08
1.18640916432e-06
-1.97574540308e-07
8.87027919394e-07
-1.99758495498e-07
7.46573213205e-07
-1.63963058775e-07
6.96295632604e-07
-1.22458414839e-07
6.90320134005e-07
-8.00277862707e-08
6.95356203843e-07
-4.21660655094e-08
7.12069209462e-07
3.50950461204e-08
7.76884172534e-07
6.91172882988e-08
8.71258005857e-07
8.8273272882e-08
9.04610916144e-07
9.41191545838e-08
9.17964764358e-07
8.70410972682e-07
9.08203194048e-08
1.60909014404e-07
6.97907122262e-07
1.08777144985e-07
9.80410201133e-07
4.40759122915e-08
1.09144837758e-06
-2.42561027153e-08
1.1760789337e-06
-3.06290065204e-08
1.31128075764e-06
9.34019667465e-08
1.57851013833e-06
3.21721820944e-07
1.78422605596e-06
3.65419613556e-07
1.61255594815e-06
1.1896465842e-07
1.39681853011e-06
-2.71096401344e-08
9.92021055833e-07
-9.29379728303e-08
8.10464055159e-07
-8.70535294694e-08
7.18953163738e-07
-6.11669214483e-08
6.93446019098e-07
-2.83947362907e-08
6.91245457984e-07
6.80312894832e-09
7.00675222663e-07
5.64330461323e-08
7.38326426685e-07
9.14649107927e-08
8.16643903725e-07
1.06814083406e-07
8.65359940405e-07
1.06664458258e-07
8.82564664134e-07
8.49906142652e-07
1.03427329358e-07
1.6241783768e-07
6.84370984947e-07
1.39544996084e-07
9.76193981791e-07
1.21129989928e-07
1.09407513919e-06
1.06930426897e-07
1.17864577431e-06
1.18180578635e-07
1.29072827443e-06
2.23330253069e-07
1.46989009623e-06
3.84419509027e-07
1.61689229936e-06
3.97922624086e-07
1.58824737165e-06
2.94228297105e-07
1.486296236e-06
1.44715071541e-07
1.1202509202e-06
4.47830252053e-08
9.04740745062e-07
1.13524225074e-08
7.69874887392e-07
1.79194799954e-08
7.14141231128e-07
3.9767286049e-08
6.98916414196e-07
7.04919859897e-08
6.99827377878e-07
9.29037236848e-08
7.18593905928e-07
1.28787046601e-07
7.71887022738e-07
1.33182373761e-07
8.31965152848e-07
1.26402063916e-07
8.52720952882e-07
8.31697168121e-07
1.19535866511e-07
1.7512436265e-07
6.57397225838e-07
1.73125019451e-07
9.49567445372e-07
1.82758680636e-07
1.07034285089e-06
2.00872242923e-07
1.15327830509e-06
2.38810020879e-07
1.24757076257e-06
3.26033708882e-07
1.37770620783e-06
4.46729682925e-07
1.49213191826e-06
5.10450158832e-07
1.52042101593e-06
5.06078339319e-07
1.48830946501e-06
2.83371164649e-07
1.33684254985e-06
1.74499989048e-07
1.0051835176e-06
1.10653163343e-07
8.36126474025e-07
9.78123584299e-08
7.49607901221e-07
1.0773332472e-07
7.16413940149e-07
1.29972903319e-07
7.07449009901e-07
1.47033522844e-07
7.13177085813e-07
1.7150539423e-07
7.44218202279e-07
1.63759591827e-07
8.02090250232e-07
1.50896836077e-07
8.28970977124e-07
8.16974017551e-07
1.37691527618e-07
1.80850284935e-07
6.22719216453e-07
1.88825491987e-07
9.10963717201e-07
2.09358967392e-07
1.03283397019e-06
2.37796445832e-07
1.11518293395e-06
2.77947333914e-07
1.20053808877e-06
3.44858072933e-07
1.30479953028e-06
4.27048916261e-07
1.4044838419e-06
4.77917078772e-07
1.46588455674e-06
4.69618011946e-07
1.49073360317e-06
3.75254378267e-07
1.42239412274e-06
2.78626173265e-07
1.09153828237e-06
2.02499912947e-07
9.14061729166e-07
1.72125685178e-07
7.96469397647e-07
1.70775329433e-07
7.4180603318e-07
1.84921304535e-07
7.21962150133e-07
2.0650834738e-07
7.17954901933e-07
2.12007475827e-07
7.31095048551e-07
1.99484308006e-07
7.76171197319e-07
1.76841495262e-07
8.11305583952e-07
8.06217967446e-07
1.57724298905e-07
1.83339017213e-07
5.8579684403e-07
1.96407749251e-07
8.66581333534e-07
2.22640081136e-07
9.87833408766e-07
2.57496839129e-07
1.06888440923e-06
3.01916273893e-07
1.14774727996e-06
3.63439138694e-07
1.23623730921e-06
4.37597313006e-07
1.32396045333e-06
5.0403436856e-07
1.39381302778e-06
5.5035667353e-07
1.43964224393e-06
5.53167685258e-07
1.41832842718e-06
3.66354764987e-07
1.27643438739e-06
2.8540274803e-07
9.97878108343e-07
2.41813235495e-07
8.50287087185e-07
2.31312136764e-07
7.73646315256e-07
2.37753438841e-07
7.4123742741e-07
2.56160465411e-07
7.29188931825e-07
2.5328103067e-07
7.29788063483e-07
2.40709980624e-07
7.59093570615e-07
2.03164807215e-07
7.97932991255e-07
7.98493493268e-07
1.78569927475e-07
1.80908289249e-07
5.50653801212e-07
1.93582742352e-07
8.22225866526e-07
2.19733830728e-07
9.42114054368e-07
2.53774899776e-07
1.02229400292e-06
2.94649183259e-07
1.09756159621e-06
3.45063679718e-07
1.17804971658e-06
4.02331219436e-07
1.25997814869e-06
4.54168763151e-07
1.33536114414e-06
4.90643277237e-07
1.39841264927e-06
4.84829940895e-07
1.41924937522e-06
4.15095043814e-07
1.34072765267e-06
3.42292520223e-07
1.07152685564e-06
2.99798313572e-07
9.04694967517e-07
2.83229600824e-07
8.09095285242e-07
2.85414246603e-07
7.64477070549e-07
2.97820665235e-07
7.45892878415e-07
3.00227750831e-07
7.38414546729e-07
2.79223045713e-07
7.51835670258e-07
2.31637606202e-07
7.8798461454e-07
7.93914214624e-07
2.01377959729e-07
1.77657439107e-07
5.19273021807e-07
1.88452395659e-07
7.8047197637e-07
2.11951560956e-07
8.98703881604e-07
2.43229881811e-07
9.78135935787e-07
2.79668709236e-07
1.05147619315e-06
3.22249951935e-07
1.12762946995e-06
3.68669917295e-07
1.20611816426e-06
4.13782119869e-07
1.28310260301e-06
4.52193649419e-07
1.3539123658e-06
4.65900988162e-07
1.39901670178e-06
4.31509707197e-07
1.37110380061e-06
3.77265066514e-07
1.12811201559e-06
3.40309996228e-07
9.56122118617e-07
3.26045864435e-07
8.45318281292e-07
3.27200334733e-07
7.9032858417e-07
3.34815580226e-07
7.66416489294e-07
3.41631663925e-07
7.54068298274e-07
3.15535052495e-07
7.55352027283e-07
2.63807805792e-07
7.83137798329e-07
7.93626841983e-07
2.25970989336e-07
1.75301780167e-07
4.89743799935e-07
1.86245482785e-07
7.39001997812e-07
2.10526174684e-07
8.5500124355e-07
2.40689475226e-07
9.34881642217e-07
2.74690837848e-07
1.00765553495e-06
3.12367059426e-07
1.08153704159e-06
3.53262986779e-07
1.15723467035e-06
3.9570567689e-07
1.23300679183e-06
4.36829920417e-07
1.30530493959e-06
4.68619755748e-07
1.36122501345e-06
4.84774009862e-07
1.35536937352e-06
3.96826051804e-07
1.22448408038e-06
3.68706690124e-07
1.00182042742e-06
3.60545970167e-07
8.79609324253e-07
3.62406965329e-07
8.17426234284e-07
3.68134943369e-07
7.90010663787e-07
3.76480732153e-07
7.75406292382e-07
3.5173592439e-07
7.69021426299e-07
2.98169589516e-07
7.85427584029e-07
7.98912438403e-07
2.53155836567e-07
1.71906504711e-07
4.63861386132e-07
1.86461172288e-07
6.96795610078e-07
2.16871798582e-07
8.08120243812e-07
2.48398157144e-07
8.91799692718e-07
2.76335574588e-07
9.69348249218e-07
3.04931393504e-07
1.04405068492e-06
3.34521390958e-07
1.11925935719e-06
3.645812491e-07
1.19484115331e-06
3.92601352811e-07
1.26889863296e-06
4.15212847141e-07
1.33266554817e-06
4.22764332938e-07
1.34693819519e-06
4.02637196951e-07
1.25303678822e-06
3.88465156271e-07
1.0354526046e-06
3.88412789826e-07
9.09600884942e-07
3.93484475798e-07
8.44750194088e-07
3.99672718957e-07
8.16053514545e-07
4.05536780865e-07
8.01094789387e-07
3.87342782586e-07
7.91485885552e-07
3.36634671586e-07
7.98180359713e-07
8.11180742719e-07
2.83017316994e-07
1.69739761155e-07
4.38571336452e-07
1.96428924901e-07
6.45918011401e-07
2.37317366251e-07
7.53187436902e-07
2.72030059174e-07
8.47125713567e-07
2.93026446922e-07
9.36950339971e-07
3.10760536799e-07
1.01655280756e-06
3.28348874011e-07
1.09266386672e-06
3.46237164666e-07
1.16786618732e-06
3.64311805765e-07
1.24169017835e-06
3.81593219087e-07
1.30775738644e-06
3.97664400563e-07
1.3292907348e-06
4.03884880851e-07
1.25564194108e-06
4.06126173931e-07
1.05326457544e-06
4.13776263161e-07
9.34323978036e-07
4.2301261317e-07
8.71859941739e-07
4.30300116517e-07
8.44577483423e-07
4.34041492793e-07
8.31275329119e-07
4.24717763636e-07
8.22008109865e-07
3.76585304198e-07
8.2244922879e-07
8.30661919715e-07
3.13401894855e-07
1.84268204387e-07
3.95619203872e-07
2.48345621427e-07
5.54594303438e-07
2.79268908036e-07
7.01770919191e-07
3.04298805846e-07
8.08735496653e-07
3.17309440035e-07
9.11790121011e-07
3.22868557754e-07
1.00017284841e-06
3.27507524814e-07
1.07791708871e-06
3.33743840321e-07
1.15175617335e-06
3.41960010503e-07
1.22311495009e-06
3.54781245329e-07
1.28606568439e-06
3.77455763676e-07
1.30501733269e-06
4.10238271484e-07
1.23152248237e-06
4.27115912333e-07
1.05632520015e-06
4.41645909542e-07
9.54043530659e-07
4.54969092973e-07
8.98619095655e-07
4.63137741244e-07
8.75253881262e-07
4.66909629704e-07
8.65301977495e-07
4.60475992785e-07
8.58691098386e-07
4.14833042461e-07
8.58097676593e-07
8.61635939906e-07
3.43622981225e-07
1.87199195107e-07
3.51359843631e-07
2.13983598219e-07
5.21938512886e-07
2.63653447949e-07
6.36567117348e-07
2.85068755167e-07
7.77604118035e-07
2.96054098026e-07
8.92821207759e-07
2.98431006919e-07
9.89374237302e-07
2.97682413299e-07
1.06981145168e-06
2.9718011375e-07
1.14238836165e-06
3.00345795453e-07
1.2097809947e-06
3.15648719634e-07
1.26384232985e-06
3.50607761341e-07
1.27214030773e-06
4.25116958443e-07
1.16789614852e-06
4.539356085e-07
1.04922619421e-06
4.74126304301e-07
9.70620104462e-07
4.90270941032e-07
9.25949512528e-07
4.98690368974e-07
9.09137510182e-07
5.02301794293e-07
9.04588805341e-07
4.96174318038e-07
9.03528852684e-07
4.52827576712e-07
9.07068760811e-07
9.07224901425e-07
3.69057785866e-07
7.33715741243e-08
4.32338960337e-07
7.32067203254e-08
5.35166179219e-07
8.38379384906e-08
6.19537547018e-07
1.45006089686e-07
7.1832580319e-07
1.80374561312e-07
8.59831611059e-07
2.03680530536e-07
9.67135348017e-07
2.18662747913e-07
1.05301374436e-06
2.30902815877e-07
1.12650481692e-06
2.48802988313e-07
1.18828953347e-06
2.88958999564e-07
1.22591543847e-06
3.69219884454e-07
1.20291204936e-06
4.5058855834e-07
1.10434314274e-06
4.85890183515e-07
1.0416367024e-06
5.11260654829e-07
9.87197148891e-07
5.29975515913e-07
9.56058751848e-07
5.37265923782e-07
9.48399154342e-07
5.40911959086e-07
9.51718546455e-07
5.33985438828e-07
9.59913927117e-07
4.85876160739e-07
9.73855583124e-07
9.7188827364e-07
3.82480696821e-07
1.16523927978e-08
5.66935377019e-07
-1.19701085569e-08
5.70671188785e-07
-1.78494433183e-08
6.26009241182e-07
-1.0625686867e-09
7.10725718167e-07
4.73294518003e-08
8.25449367501e-07
1.03396530888e-07
9.26074895916e-07
1.45451646139e-07
1.02351250614e-06
1.77272106144e-07
1.10537983749e-06
2.22842224959e-07
1.15383899077e-06
3.19045023889e-07
1.14472914673e-06
4.30988825432e-07
1.11261676776e-06
4.8324484001e-07
1.080169569e-06
5.22629023409e-07
1.04029907873e-06
5.54991839413e-07
1.00692983413e-06
5.75058492562e-07
9.91376269479e-07
5.79597867497e-07
9.952216148e-07
5.82640158761e-07
1.00975343268e-06
5.74751714134e-07
1.03448936977e-06
5.10297915891e-07
1.07206440248e-06
1.0551889193e-06
3.67689760819e-07
3.02207066495e-08
6.84258569137e-07
-1.06805485911e-08
6.24274950149e-07
-3.65867610812e-08
6.53605484154e-07
-3.40984189642e-08
7.20991462069e-07
-6.30221845691e-09
8.19238266458e-07
4.52157197899e-08
9.01887207012e-07
1.20861441581e-07
9.75215038472e-07
2.14397238862e-07
1.03816659955e-06
3.17335373919e-07
1.07766120475e-06
4.00683583361e-07
1.09013751074e-06
4.62841808105e-07
1.08336992763e-06
5.17820850379e-07
1.06488777667e-06
5.65287368911e-07
1.04431002956e-06
6.05954353494e-07
1.03017974319e-06
6.22922875662e-07
1.03098182562e-06
6.25529140651e-07
1.04808017545e-06
6.34509241141e-07
1.08027675248e-06
6.28008675533e-07
1.13610570051e-06
4.80348007727e-07
1.20323433216e-06
1.14298594597e-06
2.97079565056e-07
1.31034402709e-07
7.5829650981e-07
9.30838488588e-08
6.87405106828e-07
4.00041570487e-08
7.0253916801e-07
1.82485442697e-08
7.54950598334e-07
3.60026174835e-08
8.25386203497e-07
8.9072889723e-08
8.83862947648e-07
1.61929250156e-07
9.40670966063e-07
2.45856784328e-07
9.92312199246e-07
3.31741655211e-07
1.02967185643e-06
4.12025166213e-07
1.0491113346e-06
4.84115690794e-07
1.05452591099e-06
5.486667799e-07
1.05245376249e-06
6.07656387384e-07
1.04898963424e-06
6.47572276281e-07
1.05202817703e-06
6.60792320038e-07
1.0682369566e-06
6.77830436074e-07
1.10225431897e-06
7.04449462248e-07
1.16158610418e-06
6.07545209703e-07
1.24745223462e-06
3.26671756882e-07
1.34338858316e-06
1.21037842328e-06
1.93968639213e-07
2.15270631714e-07
7.99094707152e-07
1.88333954969e-07
7.57780604982e-07
1.12842430369e-07
7.70451314423e-07
6.76078991621e-08
8.11037093039e-07
7.0221705975e-08
8.47839927941e-07
1.13528000371e-07
8.78701714463e-07
1.80414878049e-07
9.170085396e-07
2.58813762339e-07
9.57107071246e-07
3.40278167451e-07
9.90812204696e-07
4.19406740572e-07
1.01420432102e-06
4.93554602974e-07
1.02854794708e-06
5.61203623563e-07
1.03867938628e-06
6.13778987551e-07
1.04887204615e-06
6.44428741658e-07
1.06688925083e-06
6.70844650886e-07
1.10057182261e-06
7.04698503218e-07
1.15732708151e-06
6.38103268524e-07
1.23921293661e-06
3.85711323878e-07
1.35191484527e-06
1.59884897576e-07
1.47208924801e-06
1.23403401322e-06
1.15069887417e-07
2.47496765218e-07
8.48890255152e-07
2.15809231133e-07
8.3721495633e-07
1.25830392931e-07
8.55196795791e-07
6.89875871973e-08
8.78209352948e-07
6.5335729308e-08
8.77136323749e-07
9.90059206777e-08
8.79868082242e-07
1.58034138893e-07
8.97459769063e-07
2.31014359256e-07
9.23266460292e-07
3.07944280895e-07
9.49609057478e-07
3.83191348391e-07
9.71798855261e-07
4.51177760827e-07
9.90242701712e-07
5.05355111419e-07
1.01082490174e-06
5.45525187047e-07
1.03629572771e-06
5.79278835673e-07
1.07270896789e-06
5.99264760227e-07
1.12629572504e-06
5.336553129e-07
1.20301204095e-06
3.36943319568e-07
1.31445267764e-06
1.55243633555e-07
1.45282139883e-06
9.45662365032e-08
1.52324578641e-06
1.2304822151e-06
7.67793257581e-08
2.81074511453e-07
9.10023738919e-07
1.77961192831e-07
9.42043529815e-07
5.63056883564e-08
9.62355932595e-07
-2.78634867212e-09
9.46435547218e-07
-1.12079421222e-08
9.0713248125e-07
9.90413314144e-09
8.84124424741e-07
5.57417212801e-08
8.78410386635e-07
1.17866270392e-07
8.83617284136e-07
1.86417929464e-07
8.95360059571e-07
2.54271632501e-07
9.10352259299e-07
3.14563330741e-07
9.2866066662e-07
3.6252879117e-07
9.58780850915e-07
3.95475381973e-07
1.00036093636e-06
3.99313758981e-07
1.05909277222e-06
3.38740759806e-07
1.14089919317e-06
2.09841338613e-07
1.24704641564e-06
9.60991789336e-08
1.37562872788e-06
6.28153795388e-08
1.48299422864e-06
5.89861991776e-08
1.51727515928e-06
1.20740741993e-06
5.93877622464e-08
2.85257371899e-07
9.3479836519e-07
3.21601475776e-08
1.09490718323e-06
-8.89562393628e-08
1.05617450282e-06
-1.3873118817e-07
9.87143580561e-07
-1.62800529e-07
9.26552140249e-07
-1.68364950832e-07
8.89563589214e-07
-1.49585237095e-07
8.66983368176e-07
-1.07776896557e-07
8.51534275478e-07
-5.06154189506e-08
8.43223251849e-07
1.27614927134e-08
8.44866270777e-07
7.11421628898e-08
8.58926254088e-07
1.15410040398e-07
8.92901780764e-07
1.37780905854e-07
9.46327977083e-07
1.24243298443e-07
1.03025709105e-06
6.80080021258e-08
1.14917547552e-06
1.43167781267e-08
1.2726415679e-06
9.84018911671e-09
1.38117544219e-06
1.8338717844e-08
1.46652947344e-06
4.67487341643e-08
1.47349909004e-06
1.17484614947e-06
5.8401783533e-08
2.43940706848e-07
8.82161587495e-07
6.02440980765e-08
1.16080674059e-06
-7.30329517552e-08
1.14124152387e-06
-1.35625989952e-07
1.01019451657e-06
-1.97618270347e-07
9.44037367619e-07
-2.61334428765e-07
9.06287672422e-07
-3.10502453838e-07
8.77070433506e-07
-3.27944362313e-07
8.48452836658e-07
-3.06308298535e-07
8.19786576978e-07
-2.59206167244e-07
8.02070454853e-07
-2.06057063555e-07
8.08030886208e-07
-1.53732439397e-07
8.39333820557e-07
-1.07898174299e-07
8.93053997141e-07
-7.40545445511e-08
9.83028532916e-07
-5.64046199688e-08
1.11972064305e-06
-4.38343841328e-08
1.25887902608e-06
-1.97827169491e-08
1.35368491649e-06
1.12847291831e-08
1.42202268238e-06
5.39611574389e-08
1.4125166336e-06
1.13986797619e-06
7.12061084009e-08
1.63915656489e-07
7.76586049782e-07
1.97825733348e-07
1.07318903019e-06
2.21922459571e-07
1.08040687274e-06
1.57028629783e-07
1.03839223222e-06
3.63525296692e-08
1.01928132207e-06
-9.84650263428e-08
9.86077889164e-07
-2.32594187156e-07
9.45353190655e-07
-3.49671775631e-07
8.93567825978e-07
-4.24948255914e-07
8.38859335077e-07
-4.33921935018e-07
7.9282900981e-07
-3.89785171234e-07
7.76437038774e-07
-3.26002356399e-07
7.97576915127e-07
-2.51351619046e-07
8.42667267394e-07
-1.70555792138e-07
9.18943287495e-07
-9.25680134876e-08
1.04704717597e-06
-4.96274025974e-08
1.21156475106e-06
-1.14095474011e-08
1.3067316847e-06
2.81295748924e-08
1.36562743878e-06
7.35798437509e-08
1.3482438921e-06
1.10627597975e-06
9.21982104983e-08
1.12312790327e-07
6.87860486424e-07
1.78857301236e-07
9.85937753432e-07
2.27936481005e-07
1.01463287257e-06
2.52994620915e-07
9.96267855978e-07
2.51585392855e-07
9.99356827722e-07
1.97021418402e-07
1.0154915078e-06
7.79052131646e-08
1.032090062e-06
-1.17318628154e-07
1.03993433591e-06
-3.01341356099e-07
9.49957165697e-07
-4.12683923589e-07
8.284740853e-07
-4.26401189709e-07
7.63807308737e-07
-3.78699586477e-07
7.67185310527e-07
-3.03371635271e-07
8.00670957901e-07
-2.02471268507e-07
8.61396394205e-07
-9.45490889215e-08
9.64382626789e-07
-1.94953138327e-08
1.132929694e-06
2.21725727056e-08
1.25320786859e-06
5.94231575294e-08
1.31024648203e-06
9.80080888541e-08
1.29007984068e-06
1.07639010909e-06
1.16351432757e-07
7.70181757379e-08
6.33738924202e-07
1.30130378753e-07
9.17225986731e-07
1.78985730001e-07
9.55169598573e-07
2.15073960417e-07
9.55185532833e-07
2.33308482677e-07
9.77388474777e-07
2.3123092229e-07
1.01394424637e-06
2.05632427891e-07
1.05184443353e-06
1.52441872173e-07
1.08061653458e-06
-3.37737583326e-09
1.08044737274e-06
-2.23519495172e-07
9.91878502363e-07
-3.04073468088e-07
7.780632714e-07
-3.16284155583e-07
7.54410470584e-07
-2.74309527133e-07
7.70424410691e-07
-1.91111451454e-07
8.16341518389e-07
-7.74780017756e-08
8.9762086871e-07
2.54488344257e-08
1.0419080011e-06
6.60952084851e-08
1.19835358988e-06
9.42710225141e-08
1.26280118778e-06
1.22852641479e-07
1.24242255751e-06
1.0519191717e-06
1.39786594058e-07
4.565123532e-08
6.11526653528e-07
8.55735430094e-08
8.70853063103e-07
1.20905231313e-07
9.15864366597e-07
1.51385599681e-07
9.26284858026e-07
1.72853677996e-07
9.59685825867e-07
1.82888676544e-07
1.00886526813e-06
1.77623564853e-07
1.06232796686e-06
1.54049625929e-07
1.10979119334e-06
1.0359898682e-07
1.1339802964e-06
-2.01142120604e-08
1.10356557624e-06
-1.15083598272e-07
8.39547052115e-07
-1.68622777525e-07
7.64734014321e-07
-1.73167121334e-07
7.57852553389e-07
-1.32268404169e-07
7.85106810352e-07
-4.07263935157e-08
8.48987695147e-07
6.38740522673e-08
9.65628688346e-07
1.10060191366e-07
1.13894365086e-06
1.2642713402e-07
1.22710078959e-06
1.45552496068e-07
1.2047497735e-06
1.03353373718e-06
1.61256615902e-07
3.20861294719e-08
6.10861389613e-07
5.97169191594e-08
8.48922817879e-07
7.86302397935e-08
9.01956481594e-07
9.0675377606e-08
9.21821462804e-07
9.76521627198e-08
9.61906052068e-07
1.02208696249e-07
1.01537815647e-06
1.03989542936e-07
1.07284397554e-06
1.01345249789e-07
1.12606156641e-06
8.8652278413e-08
1.16094305972e-06
6.73961268414e-08
1.13574455688e-06
2.43373151812e-08
8.80894985362e-07
-1.43426773683e-08
7.87872189029e-07
-3.37757839416e-08
7.61840555951e-07
-2.26194772082e-08
7.72057299614e-07
2.93031862666e-08
8.19051258614e-07
1.08817714424e-07
9.12957295004e-07
1.54715694698e-07
1.08574597337e-06
1.52345503585e-07
1.20792193333e-06
1.64785038396e-07
1.17887394877e-06
1.02346921082e-06
1.79354460942e-07
5.38709910509e-08
5.83235400457e-08
6.09061744238e-08
6.01232350028e-08
5.8400657244e-08
5.9759118125e-08
6.54213772098e-08
7.42291019992e-08
8.36328808447e-08
8.82171121512e-08
9.13818414506e-08
8.78931732187e-08
8.86614893668e-08
1.02054040809e-07
1.330620919e-07
1.71913670863e-07
1.8580088838e-07
1.79714435245e-07
1.84564548377e-07
1.91746633789e-07
4.87998239482e-08
4.70652092234e-07
3.20851148409e-08
4.46866662595e-07
2.12977387987e-08
4.24920493953e-07
1.43756317135e-08
4.0428517788e-07
9.22654323661e-09
3.84694822544e-07
5.30770215533e-09
3.66243135133e-07
2.88964926086e-08
3.62847498829e-07
4.13010849554e-08
3.5198553507e-07
3.74618616739e-08
3.32407739554e-07
3.24784615467e-08
3.05615984859e-07
2.59768967452e-08
2.75645021466e-07
1.93376409493e-08
2.45766745251e-07
1.31763941565e-08
2.17016199134e-07
7.74298784503e-09
1.90315121855e-07
-2.85815986928e-09
1.66714179375e-07
1.47156182321e-07
1.41817154759e-07
6.74493632511e-07
1.25559015992e-07
5.80988828772e-07
1.01105215382e-07
5.3523303828e-07
7.52063826343e-08
5.03219861717e-07
5.20903304937e-08
4.76286962075e-07
3.41568022168e-08
4.52053143924e-07
2.23494084501e-08
4.29724314254e-07
1.47780276831e-08
4.08764161368e-07
9.2739584716e-09
3.88887669737e-07
5.17989256992e-09
3.70165781617e-07
2.59991986692e-08
3.64643054819e-07
4.63617702477e-08
3.57424058716e-07
4.1589767942e-08
3.3754510624e-07
3.58135004637e-08
3.10472753494e-07
2.86262280943e-08
2.80247579703e-07
2.13727885985e-08
2.50097260926e-07
1.46535732183e-08
2.21053035268e-07
8.71422043441e-09
1.94034880485e-07
-2.33351989859e-09
1.7010452821e-07
1.50217097796e-07
1.451420973e-07
6.87685442337e-07
1.28923827436e-07
5.9088872774e-07
1.04069288673e-07
5.43615198161e-07
7.75700677397e-08
5.10496997437e-07
5.3924599793e-08
4.82710461115e-07
3.5185930251e-08
4.57792352101e-07
2.26132639908e-08
4.34904238544e-07
1.4554306813e-08
4.13486389228e-07
8.81349697285e-09
3.93224660541e-07
4.59236039951e-09
3.7414744571e-07
2.11917718437e-08
3.65574777089e-07
5.07341626075e-08
3.63548965329e-07
4.51386493799e-08
3.43283070814e-07
3.86491339967e-08
3.15840059701e-07
3.08923692494e-08
2.85291673194e-07
2.31382981218e-08
2.54815902177e-07
1.59586034698e-08
2.25435341638e-07
9.60248234295e-09
1.98064204801e-07
-1.57469256927e-09
1.73774414736e-07
1.53536296763e-07
1.43564924047e-07
7.00898999397e-07
1.27244128061e-07
6.0132525466e-07
1.02247945559e-07
5.52483223556e-07
7.57936159905e-08
5.18081051446e-07
5.23911536335e-08
4.89282898068e-07
3.35801073288e-08
4.63567206603e-07
2.07831386837e-08
4.40038282036e-07
1.26275573447e-08
4.18104387737e-07
6.94984481919e-09
3.97417068887e-07
2.80789139859e-09
3.77948640797e-07
1.44994608025e-08
3.65700747932e-07
5.22864851267e-08
3.70086070945e-07
4.64398806089e-08
3.49399540879e-07
3.96167473122e-08
3.21512593445e-07
3.1674440061e-08
2.90585688622e-07
2.37765679425e-08
2.59742311997e-07
1.64578536037e-08
2.29992507171e-07
9.97346698278e-09
2.0224084562e-07
-9.58751012598e-10
1.77568938928e-07
1.56971430316e-07
1.35752767636e-07
7.12372324082e-07
1.1920899843e-07
6.10681031832e-07
9.44772738307e-08
5.60465759439e-07
6.89001789519e-08
5.24863435961e-07