/*--------------------------------*- C++ -*----------------------------------*\
| =========                 |                                                 |
| \\      /  F ield         | OpenFOAM: The Open Source CFD Toolbox           |
|  \\    /   O peration     | Version:  2312                                  |
|   \\  /    A nd           | Website:  www.openfoam.com                      |
|    \\/     M anipulation  |                                                 |
\*---------------------------------------------------------------------------*/
FoamFile
{
    version     2.0;
    format      ascii;
    arch        "LSB;label=32;scalar=64";
    class       volScalarField;
    location    "0.75/water";
    object      epsilon.gas;
}
// * * * * * * * * * * * * * * * * * * * * * * * * * * * * * * * * * * * * * //

dimensions      [0 2 -3 0 0 0 0];

internalField   nonuniform List<scalar> 
1504
(
4902.67823915
1229.40995469
327.320960066
99.0696816682
32.2313954181
10.8997264679
3.968775602
1.67970935883
0.863649893509
0.536597065206
0.391942502412
0.31889320324
0.282885973714
0.293435580745
0.358323833941
0.44554392675
0.435271347956
0.3324142636
0.188006366185
0.0449040427287
6171.42639924
1532.38887485
461.997209864
151.824748386
50.4874647445
15.8527603306
5.38041217742
2.11239575073
1.00626455257
0.586357254345
0.404682889969
0.31090537086
0.253364458586
0.24145322769
0.294118063516
0.371189757782
0.381957672442
0.318626471314
0.208563717803
0.0659871756338
5678.83857801
1494.14785923
469.933124443
171.474201635
68.4876886341
22.5862868254
7.32304005218
2.7416244476
1.23386759228
0.681013911189
0.448635760372
0.330744055543
0.255518381938
0.225980181552
0.263031995571
0.331132265441
0.353324767689
0.315899252223
0.227033039359
0.0964498381953
5100.44250185
1372.53410197
441.072186852
170.199478257
75.770304616
28.0813523045
9.55304427221
3.56260952402
1.54815253441
0.81596307051
0.515971311858
0.36769717619
0.276408347274
0.233224736067
0.256077885201
0.318900410804
0.347488434985
0.327816619253
0.252171313939
0.131414911028
4734.95488093
1273.23542588
410.307148404
162.617554949
76.4406579097
30.1851136998
11.0428589606
4.29330919617
1.87764799797
0.97061506253
0.596138617794
0.413193525581
0.307080152582
0.254258562683
0.265570215158
0.325102687179
0.358809454701
0.354383000005
0.288501901078
0.172757539572
4504.07164385
1215.30616829
390.555411051
155.344305534
73.9268746765
30.0044814289
11.7430995936
4.82742547755
2.17261400839
1.12520944988
0.679551009475
0.461132138552
0.341663739859
0.282716441209
0.286095700091
0.342784856279
0.382155920414
0.393434252953
0.335401204613
0.221266246058
4393.71949735
1191.03494188
380.821918185
149.168913946
69.3023890433
28.7246885619
11.9628783264
5.2088139403
2.43097936707
1.27388936976
0.760812630006
0.508773165086
0.378491387388
0.316011819628
0.314320856493
0.368567926825
0.414125149699
0.440988869963
0.390649665856
0.27493737613
4382.55167494
1193.46015726
375.682004133
142.596359828
62.5289737519
26.9890818846
11.962565591
5.4808566552
2.65109276903
1.40898706501
0.834164018976
0.554375500342
0.417529191027
0.354094525165
0.349284789528
0.400664321455
0.452217410085
0.495147837576
0.454570248875
0.32772664832
4575.95780225
1231.23884725
377.14249038
136.946010399
57.105654983
25.6340765164
11.8625929752
5.64278272495
2.81770795096
1.51644606266
0.893099666271
0.596851832413
0.459730817429
0.397962526037
0.391525297367
0.439003367955
0.496318464784
0.556070040867
0.529974430747
0.388424270664
5008.73499333
1309.52123579
382.236800876
132.779299094
55.3327579792
24.840108621
11.6679911028
5.68596324947
2.91087039086
1.57892908805
0.931435424384
0.635790592602
0.506518988564
0.44922185696
0.442330085693
0.484409956906
0.54709104135
0.626464858269
0.623339055961
0.465695653311
5756.54776607
1440.04361526
407.115925684
141.984644075
56.3495639389
24.5347727641
11.4413257182
5.64820410853
2.92643083908
1.58594052001
0.947870637557
0.673070207899
0.559889583851
0.509431954734
0.503113565841
0.537317353805
0.605853607911
0.711169453366
0.742449254429
0.572245482918
6690.24879711
1592.99935508
465.176143207
155.700223001
58.6463355957
24.5562950442
11.2699468476
5.55693432911
2.85138292644
1.53606404804
0.947664389841
0.71263886157
0.621270244245
0.579046371811
0.573794090114
0.596781565254
0.673519138808
0.813202324883
0.889014696185
0.719847177338
7275.80030056
1758.216149
506.293980585
165.270538075
60.4436632294
24.6682900389
11.1276441366
5.34669150233
2.65824987756
1.44023418874
0.940729237155
0.757288843764
0.689252600066
0.65513010904
0.649617271939
0.66007217324
0.747524440283
0.928174857554
1.05229588224
0.900990147013
7132.49280322
1754.6977341
509.833459009
166.757014271
60.6754745132
24.476671619
10.6869641932
4.87189783831
2.35467170658
1.32289698728
0.936675812104
0.804838102759
0.75692255988
0.730455041761
0.718959595017
0.722081644519
0.819010522033
1.04345211802
1.21528355715
1.08822689597
6754.92369194
1667.21913584
492.267142206
162.28078463
59.0582583772
23.2316038848
9.57936770677
4.14294689128
2.00996674277
1.21539252631
0.937958459838
0.845556378574
0.811573468458
0.792153455381
0.766975141089
0.767951265319
0.874189317258
1.13998386082
1.36361042055
1.2742311913
6130.6929492
1535.92814374
457.264302895
152.391700589
54.8831216812
20.6631645316
8.04849120495
3.38583680669
1.71776886097
1.13743677
0.935254244909
0.863776251655
0.836766856858
0.819728884792
0.783683280348
0.781956449729
0.897769153326
1.18625601964
1.47485517943
1.42982925701
5116.07172592
1309.07205306
403.726418548
137.618009046
48.9612275397
17.740905877
6.63231956905
2.81446015834
1.53146800353
1.0821652592
0.910677727816
0.84211150431
0.816171860817
0.795770535066
0.761696419144
0.756158572809
0.871762934832
1.14676909187
1.4932306664
1.51138766322
3746.94724246
1086.90879298
362.595226425
127.399148008
44.985962877
15.9881186272
5.91367040865
2.5648472831
1.44003087055
1.02241029866
0.846070497502
0.768029058551
0.735031084083
0.714796933425
0.692688260785
0.683812729839
0.768662428851
1.01237288625
1.3677065733
1.49137008335
2999.52288615
1045.14245475
376.590873717
136.812580411
47.8319314181
16.3439553345
5.90529829466
2.54111061162
1.39471890417
0.946229442369
0.745083606461
0.6491954792
0.603454104398
0.584720762817
0.576372878587
0.570892813614
0.614009803785
0.805990804348
1.10763240223
1.35040762335
3667.00672645
1336.37848472
478.749104569
165.195758965
55.171016999
18.6871071329
6.82313738881
2.86892011501
1.46312187532
0.900935369648
0.64769077151
0.523639504787
0.461351515752
0.436437203363
0.433017764736
0.434568193798
0.454263039494
0.559614645908
0.798732454988
1.09341633349
5587.70682086
1890.19253211
581.991694017
184.262488594
61.5728304333
22.5043117368
8.99970857671
3.80466340924
1.776949086
0.958719383514
0.606109409452
0.440540559282
0.355706512387
0.314447624727
0.302751702781
0.305884380875
0.318548436843
0.368819339768
0.532346827791
0.801775675339
7430.68984003
2036.90400001
602.457015615
190.852382561
66.8952676782
27.0521785282
12.1093152439
5.26985954086
2.34428585451
1.15184449263
0.646471160307
0.421233055369
0.307663460943
0.246239640256
0.218740171517
0.214975755882
0.223669212706
0.251917541971
0.342565045963
0.566295627489
6970.70647425
1868.93896979
560.959572766
187.573423625
71.911378512
32.0958044802
15.8269727364
7.06031699925
2.98894849948
1.42165719275
0.755042106015
0.45752258085
0.309853566946
0.227378104155
0.183726635408
0.16916583819
0.172634720258
0.190968433472
0.247875772221
0.419304981655
6386.64629373
1734.60604144
518.746956026
176.884046822
72.0093111596
35.0151504009
18.7765307582
8.84064282374
3.61448683263
1.69833547186
0.894847219253
0.527568152662
0.34349471735
0.239685698057
0.181872987163
0.157206704328
0.154766512582
0.167051674889
0.208420451008
0.337590245655
6171.90005097
1648.28190033
478.165010047
161.461257565
67.8552161266
34.9282101307
19.6636924422
9.44326488455
4.11525480658
1.96295562314
1.04055702969
0.612145038736
0.392662807405
0.268181197251
0.198678576329
0.166132666381
0.158370575332
0.166102575864
0.198159300088
0.30128754737
6271.55220764
1616.76666628
449.669774753
148.818859145
63.2216232877
33.4777057756
18.9659675341
9.0915689452
4.256844282
2.12229933608
1.15605369401
0.691506105547
0.444553511922
0.303483158227
0.225769636777
0.188047483238
0.1761023914
0.180217705035
0.205968483451
0.29550413914
6713.51702326
1646.56939972
441.746580765
143.734607155
60.3158194698
31.3433348347
16.7437233736
8.33485127364
4.16290622581
2.18133849604
1.2313450755
0.753812395965
0.489745986233
0.339134289803
0.258102059613
0.218444720239
0.203972200085
0.205343374007
0.226838361348
0.308496806013
7458.49583685
1763.77807269
463.588779388
148.311990506
60.3560586275
29.2017617111
15.0627526879
7.79111754371
4.08126668644
2.21929865779
1.28964369109
0.803234946908
0.52759022997
0.374244537747
0.294586956314
0.255661319365
0.239894362344
0.239038996641
0.257252427949
0.335103985345
8472.465069
1971.14647734
525.939150473
167.090875896
64.4943441878
30.1393010445
15.2986972155
7.9735284959
4.22993232957
2.32416091078
1.36023409886
0.846822742013
0.560678355321
0.410422311654
0.335898414139
0.299328566426
0.282894701325
0.279850999341
0.295095673174
0.37048247194
9367.12213305
2214.11477402
630.186059986
207.161427729
80.9931312313
36.4067493413
17.7496754006
9.02530396446
4.6961487896
2.53957498775
1.45498483656
0.887001780112
0.59275014648
0.450309333938
0.383070741049
0.349386986292
0.332083760073
0.32658605394
0.338391403515
0.410796183051
9081.39545732
2371.52103157
739.986889655
262.66138429
104.504255195
45.6856983038
21.5451687347
10.6296873789
5.39127786038
2.82958036599
1.55474644978
0.923872178022
0.628010904673
0.496435495643
0.436764068436
0.405293661104
0.386444509638
0.377463766954
0.384843516682
0.451557958108
7708.49412716
2289.42588458
789.684422639
298.880675721
121.372285434
53.0480463341
24.7526965039
12.0639627959
6.0424875864
3.07960964416
1.62626864542
0.957919252246
0.669846265265
0.549854421692
0.496073700896
0.465512842382
0.443818553396
0.430076163442
0.431077492608
0.487286434298
6129.77530043
2032.73499924
741.624141233
291.087246944
121.844212393
54.3948464753
25.7003536904
12.6451019523
6.33734887917
3.16866654869
1.65149032626
0.990547925883
0.719075041199
0.608204511328
0.557244955259
0.525924620283
0.500568949517
0.480054839151
0.472407617234
0.510574888589
5008.30711217
1662.8928057
618.96370259
250.58676876
108.682092082
50.0826673622
24.2643145637
12.1900489556
6.15258854093
3.07381638418
1.63766056465
1.02526642793
0.772126397137
0.664172695547
0.611801226717
0.578813720498
0.54944150178
0.520651789041
0.501381216305
0.515975710703
4481.53673138
1386.62437622
503.511661111
205.012612825
91.0269038867
43.0703411593
21.3909389305
10.9594851388
5.58590340359
2.86410346302
1.61394787513
1.06467708132
0.818982421761
0.704100511696
0.646224556127
0.610643576738
0.578576814654
0.540959905389
0.508535490806
0.500622294556
4204.88983341
1215.8670391
422.026213537
168.973906175
75.2927362086
36.0033481779
18.1320775393
9.39777998885
4.8944869594
2.67752119943
1.62892554211
1.10984516026
0.845101972928
0.712069976214
0.644071842107
0.604615176106
0.572110033332
0.529981352913
0.484764919211
0.459050254758
3928.90361724
1106.9483345
374.116644234
147.068667382
64.5313045597
30.4977069389
15.3206046677
8.06141295613
4.4677956285
2.70720430896
1.7470247786
1.16812262206
0.845089222351
0.680425382909
0.596908250251
0.550307182774
0.515734292307
0.475137059533
0.428471099783
0.391736026828
3404.87618288
1022.32205071
356.081384893
140.205358257
60.0237285767
27.7054621999
13.9377304089
0.00136596587589
0.00180602043531
0.00283505285508
0.00511399484459
0.0100790441645
0.0202562396636
0.0384900166258
0.0653081259894
0.0978687419578
0.132856345699
0.169004059497
0.20786796912
0.255095067027
0.324902425074
0.453086436067
0.732338572418
1.43218801149
0.00699293686054
0.00246170843329
0.00146563895721
0.00152266923764
0.00205403713334
0.0033130969136
0.00608751559999
0.0119991374207
0.023623296791
0.0432472522608
0.0703789175533
0.101841963055
0.134741776834
0.168234278779
0.203998273528
0.247411540501
0.311841002024
0.431120406365
0.691368637909
1.31797098771
0.00677028483184
0.00316149538195
0.001682369195
0.00171475306957
0.00236118931459
0.00390642698365
0.00727557933815
0.0142580121278
0.0273580969952
0.0481480274691
0.0752489422354
0.105404857163
0.136175300765
0.167079229397
0.19987571313
0.239657247889
0.298939740798
0.409727848945
0.653145749212
1.2195105034
0.010921851449
0.00362502909242
0.00196655165696
0.00195351362965
0.00274562439761
0.00464689607529
0.00872515483026
0.0168989032652
0.0314531929079
0.0531398015819
0.0798907892647
0.108570261288
0.137190333104
0.165578789484
0.195541756103
0.231877111904
0.286247841717
0.388902430747
0.617343596158
1.13706438183
0.0209771515522
0.00344569451106
0.00233334380542
0.00225370343782
0.0032303594187
0.00557309176258
0.0104881383654
0.0199575010198
0.0358827264359
0.0581644737483
0.0842771712502
0.111345370964
0.137811004562
0.163762533553
0.191027132178
0.224104069347
0.273800430104
0.368616217559
0.583448081269
1.06945179791
0.0328853489476
0.00331972144773
0.00276239692307
0.00263542210018
0.00384577959393
0.00673273570954
0.0126213897466
0.0234589179095
0.04060548027
0.0631636951666
0.0883826557844
0.113733654812
0.13805428566
0.161651453735
0.186352956853
0.216359515392
0.26161964336
0.348834451951
0.550875062428
1.0144517278
0.0581732954923
0.00421155170353
0.00318823263707
0.00312743362603
0.0046324028248
0.00818428779646
0.0151836855755
0.0274118937891
0.0455647671393
0.0680765788684
0.0921777578763
0.115729247656
0.137925067882
0.159253576805
0.181526750037
0.208649622411
0.249710863273
0.329516371172
0.519017842243
0.968928585933
0.0912655159985
0.00690112182929
0.00357561418626
0.00376985101416
0.00564130867728
0.00999312201711
0.0182237455718
0.0317951938071
0.0506796360325
0.0728279449161
0.0956167570164
0.117307398153
0.137409189687
0.156558922445
0.176538755342
0.200962354105
0.238059661883
0.310614638954
0.487306028901
0.929015717534
0.130025845484
0.012794874562
0.00402113287394
0.0046140457485
0.00692944467065
0.0122185185965
0.0217582115771
0.0365394350021
0.0558336499551
0.0773177915672
0.0986309311597
0.118422225734
0.136474401087
0.153542374965
0.171365801616
0.193271845032
0.226635824571
0.29208125783
0.455278387223
0.8904391587
0.174817809312
0.0235564585713
0.00472512961722
0.00572482348667
0.0085510856815
0.0148948510428
0.0257501029705
0.0415189280294
0.0608764189226
0.0814262307742
0.101137719331
0.119018678322
0.135083227522
0.15017623986
0.165983190903
0.185549850336
0.215404869103
0.27387761129
0.422640033006
0.848997799606
0.229145511644
0.0395819779506
0.0059507490846
0.00719935914585
0.0105493242874
0.0180147739552
0.0301009113838
0.0465632847895
0.0656424929827
0.0850333599113
0.103060858969
0.119051352978
0.13320943903
0.14644426697
0.16037688883
0.17777745225
0.204340480627
0.255986102652
0.38924828621
0.801166859252
0.299236514972
0.0612856213035
0.00814989436385
0.00921754921172
0.012950223447
0.0215199358455
0.0346601074376
0.0514838339298
0.069978078485
0.0880422329023
0.104349551875
0.11849965315
0.130849589382
0.142350443704
0.154550778115
0.169952198794
0.19343344477
0.238423155209
0.355230537911
0.744497281881
0.392868082998
0.0946750191472
0.0123073732565
0.012145830507
0.0157748112608
0.0253141098654
0.0392584305142
0.056112965425
0.0737720636255
0.0904014208251
0.10499439273
0.117378617889
0.12803026614
0.137924102853
0.148530836514
0.162092550828
0.182696908315
0.221236989358
0.320881854076
0.678037810869
0.518687754527
0.148389448579
0.0204832478651
0.0166374675521
0.0190932972916
0.0293118229335
0.0437613411955
0.0603455091715
0.0769801706782
0.0921172269429
0.105032182357
0.115739426764
0.124806456763
0.133217581527
0.142362960947
0.154236166753
0.17216498974
0.204502720725
0.286600464867
0.602400304608
0.659961154838
0.223639320002
0.0367513874883
0.0233487061924
0.0231067952335
0.0334772009091
0.0480874174164
0.0641349023674
0.0796069317823
0.0932306993052
0.104522875962
0.113648461108
0.121243475407
0.128291015742
0.136100105228
0.146428338875
0.161879687894
0.188299401224
0.25283930327
0.519521247476
0.81199952349
0.318890954448
0.0696954814053
0.0316430159341
0.0282545340132
0.0378146732919
0.0521680737671
0.0674437788673
0.0816600041295
0.0937809407606
0.10352205339
0.111167300117
0.117402527983
0.123201620345
0.129793522111
0.138713116544
0.151878614076
0.172684212585
0.220020053067
0.432420944709
0.984473215346
0.431820821439
0.115721113333
0.037776689311
0.0354170945406
0.042435850775
0.0559671850717
0.0702558840287
0.0831644591161
0.0938223657425
0.102099185439
0.10837024033
0.113356446003
0.118017112188
0.123503326616
0.13113976928
0.142194201416
0.157676073744
0.188480525332
0.34498937776
1.12316264485
0.558678734716
0.161926503585
0.0402599265109
0.045020513343
0.0477837451415
0.0596121254105
0.0726627570628
0.0842255226903
0.0934709328259
0.10037129001
0.105368561691
0.109207475866
0.112829449293
0.117309433425
0.123768779124
0.132846677456
0.143230042969
0.158437138851
0.261543923266
1.1961559041
0.659025558582
0.246012144212
0.0592553315104
0.0494872700465
0.0545984119332
0.0634523034964
0.0748667777569
0.0850108485216
0.0928782004475
0.0984744724338
0.102282769294
0.105062280642
0.107734324341
0.11129966781
0.11669068719
0.12401781918
0.130090776625
0.132269100384
0.188412657998
1.16718632491
0.73139159377
0.331710249197
0.0857265290525
0.0366748259341
0.0614520651323
0.0680855915083
0.0771594208348
0.0857083327532
0.0921857308374
0.0965207738196
0.0992028007978
0.100993928703
0.102792840394
0.105534848477
0.110035733964
0.11633470119
0.121260639506
0.118021744827
0.135317880612
1.04421109719
0.751513583018
0.390603812383
0.1317441189
0.0360609188715
0.0551219492341
0.0739735460298
0.0800120588366
0.0865690079697
0.091551179129
0.0946203032402
0.0962111915348
0.0970666896428
0.0980526800475
0.100032046267
0.103701917213
0.109122150056
0.114028602278
0.110645841786
0.0998366638826
0.884245130572
0.730115726634
0.424250734359
0.183714413532
0.0510583519742
0.0337641396338
0.076524711808
0.0841019836498
0.0879364954059
0.0911644463279
0.0928930997768
0.0933934469306
0.0933457158195
0.0935606782458
0.0948099001019
0.0976355260727
0.102043129666
0.10703543189
0.109198845422
0.0911557251393
0.735829286403
0.688307285445
0.457113301599
0.23381102208
0.0719055870954
0.0305339934125
0.0613417641311
0.0893602154785
0.090252844368
0.0912386046596
0.0914561330419
0.090825446025
0.0898864267067
0.0893542704492
0.0898804336017
0.091808262584
0.0949633117053
0.0993542103055
0.108639800652
0.121822368863
0.621106499565
0.651073483005
0.494580304582
0.284291306774
0.108961708748
0.0431865785414
0.0384500731644
0.0904177699492
0.0940703555406
0.0920453016386
0.0904543667557
0.0886055300273
0.0867711340039
0.085508334361
0.0853181376024
0.0863349175695
0.088172514254
0.0916211592207
0.10619571646
0.158554719363
0.549900117348
0.633543858796
0.540814989982
0.340393931996
0.156330902213
0.0520681033582
0.0326087323412
0.0750768566266
0.0994029299491
0.0941220758908
0.0902195948866
0.086986234585
0.084220371699
0.0822235842758
0.0813106943563
0.0814436763968
0.0822127848338
0.0855622538981
0.105449373373
0.196286717559
0.518935364956
0.638291197187
0.598223514088
0.412111240654
0.217034012316
0.081599144994
0.0424438222766
0.051069319744
0.102148386322
0.098313540135
0.0912917232074
0.0863741157239
0.0826025039882
0.0799024263728
0.0784398900156
0.0783286694582
0.0799834248427
0.0866504518103
0.115709572681
0.250366341255
0.518048148733
0.662515810028
0.665038617471
0.502384683118
0.294579852414
0.125094102222
0.0560449517658
0.0401970679203
0.0902411373435
0.104552176596
0.0943737322107
0.0873878905569
0.0826050896953
0.0793557814685
0.0776301737869
0.0778224241658
0.0814438248846
0.0941369418506
0.139208585894
0.334242743521
0.537208608618
0.702005512145
0.741668732924
0.608971346626
0.383107988533
0.185289463725
0.0745008671994
0.0459813429156
0.0654831295296
0.107464273148
0.100564369584
0.0915888866239
0.0864253877382
0.0838773787033
0.0835195466619
0.0859177422705
0.0938748367236
0.116547372068
0.187844414283
0.468370312448
0.56849788367
0.752592279779
0.824496106229
0.728142763754
0.496989449747
0.270030138605
0.118208104086
0.0656023530719
0.0486643556068
0.0938632601568
0.110192879572
0.103880063048
0.101924349368
0.104729660101
0.110886055828
0.121428909588
0.141454485337
0.1862012668
0.306263938529
0.708846962953
0.609344186776
0.809991766018
0.912913842163
0.857001514549
0.638582028424
0.386212352876
0.182345365421
0.0777776215328
0.0508230474514
0.0680516952069
0.118840283192
0.136809377408
0.148013247111
0.164030158702
0.18454094435
0.211876617105
0.255627718656
0.341800501949
0.546223168617
1.12502565921
0.654265855003
0.872527684149
1.00517057185
0.982684982068
0.785959563979
0.509438256322
0.265514130534
0.117599717879
0.069472095717
0.0539100491769
0.114025214965
0.194143671787
0.239860522122
0.277309562026
0.319167820761
0.371673727488
0.452349517839
0.606108473565
0.948772815789
1.80000140299
0.695836387474
0.937839982221
1.09498574925
1.09278924063
0.927786470989
0.646770232052
0.360575791654
0.167514443759
0.0773180314444
0.0622413866641
0.0966151722929
0.232940032517
0.358445405927
0.433457670907
0.502277569352
0.587079281829
0.716587051714
0.966574582264
1.5261832956
2.83345965983
0.724924811155
0.997705321243
1.17179064135
1.18165566565
1.04474773524
0.777909428503
0.448244988016
0.22674168549
0.11033991926
0.0861748117793
0.0894148274411
0.214438582278
0.445930617973
0.606316772056
0.694272042522
0.804205244164
1.01499517762
1.38698213551
2.23127707115
4.25086396466
0.731208215105
1.03284471018
1.2156641776
1.2353599067
1.12294737723
0.89782542294
0.563220927104
0.310366990907
0.161003022628
0.100092379197
0.104377725532
0.166380787533
0.412785632113
0.626663972635
0.467377175267
0.366742462394
0.479358791086
1.32050279025
2.97527312576
5.97952117511
0.706085375471
1.01250409951
1.20474919491
1.23636677908
1.15145876669
0.987135577812
0.698001147894
0.440388607709
0.250905070571
0.152760833467
0.141487419319
0.15682669086
0.251963157848
0.332995182821
0.286784023378
0.299241560992
0.342120769008
0.43942588591
1.61285258883
8.00978321911
0.632451122353
0.915401847321
1.1246170755
1.16685160517
1.10807693021
0.994071608663
0.787442909199
0.575402851921
0.428779342834
0.294218510818
0.212725498493
0.19040322642
0.242493307463
0.288108282215
0.354659602663
0.414475848325
0.719828474923
0.496931936695
0.563195722312
8.49154551427
0.519336403254
0.752730062832
0.964131280203
1.02065279575
0.988026306443
0.911556390046
0.781925230174
0.640546715569
0.529611913737
0.459475099493
0.412938080215
0.349544926762
0.3092619339
0.322996922632
0.43624519043
0.652238580087
1.58949522648
0.548162259989
0.515236765783
6.32470585558
0.400205089408
0.554838218837
0.739591473416
0.816920840946
0.80982536231
0.763422893049
0.685840408958
0.600118635777
0.529265318433
0.477262113075
0.428733178921
0.372679690096
0.337390118111
0.395439571617
0.516525441616
0.907627906783
4.1776831766
0.6417031184
0.442385229599
4.59322102066
)
;

boundaryField
{
    emptyPatch
    {
        type            empty;
    }
    minY
    {
        type            fixedValue;
        value           nonuniform List<scalar> 0();
    }
    maxY
    {
        type            inletOutlet;
        inletValue      nonuniform List<scalar> 0();
        value           nonuniform List<scalar> 0();
    }
    water_to_cooler
    {
        type            epsilonWallFunction;
        blending        stepwise;
        value           nonuniform List<scalar> 
38
(
15.8204231363
14.8760362352
14.0058509965
13.206076317
12.469248495
11.7850678429
11.1409691615
10.5230999806
9.91775197724
9.31313235517
8.70137588451
8.07867317597
7.44674248206
6.8120528833
6.18428220586
5.57522769932
4.99805645544
4.46652674256
4.00774445338
3.66756031627
3.41266734014
3.26398015131
3.23890389367
3.21847200482
3.19047746303
3.23600850146
3.53465646592
4.48835798361
6.99393076184
12.061115175
20.4208824865
32.3685586476
47.0401775488
62.8398981392
77.1117314495
64.3232176744
33.1480245613
18.708302816
)
;
    }
    water_to_heater
    {
        type            epsilonWallFunction;
        blending        stepwise;
        value           nonuniform List<scalar> 
60
(
16519.9952255
16519.9952255
19769.9162742
18516.1432046
17007.5496406
17007.5496406
15919.0295655
15919.0295655
15321.9237817
15321.9237817
15098.1907618
15354.5969994
16157.9350068
16157.9350068
17751.9803927
17751.9803927
20116.1370648
20116.1370648
22720.0738206
23917.7821391
23012.6539791
23012.6539791
21033.1580045
21033.1580045
18284.7703273
18284.7703273
13990.1749494
10036.8647347
9302.23268002
9302.23268002
13075.5619194
13075.5619194
21613.559514
21613.559514
29780.1312462
30324.4053454
28868.0403834
28868.0403834
28119.3031083
28119.3031083
28556.6941423
28556.6941423
30070.0382314
32731.4283754
36318.9765235
36318.9765235
39367.4136187
39367.4136187
37063.8126802
37063.8126802
29678.6595525
22427.7885508
17326.3149651
17326.3149651
14282.6545671
14282.6545671
12358.1604051
12358.1604051
10728.9401877
9283.82984595
)
;
    }
    procBoundary3to1
    {
        type            processor;
        value           nonuniform List<scalar> 
41
(
7.69756305685
4.74607684523
3.1711895732
2.05946245095
1.27646651861
0.83982677983
0.622872402327
0.514108045357
0.453514368785
0.414942813369
0.380914796621
0.344649526776
0.308494767406
3114.79039927
1036.24987335
379.775424751
149.830851413
63.0054253753
29.2060690096
7.69756305685
15.0936290279
0.29574560484
0.362777245286
0.508821985134
0.592058296254
0.613247804935
0.593241096776
0.54980822962
0.49848972799
0.450224714787
0.404548925623
0.354110249608
0.306172038409
0.311761425212
0.415896965252
0.571793115712
2.11497335093
5.52885067148
0.646051174933
0.401667096558
3.56170042752
)
;
    }
    procBoundary3to2
    {
        type            processor;
        value           nonuniform List<scalar> 
41
(
2841.96995912
905.589953847
261.848327313
76.952067621
23.7427263572
8.03802584358
3.11674931563
1.44677972056
0.808176734081
0.536574600309
0.417348349521
0.365120420115
0.356660156749
0.389384054219
0.461492466767
0.547349788569
0.503019467835
0.347909613884
0.15901238532
0.0280549378495
0.00123571418794
0.00160257455178
0.00244604123314
0.004313527291
0.00845139099941
0.0172471446051
0.0339188331585
0.0600617852227
0.0934626163247
0.130470437381
0.169332167601
0.211427025999
0.262647297993
0.338062087367
0.475621785131
0.776315812158
1.56220457323
0.00676012181556
0.00192052407291
0.00129667625719
0.00129667625719
)
;
    }
}


// ************************************************************************* //
