/*--------------------------------*- C++ -*----------------------------------*\
| =========                 |                                                 |
| \\      /  F ield         | OpenFOAM: The Open Source CFD Toolbox           |
|  \\    /   O peration     | Version:  2312                                  |
|   \\  /    A nd           | Website:  www.openfoam.com                      |
|    \\/     M anipulation  |                                                 |
\*---------------------------------------------------------------------------*/
FoamFile
{
    version     2.0;
    format      ascii;
    arch        "LSB;label=32;scalar=64";
    class       volScalarField;
    location    "0.75/water";
    object      Tf.gasAndLiquid;
}
// * * * * * * * * * * * * * * * * * * * * * * * * * * * * * * * * * * * * * //

dimensions      [0 0 0 1 0 0 0];

internalField   nonuniform List<scalar> 
1504
(
317.783873103
305.521212579
301.77019416
300.748757983
300.453176346
300.32396779
300.242489493
300.17948353
300.127676909
300.084572818
300.048583431
300.020376404
300.00428751
300.000279249
300.000006199
300.000000874
300.000000049
300
300
300
323.339532093
308.039022449
303.224171275
301.328482117
300.634791992
300.389074854
300.282176389
300.209168918
300.1503348
300.101327183
300.060119627
300.026793716
300.006360886
300.000532626
300.000018693
300.000002409
300.000000265
300
300
300
326.913991311
309.784687991
303.964428571
301.666446295
300.791730371
300.462818624
300.320783901
300.23708488
300.171928739
300.117628495
300.071702855
300.033759321
300.00910357
300.001024405
300.000057445
300.000006602
300.000000859
300
300
300
328.645763602
310.640570108
304.317432746
301.831379181
300.869889179
300.51390994
300.352161858
300.259556318
300.189977851
300.131809125
300.082191204
300.040587258
300.01238607
300.001816481
300.000142081
300.000015512
300.000002251
300
300
300
329.685908061
311.003939872
304.411503678
301.86852234
300.895862644
300.535460637
300.372406077
300.275787655
300.203464635
300.142677103
300.090307376
300.046182421
300.015654547
300.002868137
300.000290881
300.000029777
300.000004641
300.000000284
300
300
330.235717817
311.123011454
304.375212057
301.833867559
300.887213651
300.542293847
300.384118591
300.28717809
300.213312777
300.150530142
300.095746691
300.049800463
300.018047281
300.003887473
300.000494047
300.000047476
300.000007829
300.000000765
300
300
330.675834537
311.076622141
304.233490986
301.740584537
300.853488658
300.54161497
300.391296507
300.295291086
300.220294186
300.155661351
300.098592577
300.051495615
300.019373243
300.004599368
300.000678427
300.000068885
300.000011311
300.000001311
300
300
330.782238316
310.81357472
303.954788657
301.587624391
300.805476854
300.540830489
300.397800161
300.301408085
300.22476617
300.157968392
300.098890153
300.051410758
300.019702699
300.004959676
300.000800175
300.000088361
300.000014417
300.000001785
300
300
330.658713332
310.351964698
303.592220444
301.444216504
300.798596615
300.550602054
300.405502514
300.305763252
300.226469405
300.157024175
300.096667924
300.049741525
300.019196336
300.005008024
300.000855448
300.000100749
300.000016746
300.000002108
300
300
329.947826964
309.570572736
303.135298438
301.377116997
300.833871759
300.568183598
300.412614272
300.30730513
300.224456202
300.152326108
300.09195536
300.04671388
300.018055979
300.004828419
300.000854122
300.000105346
300.000018126
300.000002199
300
300
329.048319802
308.864783991
303.064171306
301.518640409
300.894300002
300.588976461
300.417158492
300.304970337
300.217707268
300.143923056
300.085191112
300.042795059
300.016581151
300.004533264
300.000824887
300.000105075
300.000018666
300.000002099
300
300
328.070985954
308.746528567
303.599198048
301.742402364
300.969691669
300.608452746
300.417812953
300.297563647
300.20579793
300.132618247
300.077334255
300.038676125
300.01512382
300.004247607
300.000792708
300.000105949
300.00001874
300.000001888
300
300
327.825502504
310.029396035
304.177595856
301.954740416
301.032483241
300.62048664
300.412092078
300.282884118
300.189696286
300.119970621
300.069632516
300.035081698
300.014005137
300.004071407
300.000788408
300.000113168
300.000018523
300.000001592
300
300
328.170338377
310.769851889
304.470893994
302.050641161
301.054649459
300.614914934
300.39297895
300.261356173
300.17154523
300.108010362
300.063367567
300.032651572
300.013497463
300.004103378
300.000845083
300.000131298
300.000017726
300.000001168
300
300
328.807702121
310.893946148
304.431594454
302.011750099
301.015716394
300.574933965
300.360333736
300.235922298
300.15458547
300.09889187
300.059692568
300.031910328
300.013855601
300.004463415
300.001013016
300.000159665
300.000015901
300.00000064
300
300
329.309563172
311.141107179
304.392828652
301.903944938
300.920782463
300.514947429
300.321621515
300.212293383
300.142410252
300.094542702
300.059479531
300.033349462
300.015337699
300.005316564
300.001280298
300.000200081
300.0000151
300.000000235
300
300
326.472378416
310.645891748
304.086904208
301.677120275
300.793330829
300.445130669
300.285900576
300.196077903
300.138088972
300.096108993
300.063260306
300.037092251
300.018012304
300.006637005
300.001661662
300.000260721
300.000018915
300.00000013
300
300
320.18734106
308.76231161
303.421523755
301.384136047
300.650405297
300.383120253
300.261905514
300.191530813
300.142386677
300.103831896
300.071079854
300.043418693
300.02215009
300.008577116
300.002232933
300.000360303
300.000028859
300.000000307
300
300
315.413786183
306.921696257
302.741004968
301.077649548
300.529515686
300.345979135
300.258802429
300.201193945
300.156837214
300.118637755
300.084032759
300.053286498
300.028398251
300.011555646
300.003173959
300.00054258
300.000049911
300.000000663
300.000000636
300.000000001
314.073577698
306.62278121
302.576926999
300.895014336
300.492296604
300.358907935
300.283375823
300.22858541
300.183465406
300.142407929
300.103633567
300.067858841
300.037636088
300.016089898
300.004673444
300.000847761
300.000086481
300.000001082
300.00000112
300.000000516
318.568442856
309.362240009
303.73739823
301.245682304
300.615408109
300.428632226
300.336960441
300.273834791
300.222185482
300.174975892
300.129934226
300.087394122
300.050192833
300.022421194
300.006842897
300.001305606
300.000143457
300.000002029
300.000001126
300.0000009
334.189160313
313.157579908
305.222101081
301.953894306
300.879382838
300.555607761
300.418561384
300.33256561
300.267929255
300.211876247
300.159643586
300.109935778
300.065112644
300.030223676
300.009647062
300.001929875
300.000226091
300.000006062
300.00000085
300.000000893
344.128456693
315.518623625
306.094515503
302.406033555
301.111578414
300.67909557
300.501697127
300.392624778
300.311900716
300.246165803
300.187308243
300.131637371
300.080113965
300.038484958
300.01280925
300.002690176
300.000336041
300.00001369
300.000000626
300.000000556
347.280346675
316.441269518
306.361355248
302.540320377
301.193006435
300.729227529
300.539864002
300.427835904
300.343564805
300.27224326
300.208860883
300.149192668
300.092870637
300.045967514
300.015955393
300.003539256
300.000477346
300.000027064
300.000001021
300.000000182
348.053158916
316.376569408
306.132238877
302.429578021
301.160551834
300.725124414
300.544968628
300.43838377
300.357698308
300.287034071
300.222454102
300.160907848
300.101851582
300.051720402
300.018807387
300.004482065
300.000670832
300.00005115
300.000002631
300.000000024
347.658800498
315.61217862
305.691138564
302.235483052
301.086216163
300.699551828
300.537834542
300.439623029
300.361851739
300.2925166
300.228169869
300.166126061
300.105953844
300.054843194
300.020866636
300.005374888
300.000891334
300.000084344
300.000005182
300.000000129
346.22866353
314.63204222
305.138481978
301.988219345
300.994839371
300.666655421
300.525877648
300.436985391
300.361387432
300.292816504
300.228504096
300.165995386
300.105431833
300.054782304
300.021412753
300.005867345
300.001078481
300.00012098
300.000008019
300.000000374
344.378316061
313.584358473
304.542077431
301.731687537
300.906888943
300.638426087
300.519330529
300.433833986
300.359078031
300.29032112
300.22536901
300.161853342
300.101457425
300.052414349
300.020762911
300.005926698
300.001168559
300.000147856
300.000011202
300.000000706
342.746577304
312.61716776
304.006749962
301.528033801
300.848539194
300.629770337
300.517760524
300.432317145
300.356812885
300.286719959
300.220043033
300.154847421
300.095328264
300.048840448
300.019543592
300.005760201
300.00119807
300.000164415
300.000014359
300.000001043
342.0127811
311.980868227
303.676030186
301.461528809
300.873361555
300.648311972
300.524585181
300.434181034
300.355788361
300.282921959
300.212932864
300.146143045
300.08841745
300.045127546
300.018349211
300.005598432
300.001220227
300.000179123
300.000017039
300.000001441
339.865963501
311.549437944
303.842804918
301.71411228
301.004971645
300.703817605
300.545694389
300.441355329
300.356571456
300.278695516
300.204249727
300.137004645
300.081975181
300.042127622
300.017618639
300.00560925
300.001283809
300.000199218
300.000020012
300.000001836
331.706074699
311.174512088
304.50309732
302.165328024
301.22470153
300.798603792
300.582730561
300.454166754
300.358249438
300.272664374
300.194645641
300.128478143
300.076875277
300.040362857
300.017611587
300.005915203
300.001426071
300.000234204
300.000023398
300.000002343
324.197614481
310.752486687
304.992075735
302.542178139
301.431660157
300.895079887
300.622415473
300.467177201
300.35698212
300.263802693
300.184595158
300.121200527
300.073577748
300.040084459
300.018482069
300.006614361
300.001694619
300.000294521
300.00002998
300.000002955
320.320263587
309.582139346
304.821939309
302.602066973
301.502371346
300.937755341
300.640994356
300.469473982
300.348117579
300.251630026
300.174525847
300.115632389
300.0723764
300.041471788
300.020400222
300.007853738
300.002162311
300.000403886
300.000044812
300.000003995
318.853080534
308.386708524
304.234811609
302.358985251
301.408468021
300.901696863
300.622754526
300.452048518
300.329973436
300.236557742
300.165204637
300.1123805
300.073661968
300.04482331
300.023674945
300.009906461
300.002987292
300.000616705
300.000081306
300.00000567
318.298297708
307.498064826
303.584318002
301.993722313
301.223734803
300.811468201
300.573696668
300.417746591
300.305902077
300.221442965
300.158532845
300.112649627
300.078169297
300.050721751
300.028891837
300.013293969
300.004501741
300.001071568
300.000174345
300.00001612
317.510259475
307.018284477
303.112531779
301.673870321
301.039910351
300.71171839
300.515200386
300.382298422
300.285003476
300.211619491
300.15775299
300.118206053
300.086998015
300.060054783
300.036913986
300.018803936
300.007241327
300.001977133
300.000386097
300.000053686
315.883240116
306.569834282
302.834204143
301.477027406
300.921266978
300.645709791
300.479519144
300
300
300
300
300
300
300
300
300
300
300
300
300
300
300
300
300
300
300
300
300
300
300
300
300
300
300
300
300
300
300
300
300
300
300
300
300
300
300
300
300
300
300
300
300
300
300
300
300
300
300
300
300
300
300
300
300
300
300
300
300
300
300
300
300
300
300
300
300
300
300
300
300
300
300
300
300
300
300
300
300
300
300
300
300
300
300
300
300
300
300
300
300
300
300
300
300
300
300
300
300
300
300
300
300
300
300
300
300
300
300
300
300
300
300
300
300
300
300
300
300
300
300
300
300
300
300
300
300
300
300
300
300
300
300
300
300
300
300
300
300
300
300
300
300
300
300
300
300
300
300
300
300
300
300
300
300
300
300
300
300.000000002
300
300
300
300
300
300
300
300
300
300
300
300
300
300
300
300
300
300
300
300.000000018
300
300
300
300
300
300
300
300
300
300
300
300
300
300
300
300
300
300
300
300.000000042
300
300
300
300
300
300
300
300
300
300
300
300
300
300
300
300
300
300
300
300.000000056
300
300
300
300
300
300
300
300
300
300
300
300
300
300
300
300
300
300
300
300.000000038
300
300
300
300
300
300
300
300
300
300
300
300
300
300
300
300
300
300
300
300.000000006
300
300
300
300
300
300
300
300
300
300
300
300
300
300
300
300
300
300
300
300
300.000000001
300
300
300
300
300
300
300
300
300
300
300
300
300
300
300
300
300
300
300
300.000000002
300
300
300
300
300
300
300
300
300
300
300
300
300
300
300
300
300.000000001
300
300
300
300
300
300
300
300
300
300
300
300
300
300
300
300
300
300
300
300
300
300
300
300
300
300
300
300
300
300
300
300
300
300
300
300
300
300
300
300
300
300
300
300
300
300
300
300
300
300
300
300
300
300
300
300
300
300
300
300
300
300
300
300
300
300
300
300
300
300
300
300
300
300
300
300
300
300
300.000000008
300
300
300
300
300
300
300
300
300
300
300
300
300
300
300
300
300
300
300.000000014
300.000000125
300
300
300
300
300
300
300
300
300
300
300
300
300
300
300
300
300
300.000000036
300.000000073
300.000000149
300
300
300
300
300
300
300
300
300
300
300
300
300
300
300
300
300.000000022
300.00000009
300.000000133
300.000000089
300
300
300
300
300
300
300
300
300
300
300
300
300
300
300
300.000000001
300.000000075
300.000000152
300.000000201
300.000000007
300
300
300
300
300
300
300
300
300
300
300
300
300
300
300
300.000000073
300.000000191
300.000000306
300.000000383
300
300
300
300
300
300
300
300
300
300
300
300
300
300
300.000000038
300.000000218
300.000000542
300.000000965
300.000001361
300.000001587
300
300
300
300
300
300
300
300
300
300
300
300.000000006
300.000000243
300.000000738
300.000001607
300.000002873
300.000004435
300.000006065
300.000007376
300.0000079
300
300
300
300
300
300
300
300
300
300.000000319
300.000001302
300.000002695
300.000004609
300.000007302
300.000010676
300.000014396
300.00001805
300.00002116
300.000023192
300.000023459
300
300
300
300
300
300
300
300.000000436
300.000002259
300.000004859
300.000008474
300.000012936
300.000018423
300.000024638
300.00003081
300.000036338
300.000040804
300.00004395
300.000045474
300.00004485
300
300
300
300
300
300
300.000001519
300.000005314
300.000010534
300.000016675
300.000023698
300.000032282
300.000040898
300.000048523
300.000054799
300.000059557
300.000062835
300.000064693
300.000065018
300.000063576
300
300
300
300
300
300.000001869
300.000007853
300.000015992
300.000025249
300.000034885
300.000044531
300.000054163
300.000062334
300.00006821
300.00007241
300.000075289
300.00007706
300.000077764
300.000077273
300.000075517
300
300
300
300
300.000000575
300.000007436
300.000018098
300.000029919
300.000041567
300.000052135
300.000061089
300.000067922
300.000073101
300.000076586
300.000079079
300.00008105
300.000082469
300.000083084
300.00008261
300.000080994
300
300
300
300
300.000002987
300.000014202
300.000027838
300.000040837
300.000051929
300.000060567
300.000066624
300.000070217
300.000072622
300.000074841
300.000077185
300.000079849
300.000082389
300.000084028
300.000084195
300.000082883
300
300
300
300
300.000005489
300.000018806
300.00003297
300.000044955
300.000053752
300.000059475
300.000062585
300.000063799
300.000064731
300.000066443
300.000069662
300.000074361
300.000079446
300.00008289
300.000084312
300.000083442
300.000000088
300
300
300
300.000006435
300.000019934
300.000032972
300.00004296
300.000049295
300.000052383
300.000053123
300.000052824
300.000052926
300.000054502
300.000058725
300.000065641
300.000074489
300.000081611
300.000084202
300.000083664
300.000000426
300
300
300
300.000005385
300.000017768
300.000029389
300.000037809
300.000042777
300.000044399
300.000043514
300.000042331
300.000042123
300.000044158
300.000049438
300.000057642
300.000068363
300.00008085
300.000084833
300.000084007
300.000000985
300.000000246
300.000000027
300.000000152
300.000003125
300.000013401
300.000023346
300.000030558
300.000034919
300.000036079
300.00003447
300.000033285
300.000033622
300.000036877
300.0000437
300.000053225
300.000065323
300.000081416
300.000085671
300.00008441
300.000004287
300.00000064
300.000000455
300.000000439
300.000001045
300.000008336
300.000016138
300.000021807
300.000024689
300.000024949
300.000024342
300.000024297
300.000026599
300.000032365
300.000041678
300.000054232
300.000069399
300.000082939
300.000087061
300.00008542
)
;

boundaryField
{
    emptyPatch
    {
        type            empty;
    }
    minY
    {
        type            calculated;
        value           nonuniform List<scalar> 0();
    }
    maxY
    {
        type            calculated;
        value           nonuniform List<scalar> 0();
    }
    water_to_cooler
    {
        type            calculated;
        value           nonuniform List<scalar> 
38
(
300
300
300
300
300
300
300
300
300
300
300
300
300
300
300
300.000000001
300.000000002
300.000000005
300.00000001
300.000000022
300.000000047
300.000000102
300.000000223
300.000000481
300.000001011
300.000002066
300.000004096
300.000007299
300.000011185
300.000014782
300.000017544
300.000019467
300.000020845
300.000021874
300.000022665
300.000022426
300.000022723
300.000023219
)
;
    }
    water_to_heater
    {
        type            calculated;
        value           nonuniform List<scalar> 
60
(
788.221932083
788.274126882
788.315497512
788.405172756
788.404094418
788.491744823
788.498237022
788.609756047
788.60662824
788.742242936
788.748167417
788.901027349
788.906471864
789.074506451
789.068088157
789.243392943
789.246016338
789.426745647
789.421182436
789.611274724
789.606880329
789.781514164
789.785871864
789.947928245
789.942407022
790.088599066
790.063141937
790.167245213
790.177007335
790.285185934
790.284267515
790.359357826
790.350238878
790.384120827
790.497710841
790.53572734
790.544168752
790.460298846
790.463710781
790.343382045
790.341651237
790.190087547
790.188259261
790.010253968
790.008314749
789.858663431
789.858002246
789.749427239
789.729088017
789.679432845
789.576353014
789.549064035
789.540723563
789.616703388
789.614426057
789.71754329
789.716658605
789.838011841
789.837291794
789.963628233
)
;
    }
    procBoundary3to1
    {
        type            processor;
        value           nonuniform List<scalar> 
41
(
300.364756281
300.278747587
300.213609357
300.165782034
300.130501094
300.101075789
300.073744323
300.048538231
300.027042944
300.011666918
300.003651096
300.000846723
300.0001561
314.622062769
306.478774458
302.91945384
301.546504693
300.968179147
300.67785622
300.364756281
300.502774053
300.00002396
300.000002834
300.000000813
300.000000652
300.000000653
300.000003671
300.000009192
300.000013474
300.000015686
300.000016142
300.000016538
300.000018031
300.000022306
300.000030497
300.000042529
300.000058361
300.000073072
300.000085322
300.000089533
300.000087662
)
;
    }
    procBoundary3to2
    {
        type            processor;
        value           nonuniform List<scalar> 
41
(
314.216747686
304.930426106
301.401474276
300.598193073
300.379957627
300.279481183
300.209365091
300.153374186
300.107547117
300.069731507
300.038590151
300.015158182
300.002835796
300.000151636
300.00000275
300.000000251
300
300
300
300
300
300
300
300
300
300
300
300
300
300
300
300
300
300
300
300
300
300
300
300
300
)
;
    }
}


// ************************************************************************* //
