/*--------------------------------*- C++ -*----------------------------------*\
| =========                 |                                                 |
| \\      /  F ield         | OpenFOAM: The Open Source CFD Toolbox           |
|  \\    /   O peration     | Version:  2312                                  |
|   \\  /    A nd           | Website:  www.openfoam.com                      |
|    \\/     M anipulation  |                                                 |
\*---------------------------------------------------------------------------*/
FoamFile
{
    version     2.0;
    format      ascii;
    arch        "LSB;label=32;scalar=64";
    class       volScalarField;
    location    "0.45/water";
    object      k.gas;
}
// * * * * * * * * * * * * * * * * * * * * * * * * * * * * * * * * * * * * * //

dimensions      [0 2 -2 0 0 0 0];

internalField   nonuniform List<scalar> 
750
(
0.114008119923
0.0705994422895
0.0439597356007
0.0326375837035
0.0238132697052
0.0164682555289
0.0122441619672
0.00767661696088
0.00529629909714
0.00431123641976
0.0294663969532
0.00366147020723
0.0011851985579
0.000796722175435
0.00151272684816
0.00170103674861
0.00187660388293
0.00204976451168
0.00228274139997
0.00261506848965
0.00308511452588
0.00402477540751
0.00561402976456
0.00827218147028
0.0126412655055
0.0212313906379
0.0399654620107
0.0865913309494
0.204270623464
0.506972685788
0.0322032056574
0.00268080342996
0.00070339404282
0.000515325766341
0.000920202484723
0.00140343986771
0.00182123257633
0.00219451386208
0.00271567976988
0.00354622125255
0.00485033511616
0.00678371325852
0.00946506195277
0.0130929729577
0.0181530306823
0.0267365945235
0.0452370915514
0.0903640420329
0.203292503946
0.49063604567
0.0370535384365
0.0015371657272
0.000443439792
0.000506515500891
0.000830630519144
0.00184082053123
0.00265135744188
0.00333095226222
0.00424898279201
0.00566839495018
0.0075407105738
0.0099971904193
0.0133074307113
0.0170597702442
0.02172822887
0.0295291735499
0.0464547575897
0.0884557620625
0.197155064277
0.480060695232
0.040315322698
0.000952334804494
0.000505564091493
0.000735738643203
0.00148043852182
0.00266395662717
0.00430065818667
0.00488791707545
0.00583019525279
0.00745551951984
0.00952819569757
0.0123192469253
0.0155213239553
0.0189167013491
0.0230440675762
0.0299643773656
0.0454676090007
0.0855950441465
0.192484392356
0.472694227377
0.0445383869171
0.000871510774243
0.000747875837178
0.00116227795906
0.00234596968857
0.00373074849079
0.00602091146342
0.00617892446168
0.00680280354569
0.00806309369832
0.0100679464478
0.0127069131425
0.0157276034728
0.0189149547597
0.0227513547881
0.0292229834759
0.0443871937132
0.0855039018237
0.196131977596
0.480722657643
0.0435197587854
0.000851501264304
0.000935393684023
0.0016308888726
0.00314387810109
0.00479880647869
0.00727466307537
0.00705533322983
0.00757438643662
0.00851550202684
0.00996245468269
0.0121019961361
0.0149290613585
0.0179709676539
0.0217534816137
0.0285919901089
0.0455021306738
0.0925162448874
0.217717219478
0.528868286925
0.0353635185102
0.000874006732887
0.00106878190146
0.00240643583681
0.003745748191
0.00560503778602
0.00817689570198
0.00759889699365
0.00822072399042
0.00916595635051
0.0102119080702
0.0116741476776
0.0137772765725
0.0166160648038
0.0208271127227
0.0292238118615
0.0523948350704
0.11989779064
0.286258533966
0.654784512213
0.0222944514302
0.0010231787989
0.00121604863818
0.00280339116821
0.00400645780404
0.00578966356116
0.008275129637
0.00802141108089
0.00872578645449
0.00967685708146
0.010631696034
0.0118817296197
0.0141778212056
0.0187960268498
0.0275632574924
0.044474027354
0.07916759775
0.154097155795
0.317753391936
0.687186914038
0.0120049493619
0.00132202380078
0.00141179496666
0.00333874630425
0.00361898300232
0.0054748414053
0.00708798609163
0.00790570184509
0.00934297231191
0.0104864958644
0.0110903254966
0.0115406132023
0.0126700535641
0.0156386623076
0.0221679152269
0.0351997092946
0.0600072784776
0.106135683153
0.189355074374
0.333185216949
0.00465704310898
0.00192018440568
0.0016093378972
0.00378990608482
0.00339247648614
0.00402330377358
0.00642562571678
0.00811226016131
0.0094769324017
0.011550994922
0.012845939508
0.0127209348359
0.0123409770591
0.0127578104835
0.0144522479693
0.0182009365832
0.0257812941285
0.039996504522
0.0619049560231
0.0887974819366
0.00905321265039
0.000495431463811
0.00194963962472
0.00328179103315
0.0058163206576
0.00435397935814
0.0042598775615
0.00564726403117
0.0102307596378
0.0120986868679
0.0154747092065
0.0161621391481
0.0153669596313
0.015455270476
0.0162470287767
0.0175385671024
0.0195018146978
0.0224502053527
0.0320914018061
0.0447358336345
0.0222385366576
0.0014377875969
0.000909295552764
0.00303828495379
0.0047811900806
0.00697657636252
0.00864850272074
0.00755951002871
0.00687052449449
0.011096987453
0.015740279948
0.0183408734298
0.0181625410322
0.0192888578903
0.0207557328218
0.022314979662
0.0239459304641
0.035174134477
0.0387429490141
0.0420742459821
0.0254781430668
0.00429307869921
0.000764766854775
0.0032022687439
0.0042473848314
0.00498893146024
0.00595192666973
0.00812043610252
0.0155924745868
0.0118818612891
0.015173977003
0.0205744247294
0.0181334010311
0.0216660592622
0.0244687975185
0.0267212293074
0.028620302644
0.036834071247
0.0445874703471
0.0468780351677
0.0214779428623
0.00704822042437
0.00144011487408
0.00417368197509
0.00617137655863
0.00608402450269
0.0061020736669
0.00696836410737
0.0115285847875
0.0171262192787
0.0128163387823
0.028678944709
0.0094191643984
0.0192536187394
0.0255650784773
0.0294842094422
0.0322404011141
0.034285718348
0.035915973657
0.0523476923539
0.0184309865681
0.0109479321502
0.00344062216829
0.00374471583629
0.0100514545267
0.00969272550775
0.00901717893042
0.00919114211318
0.0128117404019
0.00957204206701
0.0129200275326
0.0315191075896
0.0149794823177
0.0149998864915
0.0248565631616
0.0310387542446
0.0353116727135
0.0384424983615
0.0408428183373
0.0450627542569
0.0185771033733
0.014641269388
0.00765783607357
0.00356579191912
0.00442629689812
0.010109462919
0.0135683430412
0.0143880401925
0.0192858549278
0.00561163866738
0.0154192804451
0.0283708784574
0.0214208930363
0.0127128734022
0.0287768173679
0.0387940201406
0.0418876038861
0.0438241557093
0.045531365787
0.0475559159409
0.0181994461001
0.0166186713124
0.0104824582387
0.00620459461559
0.00403964760784
0.00472942280543
0.00986879238341
0.0134745691537
0.00729672379459
0.0107211239672
0.0208335915362
0.0294723547722
0.0497503019089
0.0703072764219
0.0733910690682
0.0591042776716
0.0510642484263
0.0481368140235
0.0475459117271
0.0484491778237
0.0154272004489
0.0139921547017
0.0101363823849
0.00751881186601
0.00630112221982
0.00623550259789
0.00659801053353
0.0088145526365
0.0143127958703
0.0235792553882
0.0413121811169
0.0638811159695
0.0932053382447
0.0973278812695
0.0733683553995
0.0508274596814
0.0411415219509
0.0371582587028
0.0360624029229
0.0390591336516
0.010150931817
0.00915300535837
0.00892227347636
0.01014538231
0.0118723741002
0.0115351362547
0.0135191627655
0.0192246084162
0.0308252163885
0.0450840514021
0.0629629478614
0.0867568928797
0.104360148032
0.0933961726805
0.0507761383171
0.0318628813314
0.0239269950151
0.0204729865573
0.0199197115412
0.0327454942211
0.00520046987209
0.00650019960707
0.0112251942519
0.015804967677
0.0163700030375
0.0176535991678
0.0232148590274
0.0313118068921
0.042393181991
0.0564099173531
0.0726716906312
0.08646249931
0.0862973092248
0.0616854463703
0.0312359975155
0.0185529359294
0.012905529548
0.0132807317172
0.0158408214529
0.0227551970904
0.00345287347166
0.00613739090608
0.0172942747169
0.024904213038
0.0216336220582
0.0225638828331
0.029015462831
0.0371944846724
0.0473930382938
0.0593551542144
0.0704146422471
0.0739845145268
0.0622208318274
0.0349549669027
0.0179680254468
0.0103562549059
0.00708297202812
0.00731313805289
0.0111365183065
0.0205947768259
0.00300408546585
0.007272862901
0.0206443108693
0.0337672838064
0.0288811726691
0.0279856442267
0.0330765119675
0.0431689924502
0.052475703518
0.0613092515859
0.0664836776852
0.0619403420756
0.0434948148964
0.02181077885
0.0104002832298
0.00590356935911
0.00455742900432
0.00471425451162
0.0104368975005
0.0209155911553
0.0024670785066
0.00526084870544
0.0155907825384
0.0287464703607
0.0349670571189
0.0337341182387
0.0371930351307
0.0466656177768
0.0568462401035
0.065350371429
0.0671137196107
0.0571382185888
0.033149750087
0.0129115587299
0.00584322658242
0.00408148673819
0.00390268248517
0.00456456468198
0.0106508786164
0.0214159232207
0.00173757846151
0.00235951230487
0.0079051532493
0.020325073393
0.0283712468871
0.0354643873484
0.0387871611529
0.048012927225
0.0577330378782
0.0640635245854
0.0656627914296
0.0584101256454
0.0353859192365
0.00908153398581
0.00389046449346
0.0034910764786
0.00382541400928
0.00590726924402
0.0111139439597
0.021928662612
0.00155735921079
0.000977547479306
0.00375177201608
0.0116824355101
0.0221919503775
0.0251987188398
0.0342606195514
0.0438519371363
0.0547242176535
0.0629360202293
0.0657620324706
0.060466676868
0.0415052696312
0.0116524266628
0.00346799418572
0.00342129881309
0.0040359578411
0.00731449177365
0.0117506289088
0.0225267440725
0.00214447811575
0.00108675278254
0.00204098824004
0.0121307206226
0.0136115024694
0.0268264282968
0.0308048355194
0.037368343316
0.0475112508134
0.0583114880604
0.0645882011411
0.0614891025768
0.0442038444777
0.0164715128474
0.00450006188114
0.00360122728577
0.00433399468764
0.0076306280315
0.0123836163877
0.0230238539827
0.00386476106379
0.00400941524731
0.00346679090258
0.00690616574833
0.0199924883033
0.0142663863275
0.0290031204505
0.0361036785562
0.0463408997528
0.0547293771282
0.0631757374865
0.0627110589646
0.046900043314
0.0222669972037
0.00673446351489
0.00409011619473
0.00467505343802
0.00767024649788
0.0129212124803
0.0232766669405
0.00838503049691
0.00793639192386
0.00562241879782
0.00554494495064
0.00791735624686
0.0307883945441
0.0200775389548
0.0458048219167
0.0490911558836
0.0558340617718
0.0634546730869
0.0617833004926
0.0454321929987
0.0254682159713
0.0103312780444
0.0051342151592
0.00504574935238
0.00772542945402
0.0133507285072
0.0232258127761
0.018084207731
0.00866520099789
0.00681534883252
0.00585583040162
0.005138826764
0.0164367585237
0.010497648234
0.0512267920568
0.0489097489165
0.0541526484514
0.0600169237069
0.0563488390213
0.0415355589461
0.0258145877416
0.0155238050061
0.00801957764978
0.00586866093422
0.00664431668364
0.0136228500513
0.0226744386553
0.0161075175252
0.00879676784481
0.0072819483555
0.00510887039587
0.00381996357746
0.00772090241798
0.00919508361841
0.0510661612846
0.0475362486273
0.0530321653288
0.0558219413405
0.0504035469753
0.0386049425945
0.0279087999195
0.0212094276216
0.0125843685957
0.00794836589844
0.00718264543534
0.0122292927895
0.0215358192492
0.00959360255881
0.00505332583956
0.00324906537756
0.00212401636254
0.00187862068683
0.00410270532507
0.0181178527123
0.0461643988007
0.0480601188621
0.0534530159473
0.0524502499957
0.0456702253101
0.037069264434
0.0309027651884
0.0257509566708
0.0169024928095
0.00984392312952
0.0081811494956
0.00866392887966
0.0195309032377
0.00471923530426
0.00286862139324
0.00202955299795
0.00163627257694
0.00226470390692
0.00686731780981
0.0203374848107
0.0417870924371
0.0484921196517
0.0522193556355
0.0494423288701
0.0433856398944
0.0367407048006
0.0323520231098
0.0281006098166
0.0209860334984
0.0150362801839
0.0056071631892
0.00690699655945
0.016462289375
0.00674613294093
0.00410114860788
0.00243040573592
0.00191929215474
0.00298873823294
0.0065621285621
0.0153723022351
0.031425782654
0.0426203706576
0.0471735309525
0.0474617056282
0.0450992578146
0.0401748510777
0.0356507745323
0.0310152779346
0.0263971067379
0.0375395455904
0.0156251337693
0.0153088974541
0.018495269386
0.0118209401994
0.0075009605979
0.00419448416336
0.0029196027066
0.00290980321445
0.00446644206349
0.00853021475351
0.0170081290689
0.0276692214632
0.0357277291376
0.0396869837066
0.0411020338627
0.038827610654
0.0358278837424
0.0321626485549
0.031108258071
0.0790037955663
0.0432691070268
0.0724344461332
0.0447833341103
0.0145188065063
0.00959940830739
0.00517471321732
0.00282940608091
0.00231514881037
0.00257556108959
0.0040492762683
0.00813580548649
0.0152245868679
0.0226907230476
0.0282069301726
0.0316704794146
0.0323867117334
0.0322964198108
0.0315127761566
0.0342650944404
0.0780318278987
0.0502406177706
0.0796646973043
0.0671061881631
0.0187302323232
0.0130440270009
0.00506122585676
0.00219150311276
0.00172084851508
0.00170004992453
0.00231738741996
0.00500499977798
0.0109338099989
0.017883363073
0.0235499155583
0.0267896055338
0.0281433983996
0.029494716512
0.0302827882171
0.0349436151836
0.0422936432809
0.0510755377871
0.0447990953985
0.0699699158601
0.0241419720072
0.0150700654533
0.00389442791257
0.00181673819387
0.00177502092776
0.00212289576505
0.00330980991532
0.00713450948519
0.0125828341684
0.0177675595325
0.0216777763452
0.0237988134309
0.0249480217651
0.0264539286109
0.0285880784087
0.0337364381224
0.0375028022059
0.0440221206052
0.0388341937221
0.0478311978946
)
;

boundaryField
{
    emptyPatch
    {
        type            empty;
    }
    minY
    {
        type            fixedValue;
        value           nonuniform List<scalar> 0();
    }
    maxY
    {
        type            inletOutlet;
        inletValue      uniform 1e-05;
        value           nonuniform List<scalar> 
20
(
0.0241419720072
0.0150700654533
0.00389442791257
0.00181673819387
0.00177502092776
0.00212289576505
0.00330980991532
0.00713450948519
0.0125828341684
0.0177675595325
0.0216777763452
0.0237988134309
0.0249480217651
0.0264539286109
0.0285880784087
0.0337364381224
0.0375028022059
0.0440221206052
1e-05
1e-05
)
;
    }
    maxX
    {
        type            kqRWallFunction;
        value           nonuniform List<scalar> 
37
(
0.506972685788
0.49063604567
0.480060695232
0.472694227377
0.480722657643
0.528868286925
0.654784512213
0.687186914038
0.333185216949
0.0887974819366
0.0447358336345
0.0420742459821
0.0468780351677
0.0523476923539
0.0450627542569
0.0475559159409
0.0484491778237
0.0390591336516
0.0327454942211
0.0227551970904
0.0205947768259
0.0209155911553
0.0214159232207
0.021928662612
0.0225267440725
0.0230238539827
0.0232766669405
0.0232258127761
0.0226744386553
0.0215358192492
0.0195309032377
0.016462289375
0.018495269386
0.0447833341103
0.0671061881631
0.0699699158601
0.0478311978946
)
;
    }
    water_to_heater
    {
        type            kqRWallFunction;
        value           nonuniform List<scalar> 0();
    }
    procBoundary2to1
    {
        type            processor;
        value           nonuniform List<scalar> 
20
(
0.033317148156
0.00509017824911
0.0020582532538
0.00135883045634
0.00234364668555
0.0025093107976
0.00253443024275
0.00266558775358
0.00286141945745
0.00305305639369
0.00309422689575
0.00286118866963
0.00294088157131
0.00421613740835
0.00746052855019
0.0139246585145
0.0278919428267
0.0646083145021
0.164810951689
0.41441729571
)
;
    }
    procBoundary2to3
    {
        type            processor;
        value           nonuniform List<scalar> 
39
(
0.0447274213574
0.0494499540448
0.0541974651572
0.0585147969577
0.0595301889339
0.0563007459483
0.0525771077865
0.0485498514227
0.0536886654045
0.0773783970735
0.121445472979
0.121445472979
0.123864865204
0.0840371729597
0.0515213361093
0.0365051191841
0.02582304054
0.0172530150097
0.0119401703917
0.0074651796912
0.005335798348
0.00454935066585
0.00343470463504
0.00343470463504
0.00273687990823
0.00244201464309
0.00317283303268
0.00403382931334
0.00449189794562
0.00570220078384
0.0142954743253
0.0384733666771
0.0313158345301
0.0107081057204
0.00907861458696
0.0145077650969
0.0180480791075
0.0199901951038
0.0215574385024
)
;
    }
}


// ************************************************************************* //
