/*--------------------------------*- C++ -*----------------------------------*\
| =========                 |                                                 |
| \\      /  F ield         | OpenFOAM: The Open Source CFD Toolbox           |
|  \\    /   O peration     | Version:  2312                                  |
|   \\  /    A nd           | Website:  www.openfoam.com                      |
|    \\/     M anipulation  |                                                 |
\*---------------------------------------------------------------------------*/
FoamFile
{
    version     2.0;
    format      ascii;
    arch        "LSB;label=32;scalar=64";
    class       volScalarField;
    location    "0.155/water";
    object      k.gas;
}
// * * * * * * * * * * * * * * * * * * * * * * * * * * * * * * * * * * * * * //

dimensions      [0 2 -2 0 0 0 0];

internalField   nonuniform List<scalar> 
1497
(
0.11571940821
0.0754277091595
0.0442095069351
0.0286316550412
0.020347545266
0.0156828686296
0.0128154566678
0.010796362213
0.00907746662158
0.00723133888287
0.00508330604157
0.00298119916531
0.00142701548331
3.1219146277
1.21208307788
0.529344457382
0.291072519022
0.210620356675
0.171430865649
0.137613401667
0.0979064126584
0.057164164515
0.0362819182654
0.0255151492055
0.0194682567863
0.0157575962509
0.0131806704759
0.0111147590858
0.00920782231909
0.00708159884812
0.0047301328203
0.00265332918007
0.00116912753033
3.29389928064
1.29736474053
0.570124186902
0.307028034209
0.215679117039
0.170072113795
0.129769345044
0.0768728061464
0.0463410386699
0.031790365488
0.0240326572036
0.0194007213131
0.0162227264875
0.0136685379977
0.0113890187296
0.00922886930725
0.00683967726366
0.0043637261447
0.00226086190395
0.000772468769014
3.44009710905
1.38026909937
0.615131486681
0.330377360736
0.224515114169
0.16943360158
0.117504439675
0.0647304251902
0.0411324403229
0.0299021621016
0.0238195297365
0.0199363417778
0.0168906814318
0.0141191038631
0.0115518620564
0.00918283976453
0.00660530490671
0.00388825548652
0.00157921963564
0.000536992042283
3.55540337444
1.45130482018
0.657732721503
0.354636845563
0.234908185095
0.168462830319
0.103407886266
0.0597660379891
0.0394526375595
0.0296208888006
0.0242575215319
0.0206122156575
0.0174248353679
0.0143490972376
0.011605599616
0.00919548223335
0.00627059691457
0.00293815969949
0.00106103635721
0.000447532425292
3.6535526632
1.5144935427
0.698695208936
0.378091050179
0.244417916107
0.166154694016
0.0974719194457
0.0590009546026
0.0397788705854
0.0301272243238
0.0247810025921
0.0209892234922
0.0175088238573
0.0142455686326
0.0116603320451
0.00920593168586
0.00527828537711
0.00205239094143
0.0008218031296
0.000419955362714
3.75049295653
1.56426451322
0.725412795288
0.39170608915
0.247410363153
0.157538155417
0.0952308919236
0.0597039634449
0.0406509204728
0.0306199562719
0.0248954953687
0.0206876310846
0.0169871186011
0.013913761789
0.0117248113803
0.00851456098201
0.00401320478691
0.00156013011097
0.000724148947968
0.000416728445126
3.89449845238
1.61419675436
0.745107499109
0.399520114436
0.244440904943
0.150648298616
0.0932807967851
0.0595861153544
0.0407501799717
0.0304241303923
0.0242525240542
0.0197207236224
0.0160829367459
0.0135066685686
0.0113349253853
0.00704142047524
0.00307249575359
0.00130128038341
0.000688019843226
0.000421229204216
4.09311329293
1.67126252934
0.759431209937
0.399364175102
0.234145929174
0.143690559789
0.0893891297632
0.0575045327865
0.0394894541267
0.0292957158902
0.0229297962525
0.018310516692
0.0149887182153
0.0129444357341
0.0100519038207
0.00550155989382
0.00242586165214
0.00115548073641
0.000680428869318
0.000428151874261
4.36192875734
1.74276974183
0.780510159989
0.396625414708
0.226661833321
0.135161549142
0.0832224682416
0.0537547416271
0.0371704947805
0.027460931431
0.0211182571565
0.0166353369292
0.0138689350006
0.0119400144197
0.00812410237232
0.00419249919683
0.00197751468462
0.00109005817432
0.000690369315289
0.000432419673737
4.64322215519
1.83120431694
0.810347114771
0.405596795194
0.219829720792
0.125947943606
0.0764325323668
0.0497396166168
0.0346808837267
0.02544553772
0.019182438788
0.0149842390634
0.0126999836413
0.0101210061974
0.00615036097981
0.00322348342271
0.00173801082108
0.00109100655297
0.000709563278639
0.000431353749093
4.85742946061
1.92957637449
0.853608927503
0.414627752077
0.213478316184
0.117789316634
0.0709033821365
0.0466834115271
0.0327362214682
0.0237272311493
0.01741203608
0.0133205481043
0.0110739628988
0.00785431239404
0.00462280976515
0.00268628266259
0.00168631627038
0.0011359181831
0.000734602518906
0.000429425908636
4.91863016289
1.97682576614
0.873556010221
0.410952069786
0.204786229519
0.110894052171
0.067064632182
0.0446262730903
0.0312395828397
0.0221438266723
0.015605772216
0.0116309742086
0.00908442067085
0.00592173262312
0.00379088340661
0.00252166068757
0.00176379858138
0.00122465528618
0.000754863589589
0.000451029399074
4.94824101408
1.91955206796
0.845658140673
0.391586038032
0.193086570575
0.105263234956
0.0645785732603
0.0431249769939
0.029810595083
0.0204051203495
0.0137770201977
0.0100070085432
0.00705039311096
0.00481979947822
0.00351824338588
0.00259896303135
0.00194991255508
0.00134753437892
0.000788191470051
0.000498957246639
4.85521026645
1.84829658617
0.787760922767
0.358552200081
0.178742755271
0.100306490378
0.0626693070005
0.0417254424758
0.028152467753
0.0184071774847
0.0120386774737
0.00819801711491
0.00565977206652
0.00446638066463
0.00357096011525
0.00283404120509
0.0022204305742
0.00148353340231
0.000874538211088
0.000555641399758
4.38489366411
1.64977600486
0.687978125418
0.315103272248
0.163354984088
0.0957138066266
0.0608735818371
0.0400001666523
0.0259207873314
0.0161619702101
0.0100305957968
0.00650531508286
0.00519900940857
0.00450895009368
0.00379284887827
0.00314371558458
0.00253241954774
0.001641190757
0.00100972560749
0.000600962432772
3.59745057746
1.34139946587
0.563927980851
0.271315907577
0.150774900642
0.0926228175643
0.0590465867214
0.0373896294826
0.0229558351543
0.0134021266884
0.00777481877025
0.00582095218667
0.0052340673346
0.00468158256762
0.00404711971803
0.00344575041049
0.00279777458156
0.00181979183177
0.00114924224441
0.000645229826278
2.68382507092
1.00452394259
0.452840575121
0.242865553055
0.146250101256
0.0916142205809
0.0561446135114
0.0333572278562
0.0190807899243
0.0101284949153
0.00668329348062
0.00581413730022
0.00536633917517
0.00482256652801
0.00423307233837
0.00364678254538
0.00291323351937
0.00197935382595
0.00125480901275
0.000682311821737
1.8454406258
0.774735971394
0.405031719513
0.242223013269
0.150546791486
0.0901172272974
0.0506650070183
0.027970144899
0.0146221299449
0.00840309938402
0.00659418147755
0.00595692354667
0.00542906974102
0.00486129089187
0.00428288407179
0.00368315977117
0.0028581715803
0.00209420796293
0.00131899085864
0.00071040356488
1.38975595571
0.720000995543
0.430117469477
0.266479421943
0.157234015283
0.0845339856046
0.0435241119781
0.0228156007012
0.0121892371787
0.00823083174957
0.00686172641231
0.00606886151961
0.00540987435663
0.00479524124257
0.00420450662685
0.00359368611126
0.00281467175059
0.00217259791364
0.00134010668389
0.000729194769267
1.35688174604
0.833174724509
0.51502725232
0.302385997781
0.16107181479
0.078616932777
0.0386341166576
0.020366225113
0.0123140955692
0.00905941519839
0.00739703153188
0.00629646106721
0.0054688319346
0.00479348218816
0.00419601687133
0.00362337691579
0.00289821507565
0.00218806666953
0.00129829159218
0.000718666626013
1.81200429925
1.12126474881
0.652743730925
0.345768047767
0.166977819553
0.0782256650509
0.0394694369387
0.0227627090889
0.0150652728364
0.0110628234585
0.00863579354203
0.00704363190378
0.00594874883335
0.00514327469685
0.0044690715305
0.00380506133615
0.00294050209069
0.00201790736243
0.0011930014374
0.0006925321873
2.85294215723
1.57602075493
0.798382094323
0.388627100187
0.185335310112
0.092144671212
0.0509950980068
0.0315237887307
0.0209720958188
0.0146790385693
0.0107791741729
0.00832425158833
0.00674431035625
0.00563492347671
0.00469833130296
0.00373493548618
0.00267811994018
0.00173872920374
0.00106565124877
0.000653091795328
4.23535169445
1.97693677671
0.923035318854
0.448319423645
0.225156787242
0.122191233062
0.0731633030437
0.0466153364725
0.0302850194237
0.0199400013908
0.0136056742404
0.00979818870502
0.00744938573852
0.00583590024874
0.00460391617439
0.00351607155365
0.00245244131475
0.00152286271773
0.000942539285652
0.000604461508543
4.77075724824
2.07434975522
1.00556189069
0.516666121381
0.27727288712
0.159269897378
0.0995373414197
0.0646617651854
0.0415195484743
0.0262034486085
0.0168859842216
0.0114601599705
0.00831491163111
0.0063156993655
0.00486245803238
0.00360669086803
0.00240262970736
0.0014138442758
0.000849419343495
0.000559260491667
4.55924414852
2.04577485594
1.01275494895
0.540306077662
0.308279275449
0.188630202038
0.123229113879
0.0821719701183
0.0530166321177
0.0324475255123
0.0201997328794
0.0132254926377
0.0093437151016
0.00704224131968
0.00540700801895
0.0039556288955
0.00254163679349
0.00142862693743
0.000814191472586
0.000521463351746
4.25337575484
1.93593674249
0.96756636002
0.528189492673
0.31367473375
0.200980005564
0.136748736209
0.0949375460218
0.0631921094054
0.0381463592771
0.0232896466167
0.0149716040763
0.010454722224
0.00790041213944
0.0061195996752
0.0044856135525
0.00283861464938
0.00155517082538
0.000848394550523
0.000508294594876
4.02661777217
1.82437805656
0.909618199451
0.501762931997
0.305832407944
0.202480574937
0.141936851029
0.10092492839
0.0685663599032
0.0422466589003
0.0258782373028
0.0165957129444
0.0115801678429
0.00880020394184
0.00689599062208
0.00509514086675
0.00322525078846
0.00175963621361
0.000939159740712
0.000525765939846
3.88633715821
1.7398124763
0.859743888725
0.475878091491
0.29429331882
0.198544827418
0.141521632046
0.101679534424
0.0691701730361
0.0436106509934
0.0272354316216
0.0177469245475
0.0125655025218
0.00967221265088
0.0076663069733
0.00569712784258
0.0036338688948
0.0020086626652
0.00106729019541
0.000568720804845
3.80533930982
1.67961714233
0.826049549577
0.457839261781
0.284107877012
0.192521030824
0.137653347327
0.0987129361343
0.0666968833329
0.0428563092452
0.027450552839
0.0183887182288
0.013374847632
0.0105074608733
0.00841829574206
0.00624770004168
0.00400212231148
0.0022548931339
0.00121362037805
0.000629106346302
3.73860957512
1.62761401426
0.804545055096
0.447138579879
0.276169417013
0.185590139564
0.131358427572
0.0927895422883
0.0624646803061
0.0408906048933
0.0269831161882
0.0187373868632
0.0141133614895
0.0113617576621
0.00915943199036
0.00673999089467
0.00432161506037
0.00247683367548
0.00135476965438
0.000694281578344
3.62808819485
1.55577909863
0.783376894255
0.438858394951
0.269257021595
0.177965143376
0.123296833354
0.0850243665525
0.0574557440045
0.0384329964325
0.0262578278514
0.0190260153437
0.0148998798836
0.0122824580516
0.00987772049821
0.00716990786412
0.0045884356415
0.00266526902963
0.00148019162175
0.00075158582746
3.34574677622
1.4507312972
0.750355877804
0.42600372622
0.260994328415
0.169559429004
0.114229382287
0.0775155289969
0.0525901141487
0.0360241688078
0.0256103510259
0.0194579860521
0.0158550315451
0.0132832596311
0.0105450145521
0.00752733826405
0.00479122180176
0.00280477084141
0.00157161019189
0.00078850497729
3.00320852973
1.29292787132
0.687484234629
0.398933028165
0.247419168874
0.159662384223
0.105736621433
0.0709776082512
0.0484188479778
0.0340779797635
0.0253357895776
0.0202185868099
0.0170633420536
0.014319765089
0.011124970464
0.00779012182463
0.00490948729288
0.00287475441489
0.0016106306674
0.000794847203884
2.96168845004
1.19879366855
0.623161594193
0.364274952131
0.230074641493
0.149427551815
0.0981730391054
0.0655719531286
0.0452517822463
0.0329387180463
0.0257143628473
0.0214923288826
0.0185145795794
0.0153031860055
0.0115849419391
0.00793106699211
0.00491249252252
0.00284936873897
0.00158789508904
0.00077416520594
3.1642475706
1.19258632671
0.5848550816
0.335798742506
0.213456860669
0.13954849581
0.0918255030879
0.0616774235423
0.0434943232651
0.0329721307508
0.0270079284396
0.0233527825348
0.020075654646
0.0161943057881
0.0119029930579
0.00790337183226
0.00475176062508
0.00272717003149
0.00151967590009
0.000737493681993
3.33822907766
1.22119611027
0.568270115758
0.319924771338
0.203473404205
0.133582001258
0.0883548971187
0.0601584994745
0.0436722645887
0.0345105338233
0.0293685320681
0.0256365520227
0.0216754066955
0.0170199361182
0.0120169051106
0.00763443396979
0.00446805760916
0.00255865813194
0.00144201977122
0.000692337278034
3.33835434017
1.24612842599
0.575995248158
0.324065898311
0.205786278569
0.134804070463
0.0894192062404
0.0618114976076
0.0461452149273
0.0377015250799
0.0325895238113
0.0282238857977
0.0234001221407
0.0177544794953
0.0118791577218
0.00718833073687
0.00415733583454
0.00237576181737
0.00135425357573
0.000636107709745
0.000500381426729
0.000164792603833
0.000115459624264
9.42742454481e-05
7.58702184705e-05
6.30116592236e-05
5.59411575e-05
5.10445454313e-05
5.22112445584e-05
4.95861027864e-05
4.49485290561e-05
6.59528322618e-05
0.000653913575766
0.0034753656523
0.00798461825811
0.0129738648876
0.0177911876523
0.0226735452372
0.0281464903786
0.0328166059085
0.000336254082492
0.000159329368295
0.000118430834828
9.48384314215e-05
7.46708805033e-05
6.33766632598e-05
5.70678498327e-05
5.26320515421e-05
5.18771048934e-05
4.92718776284e-05
4.42776795946e-05
6.96204913885e-05
0.000678924592963
0.00341878518378
0.00792715916604
0.0130741211909
0.018004419497
0.0229642141533
0.0287954623198
0.0345288800916
0.000270404064933
0.000161053230041
0.000120643535012
9.40212464445e-05
7.36483303485e-05
6.42907712694e-05
5.85356121922e-05
5.44327110025e-05
5.15005972576e-05
4.88870107347e-05
4.3634226509e-05
7.67686719657e-05
0.000735732693625
0.00347106944486
0.00801302699761
0.0132741854883
0.0182442667314
0.0232631440409
0.0294398662648
0.0362887967782
0.000253492316806
0.000164042698725
0.000122193729592
9.27342409688e-05
7.30960550393e-05
6.50848866421e-05
6.02822928933e-05
5.61752420961e-05
5.16269024787e-05
4.84498910155e-05
4.31918493028e-05
8.67977550171e-05
0.000826832905863
0.00364376901204
0.00826207052296
0.0135684986173
0.0185108500408
0.0235696917849
0.0300750977001
0.0380816558564
0.000251205164646
0.000167332808361
0.000122162183523
9.09828441991e-05
7.29794279679e-05
6.53436439101e-05
6.21810914809e-05
5.78770817924e-05
5.24254541159e-05
4.78775694813e-05
4.34828630675e-05
0.000101716669731
0.000950659411106
0.0039077540759
0.00863875265472
0.0139742309758
0.0188045355363
0.0238821343485
0.0306952886504
0.0398838324176
0.000252843902943
0.000169850470126
0.000120100033916
8.91345858636e-05
7.35374884151e-05
6.64637577117e-05
6.42839607997e-05
5.92172648836e-05
5.40022432975e-05
4.7022772714e-05
4.4907732208e-05
0.000124785069326
0.00114243832636
0.00435013897881
0.00929190115659
0.0145041770805
0.0191092419598
0.0241974232069
0.0312935550825
0.0416638073436
0.000254698419526
0.000171302093316
0.000117697070004
8.80259892172e-05
7.49817370305e-05
6.87565933221e-05
6.65400682316e-05
5.97430745022e-05
5.71430084002e-05
4.5996393264e-05
4.77272755318e-05
0.000158839077443
0.00144672563736
0.00510443366991
0.0102081249586
0.0149947653001
0.0194133523353
0.024511118645
0.0318624496549
0.04338426626
0.000257168389452
0.000170234826025
0.00011591416667
8.77003823587e-05
7.55371476198e-05
7.20431939628e-05
6.85862093145e-05
5.89202430258e-05
5.87849375456e-05
4.58604692774e-05
5.18906206118e-05
0.000208572676372
0.00189487122836
0.00609420536544
0.0109973217949
0.0153782510728
0.019715092861
0.0248179688245
0.0323947935615
0.0450059958064
0.00025919079948
0.000168572166159
0.000114468818682
8.82593952774e-05
7.82679455051e-05
7.59229885144e-05
6.98205427332e-05
5.71477641648e-05
5.44830714482e-05
4.87031553629e-05
5.65310176397e-05
0.00028294549613
0.00248071549847
0.00695902349939
0.011494475475
0.0157277871562
0.0200074325653
0.0251127841834
0.0328846517709
0.0464925653335
0.000259999552212
0.000169748635196
0.0001133242433
8.90678859248e-05
8.25304829372e-05
7.98013143394e-05
6.9513499335e-05
6.30553631591e-05
5.04939205883e-05
5.55850743432e-05
5.97749863709e-05
0.000394014985831
0.00307625145259
0.00751584359498
0.0118962159459
0.0160560442541
0.0202830411201
0.0253909082611
0.033327971969
0.0478144822391
0.000266157632822
0.000172934184661
0.000112483960202
9.11892749827e-05
8.72067417715e-05
8.29224887198e-05
6.70086123555e-05
6.12058561277e-05
5.4708018125e-05
6.29559026955e-05
5.93385228914e-05
0.000533449238147
0.00352623148843
0.00793338674759
0.0122617330181
0.0163552480857
0.020535854413
0.0256481329028
0.0337225130367
0.048952414605
0.00028262603594
0.000175927572702
0.000112101257698
9.45882429905e-05
9.16703957898e-05
8.44458692749e-05
6.58959387694e-05
5.48155626539e-05
6.80172945765e-05
6.43695070012e-05
5.57784286818e-05
0.000659355958093
0.00385335417868
0.00829913872523
0.0125850945858
0.0166195992707
0.0207613562624
0.0258807547575
0.0340679005114
0.0499005558952
0.000302426916784
0.000176009112995
0.000113753922414
9.87815470645e-05
9.5665289687e-05
8.38821864274e-05
7.29285641769e-05
6.22386794442e-05
7.92968167935e-05
5.79901628447e-05
5.33846763583e-05
0.000754406340495
0.00412938112882
0.00861414855419
0.0128625628951
0.0168477817219
0.020958172386
0.0260871633692
0.0343672467816
0.0506707589184
0.000313546166076
0.000178730479467
0.000115993040337
0.00010327078218
9.97628896919e-05
8.23572565448e-05
6.51768829039e-05
8.60780956632e-05
8.11168154667e-05
4.99959884771e-05
5.46429663022e-05
0.00083605075729
0.00436577427906
0.00887880153992
0.0130988269317
0.0170450121325
0.0211298274793
0.0262691818526
0.0346272516079
0.0512918444671
0.000323632837179
0.000181051795368
0.00011683691924
0.000106213853041
0.000104201397508
8.30575683809e-05
6.79919112886e-05
0.000106476774977
7.90474332942e-05
4.63333071401e-05
5.82757743186e-05
0.000910564867543
0.00456723385073
0.00910473177898
0.0133071092919
0.0172227801829
0.0212846624562
0.0264322519504
0.0348572159817
0.0518032960936
0.000335384353197
0.000186137790993
0.000117560144561
0.000109056521032
0.000109206247051
8.68753480822e-05
7.32837059222e-05
0.000113532746815
7.91541914588e-05
4.63766564544e-05
6.28882463273e-05
0.000981465757716
0.00474840084024
0.00931173547977
0.0135054638024
0.017395666392
0.0214335959268
0.0265840463065
0.0350669709078
0.0522444499556
0.000346925509368
0.000187264495475
0.000118920317516
0.000111752228718
0.000114588243231
9.20209994232e-05
7.67376725402e-05
0.000118367973889
8.26176216274e-05
4.8154480246e-05
6.84210613984e-05
0.00105570041176
0.00492877690195
0.00952095380887
0.0137110875296
0.0175769562779
0.0215868374953
0.0267322608721
0.0352646526369
0.0526438120206
0.000365971881118
0.000190271350517
0.000121186757577
0.000114558252685
0.00011953841135
9.88240463434e-05
8.07597164461e-05
0.000125989444288
8.88575007934e-05
5.07669366157e-05
7.55938301995e-05
0.00114103437853
0.0051254497263
0.00974842809497
0.0139357005951
0.0177752427366
0.021751281059
0.0268824654527
0.035454936281
0.0530130490622
0.000373813027893
0.000195167799965
0.000124377801089
0.000117816166693
0.000124437416507
0.000104539062257
8.59747973813e-05
0.000134665556177
9.71746151795e-05
5.38384133187e-05
8.54480108097e-05
0.00124376482627
0.0053482406694
0.0100014102345
0.0141832810167
0.017992947577
0.0219291870635
0.0270368685963
0.0356383736818
0.0533469684355
0.000377030425399
0.000200497762411
0.000128149958184
0.000121346297367
0.000129299813992
0.000109329037199
9.30770980767e-05
0.000143313564734
0.000106818262902
5.72277381183e-05
9.94318603088e-05
0.00136731153317
0.00559724476283
0.0102771650084
0.0144499136005
0.0182265731557
0.0221183941857
0.0271941803116
0.0358118116051
0.0536288424739
0.00037809549823
0.000205256741332
0.000132124040824
0.000124414282261
0.00013261360655
0.000110934605077
9.99415779199e-05
0.000149559913746
0.000116219156671
6.0914045444e-05
0.00011951538474
0.00151176587954
0.00586309999116
0.0105645577391
0.0147257950442
0.0184686551692
0.0223139685188
0.0273509602574
0.0359701493251
0.0538392121155
0.000377430831554
0.000208691017015
0.000135195016163
0.000125943661212
0.000133308259654
0.000110052762951
0.000105380787886
0.000150225567098
0.000122735818611
6.49720784624e-05
0.000148413542154
0.00167404181867
0.00613002429335
0.010848275271
0.0149990868523
0.018710957422
0.0225107883771
0.0275038672291
0.0361088892475
0.0539646514601
0.000370594721721
0.000208592639936
0.000135966676398
0.00012494034833
0.000131038234522
0.000113157592539
0.000108200945081
0.000145760187719
0.00012499878716
6.89933223246e-05
0.000181728921792
0.00183662111445
0.00638369438434
0.0111195037387
0.0152641164438
0.0189497032878
0.0227063211137
0.0276508846868
0.0362269911329
0.0540127308488
0.000356682032053
0.000204550564009
0.000133862594207
0.000121234403458
0.000126371392542
0.00011705595915
0.000107861037866
0.000140568284974
0.000124153297101
7.1870156798e-05
0.00021174409581
0.00198336784142
0.00661637544123
0.0113745365936
0.0155188121822
0.0191836200579
0.0228997735123
0.0277916041817
0.0363256037026
0.0540067248923
0.000339289492314
0.000197862514062
0.000129472212005
0.00011563825919
0.000120643618089
0.000115675429507
0.000104940832989
0.000136820816248
0.000121943317742
7.34630248479e-05
0.000235610239991
0.00210872623441
0.00682522229564
0.0116123133285
0.0157631662422
0.0194133431412
0.023092607215
0.0279285184689
0.0364084979451
0.0539720721817
0.000323908195713
0.000191070523089
0.000124317851631
0.000109587242644
0.00011535078286
0.000111574708153
0.000101106378467
0.000132570987032
0.000118532539339
7.40108915436e-05
0.000253507033067
0.00221383257154
0.00701233479058
0.0118349111782
0.0159991313439
0.01964081164
0.0232874048364
0.0280658528236
0.0364812971582
0.0539325601629
0.000315802133624
0.000186691954619
0.000120000462386
0.000104583685902
0.00011188246747
0.000107731604038
9.81487317456e-05
0.000129220910725
0.000114631994866
7.41267965476e-05
0.000267839574767
0.00230402591758
0.00718248856188
0.0120457718249
0.0162291644279
0.0198679445442
0.0234866086435
0.0282079556482
0.0365497307787
0.0539039446265
0.000317694380097
0.000185728865966
0.000117599614466
0.000101435807502
0.000110151725265
0.00010569496637
9.69797973076e-05
0.000130444346119
0.000113023811541
7.48953411478e-05
0.000281725780419
0.0023854971844
0.00734075161515
0.0122480790591
0.016455072558
0.0200957580763
0.023691516505
0.0283582368895
0.0366188772879
0.0538915219689
0.000320301443545
0.000187697559026
0.000117701477886
0.000100611569288
0.000110186231515
0.000105191776547
9.77742380093e-05
0.000136471212776
0.000114687308189
7.69620887692e-05
0.000297043834954
0.00246221473481
0.00749055824197
0.0124435084271
0.0166771798098
0.0203237466553
0.023901727581
0.0285181698068
0.0366921307708
0.0538904777519
0.000326193498345
0.000192304068057
0.000120710949677
0.000102134892996
0.00011158075506
0.000106469091009
0.000101193910222
0.00014516418793
0.000118734597716
8.03090681569e-05
0.000314061394371
0.00253515043436
0.00763244985752
0.0126314604271
0.0168940036385
0.0205498425054
0.0241151149481
0.0286870570338
0.036770976728
0.0538891466633
0.000336076491065
0.000196132018349
0.000126907104594
0.00010541339063
0.000113493456562
0.000108660174596
0.000108389996147
0.000154359772798
0.000124387110647
8.46396292207e-05
0.000332123424398
0.00260345305783
0.00776495105062
0.0128099752356
0.0171033634139
0.0207716538103
0.0243290397173
0.0288628750601
0.0368552804275
0.0538734925582
0.000344214580541
0.00019980483155
0.000134747018762
0.000108867678898
0.00011457651441
0.000110253490294
0.000118678217518
0.000162351231913
0.000131236626979
8.96653929203e-05
0.000350864171923
0.00266715613675
0.00788710206208
0.0129784617229
0.0173049570255
0.0209884671315
0.0245417880776
0.0290434049611
0.0369440081007
0.0538314446217
0.000343713569308
0.000204140625097
0.000140569407879
0.000111209650192
0.000114612828859
0.000109500576451
0.000127280225504
0.000171147674397
0.000139580143826
9.52142519426e-05
0.000369274918462
0.00272624767666
0.00800242945725
0.0131410991372
0.0175023029689
0.0212029761903
0.0247551641747
0.0292284557608
0.037035927872
0.0537521235279
0.000333125304672
0.00020677019313
0.00014424093858
0.000112784072915
0.000113997772525
0.000108767522101
0.000133492677222
0.000178165394088
0.000147819281609
0.00010058868432
0.000387798089
0.0027854836377
0.00811706386921
0.0133023422117
0.01769820341
0.0214166769466
0.0249693993629
0.0294186861855
0.0371323874372
0.053623192656
0.000316648289752
0.000212780369726
0.000147889502948
0.000113913136311
0.000112672117596
0.000108278772134
0.000135838603812
0.000179518575791
0.000153371448811
0.000105170892277
0.000407705543465
0.00284856509822
0.0082336039147
0.0134629487548
0.0178924078149
0.0216290523326
0.025183602674
0.0296116569556
0.0372311057235
0.0534355594296
0.000299649819986
0.000215599193269
0.000152303321375
0.000114089254742
0.000110105956932
0.000106973887912
0.000134601989963
0.000176442228294
0.000155076452403
0.000108270758379
0.000428774086456
0.00291477585647
0.0083491111673
0.013619070968
0.0180812186205
0.0218372382485
0.0253955897221
0.0298045518188
0.037327800371
0.0531811183213
0.000285807876563
0.000221098249223
0.000157659741543
0.00011310794714
0.000106150759944
0.000104467112827
0.000133531758855
0.000170360320929
0.000152243922564
0.0001091174111
0.00044981687445
0.00297967489358
0.00845676599107
0.0137638367089
0.0182587255291
0.0220369385279
0.0256023836045
0.0299940700725
0.037417430963
0.0528553292189
0.000272200648675
0.000231093998449
0.000163951367009
0.000111062990079
)
;

boundaryField
{
    emptyPatch
    {
        type            empty;
    }
    minY
    {
        type            fixedValue;
        value           nonuniform List<scalar> 0();
    }
    maxY
    {
        type            inletOutlet;
        inletValue      nonuniform List<scalar> 0();
        value           nonuniform List<scalar> 0();
    }
    water_to_cooler
    {
        type            kqRWallFunction;
        value           nonuniform List<scalar> 
37
(
0.0328166059085
0.0345288800916
0.0362887967782
0.0380816558564
0.0398838324176
0.0416638073436
0.04338426626
0.0450059958064
0.0464925653335
0.0478144822391
0.048952414605
0.0499005558952
0.0506707589184
0.0512918444671
0.0518032960936
0.0522444499556
0.0526438120206
0.0530130490622
0.0533469684355
0.0536288424739
0.0538392121155
0.0539646514601
0.0540127308488
0.0540067248923
0.0539720721817
0.0539325601629
0.0539039446265
0.0538915219689
0.0538904777519
0.0538891466633
0.0538734925582
0.0538314446217
0.0537521235279
0.053623192656
0.0534355594296
0.0531811183213
0.0528553292189
)
;
    }
    water_to_heater
    {
        type            kqRWallFunction;
        value           nonuniform List<scalar> 
60
(
3.1219146277
3.1219146277
3.29389928064
3.29389928064
3.44009710905
3.44009710905
3.55540337444
3.6535526632
3.75049295653
3.75049295653
3.89449845238
3.89449845238
4.09311329293
4.09311329293
4.36192875734
4.64322215519
4.85742946061
4.85742946061
4.91863016289
4.91863016289
4.94824101408
4.94824101408
4.85521026645
4.38489366411
3.59745057746
3.59745057746
2.68382507092
2.68382507092
1.8454406258
1.8454406258
1.38975595571
1.35688174604
1.81200429925
1.81200429925
2.85294215723
2.85294215723
4.23535169445
4.23535169445
4.77075724824
4.55924414852
4.25337575484
4.25337575484
4.02661777217
4.02661777217
3.88633715821
3.88633715821
3.80533930982
3.73860957512
3.62808819485
3.62808819485
3.34574677622
3.34574677622
3.00320852973
3.00320852973
2.96168845004
3.1642475706
3.33822907766
3.33822907766
3.33835434017
3.33835434017
)
;
    }
    procBoundary1to0
    {
        type            processor;
        value           nonuniform List<scalar> 
41
(
3.1351263761
1.27236317304
0.61352879333
0.351626992109
0.222596333473
0.144620636696
0.0958001447102
0.066941031154
0.0510494730422
0.042366276419
0.0365682267079
0.0312373562119
0.025172697138
0.0180928009612
0.0113930161906
0.00674831799796
0.00388687168171
0.00220642185095
0.00124911476648
0.000577749493508
0.000101231078547
0.000101281006507
0.00013134177798
0.00016535709486
0.000146232362159
0.000107911978621
0.000470080699868
0.00303843039764
0.00854808915894
0.0138887273591
0.0184176896689
0.0222232907795
0.0258021041564
0.0301810800553
0.03750396853
0.0524697246938
0.000259886711569
0.000246231037329
0.000171322410335
0.000101231078547
0.000108375168115
)
;
    }
    procBoundary1to3
    {
        type            processor;
        value           nonuniform List<scalar> 
41
(
0.130491594132
0.0942211344367
0.0548253241009
0.0329819153172
0.0217535057858
0.0158551401798
0.012548119835
0.010461476763
0.0088508380573
0.00723674462805
0.00533765464863
0.00330880478527
0.00164898018125
2.94591895352
1.14388588951
0.50547679602
0.28587201608
0.212637211795
0.177411528732
0.147898107451
0.147898107451
0.00065506472698
0.000191423480971
0.000112368307123
9.25526973745e-05
7.6849828873e-05
6.30321251957e-05
5.5156055187e-05
4.95851594756e-05
5.21583790695e-05
4.97633286693e-05
4.57473464712e-05
6.58060771964e-05
0.000654446945767
0.00356946675247
0.00805159054727
0.0128878812689
0.01758990483
0.0223890650603
0.0274907148159
0.0311558958326
)
;
    }
}


// ************************************************************************* //
