/*--------------------------------*- C++ -*----------------------------------*\
| =========                 |                                                 |
| \\      /  F ield         | OpenFOAM: The Open Source CFD Toolbox           |
|  \\    /   O peration     | Version:  2312                                  |
|   \\  /    A nd           | Website:  www.openfoam.com                      |
|    \\/     M anipulation  |                                                 |
\*---------------------------------------------------------------------------*/
FoamFile
{
    version     2.0;
    format      ascii;
    arch        "LSB;label=32;scalar=64";
    class       volVectorField;
    location    "0.425/water";
    object      U.gas;
}
// * * * * * * * * * * * * * * * * * * * * * * * * * * * * * * * * * * * * * //

dimensions      [0 1 -1 0 0 0 0];

internalField   nonuniform List<vector> 
1497
(
(0.109386060153 1.18180423934 0)
(0.112724638861 1.12585479376 0)
(0.115819937304 1.11003160357 0)
(0.117084180309 1.12917393142 0)
(0.118771363941 1.15366205154 0)
(0.1212863195 1.13990113593 0)
(0.120558237236 1.06970958356 0)
(0.116238797432 0.964228701747 0)
(0.113051384985 0.86626040576 0)
(0.113179438365 0.793113443918 0)
(0.11666196539 0.741585935604 0)
(0.122902336002 0.703287602388 0)
(0.131039132477 0.669207111883 0)
(0.0499666168107 1.24830146874 0)
(0.101446113908 1.57899328309 0)
(0.105666910794 1.66149385572 0)
(0.110542330922 1.67879195275 0)
(0.112675825678 1.64418970145 0)
(0.110337428774 1.46640179963 0)
(0.109673329531 1.29273285048 0)
(0.11538828034 1.17632842744 0)
(0.12364381671 1.11476691268 0)
(0.130130720444 1.09543781915 0)
(0.133493790339 1.11255233686 0)
(0.135782558021 1.13709613767 0)
(0.137581324888 1.12614000029 0)
(0.137126944183 1.06471699616 0)
(0.135884609521 0.965532221361 0)
(0.136726125869 0.867818348325 0)
(0.139524359184 0.791357379288 0)
(0.143439815157 0.736337988577 0)
(0.148311283738 0.695967656858 0)
(0.154074858933 0.660962490354 0)
(0.0456081568093 1.17716344963 0)
(0.0906884865984 1.50977781651 0)
(0.0914681945727 1.60333402481 0)
(0.0947420766352 1.63562157708 0)
(0.0981719347885 1.61999558953 0)
(0.102310864252 1.45447527218 0)
(0.109553945918 1.27889835421 0)
(0.119774998161 1.16464052761 0)
(0.130016545685 1.10326399894 0)
(0.136800463776 1.08247599336 0)
(0.139626259839 1.09677727393 0)
(0.141123492111 1.12048138791 0)
(0.142431356883 1.11185597617 0)
(0.143036669887 1.0567062503 0)
(0.145048394033 0.964625150594 0)
(0.149744456589 0.870746454559 0)
(0.155391578324 0.794552087865 0)
(0.160635835093 0.738469191595 0)
(0.165380238029 0.697039759166 0)
(0.169838892343 0.661208352246 0)
(0.039843126577 1.15628833619 0)
(0.0794976249988 1.451093241 0)
(0.0788821205228 1.55788086511 0)
(0.0795430575674 1.59371869836 0)
(0.0826325076152 1.58166777732 0)
(0.0912810479835 1.40485437214 0)
(0.104740784777 1.24922370833 0)
(0.118243210364 1.1464953936 0)
(0.129748710735 1.0905298288 0)
(0.136705793467 1.07104291121 0)
(0.138924869875 1.08346935832 0)
(0.139230898298 1.10519302435 0)
(0.139864228196 1.09672984515 0)
(0.141883565928 1.04444861278 0)
(0.147085491251 0.959633298295 0)
(0.155012930676 0.872284055442 0)
(0.163372980832 0.799788281941 0)
(0.170495507205 0.745745358459 0)
(0.175637603087 0.704683531276 0)
(0.178736053753 0.668295861743 0)
(0.0310819020425 1.21295872422 0)
(0.0600104647664 1.41219395314 0)
(0.0573024501223 1.52131935518 0)
(0.0570901022176 1.55772553421 0)
(0.0655003386278 1.51114203532 0)
(0.08093593432 1.34221251152 0)
(0.0964852403749 1.21447415891 0)
(0.111930836614 1.12732836485 0)
(0.124083835888 1.07977767159 0)
(0.130978674473 1.06361930123 0)
(0.132514697177 1.07521727909 0)
(0.131752420903 1.09386021079 0)
(0.13252370225 1.08315104688 0)
(0.136839294934 1.0320997626 0)
(0.145282720211 0.954140824778 0)
(0.156298576768 0.874571036575 0)
(0.167383575844 0.808381468455 0)
(0.175925948564 0.758389581702 0)
(0.180162916218 0.717769983896 0)
(0.180678503146 0.680342598074 0)
(0.021181962655 1.3744217326 0)
(0.0388242104535 1.41169635121 0)
(0.0373750122665 1.47651322216 0)
(0.0455376908423 1.4998993728 0)
(0.0588190492278 1.42342993272 0)
(0.0735132225107 1.29160580638 0)
(0.0892862166416 1.18566947721 0)
(0.104401615752 1.11289381411 0)
(0.115664889515 1.07413572511 0)
(0.121715541535 1.06196966518 0)
(0.122657689248 1.0730350274 0)
(0.122122051095 1.08754852052 0)
(0.124699640027 1.0733956284 0)
(0.131816677883 1.02333048798 0)
(0.143033024486 0.951645848838 0)
(0.156649649112 0.88036273524 0)
(0.169180336454 0.821751655167 0)
(0.17626252444 0.774971497916 0)
(0.177006017678 0.733721833085 0)
(0.174552279253 0.694908318009 0)
(0.0234263102553 1.57566095395 0)
(0.042712068537 1.43943396057 0)
(0.0388146092098 1.43788230282 0)
(0.0433793845645 1.43532114161 0)
(0.0538948953114 1.36471854465 0)
(0.0678059943467 1.25788963233 0)
(0.0831791360634 1.16759375105 0)
(0.0967063992184 1.1068505309 0)
(0.106305137952 1.0759907939 0)
(0.111248094023 1.06726988943 0)
(0.112151502845 1.07692285669 0)
(0.113111215792 1.08577993864 0)
(0.1180571353 1.06759106561 0)
(0.127510857755 1.01859454998 0)
(0.140811957278 0.953223252335 0)
(0.155425100527 0.890675385221 0)
(0.165621213708 0.838194435672 0)
(0.167758838463 0.792157145951 0)
(0.164844412695 0.749918276 0)
(0.160945355419 0.709971273611 0)
(0.028405781043 1.73208888339 0)
(0.0518549928583 1.48862202883 0)
(0.0440597162741 1.43628816403 0)
(0.0432223283101 1.41083786951 0)
(0.050835058567 1.33816646787 0)
(0.0637434459897 1.24058506414 0)
(0.0778024544572 1.16190543795 0)
(0.0892993788048 1.11163758775 0)
(0.0967229273903 1.08735183279 0)
(0.100199378735 1.08034704237 0)
(0.101404506261 1.08648297851 0)
(0.104234848878 1.08784653477 0)
(0.111112464692 1.06496768935 0)
(0.122015760842 1.01726764095 0)
(0.135721325532 0.958757138723 0)
(0.147424501578 0.903631819545 0)
(0.151590643514 0.853778757702 0)
(0.149233780588 0.807530393203 0)
(0.14502348071 0.764704223907 0)
(0.141124645992 0.723821895818 0)
(0.0390172553613 1.819978614 0)
(0.073221510745 1.55781590632 0)
(0.0600979857476 1.47783361444 0)
(0.0495570605399 1.43014712535 0)
(0.0507839599544 1.34018860174 0)
(0.0605073426129 1.24051305491 0)
(0.0722439483066 1.16917655863 0)
(0.0806108360692 1.12806272295 0)
(0.0847727502433 1.10855820227 0)
(0.0864252896331 1.10065911873 0)
(0.0880634183037 1.10041085454 0)
(0.0924697891207 1.09269818362 0)
(0.100377025248 1.06446634712 0)
(0.111033741588 1.01824630799 0)
(0.121635579077 0.965700780854 0)
(0.127218244149 0.91461207529 0)
(0.126582221232 0.865579521172 0)
(0.123076949816 0.819505482113 0)
(0.119482002279 0.776322718236 0)
(0.116735955554 0.734673656575 0)
(0.0471875163108 1.85992734702 0)
(0.0890891230696 1.64067651698 0)
(0.0710006858279 1.55734966764 0)
(0.051475921863 1.4886364495 0)
(0.0455897064522 1.36703683792 0)
(0.0508478924231 1.2547541988 0)
(0.0583656059972 1.18622598852 0)
(0.062664425569 1.15230712942 0)
(0.0647933734329 1.13524619163 0)
(0.0668113464767 1.12429051806 0)
(0.0696701673963 1.11533698022 0)
(0.0743330706601 1.09733373515 0)
(0.0812598052791 1.06314210553 0)
(0.0892024162577 1.01796648778 0)
(0.0948946878222 0.968927022236 0)
(0.0964058850666 0.919843914564 0)
(0.0950623510032 0.871866861126 0)
(0.0928568607106 0.826254237966 0)
(0.091142264042 0.78304331041 0)
(0.0902633028318 0.741057215612 0)
(0.0509007056725 1.89842682615 0)
(0.0931691659699 1.7346020509 0)
(0.0678258082178 1.66951198077 0)
(0.0407398151502 1.57796905991 0)
(0.0278833276672 1.41416732126 0)
(0.0265117586496 1.28168773148 0)
(0.0285152217965 1.21122739176 0)
(0.0308402533139 1.17957928843 0)
(0.0343447755144 1.16127590063 0)
(0.0384699213536 1.14518042169 0)
(0.0424129757512 1.12663206323 0)
(0.046670206407 1.09774812355 0)
(0.0519546030715 1.05707906804 0)
(0.0572019813897 1.01201076967 0)
(0.0606703141144 0.965042075175 0)
(0.0622259650156 0.917896546766 0)
(0.0627444976388 0.871311413602 0)
(0.0630695157877 0.826539189253 0)
(0.0638866221555 0.78390938595 0)
(0.0649464342922 0.742322270375 0)
(0.0530397757045 1.93653355925 0)
(0.0888830632581 1.83341352925 0)
(0.0530577702072 1.79929983943 0)
(0.0233806577082 1.67462957303 0)
(0.00609058815891 1.47295654717 0)
(-0.00379058659322 1.32120185242 0)
(-0.00890594106738 1.24313566148 0)
(-0.00885856793691 1.20520547895 0)
(-0.00436893685947 1.18068258783 0)
(0.00145722032444 1.15717026751 0)
(0.00668747260779 1.12893897121 0)
(0.0117207436047 1.08969195287 0)
(0.0173686506894 1.04244103915 0)
(0.0228720345951 0.997118209746 0)
(0.0274837162264 0.952408853285 0)
(0.0315183117822 0.907701467054 0)
(0.0352116975156 0.863104017777 0)
(0.038664360954 0.819933298384 0)
(0.0419535042557 0.778752044354 0)
(0.0445474860315 0.738611008704 0)
(0.0548639774505 1.89874541989 0)
(0.0852161591487 1.9221306713 0)
(0.0493459163747 1.88926141173 0)
(0.0310302356292 1.73041612077 0)
(0.0154002939685 1.51865812248 0)
(-0.00283386724625 1.36084732237 0)
(-0.0197471634363 1.27272419983 0)
(-0.0296820724954 1.22048596271 0)
(-0.0314483500441 1.18503408111 0)
(-0.0284412857963 1.15271237132 0)
(-0.0232979067016 1.11565586225 0)
(-0.0166862709145 1.0685548898 0)
(-0.00933582879791 1.01633993446 0)
(-0.00215477450847 0.970663778306 0)
(0.00483092042772 0.92955360374 0)
(0.0119241016865 0.888699010216 0)
(0.0187225150038 0.847413726201 0)
(0.0246813087974 0.807015471782 0)
(0.0296486907738 0.768369022501 0)
(0.0328120748838 0.730668189587 0)
(0.0648031240806 1.66063205583 0)
(0.12540869182 1.90690168771 0)
(0.117675492512 1.89667832095 0)
(0.104310901283 1.75784645022 0)
(0.0804715866358 1.56280098751 0)
(0.0504295911341 1.40936668708 0)
(0.0201480907149 1.30804092499 0)
(-0.00325611294221 1.23111733177 0)
(-0.0168885650204 1.17844343658 0)
(-0.0221030502718 1.13456501392 0)
(-0.0209739698984 1.08930123928 0)
(-0.015953643351 1.03750771788 0)
(-0.00942338645186 0.983413168697 0)
(-0.00264241441708 0.937241141526 0)
(0.00447455753442 0.900680609908 0)
(0.0121423975054 0.864870751938 0)
(0.0195169514219 0.827980416329 0)
(0.0256801162687 0.791257860587 0)
(0.030179425335 0.755828550576 0)
(0.0315737168016 0.720684861649 0)
(0.0515409804351 1.3477692241 0)
(0.115319166855 1.74582113361 0)
(0.138277507208 1.797797374 0)
(0.15192295939 1.73529925059 0)
(0.144843908658 1.61283280863 0)
(0.115338110704 1.50269389181 0)
(0.0728204881975 1.40466309271 0)
(0.0384713031245 1.26394472992 0)
(0.021653465704 1.18080941525 0)
(0.0142666779603 1.12133577689 0)
(0.0128884579578 1.06742232347 0)
(0.0151920619215 1.01222713025 0)
(0.0193061634841 0.957835512328 0)
(0.0240621819526 0.911216530709 0)
(0.0290066886728 0.877446565613 0)
(0.0340922640893 0.845679774155 0)
(0.0386831645388 0.812571938566 0)
(0.041986476666 0.77912823909 0)
(0.0427570942911 0.746267511592 0)
(0.039202988319 0.712497661525 0)
(0.0401260311839 1.16091676289 0)
(0.0874782034835 1.57175863353 0)
(0.0987872466468 1.671673831 0)
(0.103141329397 1.67874944895 0)
(0.09954122079 1.64093674005 0)
(0.0895494170747 1.5846126056 0)
(0.0758299237148 1.50578536989 0)
(0.0616453882379 1.31345572413 0)
(0.0530753836396 1.19451915337 0)
(0.0509239985615 1.12218267892 0)
(0.051782648067 1.06170431352 0)
(0.0544956892748 1.00417565863 0)
(0.0582648491778 0.949677484351 0)
(0.0624173282218 0.902774446569 0)
(0.0660010867945 0.869399116558 0)
(0.0681979034576 0.839300671187 0)
(0.0687860598576 0.808021087102 0)
(0.0673591516875 0.776267128682 0)
(0.0617245947441 0.743922769945 0)
(0.0512985536599 0.709693466392 0)
(0.0224788195182 1.14259647499 0)
(0.0551995301058 1.44015905997 0)
(0.0634006150635 1.62079224114 0)
(0.0569797855651 1.67191443526 0)
(0.0468210929273 1.66783134812 0)
(0.0389930957463 1.61185485792 0)
(0.049570614022 1.48295522817 0)
(0.0683543195458 1.31724959517 0)
(0.0762729558792 1.20273469533 0)
(0.0797506706889 1.1291717377 0)
(0.0834942288777 1.06749229635 0)
(0.0878240875403 1.01018266649 0)
(0.0927394966371 0.956768223065 0)
(0.0980039147571 0.910922280115 0)
(0.101988221455 0.877827714588 0)
(0.102555074014 0.847711389415 0)
(0.0996615909838 0.816460777525 0)
(0.0927911190987 0.784480936077 0)
(0.0795338904333 0.74988982174 0)
(0.0627234016991 0.713703631104 0)
(-0.0109956136376 1.41665126298 0)
(-0.0159991311073 1.3668003267 0)
(-0.00102096280234 1.57026359026 0)
(0.0061755112081 1.68997884884 0)
(0.0052563539864 1.6839018064 0)
(0.024585042747 1.5442454131 0)
(0.0555118198645 1.39093866346 0)
(0.0754015781359 1.28060872096 0)
(0.0877099707998 1.19917074457 0)
(0.0964455625717 1.13497685272 0)
(0.103871029546 1.07794848935 0)
(0.111185871415 1.02437103511 0)
(0.119113534354 0.97465973711 0)
(0.127206707407 0.932763537348 0)
(0.131961796567 0.900509812395 0)
(0.130582929871 0.869173928757 0)
(0.124111042081 0.836845164269 0)
(0.110845256041 0.802342730094 0)
(0.0901228257238 0.762809234767 0)
(0.0691763560452 0.723623753113 0)
(-0.00594974064188 1.84303370371 0)
(-0.0166155852556 1.39708739804 0)
(-0.0165972535392 1.51331419718 0)
(-0.00319890387887 1.66752189529 0)
(0.0178689379249 1.63470398701 0)
(0.0389671802193 1.44754350125 0)
(0.056863129215 1.33184663994 0)
(0.0744022738248 1.25368423419 0)
(0.0897751314145 1.19282275125 0)
(0.103077650584 1.14116176905 0)
(0.115380658633 1.09284049051 0)
(0.12768334412 1.04650452643 0)
(0.140132182849 1.0035741428 0)
(0.149663259867 0.966879731194 0)
(0.151908031149 0.934189649819 0)
(0.147473732436 0.901212422028 0)
(0.13688124918 0.867127296308 0)
(0.116081399893 0.826650657299 0)
(0.0898891122746 0.780134961779 0)
(0.0678024510219 0.736887607638 0)
(0.0239410125268 2.0953908916 0)
(0.03528254501 1.50467602179 0)
(0.0193829333577 1.51763901449 0)
(0.0201877523651 1.63514918214 0)
(0.0299909555473 1.58560159723 0)
(0.0427880233639 1.42202009895 0)
(0.0582194975089 1.30994867971 0)
(0.0750843940228 1.24184906988 0)
(0.0920155284949 1.19433128573 0)
(0.108812161587 1.15434543221 0)
(0.12555670535 1.11592297772 0)
(0.141496261158 1.07818660749 0)
(0.153622855194 1.04190049078 0)
(0.158479829351 1.00775730458 0)
(0.156813177023 0.974663523089 0)
(0.150540448627 0.941784511186 0)
(0.133809386273 0.903893904276 0)
(0.105177207829 0.853415483508 0)
(0.0776637718342 0.798271733123 0)
(0.0575980710404 0.749998922264 0)
(0.0470641382945 2.14128673924 0)
(0.083100269148 1.63710655592 0)
(0.0609189963665 1.58182482164 0)
(0.0473036226349 1.66153168126 0)
(0.0466463641808 1.60216710045 0)
(0.0536128005135 1.43166186889 0)
(0.0659302932832 1.31175791074 0)
(0.0811257635346 1.24624684989 0)
(0.0978875276105 1.20749027252 0)
(0.115253261899 1.1762756759 0)
(0.130973134737 1.14523914024 0)
(0.142429914018 1.11326822473 0)
(0.148552353435 1.08106691148 0)
(0.150692846309 1.04976593243 0)
(0.149807545097 1.02012629987 0)
(0.138853785761 0.987870119062 0)
(0.110748068383 0.941050197261 0)
(0.0781507722385 0.877921058285 0)
(0.055752023911 0.812197102129 0)
(0.0405956849747 0.758955909337 0)
(0.053528159151 2.11207299512 0)
(0.100105496618 1.75136125459 0)
(0.0805027156593 1.68010770027 0)
(0.0612042210984 1.73272171051 0)
(0.053821470563 1.65360511627 0)
(0.0572414737021 1.46339215794 0)
(0.067521661653 1.32709430705 0)
(0.0803074753094 1.25870344621 0)
(0.0933254405933 1.22425065436 0)
(0.105182934829 1.19684712492 0)
(0.115243722303 1.16968925675 0)
(0.123761713965 1.14211748818 0)
(0.131250427552 1.11546762448 0)
(0.135952607253 1.09076888273 0)
(0.129281893784 1.06578107553 0)
(0.102434890721 1.02937232237 0)
(0.0669550329422 0.969705460802 0)
(0.0430592529585 0.891809036536 0)
(0.0311677433181 0.815548234146 0)
(0.0222627487925 0.759129639102 0)
(0.0526624401917 2.09688246397 0)
(0.0982635174179 1.83810853145 0)
(0.0791424894556 1.77849687707 0)
(0.0580512540901 1.82028230032 0)
(0.0463123043434 1.71686129825 0)
(0.0455301412925 1.50304986972 0)
(0.0511925191598 1.34716395336 0)
(0.0588800711345 1.26909491896 0)
(0.0666349875504 1.23267320917 0)
(0.075422395327 1.20525230575 0)
(0.0864144149889 1.18114509851 0)
(0.0980160712829 1.15924741658 0)
(0.105089367269 1.14001697048 0)
(0.0986406259495 1.1212027406 0)
(0.0734408574829 1.09709815933 0)
(0.0413293863771 1.05196809597 0)
(0.0219608835154 0.975898075268 0)
(0.0166857848696 0.885694581496 0)
(0.0149771972943 0.804049980169 0)
(0.0121394214763 0.747774466465 0)
(0.0586877437476 2.05820229244 0)
(0.106881031464 1.87899245541 0)
(0.0835842651953 1.84708983529 0)
(0.0616965943815 1.88456780673 0)
(0.0486090390792 1.76170478532 0)
(0.0420501255728 1.53869108075 0)
(0.037900175374 1.36935193131 0)
(0.0353287859793 1.27663717686 0)
(0.0345905169431 1.23040813586 0)
(0.0379287775161 1.19745527981 0)
(0.0447068781183 1.17458018758 0)
(0.0480974483543 1.15774251496 0)
(0.0406942154301 1.14453744177 0)
(0.0223455315117 1.12876129106 0)
(0.00364200913593 1.09942080963 0)
(-0.00269930970111 1.04017474748 0)
(0.00326898577697 0.9509632455 0)
(0.0120204838981 0.85868180421 0)
(0.0177880891487 0.779858987469 0)
(0.0199160673993 0.727540090292 0)
(0.0779569222273 1.81539365214 0)
(0.137070459985 1.8616226126 0)
(0.108429994298 1.85217871112 0)
(0.0974109335915 1.86334868626 0)
(0.0934657836819 1.75059657656 0)
(0.0824743733627 1.55263925811 0)
(0.0635233131989 1.38646288648 0)
(0.0413376968115 1.28483649092 0)
(0.0190330012257 1.22709069111 0)
(0.000526780150402 1.18347181994 0)
(-0.0120882873817 1.15595652247 0)
(-0.0216401873478 1.14017175765 0)
(-0.0294503974776 1.12641795704 0)
(-0.0311896219198 1.10484313594 0)
(-0.0223037528755 1.06292903129 0)
(-0.00447909151919 0.991114743103 0)
(0.015230353329 0.902498928649 0)
(0.0316990616715 0.818896430135 0)
(0.0432179455446 0.750346845851 0)
(0.0498663196564 0.705251552094 0)
(0.0452739284178 1.43116344508 0)
(0.0926493477889 1.75051273646 0)
(0.100475618799 1.76180292257 0)
(0.115013316873 1.74573232196 0)
(0.128518754722 1.67109354874 0)
(0.126553233521 1.54095566215 0)
(0.103574162175 1.41384962738 0)
(0.0673451099961 1.31747659015 0)
(0.0273555606733 1.25020582166 0)
(-0.00956503024814 1.19109260898 0)
(-0.0350025324404 1.14198554283 0)
(-0.0448962120459 1.11318626709 0)
(-0.0404741158974 1.08479880005 0)
(-0.0239325955763 1.048362119 0)
(0.000220362868149 0.994526218537 0)
(0.0268329816223 0.922608305859 0)
(0.0517913421149 0.845892580687 0)
(0.0729619839905 0.777698454809 0)
(0.0894639760567 0.723930574231 0)
(0.100787142542 0.687244144477 0)
(0.0187926347333 1.16124882222 0)
(0.0441010320226 1.59783488815 0)
(0.0587754843241 1.62852417105 0)
(0.0772908738079 1.60667573201 0)
(0.0953730012622 1.56673925355 0)
(0.105305541539 1.50421254369 0)
(0.1028981573 1.43529046362 0)
(0.0868609693869 1.36821923937 0)
(0.0599294406326 1.30616206544 0)
(0.027407919887 1.23917998994 0)
(0.00112360864521 1.14968209749 0)
(-0.00509740551471 1.07625997176 0)
(0.00663809600233 1.02583536177 0)
(0.0270801350875 0.976781904845 0)
(0.0522158837368 0.919507068068 0)
(0.0791750539365 0.856159741428 0)
(0.105590074929 0.795569149832 0)
(0.129988571921 0.744684171029 0)
(0.150979395083 0.704247809863 0)
(0.166275471884 0.673565076974 0)
(0.00759810284476 1.0481621524 0)
(0.0171814195413 1.51096438422 0)
(0.0243178816438 1.53553014472 0)
(0.0376677582444 1.5033715084 0)
(0.0539080662503 1.48112344847 0)
(0.0675723020474 1.45405240477 0)
(0.0757844246957 1.42400593533 0)
(0.078344241809 1.38934655161 0)
(0.0766815032706 1.34200453499 0)
(0.0733585586823 1.27568674636 0)
(0.0683045626144 1.16855628176 0)
(0.0687218208121 1.03981383809 0)
(0.0793341810489 0.971494683894 0)
(0.0956341185344 0.914660826704 0)
(0.116706802456 0.858937694517 0)
(0.141234815945 0.805513550926 0)
(0.167793853732 0.759399632617 0)
(0.194243083195 0.720809155642 0)
(0.216540886695 0.686871335169 0)
(0.233428386927 0.657398630731 0)
(-0.00173768727901 1.05985638756 0)
(-0.00895488207597 1.50998701644 0)
(-0.0142447439976 1.49954447092 0)
(-0.00856345350697 1.43918069888 0)
(0.00525502715902 1.41223443897 0)
(0.0226063103612 1.39698924824 0)
(0.0398570528458 1.38469073449 0)
(0.0555783085013 1.36349842053 0)
(0.0700216222258 1.32295095831 0)
(0.0840839552616 1.25471132557 0)
(0.105241949915 1.13007157807 0)
(0.125749210256 1.00602960485 0)
(0.139139626483 0.932122525893 0)
(0.155019805172 0.872357959333 0)
(0.175142739084 0.819349728378 0)
(0.199567202196 0.773739341643 0)
(0.226602171203 0.736173403056 0)
(0.250675411319 0.701606699641 0)
(0.269448479846 0.667809345946 0)
(0.287475293743 0.63623090346 0)
(-0.0155521692205 1.22483585789 0)
(-0.0466311304503 1.63699564846 0)
(-0.0724324689505 1.55930089925 0)
(-0.0873820579101 1.44790081776 0)
(-0.0823112304017 1.34951366914 0)
(-0.0556051281611 1.30643508248 0)
(-0.0192569249119 1.29176315897 0)
(0.0208204227558 1.27154956312 0)
(0.0630644254884 1.23187059998 0)
(0.106120482214 1.16566356559 0)
(0.139386458055 1.05439974985 0)
(0.15969857742 0.97146635523 0)
(0.176947046518 0.903952805094 0)
(0.195929422352 0.846560779878 0)
(0.218704873489 0.797465043826 0)
(0.245110811157 0.757348821961 0)
(0.269610013124 0.72191007888 0)
(0.287635380957 0.686292522967 0)
(0.30352707196 0.650705383672 0)
(0.322367280818 0.616844731107 0)
(-0.0213974759682 1.51247521716 0)
(-0.0601736338232 1.86659498819 0)
(-0.0939213224045 1.71706185506 0)
(-0.0992288265777 1.43327934977 0)
(-0.0683544542957 1.23874155905 0)
(-0.0289768367069 1.17896742044 0)
(0.010669434293 1.16255323851 0)
(0.0507226064356 1.1453738551 0)
(0.0891190924037 1.1137648489 0)
(0.12295842587 1.0635650336 0)
(0.150906959793 1.00094667548 0)
(0.174652164571 0.940220760162 0)
(0.197205734326 0.882977225014 0)
(0.221265742065 0.831800943852 0)
(0.24829055271 0.788164480125 0)
(0.274392778436 0.750469384853 0)
(0.293223803056 0.713558585465 0)
(0.307319357331 0.676172834332 0)
(0.323399531199 0.639757400768 0)
(0.344600859963 0.605981213241 0)
(-0.00369707305648 1.71337324347 0)
(-0.00572466715521 2.01907001196 0)
(-0.000987441357083 1.81793862609 0)
(0.00677890293861 1.37090805307 0)
(0.0147268360338 1.14835296129 0)
(0.0259858262416 1.0844122688 0)
(0.0458685365292 1.06527716963 0)
(0.0719804527064 1.05247730655 0)
(0.101325557102 1.03301413015 0)
(0.131094944704 1.00181505891 0)
(0.159230549082 0.959612885931 0)
(0.185727143036 0.913821890376 0)
(0.212316551572 0.867812981462 0)
(0.240581958445 0.824480106456 0)
(0.268018339965 0.784918076876 0)
(0.288298238657 0.74653049048 0)
(0.302231798793 0.707840785837 0)
(0.316814523431 0.669981760569 0)
(0.337023393837 0.634636847135 0)
(0.363312087125 0.602811396995 0)
(0.00616672503521 1.73576761008 0)
(0.0191752595524 2.0283927538 0)
(0.0448487162441 1.74149472331 0)
(0.0654058431325 1.34981427015 0)
(0.0668216475089 1.14003172465 0)
(0.0695579376933 1.05056294501 0)
(0.0796787112205 1.01436834294 0)
(0.0971903063764 0.996568544074 0)
(0.120307049722 0.981054932794 0)
(0.14655863382 0.959900038784 0)
(0.173810408989 0.930828149645 0)
(0.201427414176 0.895893165322 0)
(0.229626149611 0.858204538517 0)
(0.255895397942 0.81963135623 0)
(0.27551702016 0.780623869929 0)
(0.289294587749 0.741226097119 0)
(0.303028259572 0.702425991551 0)
(0.321912795792 0.665767468096 0)
(0.346400632178 0.632689706616 0)
(0.352920424418 0.594206121506 0)
(0.028167348883 1.62787651034 0)
(0.0716153134802 1.93180453184 0)
(0.0973262165724 1.60832318576 0)
(0.109647043289 1.33564380745 0)
(0.110816560821 1.1465126501 0)
(0.11127294553 1.04234371585 0)
(0.116832502933 0.990229453509 0)
(0.129061653789 0.964954512695 0)
(0.147870221748 0.950729264904 0)
(0.171524369773 0.935171766328 0)
(0.196989062892 0.91262057426 0)
(0.221490859187 0.883037369666 0)
(0.242657121981 0.848658403077 0)
(0.258978326464 0.811479655094 0)
(0.271913555989 0.77291444221 0)
(0.284748401255 0.734318575549 0)
(0.301383075455 0.696953299596 0)
(0.323152493207 0.662713236853 0)
(0.327211968387 0.625546290922 0)
(0.296402063258 0.574323177964 0)
(0.0308622126416 1.53800700988 0)
(0.0877092307752 1.70392162788 0)
(0.123307752505 1.50333468005 0)
(0.136529739455 1.30846102089 0)
(0.141376902651 1.14971237983 0)
(0.144764820428 1.04506230285 0)
(0.151466801486 0.984206033909 0)
(0.16359400695 0.952934250526 0)
(0.180888025833 0.937110906691 0)
(0.19969824327 0.921452222068 0)
(0.216608370579 0.899537295777 0)
(0.23130466705 0.871206530364 0)
(0.244156303404 0.838212364743 0)
(0.2556385024 0.80241370185 0)
(0.266751278298 0.76538858141 0)
(0.279805243331 0.728259998816 0)
(0.29711142956 0.692956672741 0)
(0.300247020499 0.65695080298 0)
(0.269592375642 0.611488150245 0)
(0.23133393567 0.560280110481 0)
(0.0450819582009 1.46341966092 0)
(0.104277515108 1.48439843794 0)
(0.128392919551 1.39978260978 0)
(0.144674243634 1.26622499168 0)
(0.155051635116 1.14195877759 0)
(0.163685458678 1.04881056428 0)
(0.17456979657 0.988527131552 0)
(0.188578421502 0.955580887899 0)
(0.202406955587 0.936362018236 0)
(0.213336558284 0.91755158305 0)
(0.223188639576 0.894168603423 0)
(0.233078641989 0.865821774431 0)
(0.242265607376 0.833549657772 0)
(0.250754935003 0.79861458583 0)
(0.259580422581 0.762268711264 0)
(0.270928043247 0.726101138946 0)
(0.272379861756 0.689501378048 0)
(0.243781389095 0.648903399068 0)
(0.202915406797 0.605728656312 0)
(0.177735861537 0.563132755957 0)
(0.0372711303805 1.36462620581 0)
(0.0921646829528 1.36340431457 0)
(0.120034271825 1.30815879364 0)
(0.13908612878 1.21788526327 0)
(0.15456215012 1.12684476316 0)
(0.168147592641 1.05206941113 0)
(0.182880482551 1.00041408083 0)
(0.196841987717 0.969784384827 0)
(0.206408489718 0.947965702379 0)
(0.213462274161 0.926199449351 0)
(0.220753885861 0.900868374042 0)
(0.227600681128 0.871150737924 0)
(0.233368594713 0.837833999415 0)
(0.238336600066 0.802144667088 0)
(0.243793464739 0.765361134336 0)
(0.241781845678 0.726934331238 0)
(0.21577754007 0.686919223618 0)
(0.174789039416 0.650475182584 0)
(0.143910528115 0.617124529926 0)
(0.124682638129 0.577350538929 0)
(0.0254337950486 1.36216867946 0)
(0.0726131842636 1.28134478101 0)
(0.104509425589 1.23630973389 0)
(0.125342434491 1.17574255244 0)
(0.14464119328 1.11323636366 0)
(0.1619500843 1.05928227478 0)
(0.17817067844 1.020461961 0)
(0.189690798855 0.993923583126 0)
(0.196290470198 0.97115416634 0)
(0.201742627069 0.946867166244 0)
(0.206832182347 0.918207150785 0)
(0.210316563449 0.885336901055 0)
(0.212012694264 0.84960273651 0)
(0.212495658033 0.812112089134 0)
(0.205835487763 0.771984683126 0)
(0.181170196894 0.729365547847 0)
(0.143334890429 0.693768242632 0)
(0.109402600645 0.668682738053 0)
(0.0846800658846 0.640071642151 0)
(0.064101723258 0.598032246674 0)
(0.140038505723 0.635437162015 0)
(0.149176618645 0.601075834006 0)
(0.158461505894 0.566480535197 0)
(0.166594775448 0.531112642061 0)
(0.170881309911 0.494331934375 0)
(0.169994579989 0.456069280707 0)
(0.16608246472 0.413417807625 0)
(0.166479052832 0.365762111253 0)
(0.180960787308 0.314198561682 0)
(0.204991773396 0.266959399055 0)
(0.192036804224 0.229294392766 0)
(0.136452146645 0.202433107875 0)
(0.0947240617857 0.184540775456 0)
(0.0752344629543 0.159682197352 0)
(0.0607287075341 0.122138701068 0)
(0.049123785006 0.0739428534113 0)
(0.0371959459359 0.0259368585348 0)
(0.0210503365144 -0.00357317932012 0)
(-0.00688020088617 -0.0646893882657 0)
(-0.0126011012312 -0.163964233019 0)
(0.160151289562 0.627135836284 0)
(0.166074003292 0.592626162401 0)
(0.172340208268 0.55674930575 0)
(0.178673212257 0.51910604571 0)
(0.182194786745 0.480708165196 0)
(0.180423467401 0.443035118833 0)
(0.178385751761 0.405050392081 0)
(0.186561998484 0.364467192553 0)
(0.20624684438 0.324810125168 0)
(0.206611971962 0.293818049382 0)
(0.165971142414 0.270053136077 0)
(0.120970843218 0.256099567392 0)
(0.094542358589 0.234984535285 0)
(0.0761559339132 0.201724072383 0)
(0.0634885798851 0.150803609499 0)
(0.0532530795923 0.0898612564551 0)
(0.0398311133098 0.035734289218 0)
(0.0217125030223 0.0130265701321 0)
(-0.0101970549893 -0.0394720116943 0)
(-0.0160553025743 -0.13258630126 0)
(0.173622183502 0.62692563398 0)
(0.176803622205 0.592160208961 0)
(0.180294703033 0.555854693008 0)
(0.184356476317 0.517489227371 0)
(0.187141009012 0.47772794272 0)
(0.186514360981 0.438843879139 0)
(0.188402760672 0.401906573838 0)
(0.202086473816 0.366734316852 0)
(0.212565943254 0.340609617585 0)
(0.188006418263 0.327274555099 0)
(0.14273214702 0.32448731549 0)
(0.109792251632 0.31547129288 0)
(0.0880696077521 0.293227191482 0)
(0.0732697404017 0.250100880867 0)
(0.0652022596278 0.18383881309 0)
(0.0571928079282 0.110798678524 0)
(0.0417768051468 0.0514421401123 0)
(0.0193326661861 0.0310013664925 0)
(-0.0173441429949 -0.0167712783459 0)
(-0.0208911722672 -0.0974236053496 0)
(0.180108170972 0.633288609406 0)
(0.18091870231 0.598135944016 0)
(0.18237672221 0.561644915702 0)
(0.184462649669 0.523266986401 0)
(0.186310285563 0.483402853089 0)
(0.187993879519 0.443860396441 0)
(0.194128658264 0.406845986815 0)
(0.207447132366 0.374564344407 0)
(0.203307140593 0.360920536046 0)
(0.165154543897 0.370389500885 0)
(0.12365236848 0.382815150431 0)
(0.0964269445101 0.377532156184 0)
(0.0774491037868 0.353279679434 0)
(0.0682676832913 0.296118437354 0)
(0.0661536218436 0.213689164233 0)
(0.0616099228287 0.13093119212 0)
(0.0458629191307 0.0701023555788 0)
(0.0190275722137 0.0501162858806 0)
(-0.0239024513195 -0.000479815092655 0)
(-0.0257597578561 -0.0624348757299 0)
(0.179474760358 0.644247973271 0)
(0.178562921549 0.608475011032 0)
(0.178858671437 0.571599468915 0)
(0.180090502945 0.53307287906 0)
(0.181597286276 0.493299426816 0)
(0.183357882763 0.453961586982 0)
(0.189826368244 0.417490591534 0)
(0.200807399934 0.38813350446 0)
(0.188316403988 0.385538058376 0)
(0.145382585575 0.41951722305 0)
(0.105970225905 0.442096139644 0)
(0.0806903300094 0.439921384306 0)
(0.0650933631807 0.409692046107 0)
(0.0618960304055 0.333976277981 0)
(0.0659667786625 0.236544447145 0)
(0.0656666252894 0.147718144976 0)
(0.0505848528758 0.0897905432899 0)
(0.0197622085747 0.0688473312401 0)
(-0.0290723916232 0.0150058133857 0)
(-0.0297195456909 -0.0275538397739 0)
(0.171693711222 0.657659275679 0)
(0.169936695462 0.621023390603 0)
(0.169771485409 0.583465767931 0)