/*--------------------------------*- C++ -*----------------------------------*\
| =========                 |                                                 |
| \\      /  F ield         | OpenFOAM: The Open Source CFD Toolbox           |
|  \\    /   O peration     | Version:  2312                                  |
|   \\  /    A nd           | Website:  www.openfoam.com                      |
|    \\/     M anipulation  |                                                 |
\*---------------------------------------------------------------------------*/
FoamFile
{
    version     2.0;
    format      ascii;
    arch        "LSB;label=32;scalar=64";
    class       volScalarField;
    location    "0.685/water";
    object      Tf.gasAndLiquid;
}
// * * * * * * * * * * * * * * * * * * * * * * * * * * * * * * * * * * * * * //

dimensions      [0 0 0 1 0 0 0];

internalField   nonuniform List<scalar> 
1504
(
317.606940473
306.87663068
302.572195339
301.047626391
300.507745465
300.293589395
300.187630414
300.12516147
300.082947494
300.051291236
300.026831449
300.010003965
300.001969954
300.00016534
300.00000996
300.00000004
300
300
300
300
314.840649258
305.765244045
302.114398736
300.838367867
300.425260839
300.268829539
300.184909093
300.129631918
300.088810573
300.056347946
300.030340197
300.011828591
300.002475563
300.000194062
300.000005413
300
300
300
300
300
312.998846234
305.05610658
301.636024185
300.622295029
300.372246939
300.265192167
300.194327924
300.141064129
300.098851212
300.064125057
300.035667408
300.014693711
300.003382345
300.000292116
300.000004924
300.000000057
300
300
300
300
312.989687989
304.739525948
301.289294293
300.575171336
300.384405838
300.28907251
300.21888208
300.162403955
300.115764878
300.076768435
300.044336637
300.01954696
300.005104885
300.000555722
300.000017329
300.000000707
300.000000156
300
300
300
316.62405766
305.620145551
301.714888244
300.766565449
300.475106318
300.343396059
300.259861946
300.195370537
300.141236999
300.095556894
300.057257353
300.027031668
300.008015451
300.001097998
300.000056275
300.000001638
300.00000044
300.000000007
300
300
326.477261401
308.128154123
303.117781388
301.400410392
300.714107539
300.439476267
300.314175374
300.236045186
300.172834789
300.119116921
300.073764557
300.037053729
300.012364336
300.002094789
300.000155753
300.00000355
300.000000752
300.000000063
300
300
336.071539364
311.07877986
304.261092472
301.886711149
300.949398555
300.55709636
300.371909663
300.276015792
300.204575802
300.143731683
300.091652997
300.048549787
300.017959503
300.003692474
300.000374519
300.000013853
300.000001638
300.000000144
300
300
340.610621
313.02764662
305.016397391
302.190370055
301.083410207
300.623770334
300.421102907
300.30857938
300.231143181
300.165659139
300.108485898
300.060025972
300.02424434
300.005914523
300.00079139
300.000052592
300.000004499
300.000000479
300
300
342.978924262
314.173762807
305.446103924
302.352527611
301.156370688
300.6645151
300.450061777
300.330753368
300.249719439
300.182342517
300.12231821
300.070107163
300.030500702
300.008529627
300.00141236
300.000132125
300.000010627
300.000001302
300
300
344.54229454
314.792362768
305.636642926
302.406188355
301.178274337
300.679883948
300.463380818
300.343214289
300.261186205
300.193139994
300.13162155
300.077002518
300.035128621
300.010932405
300.002129933
300.000250026
300.00001934
300.000002569
300
300
345.840654433
314.994543214
305.591917842
302.343298904
301.145740232
300.67070287
300.464608799
300.348238776
300.266893041
300.198758063
300.136361256
300.080414559
300.037545363
300.012409045
300.002696512
300.000373842
300.000031318
300.000004115
300.000000001
300
346.718220057
314.787045973
305.302551854
302.167496862
301.066582622
300.64373692
300.458435534
300.347925985
300.267881354
300.199784063
300.136753151
300.080428089
300.037800924
300.012880142
300.002982046
300.000457274
300.000044158
300.000005665
300.000000124
300
347.176096944
314.276997173
304.845767881
301.941783257
300.982023321
300.622660663
300.450635839
300.344132746
300.264940854
300.196626028
300.133031988
300.077334737
300.036171271
300.012468614
300.002988123
300.000484982
300.000052158
300.000006907
300.000000205
300
346.978876268
313.447364128
304.263153285
301.719758096
300.928469236
300.610658863
300.442809313
300.337694648
300.258458071
300.189392773
300.125517448
300.071661578
300.033114303
300.01141146
300.002774973
300.000463476
300.000052978
300.000007548
300.000000191
300
346.105487516
312.552152529
303.982908244
301.69358774
300.933517389
300.603758133
300.43423536
300.328462522
300.248283824
300.177878297
300.114810304
300.064226128
300.02924249
300.010006553
300.002436089
300.000408228
300.000049144
300.000007591
300.000000112
300
345.344744457
312.561073147
304.302697093
301.805961741
300.947333323
300.596920976
300.423168355
300.315917827
300.233789647
300.162372187
300.102178715
300.056195638
300.025280621
300.008581541
300.002075843
300.000343185
300.000043832
300.000006997
300.000000005
300
345.528404367
313.170680433
304.49497467
301.848043865
300.942183639
300.582503657
300.40776657
300.298701711
300.214322063
300.144666581
300.089578912
300.048910321
300.021943382
300.007446239
300.00179786
300.00029523
300.000039626
300.000006007
300
300
346.583373099
313.640297338
304.552166779
301.83902934
300.920462147
300.561570544
300.386291923
300.275279976
300.192298238
300.127933303
300.07920698
300.043604709
300.019832851
300.006864018
300.001692151
300.000295137
300.000037215
300.000004888
300
300
348.508257349
314.546490541
304.673073732
301.83558146
300.891893254
300.529865525
300.356544832
300.249131761
300.17230731
300.115422954
300.072820738
300.041111714
300.019363571
300.007014119
300.001829452
300.000336002
300.000038777
300.000003783
300
300
350.813360542
315.233449907
304.684574832
301.735543798
300.813193141
300.480055277
300.322112438
300.225869212
300.15871266
300.109360913
300.071286528
300.041757884
300.020522087
300.00782642
300.002155278
300.000399794
300.000042783
300.000002712
300
300
344.170482448
313.941417117
304.111917266
301.462752161
300.694139179
300.422602526
300.29295768
300.21120493
300.153717223
300.109830808
300.074265408
300.045103155
300.02308706
300.009243939
300.002630949
300.000487415
300.000049496
300.000001721
300
300
328.504398825
310.445226041
303.2028762
301.177296196
300.585834266
300.380417038
300.275593226
300.207320674
300.15686728
300.116405655
300.081357046
300.051157765
300.027207512
300.011331604
300.003303598
300.000611897
300.000061007
300.000000873
300.000000004
300
319.298585807
307.542160232
302.547889204
300.984443033
300.519616033
300.356873165
300.272988811
300.213975233
300.16830375
300.128854493
300.092879101
300.060288064
300.033301656
300.014347864
300.00429256
300.000805918
300.000082247
300.000000416
300.000000258
300.000000322
315.350322675
306.772245963
302.570828649
300.972456376
300.500774763
300.362498368
300.288410761
300.234024047
300.18922028
300.148521326
300.109799547
300.073503782
300.04201045
300.018758258
300.005798779
300.001120146
300.000120976
300.000000715
300.000000412
300.000000726
316.021568457
308.24007741
303.429988901
301.088621843
300.548092365
300.40563741
300.328543101
300.270765925
300.221806448
300.176498902
300.132913605
300.091268702
300.053776855
300.024823959
300.007903167
300.001565922
300.000177572
300.000002734
300.000000455
300.000000785
325.394504733
312.159098731
304.825404503
301.511809287
300.695931405
300.494245751
300.395689038
300.323737425
300.264299164
300.210799735
300.160443496
300.112468728
300.068101246
300.032392135
300.010605508
300.002159071
300.000256483
300.000007225
300.000000437
300.000000558
341.591250567
314.686693201
305.474335759
301.879360701
300.86627739
300.600546803
300.476926447
300.385176549
300.310284607
300.246183442
300.188160156
300.133942147
300.083096062
300.040685842
300.013743539
300.002908165
300.000367878
300.000015512
300.000000485
300.000000241
347.185964019
315.819954937
305.72369313
302.063412873
300.97042463
300.660862368
300.527202861
300.431305159
300.34883867
300.276581355
300.21196593
300.152472433
300.096540618
300.048679512
300.017153609
300.003866321
300.000541234
300.000033957
300.000001277
300.000000062
348.296668011
315.990420325
305.701040483
302.116388323
301.014374248
300.684719539
300.547056102
300.453141483
300.37142892
300.297427999
300.22952425
300.166545377
300.107155351
300.055719069
300.020840711
300.005188026
300.000842466
300.000076473
300.00000404
300.000000199
348.183070988
315.658415033
305.586113122
302.139241207
301.039913323
300.695870691
300.555521379
300.464112321
300.384214899
300.310274118
300.240965761
300.175776365
300.114035677
300.060875244
300.024307554
300.006781397
300.001289413
300.000153571
300.000009896
300.000000803
348.072421185
315.460599925
305.698943378
302.291321726
301.118043509
300.723922502
300.567512722
300.472292075
300.392869413
300.319165979
300.248853448
300.1814973
300.117658099
300.063753651
300.026752475
300.008210637
300.001792906
300.000264455
300.000023929
300.000001968
347.196882756
315.73878359
306.130870278
302.604794701
301.272947285
300.783240722
300.589442157
300.481943569
300.399954543
300.325828503
300.2544698
300.184599615
300.119013493
300.065086327
300.028385696
300.009382445
300.002275483
300.000387775
300.00004395
300.000003612
340.786835639
315.66003942
306.626758002
302.979885347
301.474320476
300.870695677
300.623609708
300.495185555
300.406643448
300.330704319
300.257813335
300.185381973
300.118781475
300.065485824
300.02953377
300.0103755
300.002725845
300.000514591
300.000067096
300.000005966
333.228799406
314.36661065
306.605829416
303.157748068
301.618974916
300.95201325
300.660965157
300.510228197
300.412568877
300.333301813
300.258279851
300.183930301
300.117287544
300.065281926
300.030399878
300.011252345
300.003148558
300.000637847
300.000090999
300.000009204
331.179854131
313.294268568
306.240570446
303.097896355
301.659028186
300.99964568
300.688987435
300.522003994
300.415637445
300.332417586
300.255185842
300.180022416
300.114537719
300.064565301
300.031055119
300.012045016
300.003540656
300.000753448
300.000112706
300.000012588
332.217442644
312.858765684
305.801971393
302.902655434
301.615369072
301.007807632
300.69809914
300.524211657
300.412466992
300.326308054
300.247692287
300.173225967
300.110379096
300.063323852
300.03153322
300.012777532
300.003913104
300.000859088
300.000132217
300.000015408
334.94216876
312.270358259
305.167901507
302.587030268
301.491707973
300.962973101
300.678101276
300.510621197
300.399688351
300.313362489
300.235088604
300.16335947
300.104908848
300.06172859
300.031981648
300.013566186
300.004322379
300.00097738
300.000154776
300.000018174
334.567767863
310.046226847
303.994619242
302.06760889
301.26631775
300.861671183
300.62819406
300
300
300
300
300
300
300
300
300
300
300
300
300
300
300
300
300
300
300
300
300
300
300
300
300
300
300
300
300
300
300
300
300
300
300
300
300
300
300
300
300
300
300
300
300
300
300
300
300
300
300
300
300
300
300
300
300
300
300
300
300
300
300
300
300
300
300
300
300
300
300
300
300
300
300
300
300
300
300
300
300
300
300
300
300
300
300
300
300
300
300
300
300
300
300
300
300
300
300
300
300
300
300
300
300
300
300
300
300
300
300
300
300
300
300
300
300
300
300
300
300
300
300
300
300
300
300
300
300
300
300
300
300
300
300
300
300
300
300
300
300
300
300
300
300
300
300
300
300
300
300
300
300
300
300
300
300
300
300
300
300
300
300
300
300
300
300
300
300
300
300
300
300
300
300
300
300
300
300
300
300
300
300
300
300
300
300
300
300
300
300
300
300
300
300
300
300
300
300
300
300
300
300
300
300
300
300
300
300
300
300
300
300
300
300
300
300
300
300
300
300
300
300
300
300
300
300
300
300
300
300
300
300
300
300
300
300
300
300
300
300
300.000000005
300
300
300
300
300
300
300
300
300
300
300
300
300
300
300
300
300
300
300
300.000000027
300
300
300
300
300
300
300
300
300
300
300
300
300
300
300
300
300
300
300
300.000000069
300
300
300
300
300
300
300
300
300
300
300
300
300
300
300
300
300
300
300
300.000000095
300
300
300
300
300
300
300
300
300
300
300
300
300
300
300
300
300
300
300
300.000000071
300.000000001
300
300
300
300
300
300
300
300
300
300
300
300
300
300
300
300
300
300
300.000000043
300.000000003
300
300
300
300
300
300
300
300
300
300
300
300
300
300
300
300
300
300
300.000000029
300.000000013
300
300
300
300
300
300
300
300
300
300
300
300
300
300
300
300
300
300
300.000000008
300.000000005
300
300
300
300
300
300
300
300
300
300
300
300
300
300
300
300
300
300
300
300
300
300
300
300
300
300
300
300
300
300
300
300
300
300
300
300
300
300
300
300
300
300
300
300
300
300
300
300
300
300
300
300
300
300
300
300
300
300
300
300
300
300
300
300
300
300
300
300
300
300
300
300
300.000000015
300.000000049
300
300
300
300
300
300
300
300
300
300
300
300
300
300
300
300
300
300.000000037
300.000000118
300.000000163
300.000000206
300
300
300
300
300
300
300
300
300
300
300
300
300
300
300
300.000000077
300.000000226
300.000000363
300.000000428
300.000000559
300
300
300
300
300
300
300
300
300
300
300
300
300
300.000000103
300.00000038
300.000000818
300.000001312
300.000001722
300.000001872
300.000000642
300.000000044
300
300
300
300
300
300
300
300
300
300.000000097
300.000000506
300.000001205
300.000002294
300.000003739
300.00000535
300.000006888
300.000008001
300.000008216
300.000000426
300.000000038
300
300
300
300
300
300
300.000000006
300.000000551
300.000001731
300.000003294
300.0000054
300.000008216
300.000011469
300.000014806
300.000017881
300.000020331
300.000021693
300.000021398
300.000000125
300.000000002
300
300
300
300
300
300.00000076
300.000002724
300.000005408
300.000008947
300.000013265
300.000018242
300.000023395
300.000028202
300.000032274
300.000035376
300.000037331
300.000037876
300.000036744
300
300
300
300
300
300
300.000001997
300.000005902
300.000010881
300.000016439
300.00002243
300.000029428
300.000035782
300.000040964
300.000044923
300.000047696
300.000049377
300.000049995
300.000049486
300.000047878
300
300
300
300
300
300.00000233
300.000008197
300.000015562
300.000023326
300.000030858
300.000037925
300.000044221
300.000049264
300.000052505
300.000054621
300.000055905
300.000056457
300.000056267
300.000055316
300.000053708
300
300
300
300
300.00000078
300.00000726
300.00001649
300.000026
300.000034648
300.000041916
300.000047552
300.00005134
300.000053985
300.000055827
300.000057264
300.000058384
300.000058963
300.000058867
300.000058089
300.000056734
300.000000122
300
300
300
300.000002886
300.000012311
300.000023011
300.000032598
300.000040199
300.00004567
300.000048979
300.000050535
300.000051618
300.000053106
300.00005518
300.000057438
300.000059047
300.000059685
300.000059411
300.000058388
300.000000475
300
300
300
300.000004834
300.000015495
300.000025938
300.000034409
300.000040245
300.000043603
300.000044603
300.000044832
300.000045526
300.000047219
300.000049942
300.000053395
300.000056792
300.000058986
300.000059527
300.000058627
300.000000976
300
300
300
300.000005924
300.000016561
300.000026028
300.000033373
300.000037509
300.000038666
300.000038365
300.000038335
300.000039237
300.000041306
300.000044555
300.000048058
300.000051829
300.000056486
300.000058928
300.00005725
300.000001514
300.000000081
300
300
300.000006317
300.000016285
300.000024673
300.000030521
300.000033103
300.000032755
300.000032193
300.000032509
300.000034141
300.000037151
300.000041293
300.000045715
300.000049735
300.000055774
300.000058652
300.000056377
300.000002062
300.000000291
300
300
300.000006026
300.000014919
300.000021854
300.000026176
300.00002719
300.000026693
300.000026725
300.000028112
300.000031194
300.000036025
300.000042718
300.000048171
300.000050579
300.000055254
300.000057562
300.000053814
300.000002559
300.000000526
300.000000159
300.000000042
300.000004713
300.000012058
300.000017603
300.000020531
300.000020596
300.000021149
300.000022955
300.000026313
300.0000314
300.000037715
300.000042165
300.000046016
300.000051426
300.000054999
300.0000591
300.000053574
)
;

boundaryField
{
    emptyPatch
    {
        type            empty;
    }
    minY
    {
        type            calculated;
        value           nonuniform List<scalar> 0();
    }
    maxY
    {
        type            calculated;
        value           nonuniform List<scalar> 0();
    }
    maxX
    {
        type            calculated;
        value           nonuniform List<scalar> 
38
(
300
300
300
300
300
300
300
300
300
300
300
300
300
300
300
300
300
300
300
300
300
300
300
300
300
300
300
300
300
300
300
300
300
300
300
300
300
300
)
;
    }
    water_to_heater
    {
        type            calculated;
        value           nonuniform List<scalar> 
60
(
789.138999057
789.190269952
789.200955743
789.283307056
789.279115226
789.381244531
789.366939826
789.50367828
789.560605323
789.710295482
789.811389538
789.979445015
789.987047015
790.145923928
790.146577554
790.310381667
790.314123973
790.482405834
790.481086174
790.655053224
790.652955283
790.813974825
790.815334624
790.962305058
790.960059614
791.088627159
791.090703434
791.193346264
791.196575229
791.260500804
791.258242597
791.282018254
791.231741754
791.236278668
791.117732256
791.104545451
791.110511634
791.080046698
791.07498789
791.018151588
791.025860859
790.924936333
791.078275839
790.956330336
790.961107975
790.818695494
790.818952339
790.707669128
790.707844633
790.6369903
790.624388564
790.537061672
790.459816511
790.532647841
790.521156747
790.62058447
790.621222123
790.719820985
790.723212392
790.814726478
)
;
    }
    procBoundary3to1
    {
        type            processor;
        value           nonuniform List<scalar> 
41
(
300.480470906
300.37698104
300.29370539
300.217875381
300.151339535
300.099040926
300.060447441
300.032860525
300.014713127
300.004946134
300.001179574
300.000204153
300.000026576
329.582180233
307.433805429
302.756841123
301.527339848
301.018276438
300.741266211
300.480470906
300.564715941
300.000003359
300.000000741
300.000000331
300.000000231
300.000002454
300.000007838
300.000011918
300.000013855
300.000015165
300.000017693
300.000021542
300.000027315
300.000031409
300.000034714
300.000039581
300.000045561
300.000051274
300.000055111
300.000055206
300.000052388
)
;
    }
    procBoundary3to2
    {
        type            processor;
        value           nonuniform List<scalar> 
41
(
319.331784937
307.651786454
302.867898395
301.188134344
300.574366144
300.320864236
300.196148108
300.125110049
300.079649483
300.047566199
300.024049605
300.008571825
300.001610307
300.000151423
300.000014228
300.00000049
300
300
300
300
300
300
300
300
300
300
300
300
300
300
300
300
300
300
300
300
300
300
300
300
300
)
;
    }
}


// ************************************************************************* //
