/*--------------------------------*- C++ -*----------------------------------*\
| =========                 |                                                 |
| \\      /  F ield         | OpenFOAM: The Open Source CFD Toolbox           |
|  \\    /   O peration     | Version:  2312                                  |
|   \\  /    A nd           | Website:  www.openfoam.com                      |
|    \\/     M anipulation  |                                                 |
\*---------------------------------------------------------------------------*/
FoamFile
{
    version     2.0;
    format      ascii;
    arch        "LSB;label=32;scalar=64";
    class       volScalarField;
    location    "0.055/heater";
    object      T;
}
// * * * * * * * * * * * * * * * * * * * * * * * * * * * * * * * * * * * * * //

dimensions      [0 0 0 1 0 0 0];

internalField   nonuniform List<scalar> 
150
(
799.704155367
799.598041876
799.374319491
799.013365357
798.493781587
799.704419089
799.598632686
799.375586059
799.015587364
798.496871659
799.704549654
799.598930347
799.376278098
799.016977472
798.499077767
799.704419607
799.598808255
799.376226013
799.017168945
798.499738098
799.704295305
799.598644979
799.376022368
799.017039718
798.500027864
799.704160934
799.59843216
799.375683264
799.016672497
798.500318572
799.703916902
799.598051204
799.375059
799.015821768
798.499879119
799.703574167
799.597561246
799.374327289
799.014844209
798.498755626
799.70323846
799.597112894
799.373793771
799.014439934
798.498592047
799.702866807
799.596607165
799.373221635
799.014137503
798.49856164
799.702471701
799.596072156
799.372815798
799.015302564
798.502771859
799.701955874
799.595203917
799.37141024
799.01438407
798.507970227
799.701351044
799.594000615
799.368922719
799.010272661
798.504459701
799.700841206
799.592852139
799.366221504
799.005045616
798.497081294
799.700565203
799.592185217
799.364383036
799.000597037
798.489164749
799.700373924
799.591810692
799.363342955
798.997366587
798.48080355
799.700295156
799.591664325
799.362943823
798.995676041
798.47286282
799.700355186
799.591752153
799.363113548
798.995934108
798.471610944
799.700788047
799.592460031
799.364361253
798.997970572
798.475061629
799.701866554
799.594289944
799.367638164
799.003005135
798.481193977
799.703980626
799.597977523
799.374430332
799.013697349
798.494597965
799.708169192
799.605447788
799.388515053
799.036350677
798.523678083
799.714304233
799.615938018
799.407676756
799.066645264
798.562400502
799.717823325
799.622174222
799.419490885
799.085894937
798.587507424
799.719006547
799.624724919
799.425207581
799.096416447
798.602301547
799.718756929
799.625048287
799.427411092
799.102350261
798.612474944
799.717375814
799.623722932
799.427447257
799.106533357
798.622453749
799.714637197
799.619839526
799.422759987
799.103993735
798.624847886
799.710981049
799.613797014
799.413392393
799.094166601
798.619214074
799.708447238
799.60949468
799.406901798
799.089341011
798.622280533
)
;

boundaryField
{
    emptyPatch
    {
        type            empty;
    }
    minY
    {
        type            zeroGradient;
    }
    maxY
    {
        type            zeroGradient;
    }
    minX
    {
        type            zeroGradient;
    }
    heater_to_water
    {
        type            compressible::turbulentTemperatureTwoPhaseRadCoupledMixed;
        refValue        nonuniform List<scalar> 
60
(
322.632393259
323.783378468
323.783417199
324.197915759
324.644594171
324.782267349
324.782328998
324.749996137
324.750061234
324.430820193
324.430885093
323.110708215
321.517664863
320.95984084
320.959915957
320.871905394
320.871972347
320.890029361
320.890095213
320.821033813
322.453863387
335.821228635
335.821228773
348.345007446
348.345132778
351.049781367
351.049970778
351.134062858
351.819729666
351.790720916
351.79093113
349.451299961
349.451497351
339.050917911
339.051004052
328.257960838
322.972837754
322.006516338
322.00652897
321.942009047
321.94196056
322.535647634
322.535461754
323.26656015
323.941221735
324.100082396
324.099918654
324.158174613
324.158105156
323.738444633
323.738419102
322.416724977
320.61938504
319.165767826
319.165814762
318.525359345
318.525464504
318.327018696
318.327059926
318.313616701
)
;
        refGradient     uniform 0;
        valueFraction   nonuniform List<scalar> 
60
(
0.000725857112687
0.000728994761258
0.000728993555123
0.00072952615228
0.000730920466211
0.000731348781016
0.000731346934506
0.000731323635793
0.000731321683688
0.000730660615655
0.000730658645522
0.000726049655781
0.000719534100602
0.000717532347611
0.000717529729751
0.000717425754542
0.000717423410527
0.000717612331695
0.000717610026547
0.000717112282236
0.000724769686898
0.00074776122525
0.00074776122233
0.000736386517286
0.000736384589741
0.000735026894397
0.00073502414107
0.000736412937237
0.000735852121633
0.000736413740145
0.000736410721783
0.000739458010969
0.000739455029449
0.000748267753389
0.000748266082184
0.000739709211509
0.00072574823908
0.000725077219461
0.000725076795128
0.000725063144825
0.000725064777316
0.000726915457692
0.00072692156059
0.000729119223403
0.000731198384365
0.00073112448033
0.00073112952464
0.000731043375921
0.000731045509517
0.000729437115834
0.00072943791229
0.000724082258165
0.000715982536841
0.000708955168262
0.000708953397795
0.000706023557339
0.000706019463355
0.000705191709628
0.000705190086164
0.000705080267237
)
;
        source          uniform 0;
        value           nonuniform List<scalar> 
60
(
798.150164359
798.14951033
798.152613418
798.152662973
798.154548746
798.154446474
798.155113217
798.155100608
798.155394417
798.155474342
798.155751997
798.156978473
798.158446735
798.159001283
798.157868228
798.157854739
798.157696553
798.157619277
798.157587893
798.157776096
798.159597302
798.15864776
798.163806998
798.178292286
798.174575177
798.177174348
798.169765877
798.169206388
798.162002565
798.161730344
798.153352995
798.150261738
798.142444648
798.130705114
798.129605698
798.125553203
798.131708012
798.131326427
798.137469994
798.137429717
798.15085271
798.15040232
798.179541575
798.179028568
798.217341916
798.217493139
798.242635404
798.242718868
798.257535672
798.257992652
798.268169648
798.269755905
798.282292872
798.284621441
798.287019689
798.287972257
798.282362843
798.282620302
798.28577179
798.285815057
)
;
        kappaMethod     solidThermo;
        Tnbr            T.liquid;
        region          solid;
        otherPhase      gas;
    }
    procBoundary1to0
    {
        type            processor;
        value           nonuniform List<scalar> 5(799.703410961 799.596812836 799.372147548 799.010006254 798.489695143);
    }
}


// ************************************************************************* //
