/*--------------------------------*- C++ -*----------------------------------*\
| =========                 |                                                 |
| \\      /  F ield         | OpenFOAM: The Open Source CFD Toolbox           |
|  \\    /   O peration     | Version:  2312                                  |
|   \\  /    A nd           | Website:  www.openfoam.com                      |
|    \\/     M anipulation  |                                                 |
\*---------------------------------------------------------------------------*/
FoamFile
{
    version     2.0;
    format      ascii;
    arch        "LSB;label=32;scalar=64";
    class       volScalarField;
    location    "0.75/water";
    object      rhom;
}
// * * * * * * * * * * * * * * * * * * * * * * * * * * * * * * * * * * * * * //

dimensions      [1 -3 0 0 0 0 0];

internalField   nonuniform List<scalar> 
1504
(
657.717501627
660.742744664
659.274867594
660.712494014
660.275147764
667.000571905
700.596653199
748.011384809
792.288334053
832.16812242
861.728812081
866.692276425
866.688644271
866.722745538
864.533052366
837.282310735
815.987802875
815.981818391
863.806412204
949.34110274
660.499915317
659.240039216
660.664424918
659.241267066
660.71782837
660.70666023
683.514235496
728.260806623
777.242465999
823.517498052
859.386524162
866.688602985
866.788049008
866.703842901
866.769416
849.439937412
816.866825978
815.972341404
850.515183715
929.191884727
657.252831454
660.603302525
659.13733289
660.679615345
659.717207609
660.720029223
678.181350394
720.514205542
771.315529342
820.715738907
858.839955063
866.773277995
866.703815471
866.893733871
866.720288464
858.978290433
823.2135454
815.960416507
842.701229048
912.70960369
660.262206566
659.399989547
660.604462613
659.242226343
660.685908015
660.387485282
677.489934041
719.55601329
771.085222677
821.611517476
860.041379032
866.703778691
866.920970367
866.720270307
867.001166603
864.972264967
832.236918614
815.948493876
837.117413306
898.484510241
657.284188872
660.414790543
659.226961022
660.620681242
659.887570979
660.68835195
679.343222785
722.807784648
775.695498465
827.906872184
863.605490118
866.831751473
866.720245803
867.047145292
866.779801854
866.932168851
839.672429894
815.936572639
831.713708276
884.477453321
660.261702913
659.896599341
660.605716671
659.634591702
660.636265337
661.884090425
687.697903565
734.784846172
789.30576627
841.008647931
866.51546755
866.720212558
867.010600338
866.779786144
867.156255914
866.779790289
843.406415605
815.626685903
825.091646497
869.818759016
657.931245849
660.55567924
659.832116532
660.630808396
660.417062945
669.155665682
704.700001073
755.63692026
810.576340922
856.589598895
866.720173299
866.957712793
866.779764128
867.155495034
866.928073363
867.115826836
843.766481749
812.870498959
817.285633419
855.836503039
660.484079108
662.039079517
660.616396
660.388857972
661.609120734
684.303186779
728.96046331
782.502616397
835.835903993
865.994848763
866.865095779
866.779733694
867.170493087
866.92805827
867.256058912
866.92805929
841.777155428
810.358993872
811.614173292
844.488118648
658.49268708
669.261177392
661.314797255
661.861742508
672.875914977
708.608314897
758.586791839
812.973581059
858.3653371
866.814737618
866.77969651
867.179580044
866.928037299
867.286323972
867.019046863
867.206744816
836.668215339
809.96783353
809.134941916
836.03223263
660.508695802
679.790077426
670.466185171
674.866216972
697.7266856
740.156387825
791.983137646
843.615629519
866.716912134
866.779652221
867.144837602
866.928008051
867.374758714
867.019030449
867.334239683
863.737291344
833.19486859
810.41074619
807.703150615
829.394876262
659.290492898
691.831166767
687.744465531
699.984799903
730.619603597
775.292435057
826.266274885
864.02780451
866.77959787
867.129578746
866.927971011
867.458895205
867.019007569
867.400555058
867.083059433
860.028440548
831.975640752
811.936113816
806.401324316
822.297197439
660.559313198
704.796309893
709.206762154
730.495073337
766.052775055
810.43336691
855.297352619
866.779525334
867.138468272
866.927926278
867.54933762
867.018976814
867.551519969
867.083039765
867.353415805
857.067841937
832.654065469
814.395825411
804.690115078
810.981488328
659.876933539
720.76751119
733.797393375
761.91348804
799.858990086
841.05679678
866.70337577
867.040170518
866.927871688
867.616996754
867.018938939
867.73074791
867.083013611
867.488223703
867.134908901
856.377031731
836.448623095
817.792377922
801.72828482
796.392441494
660.719178028
742.203319596
762.008180571
791.222421842
826.414267028
861.027651412
866.96918777
866.927800869
867.665606432
867.018893817
867.932161387
867.082979955
867.672420317
867.134885212
867.302799509
858.034480059
844.062531033
821.681527856
797.956092034
794.772409044
660.728606281
768.214794694
789.521345869
813.102151993
841.371916517
866.779397984
866.927693555
867.621696165
867.018838587
867.937496033
867.082938821
867.868193171
867.134853123
867.428203986
867.175158899
864.174311303
854.697941356
827.129464674
797.626486688
794.91309474
681.996575278
789.060532016
797.942493782
816.179760139
843.443161637
866.779200708
867.336043893
866.927766686
867.937436882
867.01883882
867.720423464
860.215364875
862.139023792
866.453995172
869.449377106
872.834403304
865.947254907
835.819500657
799.834390818
794.749003347
720.012159853
788.762646387
789.718926492
805.075032213
834.362900182
861.640367967
866.77936271
867.823052538
863.196705869
853.749096864
844.842619749
849.299571771
860.466936395
868.053281946
874.199012159
878.402826584
876.138710545
849.503394074
807.567481742
794.912994268
733.340421334
758.83385309
750.537019234
759.805900997
792.199840516
825.392191746
839.800245473
836.610269855
825.23836535
817.874416391
827.802869863
847.102501838
862.221369675
871.281874812
876.130809722
880.207471647
882.156413497
866.161677648
822.923390631
794.825426446
712.274335541
699.236406412
691.675604592
695.559317232
719.400081097
750.833239324
770.947604099
775.239755208
775.591876888
786.528131038
812.831115907
842.154844442
862.035592965
872.603235554
876.597863072
880.220185538
883.864453137
880.89535577
844.342839826
797.434596227
665.096698082
662.710328383
661.594832504
662.379984889
669.598245511
686.17950697
705.882058954
721.515472377
735.633975474
755.946415717
787.764447348
826.332419266
857.38277088
872.471392935
876.905886725
879.490341088
884.248417681
889.581212823
866.559906331
808.225699133
660.75101593
660.176728116
660.854406324
660.198592151
660.875445399
662.105372592
672.336169693
688.244254584
705.821750207
726.803539046
757.814777777
801.376236884
845.389004301
871.129030477
877.299954138
878.440849416
883.084130488
890.391601329
883.400016462
828.28229647
658.183754906
660.859387352
659.928158386
660.868165021
660.233364071
660.87721429
661.151821165
670.548112577
685.336879174
705.130207246
734.942133423
778.98866117
829.906498841
867.366578075
877.423457111
877.598297707
880.624611536
890.407958584
891.639664494
850.5635181
660.74763576
660.371810758
660.851018421
660.006566397
660.874075857
660.412857597
660.878051368
662.314165231
672.69540562
691.262547318
720.648908045
764.22294325
817.446623511
862.440724517
877.387697671
876.626295644
877.818755495
888.342398843
895.299820374
866.715962018
658.169696047
660.841433014
660.25064097
660.866809518
660.346611853
660.87670097
660.611321273
660.878489796
666.736199535
683.558600259
712.636662317
756.084146485
810.410709837
859.14511252
876.970553075
874.960387888
874.218688582
884.077484338
896.380972353
877.265424635
660.746269367
663.351908248
660.851558196
660.603657595
660.873922743
660.682039683
660.877912468
660.802731203
665.310759945
681.036783013
709.873536985
753.600857243
808.686118981
858.50462258
875.599428906
871.804232395
869.242962813
879.704924937
896.384443318
883.895676341
658.870284887
672.052094977
663.247012701
660.996315715
660.808146417
661.233107337
661.291276701
661.524266864
666.381751775
681.740546939
710.615234204
754.860110276
810.528573072
859.703668654
872.738637914
866.277742058
863.256709507
876.893858693
896.387943298
888.275501161
660.746596213
681.835356753
670.568922414
667.451370379
667.748822077
668.730443894
668.535069802
668.493919512
672.755693334
687.423112027
717.056443081
762.896152764
818.860651889
862.419502782
868.066327728
857.99654042
857.407694286
876.664046943
896.427380447
891.403146276
659.635862236
689.772140863
679.373268743
680.694136198
684.75103807
687.394185203
686.370846625
684.948920455
687.854692891
702.06353054
733.214510681
780.512620697
833.387382586
862.657949678
861.980929205
848.495126732
854.189106386
879.325763945
896.467532054
893.827503434
660.747862584
696.850661559
689.0135106
695.957271022
706.881822372
712.735223487
711.28690451
708.62010654
710.906983399
725.663729024
758.380796102
805.134738406
848.509108398
861.363670558
851.270196745
843.677458444
854.913040992
884.315751542
896.461243608
895.873577257
660.475812485
705.541538079
701.38302176
712.268379149
728.501695812
737.768640566
737.313397495
735.453897411
738.809192347
755.460155658
788.929087139
831.040965507
856.772767635
855.477058252
842.68920449
842.716607321
858.928302075
889.45214636
896.556988416
896.483996149
661.232401396
717.598652998
715.038668645
727.988582703
746.369496978
758.515185527
761.44461373
762.659316475
769.232945864
788.244947659
820.110645609
851.43848239
858.997015248
850.185155486
842.457877597
844.076887315
865.036885922
891.958240043
896.483985063
896.628491985
672.107723901
730.417151753
726.142441215
737.90098233
757.715363119
775.01712952
783.894310843
790.207275309
801.129280449
821.332074007
847.278933692
862.858655212
860.962392022
849.421635404
842.43971567
848.748226588
870.787967266
891.767810211
896.584382773
896.508232448
694.438031757
731.212192291
730.780555525
738.779090694
761.131747205
787.292607491
804.71533051
817.562903771
832.855237082
852.086200993
867.47599753
870.244086988
863.914913167
851.347922336
848.641524092
857.919670014
874.993753225
889.299261131
896.508218049
896.649228458
710.47232107
730.990530455
724.092253631
732.851814054
759.299935608
790.13879472
815.519583039
835.412893591
854.599350656
873.271413946
881.29551621
879.257854573
870.993603525
862.201740319
863.496659491
870.237702751
878.168913864
885.531441275
895.829344104
896.534050942
699.605043943
702.634252144
698.491377786
709.919123104
743.204314359
782.339052123
812.957667628
836.103779219
857.422215499
877.436644162
889.925824582
889.461407454
884.769191789
881.70101869
881.943445259
881.75143899
881.236854438
884.643844237
893.404171269
896.635094527
661.934353618
655.803402914
661.52380804
672.474233023
699.86186721
742.753606039
786.44893507
821.938805429
850.248715883
874.142629205
890.041178094
895.458822337
894.967410793
894.385473415
893.16169319
889.895128629
885.214463314
886.021532235
891.57296218
896.558479786
624.717811053
632.737774103
639.557238861
644.082628481
655.020863899
681.479173561
725.175493544
774.807653111
819.511303645
856.911763953
884.797349208
895.743420272
896.218804992
896.23317072
896.006086156
894.462591071
890.736564195
889.507925078
892.15529174
896.399836793
620.346635818
631.870735686
634.990174945
635.343682882
637.682494572
648.927388001
678.029973072
1000
1000
1000
1000
1000
1000
1000
1000
1000
1000
1000
1000
1000
1000
1000
1000
1000
994.442516083
999.909587036
1000
1000
1000
1000
1000
1000
1000
1000
1000
1000
1000
1000
1000
1000
1000
1000
1000
1000
987.542669158
999.558891956
999.99933554
1000
1000
1000
1000
1000
1000
1000
1000
1000
1000
1000
1000
1000
1000
1000
1000
1000
978.193534241
998.615244502
999.991941651
1000
1000
1000
1000
1000
1000
1000
1000
1000
1000
1000
1000
1000
1000
1000
1000
1000
967.228383453
996.782230924
999.958957196
1000
1000
1000
1000
1000
1000
1000
1000
1000
1000
1000
1000
1000
1000
1000
1000
1000
954.861850824
993.882414826
999.867778711
1000
1000
1000
1000
1000
1000
1000
1000
1000
1000
1000
1000
1000
1000
1000
1000
1000
941.304049054
989.864966532
999.676536441
999.99984471
1000
1000
1000
1000
1000
1000
1000
1000
1000
1000
1000
1000
1000
1000
1000
1000
927.647394077
984.799283929
999.329949997
999.99884752
1000
1000
1000
1000
1000
1000
1000
1000
1000
1000
1000
1000
1000
1000
1000
1000
914.865764899
978.850752412
998.767900855
999.995578157
1000
1000
1000
1000
1000
1000
1000
1000
1000
1000
1000
1000
1000
1000
1000
1000
903.121155246
972.185999412
997.93965714
999.987819797
1000
1000
1000
1000
1000
1000
1000
1000
1000
1000
1000
1000
1000
1000
1000
1000
891.702839963
964.638060903
996.760784684
999.971947047
1000
1000
1000
1000
1000
1000
1000
1000
1000
1000
1000
1000
1000
1000
1000
1000
878.389197047
955.254911763
995.021518094
999.940435952
1000
1000
1000
1000
1000
1000
1000
1000
1000
1000
1000
1000
1000
1000
1000
1000
860.409003407
942.531107993
992.246396522
999.869977263
1000
1000
1000
1000
1000
1000
1000
1000
1000
1000
1000
1000
1000
1000
1000
1000
841.189960485
925.467532543
987.353884168
999.677999067
999.999946596
1000
1000
1000
1000
1000
1000
1000
1000
1000
1000
1000
1000
1000
1000
1000
824.428150061
903.459758169
978.899899939
999.13979625
999.998289085
1000
1000
1000
1000
1000
1000
1000
1000
1000
1000
1000
1000
1000
1000
1000
803.691014899
876.990069137
965.720097297
997.723423764
999.98380259
1000
1000
1000
1000
1000
1000
1000
1000
1000
1000
1000
1000
1000
1000
1000
794.913045964
854.129468454
947.07323792
994.217068431
999.886183306
999.999845548
1000
1000
1000
1000
1000
1000
1000
1000
1000
1000
1000
1000
1000
1000
794.696875886
837.179300068
924.07532348
986.725175366
999.405086666
999.995936526
1000
1000
1000
1000
1000
1000
1000
1000
1000
1000
1000
1000
1000
1000
794.912942536
823.231154211
898.722400147
973.248684192
997.680415209
999.954027028
999.999976356
1000
1000
1000
1000
1000
1000
1000
1000
1000
1000
1000
1000
1000
794.693852552
806.660825457
871.721485134
952.784902106
992.935355624
999.663691325
999.997866188
1000
1000
1000
1000
1000
1000
1000
1000
1000
1000
1000
1000
1000
794.91284659
794.733786875
845.25236729
925.803907008
982.618247348
998.390066957
999.964540754
999.999998144
1000
1000
1000
1000
1000
1000
1000
1000
1000
1000
1000
1000
794.751108278
794.912809995
824.079708571
895.656279822
965.130714697
994.565162156
999.710491421
999.998284841
1000
1000
1000
1000
1000
1000
1000
1000
1000
1000
1000
1000
795.014700792
794.599877319
808.8374582
867.986261428
942.555610557
986.556802935
998.614117201
999.966060713
999.999999854
1000
1000
1000
1000
1000
1000
1000
1000
1000
1000
1000
799.476651836
794.912747546
796.336697754
846.116828161
919.807986294
974.520329412
995.732572338
999.750326949
999.998471845
1000
1000
1000
1000
1000
1000
1000
1000
1000
1000
1000
807.944578118
794.607450489
794.912726551
830.943428947
900.200774896
960.591033597
990.628497317
998.963588033
999.974008353
999.999999628
1000
1000
1000
1000
1000
1000
1000
1000
1000
1000
818.391711733
794.912701914
794.632527429
821.185547601
884.232920028
946.741290782
983.746760879
997.217147941
999.84073573
999.99924477
1000
1000
1000
1000
1000
1000
1000
1000
1000
1000
829.040343383
794.680627139
794.912684663
814.328774849
870.898193197
933.554069804
975.779378438
994.410848283
999.431603257
999.989300254
1000
1000
1000
1000
1000
1000
1000
1000
1000
1000
838.67454896
794.912662383
794.648102822
808.819716314
858.899520222
920.673205767
967.039225199
990.689224363
998.583178216
999.93852941
999.999899418
1000
1000
1000
1000
1000
1000
1000
1000
1000
847.203526799
795.588123672
794.912644347
803.939450395
847.602124392
907.670168995
957.463135782
986.099425952
997.225379861
999.787183754
999.997903936
1000
1000
1000
1000
1000
1000
1000
1000
1000
855.154728698
798.617582026
794.660846923
797.71354807
836.27481636
894.272738245
946.745919642
980.382657013
995.259223343
999.445305428
999.98487596
999.99999857
1000
1000
1000
1000
1000
1000
1000
1000
865.053181697
804.448356713
794.912596235
794.68540407
824.428550818
879.38541991
934.022789524
972.705422758
992.240802039
998.742338447
999.927893584
999.999616893
1000
1000
1000
1000
1000
1000
1000
1000
876.132443343
815.465375737
794.615508935
794.912567755
813.386914378
862.188113025
917.555852554
961.247048302
986.858920359
997.167706236
999.703007583
999.99146421
999.999998289
999.999999972
999.999999976
999.999999991
999.999999998
999.999999998
999.999999999
999.999999998
886.709528495
831.332698452
794.912533958
794.530214766
799.567223264
839.279601654
893.76602172
942.395829248
975.836522103
992.827191745
998.65195634
999.865768523
999.995095358
999.999775483
999.999802448
999.999874377
999.999986859
999.999999695
999.999999833
999.999998173
894.08683333
849.671637791
795.780928209
794.912498914
794.57164804
812.492019007
857.555732442
908.894298961
951.236319382
978.987713098
992.90249927
998.107943768
999.565882537
999.867717721
999.903888961
999.909505259
999.96265274
999.997447979
999.999993481
999.999921135
896.648083264
867.013645294
804.180068568
794.358707062
794.912464273
794.67970771
813.559211507
854.203242747
899.97879632
938.945424248
966.876437376
983.220760397
990.819220438
994.242349656
995.457230998
995.496180856
994.722767325
998.594311569
999.99527728
999.999656279
896.558493033
880.695278498
823.556307684
794.912438192
794.386922042
794.91243599
794.650323547
804.298153256
831.698147133
867.975150886
902.993048742
925.967458081
934.089204879
943.320988097
963.590447111
963.983488333
926.985136587
957.598202977
998.752916954
999.999654123
896.627938645
889.617774194
850.143635933
802.826081208
794.912416012
794.395670184
794.912417536
794.63422261
795.848775936
808.413545132
826.419740635
832.517482886
834.665569285
855.95617361
906.492302847
898.479250362
813.007334212
850.598773181
980.776334697
999.994951493
896.582667478
894.031874878
872.339762964
829.660920875
799.727739212
794.912399595
794.526397843
794.912407189
794.5458905
794.912419372
794.752533923
794.912434935
804.837862278
837.920464327
868.287652122
830.551980434
812.721191641
847.884191272
972.92153514
999.951689652
)
;

boundaryField
{
    emptyPatch
    {
        type            empty;
    }
    minY
    {
        type            calculated;
        value           nonuniform List<scalar> 0();
    }
    maxY
    {
        type            calculated;
        value           nonuniform List<scalar> 0();
    }
    maxX
    {
        type            calculated;
        value           nonuniform List<scalar> 
38
(
1000
1000
1000
1000
1000
1000
1000
1000
1000
1000
1000
1000
1000
1000
1000
1000
1000
1000
1000
1000
1000
1000
1000
1000
1000
1000
1000
1000
1000
1000
1000
999.999999998
999.999998173
999.999921135
999.999656279
999.999654123
999.994951493
999.951689652
)
;
    }
    water_to_heater
    {
        type            calculated;
        value           nonuniform List<scalar> 
60
(
657.538247252
657.538230958
660.323025974
657.074997237
660.086330803
660.086303493
657.107194546
657.107161478
660.086261974
660.086223552
657.754598592
660.308380547
658.315665534
658.31562024
660.332063179
660.332016992
659.112795457
659.112748035
660.382005698
659.699341958
660.542231954
660.542186337
660.550554207
660.550512312
681.822844941
681.8228096
719.850724499
733.182611709
712.107624072
712.107603845
664.914725441
664.914711996
660.571952111
660.571948735
658.00560871
660.571946412
657.993650948
657.993666424
660.571958629
660.57198333
658.695143614
658.695176418
660.57201377
659.460172831
660.572043999
660.572071302
660.299325268
660.29934124
661.055511264
661.05551365
671.932525037
694.268165972
710.306643771
710.306624548
699.434666693
699.434639789
661.757846049
661.757814489
624.549381266
620.189267917
)
;
    }
    procBoundary3to1
    {
        type            processor;
        value           nonuniform List<scalar> 
41
(
724.001159113
776.441898503
827.134593595
870.985085569
894.406026174
896.252541921
896.232228975
896.269616699
896.112956981
895.096154171
893.597952153
894.068857965
896.06203516
619.833991173
636.983484347
636.815269799
635.722436268
636.963585542
645.717945441
724.001159113
669.731310004
896.619647842
895.816258085
885.861310945
859.90513962
826.122571055
804.393360803
795.431896076
794.665080871
794.912395242
794.804413323
795.743401091
802.288222396
820.495083765
844.329620111
838.356220234
768.405280255
824.371540071
889.300706526
983.413200521
999.972444162
)
;
    }
    procBoundary3to2
    {
        type            processor;
        value           nonuniform List<scalar> 
41
(
660.562777029
659.697786804
660.670957839
660.175846351
663.130234794
691.589517785
736.26254033
778.513263116
813.311144459
843.145633515
863.317832639
866.64299703
866.606319916
865.606806289
857.52431496
828.031572248
815.992647964
821.680839839
887.434525648
970.738646696
1000
1000
1000
1000
1000
1000
1000
1000
1000
1000
1000
1000
1000
1000
1000
1000
1000
998.241439546
999.989339562
1000
1000
)
;
    }
}


// ************************************************************************* //
