/*--------------------------------*- C++ -*----------------------------------*\
| =========                 |                                                 |
| \\      /  F ield         | OpenFOAM: The Open Source CFD Toolbox           |
|  \\    /   O peration     | Version:  2312                                  |
|   \\  /    A nd           | Website:  www.openfoam.com                      |
|    \\/     M anipulation  |                                                 |
\*---------------------------------------------------------------------------*/
FoamFile
{
    version     2.0;
    format      ascii;
    arch        "LSB;label=32;scalar=64";
    class       surfaceScalarField;
    location    "0.11/water";
    object      phi;
}
// * * * * * * * * * * * * * * * * * * * * * * * * * * * * * * * * * * * * * //

dimensions      [0 3 -1 0 0 0 0];

oriented        oriented;

internalField   nonuniform List<scalar> 
2914
(
1.65723416677e-07
5.28800093809e-07
1.4888077126e-07
5.52072772033e-07
1.48178133644e-07
5.91557319027e-07
1.70510476071e-07
6.78776814383e-07
2.2946401991e-07
8.79576867224e-07
2.51791135785e-07
1.48407758837e-06
1.68632035646e-07
1.52775306325e-06
1.20969328128e-07
1.11138455717e-06
9.96468293905e-08
7.86611229469e-07
9.0635154003e-08
6.436856362e-07
8.79866302129e-08
5.94511487478e-07
8.81789561608e-08
5.79188974964e-07
8.88634542534e-08
5.84785693726e-07
8.92836906954e-08
5.92344185241e-07
8.53582599059e-08
6.42478091718e-07
8.26597738249e-08
6.88699415313e-07
7.99350487691e-08
6.98342719845e-07
7.73059292366e-08
6.9954687655e-07
7.3760589609e-08
6.84489116791e-07
5.95486363061e-07
6.68403407328e-08
1.75330801522e-07
5.11190419287e-07
1.72818435013e-07
5.34635944766e-07
1.83017601698e-07
5.71555082343e-07
2.13225819608e-07
6.44454686753e-07
2.68468084937e-07
8.22255082448e-07
2.65525652993e-07
1.48607087946e-06
1.29543309552e-07
1.66335092678e-06
9.10267750093e-08
1.1497479348e-06
7.68240320471e-08
8.00711523748e-07
7.22730162295e-08
6.4815194877e-07
7.20358060152e-08
5.94676169732e-07
7.32504326456e-08
5.7791219902e-07
7.43692134039e-08
5.83599505356e-07
7.5056833406e-08
5.91588541203e-07
7.60601750064e-08
6.41407336168e-07
7.60967378886e-08
6.88549738923e-07
7.57479437871e-08
6.98578799203e-07
7.51998442806e-08
6.99986456026e-07
7.33855947327e-08
6.86173375741e-07
6.0094931431e-07
6.78165697731e-08
1.84460302127e-07
4.87657930862e-07
1.86109291074e-07
5.10843613111e-07
2.03154831045e-07
5.45438611957e-07
2.34399367449e-07
6.08809862642e-07
2.81556878874e-07
7.73203983491e-07
2.47034738098e-07
1.51965247602e-06
1.01642091833e-07
1.80837084274e-06
7.6005791815e-08
1.17526068506e-06
6.48024649902e-08
8.11843580447e-07
6.17458740421e-08
6.51148703867e-07
6.22010232039e-08
5.94166507167e-07
6.35168555064e-08
5.76545997305e-07
6.45400471202e-08
5.82528735264e-07
6.51936635393e-08
5.90884479856e-07
6.98619537414e-08
6.36642746045e-07
7.19775995019e-08
6.86342877094e-07
7.33607149327e-08
6.97091304162e-07
7.42416698067e-08
6.98988838645e-07
7.39013378298e-08
6.8640715184e-07
6.05494311146e-07
6.92460997748e-08
1.79150081168e-07
4.6723432127e-07
1.79399154939e-07
4.90733095241e-07
1.91258854746e-07
5.23916985448e-07
2.13046757903e-07
5.83112780394e-07
2.2422286796e-07
7.60146095654e-07
1.16446821857e-07
1.626488382e-06
1.16334711115e-07
1.80808441885e-06
8.24203319987e-08
1.20906218701e-06
6.64295330104e-08
8.277816426e-07
6.11835354085e-08
6.56352558459e-07
6.02213918479e-08
5.95089467814e-07
6.03538255968e-08
5.76376483908e-07
6.03174488051e-08
5.8251917709e-07
6.01896393446e-08
5.90962971568e-07
6.78939855895e-08
6.28886340416e-07
7.0713119686e-08
6.83431374674e-07
7.31634922588e-08
6.94550952777e-07
7.50259274895e-08
6.97037043001e-07
7.54981695765e-08
6.85822564473e-07
6.09533682676e-07
7.13667462351e-08
1.72736582966e-07
4.57345616051e-07
1.68007239133e-07
4.75827529228e-07
1.76794325271e-07
5.07033216374e-07
1.86383725752e-07
5.69466981443e-07
1.32716528759e-07
8.12188009486e-07
1.07981315805e-07
1.65044511766e-06
1.35886775693e-07
1.77983664711e-06
9.18890369886e-08
1.25296775343e-06
7.04191736826e-08
8.49205468288e-07
6.34604534027e-08
6.63273875089e-07
6.16202025457e-08
5.96894933377e-07
6.08695455238e-08
5.77093471988e-07
5.99438674241e-08
5.83412661978e-07
5.90577653887e-08
5.91809930704e-07
6.76630778555e-08
6.20212973909e-07
7.13321379476e-08
6.79692232392e-07
7.46198318375e-08
6.91175560672e-07
7.71373968951e-08
6.94421797398e-07
7.82932917345e-08
6.8457904516e-07
6.13435483789e-07
7.42974505729e-08
1.76612656456e-07
4.4385124063e-07
1.66124227727e-07
4.66230629388e-07
1.62063327506e-07
5.0036691132e-07
1.3695774783e-07
5.90219876626e-07
-3.09558603763e-08
9.78603079918e-07
5.91332336596e-08
1.55999409388e-06
1.83291914886e-07
1.6553909605e-06
1.09159152088e-07
1.32698557289e-06
8.10539980165e-08
8.77264265006e-07
7.04511835327e-08
6.73841827408e-07
6.70684006159e-08
6.00246216391e-07
6.53000148841e-08
5.78832262439e-07
6.3396950547e-08
5.85277674134e-07
6.15873166518e-08
5.93581383435e-07
6.8850990544e-08
6.12911931394e-07
7.39429869921e-08
6.74518078369e-07
7.79034261967e-08
6.87142783219e-07
8.08974970546e-08
6.9135407385e-07
8.23781291996e-08
6.83002414074e-07
6.17508796627e-07
7.82265743834e-08
1.812302553e-07
4.19244063857e-07
1.31948797475e-07
4.90239086485e-07
9.3762941873e-08
5.30567130838e-07
1.41483876489e-08
6.6836429892e-07
-1.22556567995e-07
1.11420929317e-06
5.52746528396e-09
1.43172684894e-06
1.4362657203e-07
1.51708896181e-06
1.36429242759e-07
1.33408652865e-06
1.03419637431e-07
9.10232247136e-07
8.53589206199e-08
6.91872091642e-07
7.83973596984e-08
6.07179690009e-07
7.46711278055e-08
5.82531190636e-07
7.13396583093e-08
5.88584290359e-07
6.81712186366e-08
5.96716592243e-07
7.20601311332e-08
6.08973437671e-07
8.0646916997e-08
6.6588088845e-07
8.40923105824e-08
6.83625528293e-07
8.68436696662e-08
6.88520305481e-07
8.82096504911e-08
6.81562603634e-07
6.22195106085e-07
8.34417841566e-08
1.1802893298e-07
4.55761808669e-07
-2.53404205361e-09
6.0066964987e-07
-1.19067566202e-07
6.48868938897e-07
-2.63618541831e-07
8.1471874281e-07
-2.08492993803e-07
1.05938621854e-06
-5.10083788906e-08
1.27426387211e-06
1.06689608812e-07
1.3593129121e-06
1.69949099325e-07
1.2707587462e-06
1.36134074749e-07
9.44005555543e-07
1.07675221023e-07
7.20300131571e-07
9.50581816368e-08
6.19769725801e-07
8.86429122728e-08
5.88921023849e-07
8.35695957268e-08
5.93623401209e-07
7.8706236914e-08
6.01547333483e-07
7.77626756664e-08
6.09891244024e-07
8.98638072052e-08
6.53711118179e-07
9.2371117472e-08
6.81051184698e-07
9.4522684666e-08
6.86298895315e-07
9.52552632769e-08
6.80744060762e-07
6.27600935159e-07
8.978129874e-08
1.16058990838e-07
4.90669696875e-07
4.04243732525e-08
6.64104110445e-07
-5.3944542601e-08
7.43771714049e-07
-9.11150875884e-08
8.53901678629e-07
-4.85912411346e-08
1.01732446099e-06
6.10115801132e-08
1.16471000679e-06
1.72871998201e-07
1.24740824338e-06
2.18914230271e-07
1.22466881726e-06
1.82823874497e-07
9.80057536827e-07
1.39361717304e-07
7.637287712e-07
1.17663770504e-07
6.41439398283e-07
1.07225053006e-07
5.99334061431e-07
1.00314847539e-07
6.00512039193e-07
9.38808366302e-08
6.07951927581e-07
8.87172144065e-08
6.15019028691e-07
1.00566947992e-07
6.41824742625e-07
1.01301741828e-07
6.80251645583e-07
1.02851387268e-07
6.84683748606e-07
1.02965446621e-07
6.80571677132e-07
6.33626587071e-07
9.68696601958e-08
1.45416106579e-07
4.91890992522e-07
1.11130122778e-07
6.81227612651e-07
7.94262750003e-08
7.7230399636e-07
7.25917528579e-08
8.61062287225e-07
1.16505677487e-07
9.73649303103e-07
1.9729447213e-07
1.08395654302e-06
2.81983836011e-07
1.16267455887e-06
3.28600147904e-07
1.17798878997e-06
2.398220692e-07
1.06877848464e-06
1.81184587489e-07
8.22323069088e-07
1.46724035152e-07
6.75867989499e-07
1.29712154594e-07
6.16320894743e-07
1.20262105378e-07
6.09932581702e-07
1.11592765604e-07
6.16597085916e-07
1.03800784793e-07
6.22783688976e-07
1.10517836316e-07
6.35056513408e-07
1.12488481921e-07
6.78234540546e-07
1.1245705037e-07
6.84655595342e-07
1.11224232648e-07
6.81730732447e-07
6.40300174036e-07
1.04491280229e-07
1.58587953525e-07
4.79367645103e-07
1.45320196712e-07
6.74599459635e-07
1.41366840663e-07
7.69796508289e-07
1.52943391613e-07
8.48041873276e-07
1.88983452029e-07
9.37358117699e-07
2.44968116841e-07
1.0278946998e-06
3.02469730637e-07
1.10510486626e-06
3.29721208568e-07
1.15066759071e-06
2.91623516725e-07
1.10681073087e-06
2.28488349213e-07
8.85404168754e-07
1.80683869786e-07
7.2363229933e-07
1.54884106358e-07
6.42089100065e-07
1.42558578796e-07
6.22232667061e-07
1.31642888057e-07
6.27480793674e-07
1.21127374476e-07
6.33265092381e-07
1.18614714919e-07
6.37550904382e-07
1.24888505695e-07
6.71898913877e-07
1.22721749933e-07
6.86759976585e-07
1.19840040649e-07
6.84555982714e-07
6.47736340038e-07
1.12336732885e-07
1.64564198302e-07
4.60223299022e-07
1.62243299765e-07
6.55809274018e-07
1.71831734082e-07
7.51702531949e-07
1.9160400013e-07
8.2542233518e-07
2.25627552703e-07
9.02472262741e-07
2.71628473486e-07
9.81607506115e-07
3.20591098722e-07
1.05600975424e-06
3.55639859281e-07
1.11552768836e-06
3.40418578523e-07
1.1219564477e-06
2.79263477486e-07
9.46495667312e-07
2.19863757841e-07
7.82982554241e-07
1.83873043322e-07
6.78044848838e-07
1.66604769806e-07
6.39473048326e-07
1.54106915545e-07
6.39956007782e-07
1.41893041938e-07
6.45450134248e-07
1.3170715166e-07
6.47698555078e-07
1.37943110081e-07
6.65630664217e-07
1.33148963134e-07
6.91498983496e-07
1.28255256322e-07
6.89384316388e-07
6.55978528623e-07
1.19959465074e-07
1.68943279555e-07
4.37201823784e-07
1.73292005433e-07
6.29337915319e-07
1.90401545395e-07
7.24627872545e-07
2.16331120557e-07
7.95415869053e-07
2.5192026883e-07
8.65331664415e-07
2.96297889826e-07
9.36615497681e-07
3.45649246305e-07
1.00637941669e-06
3.92762538711e-07
1.06825289276e-06
4.1423845141e-07
1.10036226327e-06
3.24833525021e-07
1.03580898742e-06
2.60769155442e-07
8.46981580176e-07
2.15942926176e-07
7.22826420946e-07
1.9123231756e-07
6.64152642295e-07
1.76362571048e-07
6.54793817932e-07
1.61592058889e-07
6.60195237097e-07
1.47591315163e-07
6.61674980558e-07
1.48152344306e-07
6.6501976257e-07
1.4449872105e-07
6.95103678084e-07
1.36768931971e-07
6.97061577561e-07
6.65415080481e-07
1.27271104027e-07
1.68797747982e-07
4.15519631349e-07
1.74498563425e-07
6.01393308941e-07
1.92702009664e-07
6.95886144565e-07
2.18098996175e-07
7.65398797099e-07
2.49560081473e-07
8.31929542801e-07
2.85808193601e-07
8.99541823739e-07
3.24475835717e-07
9.67326860766e-07
3.6025447073e-07
1.03226415327e-06
3.77635633288e-07
1.08284125e-06
3.48305638602e-07
1.06503271614e-06
2.92855133837e-07
9.02354232796e-07
2.46012709618e-07
7.69614837446e-07
2.15414010835e-07
6.94713227814e-07
1.97472634606e-07
6.72705792786e-07
1.80315583845e-07
6.77316057825e-07
1.62886361092e-07
6.79072177255e-07
1.53579062509e-07
6.74312275991e-07
1.53970673079e-07
6.94660066508e-07
1.44022793366e-07
7.0694457761e-07
6.75791042574e-07
1.33592211002e-07
1.67452662961e-07
3.96094580999e-07
1.73912013772e-07
5.72942842673e-07
1.92805756897e-07
6.66495489863e-07
2.16431102163e-07
7.37058009496e-07
2.43380566924e-07
8.02920661709e-07
2.72980724092e-07
8.69011210705e-07
3.03924949044e-07
9.35935534734e-07
3.34082303824e-07
1.00186290527e-06
3.57674903835e-07
1.0590915659e-06
3.50822142249e-07
1.07177008717e-06
3.10581864787e-07
9.4251025716e-07
2.70596656419e-07
8.09540133449e-07
2.39124541707e-07
7.26143261372e-07
2.17699212909e-07
6.94099592879e-07
1.98876119479e-07
6.96118584911e-07
1.79148073763e-07
6.98771042663e-07
1.61362230603e-07
6.92061830557e-07
1.59712051332e-07
6.96274389123e-07
1.49885515999e-07
7.16718784387e-07
6.8699377559e-07
1.38631237041e-07
1.67242829612e-07
3.77125322249e-07
1.79864305516e-07
5.37998238931e-07
2.05167782824e-07
6.2986810452e-07
2.27632881169e-07
7.09093825968e-07
2.48679901595e-07
7.793097044e-07
2.70344547724e-07
8.4616405264e-07
2.93126815633e-07
9.12588983099e-07
3.16686908993e-07
9.78009941174e-07
3.38066269519e-07
1.03753568773e-06
3.4735567067e-07
1.06235807324e-06
3.13378165663e-07
9.76401616351e-07
2.86462770664e-07
8.36392981592e-07
2.59127379267e-07
7.53433613628e-07
2.35751253975e-07
7.17443779009e-07
2.14724895392e-07
7.17110480247e-07
1.92098172488e-07
7.21377254526e-07
1.69441955308e-07
7.14693018824e-07
1.60109554309e-07
7.05555293294e-07
1.5285203789e-07
7.23929040424e-07
6.98621414148e-07
1.41177915381e-07
1.75224824786e-07
3.49635418685e-07
2.13349643419e-07
4.71980402251e-07
2.38020218249e-07
5.87639516765e-07
2.54043405131e-07
6.84067457643e-07
2.62394982622e-07
7.66829505263e-07
2.70594101938e-07
8.36170195464e-07
2.79961618867e-07
9.02442962758e-07
2.9071483418e-07
9.66893693415e-07
3.01560704027e-07
1.02649602842e-06
3.0853150687e-07
1.05526445787e-06
3.10465548036e-07
9.74382445688e-07
2.96542303199e-07
8.50253307773e-07
2.75128549891e-07
7.74800330031e-07
2.52203811426e-07
7.40332474361e-07
2.29328072795e-07
7.39959883289e-07
2.03946672894e-07
7.46717499514e-07
1.76903012032e-07
7.41703323279e-07
1.56691483264e-07
7.25756824374e-07
1.49900048257e-07
7.30683134192e-07
7.10366846673e-07
1.38115492228e-07
1.9330155389e-07
3.01987837123e-07
2.13186543766e-07
4.25423179247e-07
2.56431013226e-07
5.30551520849e-07
2.6248128358e-07
6.70321716659e-07
2.60061985567e-07
7.65526292674e-07
2.5609346806e-07
8.38463323574e-07
2.54317505295e-07
9.03482413933e-07
2.55923838216e-07
9.64951731159e-07
2.63054563278e-07
1.01918959117e-06
2.79655390892e-07
1.03855333998e-06
3.12687435041e-07
9.4127007053e-07
3.08195254876e-07
8.54684013471e-07
2.91152501809e-07
7.91797107836e-07
2.69524433387e-07
7.61926853211e-07
2.45512063394e-07
7.63940445139e-07
2.18605316049e-07
7.73612254726e-07
1.89264422021e-07
7.71017919668e-07
1.59754387945e-07
7.55233684812e-07
1.44619710501e-07
7.45799307816e-07
7.25197774208e-07
1.29752262684e-07
1.13212985759e-07
3.45621630459e-07
1.03591040238e-07
4.23196950844e-07
1.1708256885e-07
5.11464324312e-07
1.58844336661e-07
6.24885171758e-07
1.72664301315e-07
7.49540603918e-07
1.79413572015e-07
8.30656811672e-07
1.86062761246e-07
8.96353178299e-07
1.98226857437e-07
9.52561965196e-07
2.25863413858e-07
9.91426844665e-07
2.87691583412e-07
9.76634234636e-07
3.19876312033e-07
9.09009892775e-07
3.22711020948e-07
8.51788648996e-07
3.09270079996e-07
8.05191990647e-07
2.88522089065e-07
7.8264087837e-07
2.63210328176e-07
7.89230874077e-07
2.34286801296e-07
8.02497976665e-07
2.01963914201e-07
8.03333533928e-07
1.67605782801e-07
7.89577685072e-07
1.39090430351e-07
7.74260419116e-07
7.46372567753e-07
1.17891196035e-07
4.17794180186e-08
4.66948255359e-07
2.10616252153e-08
4.4069616223e-07
2.42360010855e-08
5.07090483445e-07
4.48288326104e-08
6.02944957421e-07
7.21935609188e-08
7.21169570232e-07
9.30935702037e-08
8.09200810193e-07
1.14542292373e-07
8.74621307499e-07
1.51802877633e-07
9.15142725741e-07
2.23954642442e-07
9.1916574357e-07
2.96262240195e-07
9.04240435594e-07
3.27146280634e-07
8.78056974496e-07
3.35883548021e-07
8.42995971636e-07
3.27411950914e-07
8.13621219123e-07
3.0826848722e-07
8.01753386569e-07
2.81714973078e-07
8.15750585329e-07
2.5108874038e-07
8.33119536316e-07
2.15854443496e-07
8.38524818681e-07
1.75861612664e-07
8.29532566049e-07
1.30650768993e-07
8.19498316055e-07
7.74680596293e-07
1.02322001501e-07
5.98662769619e-08
5.60383501716e-07
2.04807882456e-08
4.73192808785e-07
7.85256684239e-09
5.18393590625e-07
1.54433880193e-08
5.94832307628e-07
3.73547645739e-08
6.9871159435e-07
7.54478259253e-08
7.70763268491e-07
1.30922739932e-07
8.18945594092e-07
1.96036894216e-07
8.49901500923e-07
2.51973455557e-07
8.63137446937e-07
2.96760103886e-07
8.59379552096e-07
3.29083184764e-07
8.45673659579e-07
3.43682961369e-07
8.28348136546e-07
3.41496430754e-07
8.15771823988e-07
3.24347801437e-07
8.18875257086e-07
2.98758650621e-07
8.4133354018e-07
2.68391670486e-07
8.63447998489e-07
2.3144244742e-07
8.75485519071e-07
1.79189728123e-07
8.81829430953e-07
1.08601912127e-07
8.90025400718e-07
8.03559770701e-07
7.96988953485e-08
1.19339612828e-07
5.93356171406e-07
6.83906660837e-08
5.09415723057e-07
4.12580829318e-08
5.42069748414e-07
3.160369596e-08
6.03697549758e-07
4.58745219413e-08
6.84059841457e-07
8.26878846415e-08
7.33726742502e-07
1.3323183865e-07
7.68269669745e-07
1.88862784445e-07
7.94183731594e-07
2.43033387263e-07
8.08903341631e-07
2.89040351638e-07
8.13321341563e-07
3.22783003427e-07
8.11889470374e-07
3.41903969453e-07
8.09194996004e-07
3.44265866914e-07
8.13386583901e-07
3.30664690713e-07
8.32461345132e-07
3.1139628663e-07
8.60559419345e-07
2.86984750194e-07
8.87879294977e-07
2.4681138365e-07
9.15690350692e-07
1.54591915175e-07
9.73972028242e-07
7.16829159512e-08
9.7292795605e-07
8.22817561697e-07
5.24068833886e-08
1.61572612136e-07
5.88374834039e-07
1.04567502668e-07
5.48225767519e-07
6.51376554936e-08
5.76334963229e-07
3.64612146738e-08
6.31196574877e-07
3.74001050431e-08
6.82802199793e-07
6.76610573273e-08
7.03332576398e-07
1.14447100025e-07
7.21411717977e-07
1.670789994e-07
7.41504544854e-07
2.17677370616e-07
7.58269560579e-07
2.6114206249e-07
7.69828526051e-07
2.94331047381e-07
7.78678414571e-07
3.14315630899e-07
7.89194028028e-07
3.19456142243e-07
8.08235412385e-07
3.15123475678e-07
8.36772035976e-07
3.0707512292e-07
8.6863498183e-07
2.82986433183e-07
9.11999089742e-07
2.13637052298e-07
9.84987462873e-07
9.95430865208e-08
1.08803397894e-06
4.12329739557e-08
1.03120522626e-06
8.31948785588e-07
3.2071267392e-08
1.53344187126e-07
5.94374774639e-07
9.39833572606e-08
5.91510702844e-07
4.60428722595e-08
6.19024040364e-07
5.72888157712e-09
6.70236694291e-07
-7.88571943473e-10
6.8912990148e-07
2.14741287951e-08
6.81020677263e-07
6.07442574218e-08
6.82119572969e-07
1.07449437952e-07
6.94785111868e-07
1.53612292969e-07
7.12094792606e-07
1.94058741516e-07
7.29372064131e-07
2.26047709091e-07
7.46681896251e-07
2.47126015105e-07
7.68112304921e-07
2.5812749967e-07
7.97229785078e-07
2.61382477715e-07
8.3352596864e-07
2.48711793489e-07
8.81313973759e-07
1.94595323451e-07
9.66092101758e-07
1.05306412762e-07
1.07424733745e-06
5.87086963089e-08
1.13463441533e-06
3.16692690481e-08
1.0582443587e-06
8.36442226576e-07
2.71574820932e-08
1.20810397544e-07
6.38810396469e-07
3.79100965548e-08
6.63681488854e-07
-2.20429606871e-08
6.7591317592e-07
-6.47304348465e-08
7.12684823644e-07
-7.24869228455e-08
6.96945698181e-07
-5.88828411379e-08
6.67449335615e-07
-3.07728494977e-08
6.54024850475e-07
6.69373994173e-09
6.57327326964e-07
4.74528357814e-08
6.71339409083e-07
8.63236667562e-08
6.90501520279e-07
1.21746592437e-07
7.11256361942e-07
1.48120887283e-07
7.41732349553e-07
1.62310718007e-07
7.83030680562e-07
1.57381377917e-07
8.38444869818e-07
1.1776694268e-07
9.20917209295e-07
5.46907060589e-08
1.02915116999e-06
3.09478901963e-08
1.09799562458e-06
3.08071433806e-08
1.13477327427e-06
3.12265535085e-08
1.05782385901e-06
8.35521537152e-07
3.21340076478e-08
1.21279878788e-07
7.03998033297e-07
-2.42069252908e-08
8.07278655803e-07
-9.08491499361e-08
7.47914830215e-07
-1.30340419287e-07
7.54424391384e-07
-1.45852096383e-07
7.1308601214e-07
-1.49121936369e-07
6.70883390925e-07
-1.38990630137e-07
6.43951393206e-07
-1.15317941048e-07
6.3368430955e-07
-8.1927859856e-08
6.37967518466e-07
-4.43710207033e-08
6.52955222028e-07
-6.44720571393e-09
6.73338993906e-07
2.31648769408e-08
7.12124349632e-07
3.74363628817e-08
7.68764888699e-07
2.58356963733e-08
8.50057210809e-07
-1.00533996047e-08
9.56819551999e-07
-1.48315331482e-08
1.03394661312e-06
-5.1165735594e-09
1.08828728705e-06
1.6081984697e-08
1.11357586583e-06
3.72934390006e-08
1.0366076323e-06
8.29993499333e-07
4.28042855429e-08
1.47138212089e-07
7.13012708034e-07
5.95427555799e-08
8.89990560061e-07
-4.38702192187e-08
8.53343361134e-07
-8.69816796926e-08
7.99562872053e-07
-1.26036071023e-07
7.53378242477e-07
-1.64886491785e-07
7.10190981334e-07
-1.93425840486e-07
6.72633355748e-07
-2.01771237453e-07
6.42085351463e-07
-1.87668630386e-07
6.2389879955e-07
-1.60457463151e-07
6.2576724055e-07
-1.3156225558e-07
6.44460371557e-07
-1.03633869252e-07
6.84210398367e-07
-7.89643255951e-08
7.44109196345e-07
-6.2983086374e-08
8.34090202973e-07
-5.45194457217e-08
9.48373446827e-07
-3.68122261566e-08
1.01625440671e-06
-1.1333072183e-08
1.06281903353e-06
2.14807528029e-08
1.08077574988e-06
5.04989928565e-08
1.00758552569e-06
8.22902305513e-07
5.75802728662e-08
1.09143454594e-07
6.46746288767e-07
1.36050103801e-07
8.51623580511e-07
1.44228762075e-07
8.38198563304e-07
1.14521281575e-07
8.27238493794e-07
4.6514812597e-08
8.20950533508e-07
-4.56936961735e-08
8.02417500004e-07
-1.3253779458e-07
7.59554856427e-07
-1.95743561211e-07
7.0538690902e-07
-2.22488938081e-07
6.50689445821e-07
-2.17361874658e-07
6.20668536035e-07
-1.99954525391e-07
6.2707478479e-07
-1.73356693261e-07
6.57630281937e-07
-1.36322400346e-07
7.07090076729e-07
-9.28926294607e-08
7.90674036075e-07
-5.71858161588e-08
9.12680244544e-07
-2.9758209283e-08
9.88836326619e-07
2.54914417946e-09
1.03052390936e-06
3.88256203266e-08
1.04450495868e-06
6.80923713522e-08
9.78330926604e-07
8.16300342441e-07
7.46933745119e-08
1.00483160517e-07
5.617254282e-07
1.45929081316e-07
7.88926121702e-07
1.67024388059e-07
8.06182424304e-07
1.81164389691e-07
8.08311801706e-07
1.76620355214e-07
8.23649496194e-07
1.38595183153e-07
8.39853619997e-07
5.0065271248e-08
8.47955856985e-07
-8.22475568669e-08
8.3770176976e-07
-1.71089684766e-07
7.39581359676e-07
-2.00334851433e-07
6.49948337525e-07
-1.97450142495e-07
6.24212904032e-07
-1.77488046131e-07
6.37686819925e-07
-1.42662337554e-07
6.72281365829e-07
-9.16894726236e-08
7.39718271752e-07
-3.67509643381e-08
8.57760404592e-07
-5.68388438104e-09
9.57788016261e-07
2.71476056452e-08
9.97702685534e-07
6.02045715657e-08
1.01146216053e-06
8.68047919483e-08
9.51735418302e-07
8.11051757385e-07
9.20522399777e-08
7.10632768441e-08
5.06465993285e-07
1.04966182133e-07
7.39390389706e-07
1.30197773145e-07
7.71003661034e-07
1.52469938426e-07
7.81212484728e-07
1.6404147974e-07
8.10042788115e-07
1.59860023798e-07
8.43278404022e-07
1.35402214524e-07
8.72171974527e-07
8.56406428327e-08
8.87405936786e-07
-3.86315310282e-08
8.63861721649e-07
-1.19115313785e-07
7.3045410194e-07
-1.38776536878e-07
6.43897021639e-07
-1.31994740264e-07
6.30920734777e-07
-1.11749792613e-07
6.52048233269e-07
-6.98932870966e-08
6.97872582789e-07
-1.06168638834e-08
7.98495916975e-07
2.46171240949e-08
9.22564082698e-07
5.39743950146e-08
9.68356617098e-07
8.11884895638e-08
9.84252842542e-07
1.03582379288e-07
9.29348741482e-07
8.07013842073e-07
1.07621883781e-07
5.0666165072e-08
4.75496063216e-07
6.98598073337e-08
7.07588423393e-07
8.82140367816e-08
7.44730721082e-07
1.09306635066e-07
7.56211141321e-07
1.27074798322e-07
7.90595228791e-07
1.38148581561e-07
8.31553047575e-07
1.39004356345e-07
8.71087186624e-07
1.26125755505e-07
9.00216218745e-07
9.36634184123e-08
8.96315586147e-07
-1.16102873931e-08
8.35740559168e-07
-5.09382034806e-08
6.83240991287e-07
-6.21066048072e-08
6.42101911219e-07
-5.72571145849e-08
6.47207813915e-07
-3.61063181281e-08
6.76728666709e-07
1.18264545001e-08
7.50571566081e-07
5.4341898749e-08
8.80057714872e-07
7.87372059438e-08
9.43967941504e-07
9.95554116076e-08
9.63446411685e-07
1.17210754898e-07
9.11699539356e-07
8.04059079791e-07
1.20168159265e-07
3.57476922629e-08
4.61938577462e-07
4.0469874822e-08
6.92200871992e-07
5.10144395582e-08
7.28525649438e-07
6.60238025061e-08
7.38704136408e-07
8.16639977212e-08
7.73898734377e-07
9.5041394388e-08
8.17756353067e-07
1.04458209612e-07
8.61515402429e-07
1.0829787485e-07
8.96326166791e-07
9.91131905632e-08
9.05492512152e-07
7.19244771327e-08
8.62937009662e-07
3.6282288314e-08
7.18893526527e-07
1.2937776727e-08
6.65455216471e-07
5.75660210898e-09
6.5439527081e-07
9.00654126218e-09
6.73483433175e-07
3.60284425205e-08
7.23555579467e-07
7.90113712924e-08
8.37087854345e-07
9.81241966795e-08
9.24869330603e-07
1.13808611076e-07
9.4777091754e-07
1.27800195624e-07
8.97718690307e-07
8.02168154092e-07
1.29696651836e-07
1.75265648652e-08
4.69662777015e-07
8.4017228182e-09
6.94860796998e-07
1.01673442525e-08
7.24007466995e-07
1.78297638258e-08
7.29869977134e-07
3.0787140097e-08
7.60468308239e-07
4.6864418056e-08
8.01493883046e-07
6.53441388561e-08
8.42966384976e-07
8.53386604498e-08
8.76311481751e-07
1.04074283009e-07
8.86755273964e-07
1.16890736764e-07
8.50127141426e-07
1.00769474263e-07
7.35020174504e-07
7.94917423599e-08
6.86738707391e-07
6.47944448172e-08
6.6909706016e-07
5.96053031137e-08
6.7867601905e-07
6.73901219815e-08
7.15774157966e-07
9.88930545987e-08
8.05591642896e-07
1.12810567463e-07
9.1096058804e-07
1.24030399795e-07
9.36564349696e-07
1.35451282183e-07
8.86306417652e-07
8.01117230896e-07
1.36507787433e-07
-1.34062487037e-08
5.14025702137e-07
-4.04142486738e-08
7.19794255739e-07
-5.04171325692e-08
7.35345173232e-07
-5.2357051991e-08
7.32697231583e-07
-4.4558373333e-08
7.52927866213e-07
-2.749224551e-08
7.84481861229e-07
-6.08330082156e-10
8.16098018822e-07
3.63480119747e-08
8.39364519755e-07
8.4575532685e-08
8.38537375732e-07
1.462369906e-07
7.88468852566e-07
1.430938245e-07
7.3816461739e-07
1.28624824893e-07
7.01209794178e-07
1.1342738346e-07
6.84296907186e-07
1.03767727431e-07
6.88336996288e-07
1.00705663989e-07
7.18838091445e-07
1.15665378394e-07
7.90637821034e-07
1.23798779467e-07
9.02836697027e-07
1.30830910129e-07
9.29540736092e-07
1.40247986913e-07
8.7690037776e-07
8.00779446628e-07
1.40593002614e-07
-6.01374661959e-08
6.13142958553e-07
-1.12784409082e-07
7.82635793075e-07
-1.48222263673e-07
7.78801418456e-07
-1.77094003123e-07
7.6492451098e-07
-1.82116396357e-07
7.58885386706e-07
-1.39212059857e-07
7.41808560325e-07
-5.1959685573e-08
7.28905804022e-07
4.34951165193e-08
7.43931773791e-07
1.27943732094e-07
7.54091151691e-07
1.63440695672e-07
7.52971588877e-07
1.69061264835e-07
7.32542811912e-07
1.59859518627e-07
7.1041121539e-07
1.47154947383e-07
6.97001915164e-07
1.35693214779e-07
6.99798751927e-07
1.27963687816e-07
7.26568953395e-07
1.29372000073e-07
7.8923557715e-07
1.31323895011e-07
9.00899181096e-07
1.34276666109e-07
9.26606565958e-07
1.42411157436e-07
8.68779510935e-07
8.01294975063e-07
1.41904202095e-07
-6.99494633273e-08
7.37818080919e-07
-1.44870006832e-07
8.80143592215e-07
-2.23132019294e-07
8.70119504871e-07
-2.33753720921e-07
7.79835108625e-07
-1.31969759632e-07
6.58035758522e-07
-3.69324329271e-08
6.46915845464e-07
2.88457031596e-08
6.63158987124e-07
8.61603257266e-08
6.86626003469e-07
1.31951915005e-07
7.08303891684e-07
1.64152301606e-07
7.20773745617e-07
1.76434020292e-07
7.20262358059e-07
1.74425285935e-07
7.12420790946e-07
1.65629910823e-07
7.05797677038e-07
1.54492957947e-07
7.10935303095e-07
1.45369824436e-07
7.35693116731e-07
1.39271291569e-07
7.95340387715e-07
1.33912359058e-07
9.06271826859e-07
1.33989562963e-07
9.26544556623e-07
1.41070453867e-07
8.61712937537e-07
8.02180951578e-07
1.40193833568e-07
5.84909959776e-08
2.13362792523e-08
-9.99591898442e-09
-4.7584016889e-09
1.41670418596e-08
4.1137320413e-08
7.21846837439e-08
1.03030380067e-07
1.3034804102e-07
1.50950033646e-07
1.62682093524e-07
1.65654763746e-07
1.62285808058e-07
1.55655104647e-07
1.50902012615e-07
1.48115772493e-07
1.41104863456e-07
1.35543284709e-07
1.3457066005e-07
1.30463688476e-07
3.98985287624e-08
3.42625289068e-07
3.6100565241e-08
3.2477739337e-07
3.24983904052e-08
3.08605496535e-07
2.90492459657e-08
2.93371132948e-07
2.57492770934e-08
2.78806441104e-07
2.26113226377e-08
2.6504715086e-07
1.96289590392e-08
2.5221452312e-07
1.67903278522e-08
2.40021271994e-07
1.41103782944e-08
2.26273451271e-07
1.15748979335e-08
2.05314918571e-07
9.15920105519e-09
1.79880708413e-07
6.89659989192e-09
1.53965324923e-07
4.81625898469e-09
1.28564165763e-07
2.95481290429e-09
1.045063247e-07
1.34665019171e-09
8.30116219361e-08
6.56751116022e-08
6.03273675692e-08
4.94263357459e-07
5.47736462128e-08
4.28162401528e-07
4.99453459311e-08
3.92550092475e-07
4.54528783683e-08
3.67664007492e-07
4.12542791068e-08
3.46821491682e-07
3.73303261169e-08
3.28699886807e-07
3.36068831707e-08
3.12327917363e-07
3.00417684055e-08
2.9693556141e-07
2.66285166895e-08
2.8221936957e-07
2.33801024109e-08
2.68295477768e-07
2.02920039051e-08
2.55302612662e-07
1.73524005702e-08
2.4296087058e-07
1.45789387675e-08
2.29046911764e-07
1.19588159469e-08
2.079350393e-07
9.46430949781e-09
1.82375214376e-07
7.12707261515e-09
1.56302561572e-07
4.9764159332e-09
1.30714823269e-07
3.05112688454e-09
1.06431615768e-07
1.38832477943e-09
8.46744263895e-08
6.70634366796e-08
6.17842296235e-08
5.00233021357e-07
5.63481725559e-08
4.33575172241e-07
5.15042519282e-08
3.97384936162e-07
4.6951518115e-08
3.72212112314e-07
4.26523018522e-08
3.51118268997e-07
3.86145072668e-08
3.3273623769e-07
3.47758924153e-08
3.16165530719e-07
3.10970188698e-08
3.00613754913e-07
2.75702280304e-08
2.85745828183e-07
2.4208485758e-08
2.71657132613e-07
2.10097057886e-08
2.58501392626e-07
1.79630284236e-08
2.46007553755e-07
1.50894033419e-08
2.31920546864e-07
1.2378058321e-08
2.10646391076e-07
9.79849870062e-09
1.84954784448e-07
7.38055974414e-09
1.58720506828e-07
5.15343976272e-09
1.32941953212e-07
3.15799979978e-09
1.08427064427e-07
1.435523375e-09
8.63969115135e-08
6.84989601015e-08
6.35044344995e-08
5.05912444489e-07
5.81193050342e-08
4.38937209918e-07
5.32342695529e-08
4.02261007587e-07
4.86077386342e-08
3.76834036998e-07
4.42007368192e-08
3.55522807816e-07
4.00396514566e-08
3.36895888571e-07
3.6075836939e-08
3.20128359162e-07
3.22727940928e-08
3.04416113925e-07
2.86222303851e-08
2.89396037424e-07
2.51367037053e-08
2.75142552873e-07
2.18164265777e-08
2.61821659532e-07
1.86519459835e-08
2.49172032138e-07
1.56675392748e-08
2.3490495421e-07
1.28543686244e-08
2.13459560986e-07
1.0179582555e-08
1.87629571089e-07
7.67109091382e-09
1.61228998527e-07
5.35757568322e-09
1.35255469208e-07
3.28188383363e-09
1.10502757388e-07
1.49031873729e-09
8.81884779891e-08
6.99892788533e-08
6.57028679312e-08
5.1151986007e-07
6.02653173348e-08
4.44352835296e-07
5.5284640612e-08
4.07233062451e-07
5.0546692324e-08
3.81567503379e-07
4.60050709277e-08
3.60061986542e-07
4.16951139086e-08