/*--------------------------------*- C++ -*----------------------------------*\
| =========                 |                                                 |
| \\      /  F ield         | OpenFOAM: The Open Source CFD Toolbox           |
|  \\    /   O peration     | Version:  2312                                  |
|   \\  /    A nd           | Website:  www.openfoam.com                      |
|    \\/     M anipulation  |                                                 |
\*---------------------------------------------------------------------------*/
FoamFile
{
    version     2.0;
    format      ascii;
    arch        "LSB;label=32;scalar=64";
    class       volVectorField;
    location    "0.615/water";
    object      U.gas;
}
// * * * * * * * * * * * * * * * * * * * * * * * * * * * * * * * * * * * * * //

dimensions      [0 1 -1 0 0 0 0];

internalField   nonuniform List<vector> 
1497
(
(0.12102809768 1.29755505949 0)
(0.140642683841 1.20091734616 0)
(0.157049987829 1.08940790276 0)
(0.171194335507 0.990603857777 0)
(0.185201326648 0.913854755427 0)
(0.197620530728 0.860043595324 0)
(0.204413847287 0.816470191847 0)
(0.205941956164 0.776733803861 0)
(0.205229501299 0.74005431801 0)
(0.20318085414 0.706265799205 0)
(0.200350723688 0.674873860678 0)
(0.197728819496 0.644611223831 0)
(0.196359714679 0.613659979227 0)
(-0.0330423736927 1.62672113232 0)
(-0.045719991227 1.26668462487 0)
(-0.0156307534592 1.21281133699 0)
(0.00553330212928 1.2573269745 0)
(0.0303318307631 1.30952660532 0)
(0.0577157001378 1.32464011018 0)
(0.0845229114094 1.29896282463 0)
(0.109048616311 1.24560150249 0)
(0.131360423511 1.16833850376 0)
(0.151316332813 1.07809930184 0)
(0.169912512715 0.994640054162 0)
(0.187965161729 0.928276850248 0)
(0.201689143506 0.878381398176 0)
(0.20737174467 0.834567082657 0)
(0.207833714287 0.793857183278 0)
(0.206240220177 0.755831501084 0)
(0.202974985423 0.720218563862 0)
(0.198605959825 0.686519798846 0)
(0.194039461363 0.653381415139 0)
(0.190128094328 0.618967653093 0)
(-0.0181018294442 2.07445960257 0)
(-0.0335755208669 1.1970460397 0)
(-0.0226174159365 1.14902415421 0)
(-0.00300474596306 1.18594414357 0)
(0.0213272537108 1.23128129515 0)
(0.0477671898454 1.2484943218 0)
(0.0743514033046 1.23656743209 0)
(0.100095139179 1.19891653943 0)
(0.124494184901 1.13910786284 0)
(0.147722564422 1.06813388925 0)
(0.170331622041 1.0009653521 0)
(0.189793758799 0.945373385923 0)
(0.200526776418 0.898328498783 0)
(0.203016955283 0.854650863277 0)
(0.202062415655 0.813782032209 0)
(0.19915823219 0.775071531484 0)
(0.19444189913 0.73816530779 0)
(0.188160759168 0.702158023621 0)
(0.180729043241 0.665619199269 0)
(0.173808266828 0.627586835909 0)
(0.00832099084668 2.29764540806 0)
(0.00525408365942 1.27825115392 0)
(-0.00666997389272 1.12774567409 0)
(0.000133228095282 1.13413802364 0)
(0.0192127959951 1.17278086686 0)
(0.0442579251153 1.19336795322 0)
(0.0711911408215 1.19029272011 0)
(0.0983066518134 1.16544266705 0)
(0.125023014463 1.12149301532 0)
(0.151132282276 1.06751156807 0)
(0.174184017957 1.01417077027 0)
(0.188400796787 0.965345280725 0)
(0.192691661544 0.919619652164 0)
(0.192160067833 0.876589864646 0)
(0.189563743231 0.835918199935 0)
(0.184839795954 0.796560517951 0)
(0.177299840918 0.75763099272 0)
(0.166929115615 0.718394231174 0)
(0.156440409199 0.678585643034 0)
(0.148730405843 0.637885909917 0)
(0.0323411342468 2.28664236628 0)
(0.0537564100204 1.41671833956 0)
(0.0326840562588 1.16937255915 0)
(0.0223725476357 1.11958071429 0)
(0.0302127439076 1.14064597022 0)
(0.050750076477 1.16223001798 0)
(0.0774052449213 1.16641088453 0)
(0.105888452459 1.15150467894 0)
(0.13384293176 1.12005834538 0)
(0.157721936321 1.07833862927 0)
(0.172626917231 1.03290723963 0)
(0.177916540809 0.98698154489 0)
(0.177877579041 0.942280458759 0)
(0.175324457386 0.899766068064 0)
(0.169799525266 0.858502641619 0)
(0.160324008321 0.817183809548 0)
(0.147885786676 0.775604602899 0)
(0.135543000283 0.733936606792 0)
(0.125677644587 0.692238070575 0)
(0.118444804311 0.649657597249 0)
(0.0477649434493 2.17059642792 0)
(0.095832454194 1.5281373255 0)
(0.0846022640675 1.24968509214 0)
(0.0675948533567 1.14684357085 0)
(0.0634901259953 1.14128896204 0)
(0.0740335760635 1.15778294654 0)
(0.0952441578749 1.16477497887 0)
(0.11901389119 1.15564341909 0)
(0.139648095749 1.13160591773 0)
(0.153510563928 1.09686936818 0)
(0.160103296029 1.05548376442 0)
(0.16118018209 1.01096697043 0)
(0.158349829809 0.966237380813 0)
(0.150815957109 0.922192193615 0)
(0.138205782067 0.878473101892 0)
(0.123920302425 0.835222775843 0)
(0.11114449322 0.792432439591 0)
(0.100357149667 0.74961542669 0)
(0.0913643899056 0.706319686664 0)
(0.0836962422488 0.661755219434 0)
(0.0528596111146 2.07443478141 0)
(0.116676401207 1.59846021026 0)
(0.11849131295 1.33903376197 0)
(0.104094961102 1.20590325011 0)
(0.0957221037992 1.17431659605 0)
(0.0957504109277 1.17918835966 0)
(0.105778022999 1.18370429386 0)
(0.120011154432 1.17658038085 0)
(0.133038788609 1.15701392627 0)
(0.141465425182 1.12661977616 0)
(0.143919308346 1.08685836517 0)
(0.14043045233 1.04026281069 0)
(0.129578837853 0.990621924505 0)
(0.112327410506 0.941712920327 0)
(0.0952407254528 0.89554841122 0)
(0.0821707655453 0.851666655952 0)
(0.071735923401 0.80806972624 0)
(0.0626153147756 0.763569068433 0)
(0.0544946517578 0.71831487502 0)
(0.0467897553202 0.672176416164 0)
(0.0526688033617 2.04625688074 0)
(0.116483413465 1.66689660932 0)
(0.119437517136 1.43474430471 0)
(0.106197983199 1.28841978294 0)
(0.0966944003836 1.23478011631 0)
(0.0922538171371 1.22597375311 0)
(0.097061831232 1.22540247565 0)
(0.107804366025 1.21881796765 0)
(0.117799504904 1.20290232393 0)
(0.121928429884 1.17520295944 0)
(0.117116443507 1.13132996233 0)
(0.101546272153 1.07360745119 0)
(0.0788270893627 1.01208248188 0)
(0.058556565141 0.956474420689 0)
(0.0452115991182 0.908144345041 0)
(0.036226632966 0.862901305276 0)
(0.0292770043361 0.81762991259 0)
(0.0234441221011 0.771292948228 0)
(0.0179641937483 0.724503875954 0)
(0.0121586574663 0.677832633367 0)
(0.0587330630858 2.04375046041 0)
(0.120374012294 1.7356530423 0)
(0.111700623158 1.52586862428 0)
(0.0927551061827 1.37508701461 0)
(0.0809168877973 1.2997924826 0)
(0.0759634725549 1.27565299671 0)
(0.0792947164714 1.26887439099 0)
(0.0867815797552 1.2633701472 0)
(0.0895513423242 1.25225943825 0)
(0.0805394653154 1.22755651374 0)
(0.0586746734366 1.1746813705 0)
(0.0315032322447 1.09948275796 0)
(0.00987978171007 1.02292876007 0)
(-0.00226514176651 0.958371205952 0)
(-0.00826209348189 0.905841252416 0)
(-0.0112690402582 0.859139496796 0)
(-0.0123223413211 0.813532162583 0)
(-0.0124113206666 0.76718498069 0)
(-0.012782948214 0.720779496268 0)
(-0.0144130769444 0.675418641317 0)
(0.0657054724844 1.96403138839 0)
(0.127539944028 1.72098636296 0)
(0.11615797715 1.54105822119 0)
(0.102748393468 1.40368763392 0)
(0.0930372847658 1.320861895 0)
(0.0864000890637 1.28458028253 0)
(0.0803789592786 1.27169301665 0)
(0.0710537524316 1.26710415353 0)
(0.0540074591656 1.26220735355 0)
(0.0278042672765 1.24580987441 0)
(-0.00180030113362 1.19004869088 0)
(-0.0248432118181 1.10197351072 0)
(-0.0376801852001 1.01369519832 0)
(-0.0434735070351 0.939833948894 0)
(-0.0452264253837 0.881358551515 0)
(-0.0438155965298 0.833857775684 0)
(-0.039563264389 0.791327514761 0)
(-0.0338033545479 0.748527134889 0)
(-0.0286103683709 0.705637883547 0)
(-0.0254845334025 0.663998985912 0)
(0.0777864441757 1.6868958209 0)
(0.158648331772 1.53453071697 0)
(0.163387002177 1.43899730064 0)
(0.159989635339 1.36543998193 0)
(0.147319412595 1.30455608597 0)
(0.129678197663 1.26906643927 0)
(0.106915134655 1.25452372451 0)
(0.0796710277515 1.24971319799 0)
(0.050628716351 1.24716657207 0)
(0.0231203432718 1.23618386059 0)
(3.63158118933e-06 1.18234619018 0)
(-0.016149153782 1.08524623313 0)
(-0.026550636846 0.990301945194 0)
(-0.0338605534872 0.909838438048 0)
(-0.0379424888973 0.84535437355 0)
(-0.0384940441401 0.795192947333 0)
(-0.0350177883175 0.756276849768 0)
(-0.0279939086864 0.719576581843 0)
(-0.0203460014824 0.682531400163 0)
(-0.0147793773028 0.646257859398 0)
(0.074458657635 1.2162087696 0)
(0.147216212734 1.32211286482 0)
(0.145040397085 1.32541334255 0)
(0.143884277268 1.31097701892 0)
(0.139360239961 1.28539019865 0)
(0.12811004269 1.26830528513 0)
(0.111151879435 1.26241756874 0)
(0.0914591398955 1.26045378573 0)
(0.0718170905781 1.25688221584 0)
(0.0546288748565 1.24067209999 0)
(0.0399151617726 1.18466429077 0)
(0.0276727745387 1.07652308281 0)
(0.0192425227215 0.971643144432 0)
(0.0131269534864 0.886118819782 0)
(0.00818483936054 0.816694822955 0)
(0.00497202051137 0.761959487798 0)
(0.00435752357184 0.722201987745 0)
(0.00766086352551 0.690394891233 0)
(0.0132514801696 0.659008925362 0)
(0.0176957873633 0.627803208209 0)
(0.0376507595953 0.872784774857 0)
(0.0781179649171 1.19746602452 0)
(0.0827141213072 1.2584901332 0)
(0.0850542891038 1.26662367947 0)
(0.0849450670317 1.26798475178 0)
(0.0826283469576 1.27211408732 0)
(0.0789460330708 1.2774267494 0)
(0.0750466531981 1.27909290022 0)
(0.0719340721675 1.27378563129 0)
(0.0703151449222 1.25060189749 0)
(0.0695768942331 1.19222984495 0)
(0.0661208629195 1.08628877777 0)
(0.0631061763844 0.96320543282 0)
(0.0627531761809 0.875926300899 0)
(0.0617904733795 0.803976594296 0)
(0.0609602780365 0.745444689635 0)
(0.0607612969984 0.701629140907 0)
(0.0619635518996 0.670688127357 0)
(0.064323091674 0.64232509397 0)
(0.0657224156868 0.6141891049 0)
(0.0262446674087 0.778773189224 0)
(0.0493376525386 1.12900111438 0)
(0.0444390118148 1.2195837218 0)
(0.0414226655199 1.24559137257 0)
(0.0388961200967 1.26095316301 0)
(0.0369833679549 1.27267287687 0)
(0.0370529584379 1.27823900273 0)
(0.0400710226957 1.27609276871 0)
(0.0462953038736 1.2645923193 0)
(0.0554184275577 1.23561803708 0)
(0.0661555951602 1.17647828174 0)
(0.0822205976711 1.06428723404 0)
(0.0964543866981 0.954085246379 0)
(0.102410783253 0.872353264543 0)
(0.106476826389 0.801864253392 0)
(0.110287695874 0.742211553908 0)
(0.114290773413 0.695619017835 0)
(0.117984511921 0.663069788272 0)
(0.120283083223 0.634784915743 0)
(0.120091790224 0.60731861494 0)
(0.0192777401223 0.779524515723 0)
(0.0306456684066 1.13340005848 0)
(0.0170035124498 1.22681582415 0)
(0.00629794560518 1.25804581746 0)
(-0.00344818680582 1.27818864968 0)
(-0.0116179420295 1.28626606848 0)
(-0.0151540820777 1.27863782297 0)
(-0.0093365478857 1.25166682207 0)
(0.00915206326071 1.21369843773 0)
(0.0398063212299 1.1640472232 0)
(0.0764127104993 1.10676071355 0)
(0.104512497547 1.01166128844 0)
(0.120344444875 0.93728081609 0)
(0.131283079301 0.866733007296 0)
(0.140410593172 0.801468912884 0)
(0.1496091168 0.744045410354 0)
(0.15939009413 0.697805747495 0)
(0.168094679948 0.663794807131 0)
(0.173118095461 0.633695782693 0)
(0.173934456794 0.604866207835 0)
(0.0146364954669 0.840237534531 0)
(0.017468574978 1.18737406562 0)
(-0.00210002674442 1.2686295409 0)
(-0.0157783651214 1.29793844242 0)
(-0.0271410994335 1.318233135 0)
(-0.0361360653343 1.31499121656 0)
(-0.0260497135979 1.23035040014 0)
(0.00623952450908 1.17174415335 0)
(0.0418983155864 1.1255479554 0)
(0.0719165789243 1.07697032015 0)
(0.0962529159753 1.02997800349 0)
(0.11698124867 0.9739612899 0)
(0.134596599515 0.917325197774 0)
(0.150312982254 0.857977777656 0)
(0.165437732237 0.800158545983 0)
(0.181337759926 0.747831373103 0)
(0.197837140081 0.704252458006 0)
(0.211451006081 0.668316072912 0)
(0.219331281863 0.634409541527 0)
(0.222895638088 0.602276369465 0)
(0.00592503406266 0.96239328412 0)
(-0.00168919345546 1.2771019009 0)
(-0.0171138145257 1.30031019098 0)
(-0.0189217773752 1.32150880287 0)
(-0.017461424919 1.3366231025 0)
(-0.000865006077345 1.2682449571 0)
(0.0247017666338 1.1436815383 0)
(0.0437880513547 1.08883063354 0)
(0.0624332401343 1.05768156204 0)
(0.0830083365399 1.02828608532 0)
(0.104366085184 0.991887454322 0)
(0.125229548751 0.947997527525 0)
(0.145459295743 0.900857544029 0)
(0.165830821531 0.850774966944 0)
(0.187097745931 0.800861867316 0)
(0.209347972589 0.753879356128 0)
(0.229650035487 0.711248906711 0)
(0.244119183764 0.67093522076 0)
(0.253789162427 0.631608038409 0)
(0.261782568429 0.594709945995 0)
(-0.0242109550907 1.26199213305 0)
(-0.0709037853234 1.45207535281 0)
(-0.0725411844987 1.20443618167 0)
(-0.0340415245088 1.24233678764 0)
(0.000820881580386 1.2599314786 0)
(0.0276430174591 1.17120538007 0)
(0.0432252306951 1.09508608702 0)
(0.0566506506705 1.05586035125 0)
(0.0730141356051 1.02669408708 0)
(0.0920433146121 0.998910078761 0)
(0.113128506197 0.967330622631 0)
(0.135584952027 0.931365946589 0)
(0.159071201 0.89143771398 0)
(0.183556487945 0.848026974667 0)
(0.208319116522 0.803009834086 0)
(0.230581621879 0.757344612669 0)
(0.247768385529 0.711700465155 0)
(0.261217386496 0.666043682436 0)
(0.273808112429 0.621458095504 0)
(0.287057354535 0.579766340283 0)
(-0.0494559994679 1.82097501513 0)
(-0.0551132022442 1.364983544 0)
(-0.00629726253575 1.07276367656 0)
(0.0065438636585 1.13214606455 0)
(0.0232922781668 1.15694561826 0)
(0.0394088592554 1.11789355176 0)
(0.0532351191445 1.07070239724 0)
(0.067417506578 1.03430504391 0)
(0.0841447360773 1.00598457311 0)
(0.104265216611 0.98047766418 0)
(0.127381271998 0.953118932675 0)
(0.152118654042 0.921681610898 0)
(0.176850435695 0.88538454625 0)
(0.199881958998 0.844142179568 0)
(0.219814391655 0.799208117249 0)
(0.236693924555 0.751613125729 0)
(0.251673947611 0.702298246604 0)
(0.265962209093 0.652585421313 0)
(0.281209284654 0.604238521683 0)
(0.299345863358 0.55962255014 0)
(-0.00879724922554 2.25626876111 0)
(-0.00699872263333 1.10349105071 0)
(0.0067633341445 1.02517417147 0)
(0.0164426824719 1.08245764946 0)
(0.0308519262242 1.10675146907 0)
(0.0466269411344 1.08605369633 0)
(0.0625528250865 1.05148800819 0)
(0.0796752657375 1.01961050491 0)
(0.0996295430091 0.993370502142 0)
(0.122822238938 0.969919665703 0)
(0.146719169963 0.944037701736 0)
(0.168197213769 0.912878459865 0)
(0.186872944003 0.876200565504 0)
(0.203827890349 0.834235789456 0)
(0.219912946946 0.787949292888 0)
(0.234654912713 0.738041658383 0)
(0.247892252812 0.685822792988 0)
(0.262094808013 0.633664732728 0)
(0.280383626542 0.58417711575 0)
(0.30203290201 0.538712086314 0)
(0.0016019965662 2.38862031832 0)
(0.00607881363703 1.03807619536 0)
(0.0108573111465 1.00304349487 0)
(0.0194104606831 1.0533605046 0)
(0.0343268246288 1.07490736843 0)
(0.0519049195234 1.06327394932 0)
(0.0713252249244 1.03758032812 0)
(0.0928513090249 1.0112976526 0)
(0.116624904718 0.987867493282 0)
(0.139223078249 0.964267017278 0)
(0.157439224719 0.936668702685 0)
(0.173110185611 0.903995815039 0)
(0.188465836109 0.866126185032 0)
(0.203482527678 0.822764682681 0)
(0.21615158891 0.773917686712 0)
(0.225875223013 0.720877068939 0)
(0.236784333106 0.666789232929 0)
(0.253111003328 0.614920023288 0)
(0.274272075135 0.566386839739 0)
(0.297069941553 0.521348402801 0)
(0.0078049495926 2.41390370881 0)
(0.0138628107447 1.03989334401 0)
(0.0134973416926 0.999376768246 0)
(0.0221863695719 1.03803270421 0)
(0.038564805553 1.05602199321 0)
(0.0583845637773 1.04911166667 0)
(0.0811917798273 1.03068398901 0)
(0.105781510221 1.00981425523 0)
(0.128369539078 0.987669268922 0)
(0.145803207854 0.962556197621 0)
(0.160560147263 0.933392450916 0)
(0.175265414111 0.899540727076 0)
(0.188535156284 0.859243297815 0)
(0.19728987287 0.811528370821 0)
(0.2018835358 0.758280738683 0)
(0.208419014314 0.703672568835 0)
(0.221935350309 0.651010692705 0)
(0.241291525154 0.601569657644 0)
(0.263150985187 0.554582965712 0)
(0.290176083306 0.509680068859 0)
(0.0130866107294 2.34990128283 0)
(0.02377806266 1.07740088895 0)
(0.021851883101 1.00795723652 0)
(0.0301745004237 1.0333776454 0)
(0.0476304839403 1.04818132506 0)
(0.0688533235192 1.04418850353 0)
(0.0931298393977 1.03107618174 0)
(0.116314356357 1.01325332087 0)
(0.134758687392 0.991391467215 0)
(0.150308639519 0.965662400407 0)
(0.164893208513 0.935431416364 0)
(0.17509924653 0.897863049803 0)
(0.177535979363 0.851331399918 0)
(0.176200659014 0.798539552564 0)
(0.179068638791 0.744291645667 0)
(0.19007606318 0.692355419597 0)
(0.206703590831 0.643269985842 0)
(0.225115437927 0.596384304362 0)
(0.241927093949 0.548282232663 0)
(0.237563519097 0.493683793774 0)
(0.0182151631625 2.19527479735 0)
(0.038404247216 1.12013960346 0)
(0.0393821483272 1.02765746827 0)
(0.045948019325 1.0398881532 0)
(0.0627480162635 1.0514137246 0)
(0.0833444656345 1.04880731138 0)
(0.106497722705 1.0381330299 0)
(0.127860676784 1.02139367407 0)
(0.145240952837 0.999417393654 0)
(0.158458282818 0.972184866098 0)
(0.163351520865 0.937503536803 0)
(0.158693036239 0.893411055549 0)
(0.152520569286 0.84203340284 0)
(0.152727537443 0.789470008468 0)
(0.161315302362 0.739190412984 0)
(0.174598252844 0.691585544016 0)
(0.18725261715 0.645681431925 0)
(0.192052048297 0.599001724052 0)
(0.173850029879 0.543964163834 0)
(0.128699764731 0.483100940389 0)
(0.0228213647651 1.95122438751 0)
(0.0540734131987 1.1490894426 0)
(0.0614106472072 1.05620102179 0)
(0.0676375599214 1.05818692417 0)
(0.0837707013796 1.06613190145 0)
(0.103588583084 1.06336318763 0)
(0.125556084181 1.05244646904 0)
(0.14437982701 1.0343075647 0)
(0.154868727899 1.00933108181 0)
(0.153839253596 0.977159771814 0)
(0.14469684029 0.937142352887 0)
(0.136559771703 0.890164534504 0)
(0.134790538863 0.840085098224 0)
(0.140337000722 0.792387941382 0)
(0.149906091459 0.7473157128 0)
(0.156634473403 0.703219602415 0)
(0.151448865375 0.65907360188 0)
(0.122305223807 0.612979090731 0)
(0.0741292156036 0.560163386334 0)
(0.0241581885647 0.509435176489 0)
(0.0281106766829 1.6369565052 0)
(0.0720016102417 1.1606586084 0)
(0.088122344857 1.08949557149 0)
(0.0959167587177 1.08592923471 0)
(0.111365382244 1.08958267427 0)
(0.128144109765 1.08444056328 0)
(0.143225714279 1.07037792947 0)
(0.15069211642 1.04783639006 0)
(0.147788291359 1.01812252594 0)
(0.138714223906 0.982578780586 0)
(0.131117042948 0.94179772379 0)
(0.128269005995 0.896863786875 0)
(0.130924808459 0.85216423493 0)
(0.137486270176 0.810541260753 0)
(0.140521196791 0.769349041055 0)
(0.129925739026 0.727769097186 0)
(0.0960004226303 0.686138526387 0)
(0.0431400096657 0.654272061919 0)
(-0.0102607657361 0.615930645922 0)
(-0.0555243823701 0.572254068584 0)
(0.0317625085526 1.35252445834 0)
(0.0867137878855 1.16737226652 0)
(0.111698272428 1.12505632171 0)
(0.120629596825 1.11891566443 0)
(0.13297489421 1.11675329315 0)
(0.142186437362 1.10700908089 0)
(0.147032593637 1.08906659505 0)
(0.14545236011 1.06329528642 0)
(0.139771624481 1.0318797198 0)
(0.134331612436 0.996781845922 0)
(0.131433445573 0.958032129882 0)
(0.132580454967 0.917892907457 0)
(0.137385337716 0.880150804495 0)
(0.138840741658 0.843115928998 0)
(0.12811398078 0.804039545753 0)
(0.0970093529312 0.764765940915 0)
(0.0463690182279 0.732540304941 0)
(-0.00917338028269 0.725958421418 0)
(-0.0600895683222 0.699534739206 0)
(-0.105860003405 0.653928757866 0)
(0.0305925482011 1.22981453304 0)
(0.0894287945092 1.18513660225 0)
(0.120344094529 1.16423326436 0)
(0.129240821507 1.15556137553 0)
(0.138251945319 1.14633651829 0)
(0.142762360731 1.13128783006 0)
(0.144258718803 1.11120501574 0)
(0.142291864199 1.08523358326 0)
(0.139102015259 1.05470312745 0)
(0.137380297424 1.02150973252 0)
(0.139069765556 0.987165977952 0)
(0.143823627789 0.954102009436 0)
(0.14536568405 0.921513691021 0)
(0.136376822162 0.886195773935 0)
(0.112818644959 0.848702866035 0)
(0.0713526761075 0.812492600197 0)
(0.019908250668 0.793387332616 0)
(-0.0290190670397 0.807593024821 0)
(-0.0753692181602 0.791610387488 0)
(-0.123949450571 0.744550418428 0)
(0.0281859486694 1.24310472286 0)
(0.0906529565155 1.22280154436 0)
(0.126384954945 1.21263121788 0)
(0.132978617939 1.19922225504 0)
(0.139770573327 1.18058776936 0)
(0.142237425168 1.15920259586 0)
(0.142345538936 1.13769909537 0)
(0.140685346684 1.11304511924 0)
(0.140490544235 1.0854074636 0)
(0.144044583994 1.05726620371 0)
(0.149901209462 1.02985936768 0)
(0.152190067727 1.00186265444 0)
(0.144748957647 0.970489636171 0)
(0.126479661658 0.935260440325 0)
(0.0967111320754 0.898631311929 0)
(0.0545412034099 0.86460763781 0)
(0.00941578758491 0.852590828967 0)
(-0.0294419807446 0.878369170653 0)
(-0.0661903882193 0.874753320266 0)
(-0.111438887304 0.833478403411 0)
(0.0259098720626 1.30883193256 0)
(0.0947657893048 1.28761745369 0)
(0.137556386515 1.28101460847 0)
(0.140351697831 1.25742681979 0)
(0.143220273463 1.22487850939 0)
(0.142691003979 1.19569659516 0)
(0.141744937168 1.17311550584 0)
(0.142099384452 1.15155761102 0)
(0.14554542892 1.12949920955 0)
(0.150442762015 1.10757623377 0)
(0.151291741652 1.08386830356 0)
(0.143365718075 1.05586465669 0)
(0.126919627117 1.02300014236 0)
(0.103913006852 0.98654847114 0)
(0.0735298927364 0.948639139721 0)
(0.0360968168303 0.913815749256 0)
(0.000653359558114 0.899998526614 0)
(-0.025476205666 0.926020930546 0)
(-0.0496178499436 0.934667644361 0)
(-0.0820356975325 0.906686850904 0)
(0.0263125121563 1.42392080472 0)
(0.103320127429 1.39851828059 0)
(0.15268444286 1.38951364325 0)
(0.151733772273 1.34612103172 0)
(0.149683234214 1.29204604943 0)
(0.145389582302 1.25360510063 0)
(0.142482758962 1.22944945129 0)
(0.140851894277 1.21014461545 0)
(0.138786269041 1.1908868851 0)
(0.133192937021 1.1694857675 0)
(0.121816498809 1.14339840245 0)
(0.105227446612 1.11207764228 0)
(0.0850929498054 1.07623613137 0)
(0.0618434010969 1.0368591471 0)
(0.0351358155824 0.995837989369 0)
(0.00649581497231 0.957705995291 0)
(-0.0174133133822 0.935963002022 0)
(-0.0310321219354 0.949328318409 0)
(-0.0411912140296 0.964827122991 0)
(-0.0584918935096 0.953931619618 0)
(0.0337916382259 1.62141890727 0)
(0.115022728102 1.59729813802 0)
(0.156574861929 1.57078151713 0)
(0.145845502255 1.4878569828 0)
(0.135164241167 1.39962580487 0)
(0.123438233552 1.34398999738 0)
(0.111072369702 1.30949721597 0)
(0.0971520012654 1.28326316781 0)
(0.0818103064102 1.25800252498 0)
(0.0658301742415 1.23044339776 0)
(0.049682642509 1.19882455356 0)
(0.0333687690352 1.16285379234 0)
(0.0164173913957 1.12290061552 0)
(-0.00141839651845 1.07984765698 0)
(-0.0197605894737 1.03555721497 0)
(-0.0370797538281 0.993841670414 0)
(-0.0493508874978 0.963279376316 0)
(-0.0522105190263 0.956727129146 0)
(-0.0490905690473 0.966637567715 0)
(-0.0519336010556 0.97234649202 0)
(0.054882857367 1.93274300382 0)
(0.114740340674 1.93891467076 0)
(0.0950501859353 1.85544782741 0)
(0.0529680669237 1.69710134353 0)
(0.024494842249 1.54508146218 0)
(0.00334649195825 1.44558316484 0)
(-0.0159860688557 1.3812837208 0)
(-0.0325530134849 1.33705487283 0)
(-0.0454498826315 1.30057897066 0)
(-0.0551481029793 1.26580767734 0)
(-0.06235645018 1.22948265929 0)
(-0.0681192164673 1.19014802764 0)
(-0.0736122068931 1.14776314456 0)
(-0.0794596496363 1.10311874023 0)
(-0.0855145596522 1.05774402456 0)
(-0.0907218660217 1.01438139278 0)
(-0.0922075527193 0.977860881428 0)
(-0.0857651033396 0.954802612639 0)
(-0.0721036978637 0.949021453193 0)
(-0.0611511237218 0.962114147579 0)
(0.0695869234867 2.23674549083 0)
(0.0743120346304 2.37417693828 0)
(-0.0362703650809 2.18956227156 0)
(-0.112358990262 1.92582700083 0)
(-0.165336984133 1.68747639131 0)
(-0.203929500997 1.51384918952 0)
(-0.224322376829 1.39320759534 0)
(-0.225365231107 1.32485070894 0)
(-0.216111137869 1.28080744108 0)
(-0.203914455332 1.24482958105 0)
(-0.191255576363 1.21014885383 0)
(-0.178775343525 1.1737927907 0)
(-0.167194227929 1.13497514856 0)
(-0.157174309921 1.09409712981 0)
(-0.148773511552 1.0521462851 0)
(-0.14137033511 1.01079819733 0)
(-0.133292333951 0.972667645395 0)
(-0.120603255375 0.941287295609 0)
(-0.100491400543 0.921544776476 0)
(-0.0788618258525 0.928755606531 0)
(0.0482032202934 2.33418407502 0)
(0.014365037448 2.82391986511 0)
(-0.103862188208 2.45500388422 0)
(-0.17371389245 2.1016577896 0)
(-0.242055577109 1.80100475347 0)
(-0.308109603469 1.55453915905 0)
(-0.355709508258 1.3567607155 0)
(-0.366748239924 1.24251145317 0)
(-0.345997758696 1.1912482367 0)
(-0.314334227893 1.16255836726 0)
(-0.283756552089 1.1380029125 0)
(-0.256067261007 1.11233314829 0)
(-0.231025371558 1.08392795403 0)
(-0.208856018419 1.05263793468 0)
(-0.189550339594 1.01896550715 0)
(-0.172618502012 0.983730590456 0)
(-0.157177350022 0.948174918233 0)
(-0.141269121014 0.914546714522 0)
(-0.12043863631 0.887892252332 0)
(-0.0947424520644 0.884349091215 0)
(0.0399857796332 2.24957753676 0)
(0.0911470623202 2.9334567708 0)
(0.0769510276937 2.64568308793 0)
(0.0016811063825 2.35830668997 0)
(-0.100360236399 2.01797752898 0)
(-0.200147741244 1.67895353818 0)
(-0.285296521246 1.35802039443 0)
(-0.342313616909 1.15645905478 0)
(-0.358328340704 1.07723747387 0)
(-0.338875192168 1.05262888308 0)
(-0.306200865758 1.04137300016 0)
(-0.27429442112 1.02911426511 0)
(-0.245320195315 1.01364406809 0)
(-0.219247558018 0.994292353752 0)
(-0.196057281725 0.971025909577 0)
(-0.175406530298 0.943968143612 0)
(-0.156870170195 0.913374790507 0)
(-0.13997227943 0.880641798618 0)
(-0.122238972309 0.85125560719 0)
(-0.0993331233109 0.840162642802 0)
(0.0509213675523 2.07818295346 0)
(0.114647735973 2.72220894699 0)
(0.131482837796 2.69966188193 0)
(0.128000256278 2.55970104278 0)
(0.0873110868801 2.31029606572 0)
(-0.00858359828741 2.01923011122 0)
(-0.129139457594 1.55163240757 0)
(-0.216235546589 1.1385213494 0)
(-0.26345900726 0.999655358318 0)
(-0.281217578076 0.957999265093 0)
(-0.269791445001 0.953235398761 0)
(-0.245298855357 0.951638264294 0)
(-0.219393751589 0.946580703604 0)
(-0.195192437495 0.937389088004 0)
(-0.17308949524 0.92326214611 0)
(-0.152953104003 0.903694725278 0)
(-0.134721731115 0.878172831904 0)
(-0.118671509978 0.847342454959 0)
(-0.104583445293 0.816615563935 0)
(-0.0879560073218 0.801116142109 0)
(0.0500399614349 1.89980551756 0)
(0.111765363328 2.5377574095 0)
(0.126094915496 2.63082978998 0)
(0.122305703057 2.58803601556 0)
(0.101575262882 2.49011711098 0)
(0.0651597867751 2.34133049479 0)
(-0.0146732595531 1.94090308566 0)
(-0.102096548791 1.22653360192 0)
(-0.152525523968 0.988866900692 0)
(-0.185683239717 0.905758468992 0)
(-0.19857392301 0.890983754165 0)
(-0.190846767726 0.893932873919 0)
(-0.172420009706 0.894752616243 0)
(-0.152331236718 0.892135443434 0)
(-0.133197004972 0.884307847557 0)
(-0.115216318183 0.870097490997 0)
(-0.0986553132977 0.848326369051 0)
(-0.0842913360212 0.819082141235 0)
(-0.0730981990743 0.787521395377 0)
(-0.0627345033582 0.768938378892 0)
(0.197302223474 0.58100774891 0)
(0.200649671104 0.546309300761 0)
(0.204640460085 0.510155354147 0)
(0.209155087234 0.474351590487 0)
(0.216098562838 0.439062985876 0)
(0.223927696637 0.404238949018 0)
(0.230560502884 0.372926163267 0)
(0.24110362332 0.345988686404 0)
(0.243800887409 0.330471555474 0)
(0.210250800032 0.337093641867 0)
(0.148896361498 0.459430992731 0)
(0.0993207902069 0.554770374008 0)
(0.0675751090784 0.580296278203 0)
(0.0418686766008 0.585930184003 0)
(0.0195131469671 0.499556313364 0)
(0.00404887122239 -0.00438287797794 0)
(-0.0133364037364 -0.0762673196065 0)
(-0.0331249849568 -0.0824952435584 0)
(-0.0507202169995 -0.0940121712094 0)
(-0.0309232140737 -0.100642477618 0)
(0.188176739828 0.582926893631 0)
(0.189007477818 0.545347741166 0)
(0.191753506873 0.506315504584 0)
(0.196024248361 0.467492461692 0)
(0.201563298709 0.429352551142 0)
(0.206950504418 0.392179590511 0)
(0.215422025279 0.358997139321 0)
(0.227905207093 0.334679051588 0)
(0.210298435397 0.334015756372 0)
(0.141771704745 0.44090271576 0)
(0.0813235193089 0.59845009138 0)
(0.0517115013812 0.648241600154 0)
(0.0252484460313 0.65846123197 0)
(0.00492253977182 0.626563389886 0)
(0.00354223052077 0.480158008894 0)
(-0.00181276416925 -0.0189399046538 0)
(-0.0201166545521 -0.055719141083 0)
(-0.0307546045407 -0.0618459793524 0)
(-0.051320301038 -0.0743764320472 0)
(-0.0340478535884 -0.0887767726511 0)
(0.169766406745 0.588463612161 0)
(0.169251014153 0.548260894305 0)
(0.171235239518 0.506830561301 0)
(0.175052083957 0.465438660658 0)
(0.180199376013 0.424757839999 0)
(0.187290597558 0.385695577514 0)
(0.199126257092 0.351310407878 0)
(0.195109996312 0.331807754956 0)
(0.148550249085 0.361626646787 0)
(0.086321537723 0.594465873331 0)
(0.0432194579161 0.694597805429 0)
(0.0130341414451 0.725301645504 0)
(-0.0151349891797 0.730546749728 0)
(-0.0410864567423 0.672150621775 0)
(-0.0278328851879 0.284677247467 0)
(-0.0185507433104 -0.0119944948685 0)
(-0.0310104015086 -0.0297064126986 0)
(-0.0292191679756 -0.0410478544197 0)
(-0.0518183121613 -0.0558300429143 0)
(-0.0362998506516 -0.0698045534708 0)
(0.14451323774 0.59627038328 0)
(0.143426773134 0.553502277077 0)
(0.144765821121 0.509567379671 0)
(0.148010216405 0.465468127328 0)
(0.153348612681 0.422087654142 0)
(0.162152223502 0.381233719194 0)
(0.167390091732 0.345734602414 0)
(0.137903365687 0.335571125884 0)
(0.0644698260346 0.466496922188 0)
(0.0135688081904 0.676087487263 0)
(0.00354385092556 0.738773479889 0)
(-0.00177181739178 0.755878714744 0)
(-0.00478545286096 0.757984458834 0)
(-0.00850238974884 0.686815462825 0)
(-0.0190352844493 0.107991149395 0)
(-0.0398948479437 0.00604464901147 0)
(-0.040709523357 -0.00312475724278 0)
(-0.0281389114811 -0.0230723343263 0)
(-0.0504384025365 -0.0437244516649 0)
(-0.0365773552315 -0.0576568316212 0)
(0.113488533557 0.605642650319 0)
(0.111154448499 0.560281864912 0)
(0.111263211265 0.513691741827 0)
(0.113401896233 0.466708537742 0)
(0.11808086852 0.420566948183 0)
(0.122571884454 0.377095655665 0)
(0.10435167116 0.342491173878 0)
(0.0558235948874 0.358932544767 0)
(0.0116344900847 0.575314839105 0)
(-0.00690802464091 0.686517735312 0)
(-0.00995226586872 0.720450534149 0)
(-0.00847057618478 0.727150478826 0)
(-0.00413025053112 0.720535057195 0)
(-0.000499374059751 0.625353312304 0)
(-0.0191282700146 0.074964496986 0)
(-0.0440258091686 0.0353512499654 0)
(-0.0323426811723 0.0266179384624 0)
(-0.0169666131142 0.000925172547657 0)