/*--------------------------------*- C++ -*----------------------------------*\
| =========                 |                                                 |
| \\      /  F ield         | OpenFOAM: The Open Source CFD Toolbox           |
|  \\    /   O peration     | Version:  2312                                  |
|   \\  /    A nd           | Website:  www.openfoam.com                      |
|    \\/     M anipulation  |                                                 |
\*---------------------------------------------------------------------------*/
FoamFile
{
    version     2.0;
    format      ascii;
    arch        "LSB;label=32;scalar=64";
    class       volScalarField;
    location    "0.84/heater";
    object      T;
}
// * * * * * * * * * * * * * * * * * * * * * * * * * * * * * * * * * * * * * //

dimensions      [0 0 0 1 0 0 0];

internalField   nonuniform List<scalar> 
150
(
789.049530337
788.926667195
788.681573281
788.315548491
787.830616706
788.901905778
788.768699914
788.501837145
788.100307029
787.562313568
788.781213602
788.646132538
788.375898743
787.970374664
787.429384612
788.711114435
788.576044888
788.305905318
787.900687786
787.360372412
788.681401468
788.546997871
788.278242893
787.875222507
787.33798752
788.671639286
788.537646136
788.269712809
787.867844189
787.331668868
788.668207378
788.534319493
788.266586356
787.864949767
787.328859744
788.664854722
788.531002453
788.263364993
787.861900742
787.325962927
788.657989378
788.524041358
788.256254978
787.854695175
787.318790665
788.64681414
788.512621102
788.244354063
787.842195389
787.305889164
788.632988902
788.498518225
788.229674748
787.82671795
787.289791268
788.618555098
788.483854682
788.214521053
787.810853434
787.273375877
788.604675822
788.469760716
788.199941905
787.795469248
787.257319859
788.592360072
788.457267741
788.187054077
787.781804515
787.242637219
788.582277379
788.447043279
788.176536094
787.770651896
787.229923102
788.574809441
788.439502082
788.168861352
787.762697741
787.220606154
788.56947394
788.434131464
788.163443388
787.757242393
787.214899833
788.565414977
788.430000922
788.159193514
787.752877873
787.210500597
788.562475518
788.426979921
788.156031886
787.749573066
787.207118666
788.560814716
788.425289449
788.154306571
787.747857235
787.205457837
788.559863598
788.42431914
788.153328021
787.746958232
787.204727579
788.558896166
788.423286314
788.152178617
787.745721845
787.203528975
788.55819224
788.422507241
788.151249911
787.744651746
787.202497922
788.558471372
788.422775369
788.151496479
787.744978066
787.20324773
788.559840482
788.424158119
788.152866373
787.746390328
787.205425459
788.562480946
788.426778978
788.155366653
787.748536936
787.207684155
788.567813781
788.432120062
788.160641145
787.753381146
787.211696898
788.577730561
788.442141536
788.170809286
787.763461866
787.22059875
788.594178567
788.458766934
788.1877341
787.780619196
787.23682241
788.619914387
788.484700238
788.213994525
787.807222542
787.263520606
)
;

boundaryField
{
    emptyPatch
    {
        type            empty;
    }
    minY
    {
        type            zeroGradient;
    }
    maxY
    {
        type            zeroGradient;
    }
    minX
    {
        type            zeroGradient;
    }
    heater_to_water
    {
        type            compressible::turbulentTemperatureTwoPhaseRadCoupledMixed;
        refValue        nonuniform List<scalar> 
60
(
304.755710588
325.660135912
325.662773912
326.595694449
326.59708056
326.318566111
326.319309352
324.817415393
322.717903101
322.187063049
322.187180888
322.01335201
322.013439789
322.054202192
322.054290409
321.992035338
322.173204169
322.083928098
322.084100067
322.249601961
322.249801021
322.120806655
322.121007984
322.148113672
322.038189014
321.659058037
321.659241671
320.910421813
320.910585748
321.186044159
321.186181329
324.005732124
326.13619676
326.28236633
326.282472808
326.600852838
326.600949598
326.377679282
326.377759759
326.607667881
326.356297038
326.535195147
326.535270721
326.264709012
326.264783174
326.317430452
326.317487185
326.153305371
326.048238438
324.385731881
324.385775337
321.862655002
321.862685695
320.31583722
320.315831547
320.597508319
323.053373067
327.029817427
327.029621522
328.797501916
)
;
        refGradient     uniform 0;
        valueFraction   nonuniform List<scalar> 
60
(
0.000601764511676
0.000733796630566
0.000733721063729
0.000733757613601
0.000733719246493
0.000733752377518
0.000733731557043
0.000729680872742
0.000722536489529
0.000721923359986
0.000721919490094
0.000721796598697
0.000721793690902
0.000722435315809
0.000722432393929
0.000721837218843
0.000722941135175
0.000721901508055
0.000721895811874
0.000722930299158
0.000722923742508
0.000721901385383
0.000721894721254
0.000722297528237
0.000721846346597
0.000720893425263
0.000720887215356
0.000717835810054
0.000717830084478
0.00071932761389
0.000719322871986
0.000730879699612
0.000737476377362
0.000736843093031
0.000736840058077
0.000737923457162
0.000737920727761
0.000736844558069
0.000736842271247
0.000737898297643
0.000736835676606
0.000737789432519
0.000737787294705
0.00073682620375
0.000736824086453
0.000737374400125
0.000737372782315
0.000736789528875
0.00073686365571
0.00073225670682
0.00073225537588
0.000722894236416
0.000722893198185
0.000716318331294
0.000716318536521
0.000718610272594
0.000729404301055
0.000740860774789
0.000740866264028
0.000743327179064
)
;
        source          uniform 0;
        value           nonuniform List<scalar> 
60
(
787.54128624
787.492844253
787.224776832
787.225444487
787.092635402
787.092415773
787.023469458
787.024241092
787.003670026
787.003571673
786.9972801
786.997211793
786.994413301
786.994144191
786.991253289
786.99148527
786.983941843
786.984360974
786.97146164
786.971100019
786.955008201
786.955390519
786.938983379
786.938815591
786.922891102
786.923061107
786.908370653
786.909253811
786.896529465
786.896029281
786.886766388
786.883441245
786.876296379
786.876696078
786.87229682
786.87203239
786.868652144
786.868983321
786.867328348
786.86701135
786.866584704
786.866277154
786.865083544
786.865326932
786.864296714
786.864081874
786.864835859
786.864983705
786.867054973
786.867962126
786.870184001
786.872692605
786.876636753
786.878588334
786.887468312
786.886600702
786.899636783
786.897264853
786.923977154
786.924158667
)
;
        kappaMethod     solidThermo;
        Tnbr            T.liquid;
        region          solid;
        otherPhase      gas;
    }
    procBoundary2to3
    {
        type            processor;
        value           nonuniform List<scalar> 5(788.658348586 788.523522027 788.253455436 787.847337909 787.304103142);
    }
}


// ************************************************************************* //
