/*--------------------------------*- C++ -*----------------------------------*\
| =========                 |                                                 |
| \\      /  F ield         | OpenFOAM: The Open Source CFD Toolbox           |
|  \\    /   O peration     | Version:  2312                                  |
|   \\  /    A nd           | Website:  www.openfoam.com                      |
|    \\/     M anipulation  |                                                 |
\*---------------------------------------------------------------------------*/
FoamFile
{
    version     2.0;
    format      ascii;
    arch        "LSB;label=32;scalar=64";
    class       volScalarField;
    location    "0.775/water";
    object      T.gas;
}
// * * * * * * * * * * * * * * * * * * * * * * * * * * * * * * * * * * * * * //

dimensions      [0 0 0 1 0 0 0];

internalField   nonuniform List<scalar> 
1504
(
387.760920623
331.286146987
310.611915151
303.427162598
301.081399143
300.416736405
300.227370623
300.149927977
300.10158226
300.0646424
300.034933836
300.013505802
300.002890689
300.000335307
300.000025751
300
300
300
300
300
380.307468497
328.834821058
309.258451268
302.649174299
300.767617127
300.336372872
300.213461641
300.151298804
300.105481008
300.067797902
300.036717855
300.014118341
300.00286653
300.000276122
300.000015497
300
300
300
300
300
375.966590347
326.541768342
306.884266421
301.712973255
300.560860638
300.29986008
300.212023367
300.156425173
300.11065427
300.071445131
300.03883877
300.014992182
300.00294655
300.000234257
300.000009484
300
300
300
300
300
376.031043641
322.221671469
304.546753814
301.177956724
300.461444353
300.291719286
300.219582331
300.165562868
300.118317072
300.077017589
300.042499599
300.017037689
300.003587378
300.00029511
300.000012096
300.000001056
300
300
300
300
395.714499602
319.510896405
303.909645084
301.014974038
300.451804372
300.310217478
300.2395928
300.182850748
300.131852793
300.086838516
300.049157045
300.020776672
300.004905103
300.000481352
300.000024522
300.000003434
300.000000524
300
300
300
464.477546016
335.670307572
309.375819375
301.993488975
300.670905462
300.380344504
300.27740527
300.210654685
300.153276213
300.102431404
300.0597872
300.026921949
300.007209503
300.000878687
300.000061019
300.000008136
300.000001482
300
300
300
507.734312278
359.076376871
318.988734381
306.047334656
301.814653779
300.598821769
300.342401447
300.246986494
300.180168829
300.122386642
300.073655952
300.03534738
300.010863
300.001658457
300.00016398
300.000022106
300.000003661
300
300
300
531.697431179
374.76066478
326.32423438
309.028114718
303.010634203
301.01757123
300.45806986
300.291702283
300.208872597
300.143809278
300.088891673
300.045139357
300.015932338
300.003171984
300.000419484
300.000059777
300.000009308
300.000000177
300
300
543.732838989
382.637364728
329.80943643
310.608794005
303.677512757
301.351426823
300.595969996
300.347222536
300.238455103
300.165119756
300.104076275
300.055434781
300.021903582
300.005345107
300.000861834
300.000134634
300.000021225
300.000001447
300
300
550.102934401
385.656523551
330.759139488
310.996997697
303.906939264
301.508015611
300.689961474
300.394507971
300.264272484
300.182629381
300.116446835
300.063945965
300.027083137
300.007655852
300.00144037
300.000248527
300.000040964
300.000003934
300
300
552.580170962
384.530713197
329.140971822
310.157466717
303.63638792
301.490417612
300.728082972
300.424443861
300.282557504
300.194556371
300.124474643
300.069446979
300.03068828
300.009444408
300.002013828
300.000382185
300.000066235
300.000007433
300
300
552.923216021
378.450388893
324.677185991
308.110369908
302.971301152
301.380486397
300.727195176
300.437449145
300.292472409
300.200553549
300.127825795
300.071646705
300.032314163
300.010554964
300.002430636
300.000502101
300.000090821
300.00001108
300
300
548.515446837
369.98057801
320.491842077
306.510108017
302.660071017
301.307640157
300.71642724
300.439897848
300.295355827
300.200518081
300.126613996
300.07064341
300.032165837
300.010864827
300.002655404
300.000579002
300.00010926
300.000014024
300
300
541.897301732
362.950165374
317.935700426
306.051256275
302.625332892
301.294621211
300.711857293
300.43870247
300.293119397
300.194745404
300.121435505
300.067116848
300.030494379
300.010567332
300.002686818
300.00059799
300.000116714
300.000015445
300
300
540.075015771
360.740005833
317.567172488
306.436935983
302.752990006
301.320787695
300.713683118
300.435534872
300.284554358
300.184536195
300.113110374
300.06169757
300.027963054
300.009786231
300.002594661
300.000568519
300.000112482
300.00001488
300
300
535.188639485
360.11360098
319.562862226
307.252385697
302.985337254
301.371980321
300.720239816
300.427182859
300.269179341
300.171117083
300.103143989
300.055722106
300.025088167
300.008893391
300.002399839
300.000514496
300.000101499
300.00001267
300
300
543.34068914
369.381956245
322.992346235
308.32964815
303.279456557
301.440700408
300.721970034
300.40688397
300.250054143
300.156053819
300.093261133
300.050116398
300.022663524
300.008077005
300.002225141
300.000471296
300.000090635
300.000009727
300
300
549.494050208
376.684470394
325.596229225
309.188928115
303.525313862
301.470578479
300.690711769
300.377465111
300.227684861
300.141382547
300.084661781
300.045963226
300.020993437
300.007648848
300.002125944
300.000456106
300.000081227
300.000006838
300
300
555.244717358
379.78639049
326.671844396
309.562821765
303.499499476
301.370731931
300.62542616
300.337541258
300.204755475
300.128826133
300.078807459
300.043604202
300.020488862
300.007625018
300.002155975
300.000456303
300.000071563
300.000004366
300
300
559.8742859
381.832737357
326.820103659
308.901030472
303.038847454
301.154176266
300.526151119
300.293197195
300.184258784
300.120560962
300.076006797
300.043479555
300.020959787
300.008005552
300.002253978
300.000459676
300.000061632
300.00000258
300
300
545.493954472
379.461971701
324.444137068
307.322721735
302.359904875
300.882425526
300.425420707
300.25396749
300.170878501
300.116893081
300.076682569
300.045112392
300.022419084
300.008651505
300.002412225
300.000467518
300.000052801
300.00000141
300
300
473.687728146
363.944470465
318.861023684
305.486533023
301.686332693
300.653788633
300.344878844
300.22993123
300.16493825
300.118529206
300.080187068
300.048699486
300.024708533
300.009669895
300.002628297
300.000481128
300.000046815
300.00000054
300
300
417.849233881
345.752610252
314.390827218
304.068785948
301.19900401
300.483701186
300.299871062
300.220123227
300.167869885
300.124660534
300.087093725
300.054272789
300.028344756
300.011257085
300.00307116
300.000543197
300.000051613
300.000000355
300.000001211
300.00000085
391.081512993
337.120084476
312.128667141
303.136877235
300.842751998
300.40643489
300.292048265
300.229371058
300.180303746
300.137249102
300.098266457
300.06322501
300.034252749
300.01419272
300.004047581
300.000756231
300.00008354
300.000001902
300.000002063
300.000003189
390.220255554
341.374181079
313.960267012
302.773794063
300.756906752
300.415586822
300.317581571
300.256433499
300.204660962
300.158058551
300.115286552
300.07642869
300.043029729
300.0186917
300.005615472
300.001122192
300.000142678
300.000006274
300.000002222
300.000003816
429.80843242
359.576904958
320.061156666
304.046981757
301.003687846
300.492407193
300.368675247
300.301124169
300.243016497
300.189146622
300.139466192
300.094485821
300.055177991
300.025064408
300.007934926
300.001695688
300.000242568
300.000016372
300.000002097
300.000002814
513.674767245
372.489137623
322.993761014
305.571354521
301.385708024
300.600864665
300.426380012
300.349473311
300.285049639
300.22485673
300.168310272
300.115998754
300.069984746
300.033238584
300.01114595
300.002572213
300.00041488
300.000038753
300.00000256
300.000001255
555.470813303
379.59809042
324.703876862
306.680430097
301.817761718
300.727294669
300.479908477
300.391858554
300.321222953
300.255974129
300.194954876
300.137532482
300.08545209
300.042521315
300.015343867
300.003937794
300.000741759
300.00009585
300.000007463
300.00000051
567.752460986
381.617447543
325.736307855
307.603466418
302.243745702
300.868981482
300.53678601
300.42875169
300.350162739
300.280863229
300.21673738
300.156406468
300.099805991
300.052326708
300.020792826
300.006118765
300.001361994
300.000223557
300.000023993
300.000001536
564.56708026
382.635361801
327.33812698
308.869533222
302.849669996
301.089612433
300.622240189
300.466033707
300.373512268
300.29990111
300.233722464
300.171187301
300.111500202
300.061030212
300.026244686
300.008637318
300.002187695
300.00042392
300.000058892
300.000005606
531.286599401
382.893651268
329.836964366
310.58576154
303.683517064
301.420048261
300.750401384
300.51526359
300.396884001
300.315482226
300.246731237
300.181902724
300.12000969
300.06771242
300.03088945
300.011034406
300.003092209
300.000674843
300.000111902
300.000013253
481.466710842
376.77319979
330.702853257
311.875728771
304.477332665
301.802198884
300.917241299
300.582005806
300.425216826
300.330794491
300.257623692
300.189704721
300.126172858
300.072840225
300.034723806
300.013264007
300.004012318
300.000963617
300.000180411
300.000025153
458.158732025
368.799835065
328.963767253
311.943273933
304.860930323
302.097822619
301.081528839
300.656895523
300.457857987
300.346760758
300.267130897
300.195553857
300.130809727
300.076943648
300.038108745
300.015338678
300.004967807
300.001283752
300.000265338
300.000042186
450.281540653
361.000962594
325.460973138
310.95386486
304.796753917
302.254436541
301.206608631
300.722649747
300.488515549
300.361399232
300.274686227
300.199687735
300.134213768
300.08036356
300.041104956
300.017360102
300.005929118
300.001639599
300.000364824
300.000064866
446.023598743
351.314534457
320.783732306
309.339784257
304.460037938
302.294848477
301.263384645
300.758445996
300.50700326
300.370367236
300.278492789
300.201423558
300.136122642
300.08294588
300.043789293
300.019231245
300.00690432
300.002009663
300.000479215
300.000092465
442.995089592
345.639729848
317.807966163
308.061314445
304.019363705
302.151541118
301.219087922
300.746498632
300.504414057
300.369456654
300.276432913
300.199934817
300.136276239
300.084743921
300.046072821
300.021040445
300.007858243
300.002408903
300.000609032
300.000129025
440.447734
339.917899926
314.463591502
306.493589495
303.312868219
301.833240472
301.080549137
300.688978199
300.48071604
300.357822924
300.267896267
300.195265127
300.135052589
300.086009898
300.048382486
300.022907361
300.008938993
300.002877945
300.000792378
300.000194092
436.309071739
339.361378198
311.942092433
304.941345736
302.514535116
301.442956269
300.899764859
300
300
300
300
300
300
300
300
300
300
300
300
300
300
300
300
300
300
300
300
300
300
300
300
300
300
300
300
300
300
300
300
300
300
300
300
300
300
300
300
300
300
300
300
300
300
300
300
300
300
300
300
300
300
300
300
300
300
300
300
300
300
300
300
300
300
300
300
300
300
300
300
300
300
300
300
300
300
300
300
300
300
300
300
300
300
300
300
300
300
300
300
300
300
300
300
300
300
300
300
300
300
300
300
300
300
300
300
300
300
300
300
300
300
300
300
300
300
300
300
300
300
300
300
300
300
300
300
300
300
300
300
300
300
300
300
300
300
300
300
300
300
300
300
300
300
300
300
300
300
300
300
300
300
300
300
300
300
300
300
300
300
300
300
300
300
300
300
300
300
300
300
300
300
300
300
300
300
300
300
300
300
300
300
300
300
300
300
300
300
300
300
300
300
300
300
300
300
300
300
300
300
300
300
300
300
300
300
300
300
300
300
300
300
300
300
300
300
300
300
300
300
300
300
300
300
300
300
300
300
300
300
300
300
300
300
300
300
300
300
300
300
300
300
300
300
300
300
300
300
300
300
300
300
300
300
300
300
300
300
300
300.000000018
300
300
300
300
300
300
300
300
300
300
300
300
300
300
300
300
300
300
300
300.000000079
300
300
300
300
300
300
300
300
300
300
300
300
300
300
300
300
300
300
300
300.000000188
300
300
300
300
300
300
300
300
300
300
300
300
300
300
300
300
300
300
300
300.00000025
300.000000001
300
300
300
300
300
300
300
300
300
300
300
300
300
300
300
300
300
300
300.000000166
300.000000001
300
300
300
300
300
300
300
300
300
300
300
300
300
300
300
300
300
300
300.000000087
300.000000009
300
300
300
300
300
300
300
300
300
300
300
300
300
300
300
300
300
300
300.000000011
300.000000018
300
300
300
300
300
300
300
300
300
300
300
300
300
300
300
300
300
300
300
300
300
300
300
300
300
300
300
300
300
300
300
300
300
300
300
300
300
300
300
300
300
300
300
300
300
300
300
300
300
300
300
300
300
300
300
300
300
300
300
300
300
300
300
300
300
300
300
300
300
300
300
300
300.000000055
300.00000009
300
300
300
300
300
300
300
300
300
300
300
300
300
300
300
300
300.000000077
300.000000212
300.000000335
300.000000404
300.000000254
300
300
300
300
300
300
300
300
300
300
300
300
300
300.000000079
300.000000304
300.000000619
300.000000943
300.000001198
300.000001313
300.000001655
300
300
300
300
300
300
300
300
300
300
300
300.000000204
300.000000652
300.000001383
300.00000231
300.0000033
300.000004198
300.000004789
300.000004872
300.000002302
300.000000016
300
300
300
300
300
300
300
300.000000023
300.000000631
300.000001607
300.000003123
300.000005261
300.000007785
300.000010473
300.000013031
300.000015071
300.000016084
300.000015721
300.000001705
300.000000004
300
300
300
300
300
300
300.000000556
300.00000232
300.000005697
300.000009461
300.000014116
300.000019292
300.00002458
300.000029504
300.000033568
300.00003622
300.000036894
300.000035556
300.000000543
300
300
300
300
300
300.00000013
300.000002487
300.000006232
300.000010994
300.000018283
300.000027167
300.000035139
300.000042688
300.00004933
300.00005464
300.000058298
300.000060019
300.000059661
300.000057609
300
300
300
300
300
300.000000385
300.000004154
300.000010663
300.000018722
300.000027471
300.000036427
300.000049337
300.000058652
300.000065435
300.000070576
300.000074169
300.000076257
300.000076805
300.000075855
300.000073731
300
300
300
300
300
300.000003551
300.000012228
300.000023409
300.000035295
300.000046408
300.000056025
300.000065206
300.000073238
300.000077441
300.000080422
300.000082664
300.000084132
300.000084596
300.000083898
300.000082126
300.000000051
300
300
300
300
300.000007984
300.000021253
300.000035624
300.000048805
300.000059223
300.000066439
300.000071032
300.000074957
300.000077606
300.000079956
300.000082555
300.000084992
300.000086594
300.000086848
300.000085644
300.000001683
300
300
300
300.000000918
300.000011677
300.000027206
300.00004244
300.000054452
300.000062263
300.000066314
300.000067908
300.000068688
300.000070074
300.00007312
300.000077389
300.000082039
300.000085878
300.000087806
300.000087415
300.000004771
300
300
300
300.000001281
300.000013118
300.000028808
300.0000433
300.000053332
300.000058509
300.00006004
300.000059592
300.000058926
300.000059509
300.000062404
300.000068108
300.000075734
300.000083148
300.000088068
300.000088923
300.000009106
300.000000251
300
300
300.00000111
300.000012192
300.000026889
300.000040275
300.000049033
300.000052742
300.000052604
300.000050885
300.000048989
300.000048457
300.000050855
300.000056726
300.000067205
300.000078134
300.000086797
300.000089919
300.00001477
300.000001575
300
300
300.000001105
300.000010567
300.000023304
300.000034783
300.000042607
300.000046177
300.000046064
300.000044106
300.000041483
300.000039737
300.000040793
300.000045812
300.000055904
300.000070779
300.000084711
300.000087579
300.000023288
300.000003629
300.000000461
300
300.000000879
300.000008571
300.000019085
300.000028636
300.000035203
300.000038302
300.000038363
300.000036485
300.000033898
300.000032093
300.000032485
300.00003647
300.000046114
300.000061059
300.000080382
300.000085707
300.000042888
300.000008415
300.000001562
300.000000306
300.000000465
300.000006154
300.000014288
300.00002178
300.000026959
300.000029325
300.000029157
300.000027391
300.000025377
300.000024475
300.00002573
300.000029847
300.000039218
300.000054392
300.000075093
300.00008624
)
;

boundaryField
{
    emptyPatch
    {
        type            empty;
    }
    minY
    {
        type            fixedValue;
        value           nonuniform List<scalar> 0();
    }
    maxY
    {
        type            inletOutlet;
        inletValue      nonuniform List<scalar> 0();
        value           nonuniform List<scalar> 0();
    }
    water_to_cooler
    {
        type            copiedFixedValue;
        sourceFieldName T.liquid;
        value           nonuniform List<scalar> 
38
(
300
300
300
300
300
300
300
300
300
300
300
300
300
300
300.000000001
300.000000001
300.000000003
300.000000005
300.000000011
300.000000024
300.000000053
300.000000116
300.000000255
300.000000551
300.000001157
300.00000238
300.000004687
300.00000822
300.000012323
300.000016018
300.000018821
300.000020816
300.000022308
300.000023464
300.000023424
300.000023701
300.00002414
300.000024772
)
;
    }
    water_to_heater
    {
        type            copiedFixedValue;
        sourceFieldName T.liquid;
        value           nonuniform List<scalar> 
60
(
787.884518915
787.956568961
787.962602745
788.074810402
788.072664301
788.207823554
788.196654629
788.35898814
788.467963531
788.635174171
788.675261269
788.867320563
788.870334963
789.051135428
789.057197154
789.240913894
789.239278431
789.424452084
789.426709621
789.607615558
789.605515553
789.778559417
789.776435671
789.934254763
789.932556157
790.07027764
790.073610435
790.187311703
790.189384307
790.262884366
790.266344956
790.298996427
790.288260944
790.286501554
790.164330523
790.107497015
790.113345397
790.05575454
790.051272417
789.956109173
789.957154111
789.81881052
789.948058055
789.805646971
789.812303308
789.634549402
789.627293726
789.498254653
789.442900599
789.39163289
789.310098093
789.313636834
789.311329416
789.37428356
789.372702343
789.466325369
789.465474326
789.583274313
789.582135168
789.706998133
)
;
    }
    procBoundary3to1
    {
        type            processor;
        value           nonuniform List<scalar> 
41
(
300.609307595
300.445142103
300.33778704
300.255597262
300.189052198
300.133717884
300.087971119
300.051400909
300.025442282
300.010391583
300.003621169
300.001119791
300.000316472
427.966480959
342.852459588
311.827735103
304.068653945
301.917927852
301.120106822
300.609307595
300.741882466
300.000085236
300.000022084
300.000005156
300.000001102
300.000000556
300.000003846
300.000009439
300.000014824
300.000018522
300.000020086
300.000019779
300.000018529
300.000017693
300.000018437
300.000021425
300.000026999
300.000036355
300.000050883
300.000062025
300.00009574
)
;
    }
    procBoundary3to2
    {
        type            processor;
        value           nonuniform List<scalar> 
41
(
394.104407529
333.591180392
311.555389466
303.930999515
301.341231046
300.510932656
300.250347395
300.151674728
300.09821934
300.061113718
300.032705571
300.01263064
300.002809482
300.000374656
300.000036494
300.000000018
300
300
300
300
300
300
300
300
300
300
300
300
300
300
300
300
300
300
300
300
300
300
300
300
300
)
;
    }
}


// ************************************************************************* //
