/*--------------------------------*- C++ -*----------------------------------*\
| =========                 |                                                 |
| \\      /  F ield         | OpenFOAM: The Open Source CFD Toolbox           |
|  \\    /   O peration     | Version:  2312                                  |
|   \\  /    A nd           | Website:  www.openfoam.com                      |
|    \\/     M anipulation  |                                                 |
\*---------------------------------------------------------------------------*/
FoamFile
{
    version     2.0;
    format      ascii;
    arch        "LSB;label=32;scalar=64";
    class       volVectorField;
    location    "0.775/water";
    object      U.gas;
}
// * * * * * * * * * * * * * * * * * * * * * * * * * * * * * * * * * * * * * //

dimensions      [0 1 -1 0 0 0 0];

internalField   nonuniform List<vector> 
1504
(
(0.0453416266368 1.45269658988 0)
(0.104883918086 1.30480518016 0)
(0.108724907579 1.28172457719 0)
(0.0852919715643 1.306104991 0)
(0.0641693613471 1.25491674424 0)
(0.0539708186271 1.15537065951 0)
(0.0515164906389 1.06749397347 0)
(0.0515654645526 0.994102919888 0)
(0.0535670980405 0.927658461847 0)
(0.0570085457911 0.876029816091 0)
(0.0596801946257 0.837317164013 0)
(0.0603304952425 0.800482037046 0)
(0.0586597330115 0.764003701234 0)
(0.0549477475557 0.733094795348 0)
(0.0497444226501 0.726010667657 0)
(0.0433303349299 0.71728590819 0)
(0.0361208221195 0.677882253804 0)
(0.0270417290806 0.601388535363 0)
(0.0145610168275 0.539166486378 0)
(-0.00129266301368 0.513368806954 0)
(0.0512531094845 1.49712393437 0)
(0.106055709276 1.38998305581 0)
(0.0872823169395 1.40658878976 0)
(0.046552472226 1.44766436655 0)
(0.023391165786 1.33279814293 0)
(0.0193769304439 1.18812525558 0)
(0.021517463557 1.08194207299 0)
(0.0250095527607 0.999879981294 0)
(0.0295237839575 0.930939963559 0)
(0.0337986561966 0.883365449071 0)
(0.0368574199079 0.845238689197 0)
(0.0385493921584 0.806610105297 0)
(0.0380946855118 0.766969059987 0)
(0.0354138446146 0.732705044768 0)
(0.0321133817425 0.726846114433 0)
(0.0288691669061 0.720754105973 0)
(0.0249231183526 0.682567005822 0)
(0.018112628176 0.612657632983 0)
(0.0070198940935 0.538489677714 0)
(-0.00868184342198 0.508810442346 0)
(0.058257651751 1.60357295259 0)
(0.0880074110391 1.56722300171 0)
(0.0298356576612 1.59992134141 0)
(-0.0141194811959 1.59707656496 0)
(-0.0292688613008 1.38650632869 0)
(-0.0273289288299 1.19966956761 0)
(-0.0209824522776 1.07978297617 0)
(-0.0138457429875 0.993553201967 0)
(-0.00734832212366 0.928486135143 0)
(-0.00194197989243 0.884531051674 0)
(0.00309187073243 0.846113395941 0)
(0.00763518204108 0.805793683078 0)
(0.0103218322611 0.763652382069 0)
(0.0111348502138 0.727011763165 0)
(0.0121074390294 0.719320837906 0)
(0.0135329979303 0.715091114237 0)
(0.013570710871 0.678064525534 0)
(0.00975879797437 0.616703818937 0)
(0.000978763244025 0.534836598683 0)
(-0.0139860157824 0.500976761281 0)
(0.0485525209062 1.80041486068 0)
(0.0246059234226 1.93517602671 0)
(-0.0702908112103 1.82362242469 0)
(-0.098580176813 1.70218765824 0)
(-0.1028154396 1.40195435556 0)
(-0.0957093084285 1.18115630381 0)
(-0.0837095080909 1.0522368414 0)
(-0.0712477218919 0.967292153192 0)
(-0.0602906885899 0.910184583658 0)
(-0.0501670131832 0.869596545005 0)
(-0.0397733554017 0.832001142993 0)
(-0.0295605080162 0.792059561 0)
(-0.0210399604945 0.749753760923 0)
(-0.0143249854818 0.712752312952 0)
(-0.00741259066238 0.700671720499 0)
(-0.000261274077096 0.697611928695 0)
(0.00430564311431 0.663873983283 0)
(0.00427985492762 0.6118157169 0)
(-0.00149803925019 0.529909245051 0)
(-0.01534245462 0.489575266796 0)
(0.00732238905487 2.12558806179 0)
(-0.0871026438823 2.61832803549 0)
(-0.189380202886 1.92705516978 0)
(-0.184455306496 1.69818295535 0)
(-0.174801380836 1.3612300258 0)
(-0.162989539265 1.12169246639 0)
(-0.14533449976 0.989457837696 0)
(-0.125982802477 0.911255750733 0)
(-0.108234580862 0.864311031227 0)
(-0.091240840931 0.830567098029 0)
(-0.07417142716 0.797869530444 0)
(-0.057823421275 0.7623433848 0)
(-0.0433915760054 0.723727533744 0)
(-0.0310535501165 0.68900375232 0)
(-0.0192835057464 0.672519244113 0)
(-0.00771518075421 0.668897152739 0)
(0.000686446647749 0.641340983276 0)
(0.00424349410488 0.598621075151 0)
(0.00102680984598 0.525243678861 0)
(-0.011389405355 0.475995209971 0)
(0.00202077109317 2.38747002297 0)
(0.0178175748468 2.93645205936 0)
(-0.0238735346713 2.16749557605 0)
(-0.0958463646386 1.70555745715 0)
(-0.122804815004 1.33131424736 0)
(-0.137502363868 1.06850162114 0)
(-0.137451325041 0.922820547855 0)
(-0.125809879681 0.846364087315 0)
(-0.110579907556 0.805931277208 0)
(-0.093890067738 0.780130643488 0)
(-0.0759517698018 0.754277381218 0)
(-0.0585695208362 0.725026939711 0)
(-0.0429533227534 0.692149758322 0)
(-0.0292133181588 0.661165939722 0)
(-0.0166119425834 0.64197378033 0)
(-0.0041475723747 0.635188607569 0)
(0.00603669685342 0.61440408177 0)
(0.0111491953347 0.580897057206 0)
(0.00861929481695 0.520728237358 0)
(-0.00237906867392 0.463214732015 0)
(0.0339215890813 2.30988685859 0)
(0.0816027362523 2.72963462001 0)
(0.0955820659831 2.37753465953 0)
(0.0597115548529 1.8922005931 0)
(-0.007896565436 1.44763879706 0)
(-0.0555189242306 1.08720117393 0)
(-0.0778362869706 0.899315028195 0)
(-0.0826698720142 0.806960290678 0)
(-0.0766543337395 0.762068329023 0)
(-0.0650917428921 0.739393427914 0)
(-0.0502017363425 0.717779591428 0)
(-0.0350539644654 0.693149452855 0)
(-0.0217179180892 0.66505802978 0)
(-0.0102298297194 0.637532904068 0)
(-6.59686123222e-05 0.616956881789 0)
(0.0102055910471 0.605075801939 0)
(0.0197989468622 0.588324700044 0)
(0.0241833372541 0.56382746986 0)
(0.0203185862633 0.516800565257 0)
(0.00987540563557 0.45501070826 0)
(0.0301428804084 2.04407545086 0)
(0.0776604471168 2.53323417626 0)
(0.0974041182639 2.31002355029 0)
(0.0958653032669 2.03211543069 0)
(0.0649683458955 1.66227438661 0)
(0.0197774766477 1.17721478812 0)
(-0.00918580428513 0.927383704952 0)
(-0.0235941715406 0.803753764602 0)
(-0.0265051994039 0.744069879793 0)
(-0.0216497769155 0.71730869544 0)
(-0.0114827061236 0.696090499516 0)
(0.00017571190436 0.673420952312 0)
(0.0102569396357 0.648209716035 0)
(0.0182820999712 0.623012218555 0)
(0.0247277048551 0.601492471749 0)
(0.0316759531087 0.584547446694 0)
(0.0390483251928 0.5681252752 0)
(0.0407923628047 0.551261213737 0)
(0.0343761390951 0.51520308269 0)
(0.0236433542758 0.453817502956 0)
(0.02194263089 1.8315531009 0)
(0.0552090015585 2.34803187501 0)
(0.0727502923139 2.2331464274 0)
(0.0785455918568 2.02391021336 0)
(0.0727169576244 1.78643775164 0)
(0.0564677073101 1.27852433106 0)
(0.0377011718726 0.980792851988 0)
(0.0258692875255 0.827387593771 0)
(0.0215112048887 0.749931921066 0)
(0.0230987296031 0.71389306088 0)
(0.0291921383794 0.689791448199 0)
(0.0373503930116 0.66671999891 0)
(0.0446678248225 0.642449172777 0)
(0.0494968632684 0.618324330107 0)
(0.0520999898718 0.595917075953 0)
(0.0559805172663 0.575452979519 0)
(0.0606984203097 0.557254891565 0)
(0.0589677623387 0.545399706951 0)
(0.0495031123715 0.517827448918 0)
(0.0376522927568 0.459272450904 0)
(0.0170288138595 1.68928482237 0)
(0.0420033373022 2.20946697664 0)
(0.0558189860009 2.14569475681 0)
(0.0658013350534 1.99021394266 0)
(0.0709991108891 1.79688399936 0)
(0.0697981556885 1.33082077268 0)
(0.0643600369296 1.02465455475 0)
(0.0596283737085 0.858370709283 0)
(0.0586456051715 0.768727832424 0)
(0.0609840393286 0.723735146015 0)
(0.0656558902796 0.695496976743 0)
(0.0715535258194 0.670589776239 0)
(0.0767422806245 0.645862024855 0)
(0.0789497424349 0.621906458933 0)
(0.0785508884171 0.598944689161 0)
(0.0802391295324 0.576785649782 0)
(0.0827210726176 0.556732162661 0)
(0.0776688653351 0.547267204735 0)
(0.0647297999342 0.525619119287 0)
(0.0508810667157 0.470237740191 0)
(0.0127030607297 1.59986510481 0)
(0.0295747086675 2.10758556985 0)
(0.0390490565816 2.06479512617 0)
(0.050238018437 1.93111021805 0)
(0.0624978722949 1.75971359143 0)
(0.0743969263173 1.31985807387 0)
(0.0809439486021 1.04455722099 0)
(0.0830171689376 0.883595744057 0)
(0.0863097417699 0.790514623549 0)
(0.0911231894704 0.740489227286 0)
(0.0962087175981 0.708836995509 0)
(0.100907491306 0.68177833965 0)
(0.104492825 0.65603048819 0)
(0.104816546403 0.631777695091 0)
(0.102470337213 0.608711801112 0)
(0.102689924762 0.586244827163 0)
(0.103451864847 0.565336185332 0)
(0.0953669912551 0.556619093839 0)
(0.078925491694 0.538685414695 0)
(0.0628551739908 0.486255348936 0)
(0.00536370132606 1.58076326543 0)
(0.00956701551757 2.06211656904 0)
(0.0118472572225 2.00775722103 0)
(0.0206678492226 1.87542187805 0)
(0.047212367427 1.6398423919 0)
(0.0779006401315 1.26554540077 0)
(0.0919272378354 1.04273546152 0)
(0.100037021324 0.899544391927 0)
(0.10782302675 0.810851551775 0)
(0.11569888273 0.760414883878 0)
(0.121711026739 0.726695410976 0)
(0.125684538318 0.697811158609 0)
(0.12805652883 0.671019438813 0)
(0.127002218527 0.646300860628 0)
(0.123437209854 0.62342824833 0)
(0.122486669228 0.601463879687 0)
(0.121513603795 0.580890837629 0)
(0.110665200379 0.572606103423 0)
(0.0913920513009 0.556885818194 0)
(0.0734255781505 0.507204634995 0)
(-0.00356333447051 1.66114981825 0)
(-0.0125274172587 2.08594282218 0)
(-0.0166876539294 1.9917941329 0)
(0.00528130087649 1.76379714387 0)
(0.0494747783414 1.45293742517 0)
(0.0833930265825 1.20096739302 0)
(0.100849249081 1.02848884727 0)
(0.114028931264 0.908256181416 0)
(0.126398419887 0.829580938763 0)
(0.136919324023 0.782079469692 0)
(0.14321545756 0.747304890222 0)
(0.146390463104 0.717127859437 0)
(0.147678746609 0.689483755625 0)
(0.145679598414 0.664315376783 0)
(0.141472901991 0.641756059293 0)
(0.139292034294 0.620709735084 0)
(0.136083785594 0.60134141162 0)
(0.122611840162 0.594032660715 0)
(0.101549066497 0.579552636669 0)
(0.0822078552886 0.5327420294 0)
(-0.0132300818473 1.8517036322 0)
(-0.0365110051726 2.18522572104 0)
(-0.0221014901905 1.89131532941 0)
(0.0290825792726 1.56107119059 0)
(0.0689758303307 1.31100125683 0)
(0.0925634016278 1.14428174972 0)
(0.111715676666 1.01135029977 0)
(0.128885239216 0.914135899509 0)
(0.14462690376 0.84837300888 0)
(0.15563839315 0.804556266543 0)
(0.160862642519 0.769391020987 0)
(0.163184155145 0.738576378796 0)
(0.163460670298 0.710390306962 0)
(0.160841134771 0.684923180502 0)
(0.156480993028 0.662656359084 0)
(0.152833279939 0.642494058069 0)
(0.146402568058 0.624742159207 0)
(0.130291740749 0.619030584125 0)
(0.108667772522 0.605337034348 0)
(0.0886875431174 0.561746143497 0)
(-0.00577253958896 2.06066792373 0)
(-0.00787991994628 2.26287577959 0)
(0.0195882071446 1.68412245871 0)
(0.0570950927535 1.39655023251 0)
(0.0827289171926 1.2299383501 0)
(0.105292463488 1.10004962653 0)
(0.12619800228 0.997885814535 0)
(0.146261162342 0.921903175069 0)
(0.162333134397 0.867974595954 0)
(0.170884401297 0.826911160397 0)
(0.174501048595 0.792207980207 0)
(0.17614671341 0.761330272129 0)
(0.175351319117 0.732885686573 0)
(0.172214357873 0.707250599387 0)
(0.167515569024 0.685042939869 0)
(0.161659616541 0.665244959844 0)
(0.151144556544 0.649292746586 0)
(0.133055567699 0.645861489659 0)
(0.112281560376 0.633124961478 0)
(0.0924860601981 0.592699183812 0)
(-0.026547974306 2.3486072369 0)
(-0.00643109765493 2.07442654348 0)
(0.053622714834 1.52935761782 0)
(0.0785550540245 1.30959134349 0)
(0.100921239026 1.17148871623 0)
(0.122950131473 1.07067299958 0)
(0.145400503206 0.993292872866 0)
(0.165018862264 0.93429277858 0)
(0.176884238869 0.88808037836 0)
(0.182052759676 0.849389765299 0)
(0.184567959969 0.815723264221 0)
(0.185129372191 0.78501442008 0)
(0.183145370288 0.756391749935 0)
(0.178877326487 0.730506088358 0)
(0.172945950252 0.708060295579 0)
(0.164227877834 0.688002460866 0)
(0.150004207614 0.674072028853 0)
(0.131365999233 0.673615108314 0)
(0.112341970466 0.662587608764 0)
(0.0933495011017 0.624653520868 0)
(0.0129528766649 2.52711740749 0)
(0.0460498455185 1.80414374588 0)
(0.0779381299106 1.43688900332 0)
(0.100376203707 1.24797104328 0)
(0.122042144276 1.13581011817 0)
(0.144595193334 1.05821186544 0)
(0.165430664191 0.999021183102 0)
(0.179179180838 0.95065552097 0)
(0.185757162575 0.909174279824 0)
(0.189039625867 0.872857043743 0)
(0.190411680784 0.840111553549 0)
(0.189508356673 0.809522648797 0)
(0.185993596505 0.780660688997 0)
(0.18036271863 0.754330531323 0)
(0.172520491054 0.731262106092 0)
(0.160420684475 0.710406819081 0)
(0.1438783936 0.698424637116 0)
(0.126285515005 0.701038750333 0)
(0.109343960935 0.692681379273 0)
(0.0916304459311 0.657022536075 0)
(0.02225365129 2.42527119704 0)
(0.0655560267967 1.66285671331 0)
(0.0982608987934 1.36225440218 0)
(0.121718752508 1.20766618261 0)
(0.144227128355 1.11977261151 0)
(0.163598547574 1.05981545908 0)
(0.177013406977 1.01188159389 0)
(0.184583541696 0.969947978742 0)
(0.189195003745 0.932078112226 0)
(0.191510873458 0.89745675217 0)
(0.191293255861 0.865244098371 0)
(0.188573679252 0.83465104661 0)
(0.183336230684 0.805477247644 0)
(0.176097255287 0.778471355679 0)
(0.166002084207 0.754193356001 0)
(0.151048632306 0.732049064981 0)
(0.133734385112 0.720841139283 0)
(0.118138460099 0.725882307574 0)
(0.103942262459 0.721268398126 0)
(0.0886840600709 0.688745229502 0)
(0.023378143656 2.24548768369 0)
(0.0729203973323 1.53429511163 0)
(0.112239800098 1.30211582307 0)
(0.137643669559 1.18447056448 0)
(0.156959633655 1.11775197303 0)
(0.168745532769 1.07005274689 0)
(0.177468628217 1.02987354114 0)
(0.184449872424 0.992546120544 0)
(0.188648340733 0.956820049471 0)
(0.189281818817 0.922887364754 0)
(0.186764219634 0.890897967794 0)
(0.181725649961 0.860303427871 0)
(0.174364209501 0.830758913603 0)
(0.165211564477 0.80276695995 0)
(0.152944714238 0.776723489014 0)
(0.136343138684 0.752852051541 0)
(0.119762332246 0.739975440651 0)
(0.107248945215 0.745858379339 0)
(0.0970019287999 0.745859512711 0)
(0.0850613227272 0.717966427401 0)
(0.0214949827253 2.00609857015 0)
(0.0756382304306 1.41931977959 0)
(0.118944295174 1.25966902921 0)
(0.139670691455 1.17638696996 0)
(0.154564357242 1.12682023633 0)
(0.165221939869 1.08929177307 0)
(0.175752658458 1.05478753903 0)
(0.182884442583 1.01952302809 0)
(0.184994414634 0.983844092196 0)
(0.182328605378 0.949721672016 0)
(0.176331485454 0.917842711499 0)
(0.168041732544 0.887308515492 0)
(0.157937452126 0.857284226677 0)
(0.146436480783 0.827926802711 0)
(0.132585998769 0.799726036506 0)
(0.116244599087 0.773599171683 0)
(0.10187563534 0.756595823381 0)
(0.0930344744642 0.759253587261 0)
(0.0872810571537 0.76358304864 0)
(0.0789481277873 0.742348595829 0)
(0.019653114974 1.73192225476 0)
(0.079455880874 1.34889066176 0)
(0.123355552117 1.250521485 0)
(0.136074940769 1.19229954345 0)
(0.152055670285 1.15559955893 0)
(0.165463656759 1.12456084844 0)
(0.175668128971 1.09104943297 0)
(0.179585851809 1.05353949989 0)
(0.176630862919 1.01548393529 0)
(0.168538619474 0.980308975828 0)
(0.15755589643 0.94816827798 0)
(0.145225921237 0.917265089808 0)
(0.132086642389 0.886083914824 0)
(0.118447248176 0.854669288135 0)
(0.104015539832 0.823738158453 0)
(0.0898340663222 0.794729171974 0)
(0.0789992508949 0.772393002826 0)
(0.0736615813105 0.766086950979 0)
(0.0723600494521 0.771303048853 0)
(0.0686541525359 0.759322840081 0)
(0.0195915709149 1.64051478563 0)
(0.0832609997806 1.36616689139 0)
(0.12781484514 1.29598703223 0)
(0.137362975761 1.24895803349 0)
(0.152768763433 1.21675040594 0)
(0.163603534082 1.18416097486 0)
(0.168461361591 1.1436530004 0)
(0.16496047018 1.09795297333 0)
(0.154287202918 1.05458868268 0)
(0.139370337749 1.01673984591 0)
(0.12326984527 0.982849415204 0)
(0.107683648819 0.949808685532 0)
(0.09295397245 0.915768591364 0)
(0.0788461932319 0.880877933309 0)
(0.0655877078602 0.846287889829 0)
(0.0551150800882 0.813850173377 0)
(0.0489354114625 0.786029376552 0)
(0.0477934632628 0.768275020283 0)
(0.0515751319265 0.766601481183 0)
(0.0546014476029 0.764504132704 0)
(0.0271516479037 1.8108476559 0)
(0.0953946711096 1.50019560038 0)
(0.132108246158 1.41739199604 0)
(0.130438806974 1.36511547656 0)
(0.134470564039 1.32503535147 0)
(0.134646046351 1.27737415361 0)
(0.128397522497 1.21572333885 0)
(0.115036257132 1.15231216472 0)
(0.0970570177642 1.09829597894 0)
(0.078260877318 1.05408245991 0)
(0.061379170942 1.01515835536 0)
(0.0472610891484 0.977288608969 0)
(0.0355674069213 0.938486220515 0)
(0.0254159899867 0.898968400906 0)
(0.0172076411355 0.86038255629 0)
(0.0124868238535 0.824579224391 0)
(0.0120197024179 0.79226082083 0)
(0.0162991392345 0.765544836011 0)
(0.0260429893925 0.751239300098 0)
(0.0372498035332 0.75256403292 0)
(0.0459605261838 2.04236772485 0)
(0.106150983097 1.71375154498 0)
(0.102932238892 1.6008374458 0)
(0.0731146434525 1.53024485274 0)
(0.0507736453755 1.46855967642 0)
(0.0314171702411 1.38698940981 0)
(0.0132483057862 1.28429423843 0)
(-0.0031970078496 1.18997007174 0)
(-0.0167048865439 1.11974803249 0)
(-0.02656554924 1.06720595674 0)
(-0.0328250271419 1.02302512638 0)
(-0.036051200244 0.981111613138 0)
(-0.0372846632309 0.938958866768 0)
(-0.0372935064898 0.896789750831 0)
(-0.0358361114533 0.856237172258 0)
(-0.0321273026962 0.818986594455 0)
(-0.0255545064012 0.784938655412 0)
(-0.0153826402442 0.753941223824 0)
(0.000230754435685 0.729381244127 0)
(0.0190568479196 0.723366231626 0)
(0.0631277015542 2.10942229638 0)
(0.0953895477526 1.8859828179 0)
(0.035769194578 1.7606046772 0)
(-0.0182355109411 1.66400565367 0)
(-0.064162040667 1.57682425145 0)
(-0.100929958231 1.45965320008 0)
(-0.126719723502 1.31035370878 0)
(-0.139701419261 1.17749758143 0)
(-0.141803765557 1.08813385799 0)
(-0.136470639816 1.02856771422 0)
(-0.126740084119 0.984886868104 0)
(-0.114882863042 0.945548165722 0)
(-0.102197999785 0.906054013294 0)
(-0.0896122064233 0.866590834805 0)
(-0.0774951929561 0.828493375901 0)
(-0.0652888327139 0.793587830622 0)
(-0.0518737120386 0.761655915285 0)
(-0.036362889911 0.731059107257 0)
(-0.0172531482519 0.702312739171 0)
(0.00560440058817 0.685625013054 0)
(0.0690235132023 1.86269237386 0)
(0.0967816455419 1.99702676594 0)
(0.0219263432759 1.8978364477 0)
(-0.0392548252175 1.75905654077 0)
(-0.0902441379511 1.64198072131 0)
(-0.132546257562 1.49336246595 0)
(-0.163082131986 1.29841141051 0)
(-0.178560268851 1.12415251215 0)
(-0.181086459637 1.01779322808 0)
(-0.17452135635 0.951936396726 0)
(-0.161258269898 0.910774721463 0)
(-0.143666121465 0.880022188031 0)
(-0.12417251283 0.848495291172 0)
(-0.105191144555 0.816148588298 0)
(-0.0879828711922 0.784086833015 0)
(-0.0720257376898 0.754545296123 0)
(-0.0559542908251 0.727512615031 0)
(-0.0384740243183 0.700567136662 0)
(-0.0190219510743 0.672140267299 0)
(0.0038746608328 0.649433231146 0)
(0.0182874564327 1.60665750457 0)
(0.0314595770876 2.03806324066 0)
(0.0200546463303 1.98280159857 0)
(0.00254735309903 1.84072500043 0)
(-0.0244733083369 1.72175659184 0)
(-0.0626786282547 1.57718582011 0)
(-0.0997222394544 1.31741908387 0)
(-0.118915736828 1.07753034673 0)
(-0.125164402403 0.955509976186 0)
(-0.12585650913 0.882611047265 0)
(-0.121334193743 0.838871461727 0)
(-0.111006099108 0.814460593922 0)
(-0.0955815941711 0.790636854211 0)
(-0.0789418957207 0.765247805366 0)
(-0.0638543975375 0.739180418703 0)
(-0.0501897355936 0.714924859914 0)
(-0.0365785183595 0.692813858406 0)
(-0.0215189895524 0.67024020005 0)
(-0.00408835790011 0.644495526654 0)
(0.0154828816254 0.619778607603 0)
(0.00810784693847 1.542641434 0)
(0.0178545123427 2.01763748427 0)
(0.0196586218505 1.99111151314 0)
(0.0187619308326 1.88103879238 0)
(0.0146313122167 1.78612682973 0)
(0.00595821237753 1.67150438061 0)
(-0.0170810289519 1.41518575174 0)
(-0.0396072918493 1.07642433717 0)
(-0.0469265933813 0.933203355364 0)
(-0.0496138814553 0.849976203316 0)
(-0.0497873075319 0.798805865528 0)
(-0.046923701794 0.772900251082 0)
(-0.0391393740247 0.751920865836 0)
(-0.0287568604929 0.729882637359 0)
(-0.01919324234 0.707011115097 0)
(-0.0108150516013 0.685649188068 0)
(-0.00240081601047 0.66639521936 0)
(0.00762775647977 0.646905380307 0)
(0.0205191256465 0.624109327892 0)
(0.0354619399123 0.599057283707 0)
(0.00521252921086 1.52418047675 0)
(0.0160012541032 1.9907879781 0)
(0.0252076554279 1.98505178943 0)
(0.0296546912673 1.89554464164 0)
(0.0284470015945 1.81838775836 0)
(0.0218548023107 1.72042086379 0)
(0.0219196463484 1.46767115528 0)
(0.0227035258846 1.10880282472 0)
(0.0170016193702 0.946536293477 0)
(0.0149876060077 0.851501723017 0)
(0.0152512362879 0.791795103406 0)
(0.0167513987723 0.759690291007 0)
(0.0202878909881 0.736665316783 0)
(0.0252897604782 0.714192828952 0)
(0.0297273440034 0.69152882285 0)
(0.0330578230682 0.670459703221 0)
(0.0362559431104 0.651711149059 0)
(0.0409400001715 0.633403266112 0)
(0.0486483809368 0.612503409497 0)
(0.0596680998119 0.587954587599 0)
(0.00911078558063 1.49062143737 0)
(0.0275318007003 1.93436381658 0)
(0.0436632935251 1.95671892106 0)
(0.0534663536435 1.89732955028 0)
(0.0566194515208 1.83990736482 0)
(0.0566140950774 1.75147432637 0)
(0.0605389419045 1.44182805668 0)
(0.063550602445 1.14185369385 0)
(0.0620064912846 0.973290465091 0)
(0.062457681409 0.870193608981 0)
(0.0649579414445 0.804019206331 0)
(0.0678991872467 0.766075370223 0)
(0.0704138787879 0.7389599473 0)
(0.0725486248515 0.713929277158 0)
(0.0738167630795 0.68965631312 0)
(0.073818422555 0.667277091636 0)
(0.0732998288184 0.647487815689 0)
(0.0738277583007 0.628852177049 0)
(0.0771208012116 0.608635220019 0)
(0.0844358957354 0.584739894354 0)
(0.0241414217041 1.40258480094 0)
(0.0562361892502 1.84609238995 0)
(0.0705129818799 1.90733513616 0)
(0.0797657650804 1.88344093355 0)
(0.0832200722425 1.84474069041 0)
(0.0848786858977 1.75674110408 0)
(0.0887912094847 1.42757028856 0)
(0.0923119686031 1.16530698021 0)
(0.0942230323555 0.999947263576 0)
(0.0977002875245 0.893619793276 0)
(0.10288439597 0.824122041168 0)
(0.107600566097 0.782316160382 0)
(0.110021441466 0.75105207121 0)
(0.110776325572 0.722886702494 0)
(0.11040182187 0.696365857766 0)
(0.108570043307 0.672082277587 0)
(0.105858422512 0.650596406283 0)
(0.103678288559 0.630799153615 0)
(0.103761343632 0.610310087792 0)
(0.107837780842 0.586712382077 0)
(0.0398344992031 1.29799279691 0)
(0.0833960845681 1.74667246801 0)
(0.0911101578636 1.84476947573 0)
(0.0973937714664 1.85393626402 0)
(0.101062041435 1.83170591354 0)
(0.105435236298 1.74132348654 0)
(0.111184320498 1.41797960864 0)
(0.115758304094 1.18117110876 0)
(0.120061708449 1.02282836091 0)
(0.126165972026 0.91676068298 0)
(0.133540753415 0.846646826259 0)
(0.139153243342 0.80233110883 0)
(0.141238144809 0.767515808267 0)
(0.141313501324 0.73648653562 0)
(0.140206953066 0.707738938964 0)
(0.137458032895 0.681478258223 0)
(0.133562102921 0.658113573921 0)
(0.129791305704 0.636735218448 0)
(0.127743116492 0.615302197376 0)
(0.129069136901 0.591465362868 0)
(0.0415933645072 1.21369777658 0)
(0.0850103065734 1.6531030059 0)
(0.0905016435683 1.77242763587 0)
(0.0976825150655 1.80517079236 0)
(0.105110766013 1.79414465315 0)
(0.116236665808 1.6948545943 0)
(0.127851406318 1.4006815138 0)
(0.135402452255 1.18972053672 0)
(0.142229301588 1.04113774027 0)
(0.150576040961 0.93784322421 0)
(0.159373134932 0.869002325803 0)
(0.165116433312 0.823004579209 0)
(0.166805596827 0.785557949459 0)
(0.166513343908 0.752244875327 0)
(0.164917650348 0.721551286581 0)
(0.16157538739 0.693434524519 0)
(0.156912399873 0.66816478824 0)
(0.152093914128 0.64495961243 0)
(0.148587564789 0.622035859765 0)
(0.147898866277 0.597272022429 0)
(0.0366034864233 1.17146120693 0)
(0.0735472452959 1.58080874098 0)
(0.0777591969131 1.69618339886 0)
(0.0861007936474 1.74185158761 0)
(0.0966289351125 1.73421682565 0)
(0.11739890928 1.59893112853 0)
(0.138688592921 1.37091900405 0)
(0.150166673387 1.19054719875 0)
(0.160167611924 1.0546885209 0)
(0.170992763502 0.956588950483 0)
(0.181182077531 0.89048198779 0)
(0.18705387676 0.843773750008 0)
(0.188377195078 0.804574789428 0)
(0.187670883418 0.769519581456 0)
(0.18549011137 0.737165024861 0)
(0.181460500195 0.707311152093 0)
(0.176028797822 0.680120045992 0)
(0.17027445253 0.654878450921 0)
(0.165551314955 0.62998456199 0)
(0.163134635801 0.603536723501 0)
(0.0132068926901 1.29838663053 0)
(0.0307017746042 1.52414042687 0)
(0.045422112249 1.59696426171 0)
(0.0677970133666 1.6455139231 0)
(0.0960014881801 1.62481858077 0)
(0.124354315131 1.48869755652 0)
(0.144696133296 1.3330100324 0)
(0.159745189838 1.18429947467 0)
(0.173321940999 1.06374278142 0)
(0.187099223485 0.973475659169 0)
(0.198909927006 0.911663759899 0)
(0.204826784472 0.865152065757 0)
(0.205685032348 0.824898114399 0)
(0.204427725938 0.788560485715 0)
(0.201432410236 0.754790069093 0)
(0.196512256402 0.723289516402 0)
(0.190108163089 0.694143141357 0)
(0.183275528905 0.666693351973 0)
(0.177276475721 0.639449611789 0)
(0.173155415724 0.610685601361 0)
(0.0120132826063 1.56027183693 0)
(0.03257655229 1.46445081487 0)
(0.0491509566997 1.48877440538 0)
(0.0709795837436 1.51827596495 0)
(0.0988569763113 1.49113313272 0)
(0.124209761307 1.40496950103 0)
(0.145416760994 1.29215560667 0)
(0.164192296193 1.17247644054 0)
(0.181802486069 1.06921219164 0)
(0.198961676437 0.989709611159 0)
(0.212104158947 0.93340253086 0)
(0.217470988307 0.887625699299 0)
(0.217529959268 0.846918491107 0)
(0.215477917217 0.80970756835 0)
(0.211441585148 0.774748908716 0)
(0.205388682208 0.741700565153 0)
(0.197835705286 0.710608342446 0)
(0.189773676667 0.680897983156 0)
(0.182323725033 0.651068548473 0)
(0.176352673391 0.619500065935 0)
(0.0118328037071 1.81829488265 0)
(0.0341482897962 1.41810079501 0)
(0.0525209552816 1.40281133971 0)
(0.0718446644554 1.40975283904 0)
(0.0954853155373 1.39121921881 0)
(0.119891869415 1.33615477795 0)
(0.143563365022 1.25213468711 0)
(0.165949115497 1.15861166059 0)
(0.187816075598 1.07412432022 0)
(0.207824609092 1.00769801863 0)
(0.220364845277 0.956596771786 0)
(0.223789391927 0.911662547197 0)
(0.22265008613 0.870882770925 0)
(0.219407545059 0.833005358009 0)
(0.214064256198 0.796973573595 0)
(0.206818952444 0.762444297362 0)
(0.198182137546 0.729437844937 0)
(0.18878349734 0.697128808079 0)
(0.179405026054 0.664083104591 0)
(0.171381294556 0.629386015892 0)
(0.019388353843 2.04584538652 0)
(0.0413492647966 1.42116069437 0)
(0.0499674360381 1.33939035422 0)
(0.0672198862439 1.33198462086 0)
(0.0908972581525 1.31839004879 0)
(0.116340481443 1.28028785695 0)
(0.142247460142 1.21978484601 0)
(-0.000382972874193 0.517463239776 0)
(-0.00246850927023 0.514878706019 0)
(-0.0043427001718 0.511859741754 0)
(-0.00579261812343 0.507806356618 0)
(-0.0066244631555 0.501868488814 0)
(-0.00673225971372 0.493184543939 0)
(-0.0061835463589 0.481462559695 0)
(-0.00520684612509 0.467279221858 0)
(-0.00404714323428 0.451583333864 0)
(-0.00286349393676 0.435104644802 0)
(-0.00174387517622 0.418244667057 0)
(-0.000742780333914 0.401164691433 0)
(8.21399566042e-05 0.383849697736 0)
(0.000655129814498 0.366140029705 0)
(0.000933228533888 0.347867944212 0)
(0.00136039124727 0.329435349956 0)
(0.000861844700478 0.312230887103 0)
(-0.0179827788304 0.506734045658 0)
(-0.0179470093446 0.525414710083 0)
(-0.0106272655455 0.522680632368 0)
(-0.011825412799 0.519202177729 0)
(-0.0128645354481 0.51576903025 0)
(-0.0137745870779 0.511889026082 0)
(-0.0142695779579 0.50686355657 0)
(-0.0141369928016 0.499810784478 0)
(-0.0133106471478 0.489999452646 0)
(-0.0119109614174 0.477387191608 0)
(-0.0101810511122 0.462686623375 0)
(-0.00834254404418 0.446784087735 0)
(-0.00653200945113 0.430300019833 0)
(-0.00482362012214 0.413563826158 0)
(-0.0032641237916 0.396699533677 0)
(-0.00190675435208 0.379678919379 0)
(-0.000838205407346 0.362338529728 0)
(-0.000111846358756 0.344494685879 0)
(0.000785186132333 0.326537691215 0)
(0.00070203081789 0.310039947787 0)
(-0.0257366983118 0.498525475661 0)
(-0.034798047594 0.512267440649 0)
(-0.0315174883 0.523087670885 0)
(-0.0267206498575 0.518796825352 0)
(-0.0261462096582 0.514526841205 0)
(-0.0256185159012 0.509789178955 0)
(-0.0247608039261 0.503792545042 0)
(-0.023341058638 0.495659135033 0)
(-0.021328447306 0.484824849465 0)
(-0.0188772430543 0.471474206445 0)
(-0.0162220177434 0.456390282422 0)
(-0.0135523093005 0.440374203568 0)
(-0.0109783199362 0.42394797255 0)
(-0.00855835135621 0.407380675051 0)
(-0.00632769681315 0.390765378173 0)
(-0.0043356793771 0.374065096569 0)
(-0.00266939190792 0.357117489912 0)
(-0.00139633240706 0.339724845053 0)
(4.83314410383e-05 0.322250070806 0)
(0.000479275021108 0.306443769268 0)
(-0.0310679466036 0.487500888242 0)
(-0.0442884424124 0.490696990737 0)
(-0.0480960296012 0.520653128582 0)
(-0.0447641729863 0.514986968979 0)
(-0.0419650546086 0.510117882512 0)
(-0.0395012596877 0.504707419666 0)
(-0.0368962693357 0.497892211615 0)
(-0.0338888921749 0.488846083784 0)
(-0.0304684211183 0.477201890384 0)
(-0.0267952118421 0.463335476455 0)
(-0.0230736527306 0.448048731814 0)
(-0.0194518380692 0.432049929153 0)
(-0.0160102223302 0.415777761114 0)
(-0.0127867539128 0.399451470961 0)
(-0.00980301920201 0.383140937365 0)
(-0.0070960536546 0.366803958836 0)
(-0.00475810120772 0.350284968734 0)
(-0.0028724532345 0.33337650916 0)
(-0.000827760752743 0.316398517316 0)
(0.00019579982144 0.301257386575 0)
(-0.032455251293 0.473578292486 0)
(-0.0456869348921 0.471962444828 0)
(-0.0595420154126 0.510069839489 0)
(-0.0648089555248 0.506483919882 0)
(-0.0591820506357 0.501584165366 0)
(-0.0544052654142 0.495896946964 0)
(-0.0497780347982 0.488583188891 0)
(-0.0449969808369 0.478930184826 0)
(-0.0400487889433 0.466790906946 0)
(-0.0350716756536 0.452695029319 0)
(-0.0302212968244 0.437428585767 0)
(-0.0255982650336 0.421613184941 0)
(-0.0212495106406 0.405620150365 0)
(-0.0171909130263 0.389630895304 0)
(-0.0134274174306 0.373698920205 0)
(-0.00998549593222 0.357781902275 0)
(-0.00695012875247 0.34173630011 0)
(-0.00442422913773 0.325352665632 0)
(-0.00178367363465 0.308895251953 0)