/*--------------------------------*- C++ -*----------------------------------*\
| =========                 |                                                 |
| \\      /  F ield         | OpenFOAM: The Open Source CFD Toolbox           |
|  \\    /   O peration     | Version:  2312                                  |
|   \\  /    A nd           | Website:  www.openfoam.com                      |
|    \\/     M anipulation  |                                                 |
\*---------------------------------------------------------------------------*/
FoamFile
{
    version     2.0;
    format      ascii;
    arch        "LSB;label=32;scalar=64";
    class       volScalarField;
    location    "0.315/water";
    object      rhom;
}
// * * * * * * * * * * * * * * * * * * * * * * * * * * * * * * * * * * * * * //

dimensions      [1 -3 0 0 0 0 0];

internalField   nonuniform List<scalar> 
6000
(
913.720266616
948.157328532
985.354244588
996.288934066
999.284553868
999.885833514
999.985392396
999.998944473
999.99998167
999.999999868
999.999999999
1000
1000
1000
1000
1000
1000
1000
1000
1000
693.686296632
869.688770881
945.800656662
981.417503107
994.038741034
998.383771204
999.634444324
999.936563987
999.993829591
999.999876114
999.999999659
999.999999999
1000
1000
1000
1000
1000
1000
1000
1000
693.683036957
827.393717142
914.682109408
963.465570327
985.803984064
995.21274946
998.658789543
999.702592694
999.956415194
999.997696162
999.999991016
999.999999988
1000
1000
1000
1000
1000
1000
1000
1000
693.68417004
788.971695403
876.4658437
936.860879861
971.473346617
988.932537122
996.451820791
999.093857802
999.833591434
999.984514304
999.999781979
999.999999764
1000
1000
1000
1000
1000
1000
1000
1000
701.551911035
766.930642047
837.904674469
900.851865944
947.139957385
976.231845039
991.344396892
997.55000193
999.491982558
999.937413864
999.997731171
999.999996649
999.999999998
1000
1000
1000
1000
1000
1000
1000
715.616604189
759.022918818
808.941555474
863.151692227
913.756502284
953.928470573
980.149826108
993.52337173
998.5048395
999.786015365
999.987325596
999.999937679
999.99999997
1000
1000
1000
1000
1000
1000
1000
722.758948425
754.577726582
790.730464502
832.670170481
878.86864152
923.725202972
960.283879293
984.177309789
995.644670749
999.272739053
999.943028576
999.999039323
999.999999556
1000
1000
1000
1000
1000
1000
1000
718.556481226
750.179259271
780.99725263
812.575729008
850.32754493
892.319461073
933.402743138
967.138648494
988.510631252
997.571188337
999.750351924
999.991765532
999.999988922
999.999999997
1000
1000
1000
1000
1000
1000
714.306036394
747.407778501
772.480749054
797.320596111
827.840191174
864.508153919
904.564260274
943.322476823
974.587313081
992.748561031
998.947153336
999.94270188
999.999415424
999.999999883
1000
1000
1000
1000
1000
1000
715.068271823
745.745861778
764.269583301
783.429758476
808.643293622
840.949087421
877.799539666
916.630247791
953.52855436
981.92660992
996.115524895
999.653242335
999.991315919
999.999990821
999.999999998
1000
1000
1000
1000
1000
713.172564992
745.279838709
758.037536914
772.026490079
792.785850339
821.458413804
855.21662986
891.247724523
928.071684538
963.180917927
988.369692733
998.317223035
999.920890827
999.999307074
999.99999984
1000
1000
1000
1000
1000
714.96031322
746.181121514
757.263273065
768.565394458
785.351359008
809.234558697
838.736468834
870.003012955
902.602285278
938.267963677
972.920780582
993.920117718
999.503406773
999.989986934
999.999988699
999.999999997
1000
1000
1000
1000
713.204740252
749.090891527
759.40791339
770.662598148
786.714408273
807.86936186
830.501948402
854.765575816
881.093234281
912.858016943
951.264058331
984.201152938
997.924880104
999.925204127
999.99956879
999.999999903
1000
1000
1000
1000
714.993340828
754.605635093
763.912143323
776.526060876
792.271049331
810.523478352
827.970547846
845.336966164
865.521290162
892.618565769
929.706212362
969.904193327
994.124774904
999.659126518
999.996133138
999.999998032
999.999999999
1000
1000
1000
713.698936243
761.93296792
771.356947665
785.995879054
801.748654083
816.285120001
828.129832578
839.740936717
855.709450445
879.440672692
913.182728236
954.942174407
988.057664904
998.968832559
999.98108698
999.99996245
999.99999999
1000
1000
1000
715.067795925
768.897408391
779.945017579
794.936084112
809.070361191
819.868423991
827.668007686
835.975271082
849.604375558
870.665216972
900.704582598
941.38550338
980.518407133
997.669132596
999.935709506
999.999733151
999.99999992
1000
1000
1000
714.817833425
773.105265223
785.699636178
798.035781206
809.640795282
819.101449854
825.203447212
832.029110032
844.178440018
862.264162172
888.083542005
926.927345515
970.855597808
995.294205431
999.798058203
999.998329212
999.999999746
1000
1000
1000
715.384113986
772.837789204
785.862956539
795.895386372
805.459415395
813.442521223
819.205984503
826.268043092
836.792577989
850.654964161
871.445622
907.168876038
955.237487633
989.890374825
999.267643908
999.987487427
999.999993306
1000
1000
1000
722.967506502
766.700647309
775.011984379
781.723432314
790.578128943
800.679479451
809.683774802
818.315886442
827.014112869
836.613873859
851.499488708
879.539197862
927.044056704
975.806875535
996.985110226
999.897756111
999.999435328
999.999999991
1000
1000
723.59816329
745.759410764
746.141575264
752.276452311
766.655298264
784.155390371
798.948405109
810.643246699
821.479714224
831.543822546
838.032645816
849.382954131
885.016177554
944.572103068
988.395814908
999.261616406
999.98948075
999.999995026
1000
1000
708.219525949
716.767617753
714.853713896
722.17778788
742.306270959
767.714421928
789.242309714
806.183401711
821.582755943
833.113340539
837.18604873
837.22988459
849.223990724
899.615300639
966.071054288
996.095445944
999.886381832
999.99948654
999.999999997
1000
684.027394831
701.114009133
700.233067809
705.979959236
725.027607369
754.199133459
781.857528694
804.830415636
823.993781186
838.779144008
839.726603696
837.278123358
837.326165147
864.634970349
932.591744538
986.746082513
999.274225128
999.991612318
999.999998504
1000
681.678217064
698.520921423
698.628595036
702.176233128
718.251409938
747.572635744
778.826024211
805.67353625
829.966205897
847.660712125
846.815085058
839.464396766
837.374781334
849.815516563
904.487260389
971.334632979
997.319903418
999.943552993
999.999861972
999.999999988
679.677822836
698.502291877
698.619379862
701.065177301
716.749857296
746.552467996
779.377801612
810.518977539
839.943931037
850.422172427
850.486817223
846.384458357
838.80451898
846.648629515
889.432707862
955.9154936
993.760797217
999.790194402
999.998776052
999.999999773
681.677610521
699.810334964
698.704910305
700.865402817
717.18497095
748.136056336
784.073012658
820.733215714
849.162595755
850.54479172
850.422167226
850.537603176
845.296557382
848.014727101
881.04307977
944.020044536
989.455724663
999.490309361
999.995322289
999.999997261
679.237828715
703.220604561
698.78041886
702.364833816
721.087291681
754.927422487
795.201819671
834.838372696
850.487338441
850.422120553
850.814470433
850.422152213
850.577735391
849.822303928
873.837580853
933.818149288
984.794454644
999.023388507
999.987638728
999.999980326
681.56962883
708.085939423
702.042609376
708.086499418
730.229742418
767.603978802
810.594049277
847.097623889
850.42206
850.838431801
850.422116869
851.015008529
850.422128822
846.853709633
862.999455107
921.795725004
978.75091833
998.225153779
999.970054599
999.999916002
679.09511306
714.209753601
710.214199718
718.74015001
744.064075123
784.000797721
826.78027534
850.421978991
850.687117597
850.42206832
851.170710538
850.422100103
851.051909118
831.720590918
846.499727112
904.98856323
968.810713427
996.539928893
999.92167417
999.999686132
681.677649132
720.882814197
719.397590409
731.9914312
760.687003935
801.275819991
841.013821485
850.555776323
850.422007349
851.130439347
850.422062372
851.418536884
846.482167495
818.655843824
828.579755727
880.44687722
952.174972997
992.987258698
999.784232952
999.998875885
679.427069205
727.387838833
729.08987104
746.575893887
778.337558484
817.378438398
849.385820508
850.421926967
850.995715204
850.422013489
851.418498447
850.422041415
828.170514617
818.111600374
818.446567767
855.729876683
930.452672354
986.621098251
999.418918563
999.995969115
681.677764036
734.512747065
740.46220842
761.754445615
794.825932854
830.390218933
850.421798684
850.794690571
850.421953283
851.410954122
850.422002915
846.503189632
818.164064995
818.446530787
818.264036528
840.690785296
909.364441366
977.340241751
998.579675489
999.986100984
679.846078229
744.215853725
755.143752641
777.67828112
807.896750963
837.466512603
850.586490145
850.421872541
851.267336807
850.421953178
851.402226115
823.958868376
818.446491068
818.146700008
818.446489794
832.993411001
892.54189415
965.928666495
996.924108711
999.955800445
681.978500671
758.248733771
773.64710555
793.867859097
816.446604647
838.375916336
850.421740927
851.005825445
850.421890343
849.874704974
834.049306767
818.4464444
818.253152929
818.446447803
818.340043565
829.506778215
879.382446039
952.830818051
994.036002106
999.874836205
681.666155424
776.026263849
787.858110816
801.615317056
816.985795914
833.855022154
842.856113579
841.195338601
837.540790599
833.544247809
830.611568454
825.748196331
821.62058218
818.62935248
818.446399923
827.106111743
866.700099496
937.269089225
989.424462882
999.683992315
700.990525439
791.000981757
791.763082108
799.350275893
810.427672852
819.579654748
822.106620933
823.268279685
827.886666569
834.785718026
840.785336677
841.457150227
833.687613993
825.264356051
821.883597105
822.025865437
847.723003009
915.626997256
981.898546671
999.237103235
741.512577371
790.982778897
788.322114518
785.475919646
794.78445442
805.982768972
814.388992792
822.568601923
832.657852192
846.758202051
857.561115994
857.569173439
849.738162244
838.347975955
826.057886549
814.594340688
823.584919635
886.677591761
968.42913874
997.997893151
767.050632158
783.034950009
762.029416183
758.75507838
781.791291424
803.544123623
816.911874972
829.631768201
846.192869598
862.096133512
869.543552878
869.097175747
862.912503858
849.918249175
827.436661518
811.045994709
810.466097662
857.671522697
945.355507386
994.34958453
763.338275317
734.825264482
719.948772745
729.715563569
770.32985239
802.99529704
822.577959765
839.571585464
857.60333822
871.694680542
877.080006285
877.323975738
872.372126216
858.007705298
828.727653404
810.081160489
809.775516503
834.950751159
914.643970066
985.228290906
721.102066635
672.325922286
682.237248802
697.452187527
740.907631373
789.269316018
820.64300511
841.019673679
859.754337515
875.365714627
882.22870961
882.843458239
879.59672488
866.244951304
833.191725981
810.348701129
809.721396928
820.573901194
885.147685659
968.376561397
649.486664333
635.258848063
651.864927043
663.415458865
687.869169683
738.393823239
795.422185196
831.567429048
856.059100128
875.205527038
884.706598878
885.005593812
883.986169272
875.94759908
843.309714101
811.899907256
809.662322518
813.292064388
863.032988684
946.060485007
611.074227364
621.401326985
633.384122072
639.382186971
648.556018779
678.850340772
745.358771633
804.261227927
843.047732486
871.642280362
885.354360604
885.365506074
885.215242321
883.272435592
856.902622487
816.28812322
809.603259688
810.072514672
847.537180167
922.797358059
601.569288214
616.802515567
624.892531502
627.935386067
633.770830862
653.285273431
707.909718649
775.763117005
827.641411812
866.28450882
885.497617303
885.520425971
885.414708117
885.25910442
868.798334678
824.835521677
809.544208781
808.576877954
835.691413001
900.568947012
596.098928581
614.603370656
620.450096118
622.785054927
628.699872863
646.977680952
692.987061672
759.249807099
818.437014126
863.939524906
885.550431472
885.618777405
885.513673067
885.448765225
876.448180184
835.843314412
811.042107995
807.528108882
825.34442285
879.130224737
595.449887106
613.371898353
617.687911191
620.06100981
626.638690651
645.376796914
688.654263475
752.973514875
815.716492188
864.793878058
885.602422081
885.650189151
885.661330461
885.527526532
880.630560779
845.742400811
814.602664318
805.812058173
815.555697267
859.049026414
593.889594365
612.816285213
616.132487829
618.807096842
626.059669956
645.55067766
688.6243342
752.460112033
817.151318896
869.012954182
885.761576127
885.759834176
885.650203172
885.690294828
882.554457739
852.644991447
819.014828627
804.922667562
805.765660344
842.130098433
594.928851451
612.737794021
615.641853178
618.709213119
626.759723309
648.097959876
692.334851909
756.276299429
823.264281953
874.383689541
885.88152364
885.820888805
885.770771116
885.650209488
883.07293796
856.953513855
824.016020279
804.94607547
804.929987825
831.608695921
593.304717432
613.43436858
616.273780674
620.093113956
630.338048623
654.971907082
701.446203701
765.632701401
832.651605642
879.075179565
885.961233941
885.946038186
885.820906397
885.787672848
882.677048346
859.449929173
830.613284266
805.866037611
804.956861377
826.720746199
594.646747976
616.278915751
619.722050123
625.543537113
638.914668794
667.20316837
715.797883413
779.744820226
844.706374917
883.080256834
886.073722363
885.961262457
885.967919909
885.820913475
881.329767372
860.494506822
836.359131723
810.300782415
804.946980775
824.492679463
593.279612853
622.588614013
628.515301106
637.459906068
654.328599287
686.507499818
736.963216211
799.94420939
859.897535897
885.493262125
885.961229044
886.227913123
885.96127951
885.905287953
879.045507417
860.36390493
840.73604739
815.924576233
804.968791831
822.439887658
594.648856494
632.757352159
644.390955678
657.501603389
679.03450142
715.666795977
767.693792417
827.869748806
876.091891331
885.96118799
886.252187539
885.961257025
886.255796892
885.86068259
875.816049678
859.759587193
843.837489002
820.231048896
805.121397944
818.369014831
593.331478996
650.748552368
668.732991172
688.359364359
716.462215611
757.706789938
809.645710903
861.297195093
885.340454722
886.127074386
885.961228719
886.413413202
885.961268152
885.071129361
871.805466583
859.603802769
846.326146634
822.409297324
803.872734109
810.172421752
595.226449269
680.179305999
705.363294327
734.604698872
769.630868347
812.939313936
857.729125079
883.837783875
886.074439166
885.961193914
886.461055947
885.961247267
886.427075231
881.816510756
868.96581671
860.938456663
848.763803464
822.858897971
800.087613453
798.619164359
593.976204783
718.315090268
756.987563641
797.292585396
835.028098245
868.833780002
884.921879765
886.088709731
885.961149146
886.478079497
885.961220245
886.582527608
885.96124593
877.081456225
869.059476367
864.617066837
851.43549261
822.681574293
796.006299435
788.280039128
595.751742362
761.920457026
817.140370114
862.943955597
881.952632447
885.960666893
886.304624497
885.961089658
886.65663742
885.961187523
886.715759039
885.96122255
883.27899391
875.23806103
873.151110069
870.704984735
854.569356751
822.159931748
794.495968381
783.908915126
597.60024571
817.879165151
872.028171552
886.118936927
885.959677107
886.774185918
885.961006101
887.11194396
885.961150081
886.936633639
885.96119334
886.478951777
880.315620941
877.659017572
880.0923221
878.091326976
859.497220088
823.262258029
794.88710393
783.038620844
636.265562055
877.078623673
886.188927946
885.958122071
887.338066489
885.960462834
887.76490889
885.961107878
887.327525582
885.96150201
886.744844632
884.280946425
881.134070269
883.183353021
886.598326727
885.672186618
868.585228825
830.785920833
798.30527757
782.826804305
712.571876002
884.590914398
885.953965458
887.570704382
885.960167787
887.802545002
885.960651777
887.704483111
885.961456986
886.8736008
886.303882807
884.352489189
885.180895113
888.200835788
890.684534065
891.561149304
881.937750582
848.722632033
807.860138495
783.335664105
752.967158093
848.944377164
863.568870444
871.86502025
879.19189194
881.752385692
883.62400246
883.933803714
885.295091788
886.088583141
886.792703436
888.128001209
890.058385858
891.158430796
892.594043997
893.982477246
892.931889093
872.98231782
825.843271292
787.028936246
724.32825656
726.052976679
750.958646238
773.059203567
795.907366213
817.738085189
843.691431775
866.492440287
879.890933971
886.874439155
890.896407998
892.555260055
893.113915045
893.022079686
893.477267569
894.676851661
895.25950889
891.34755763
852.940138003
798.266016618
634.88276246
606.603145049
624.788765933
641.091894977
660.171813062
685.939485725
734.844639305
802.211108875
856.633102467
882.579663239
891.539639918
894.508223283
894.829924936
894.370793132
894.118064028
894.813617851
895.246928362
895.270019765
881.450751145
818.964861282
571.81668149
570.38696606
579.19686971
588.926662397
597.769587041
610.250843562
638.882023898
699.646656658
785.152510395
853.61734169
885.692204331
894.857173543
895.263778072
895.224092672
894.723974683
894.808801995
895.319199836
895.246901167
894.7733752
845.620405289
564.937955069
566.68615888
571.772667331
581.098481488
588.415392198
597.689583809
616.250580268
655.28743959
724.089377163
804.998432945
866.427573327
894.560836484
895.24679508
895.270566265
895.2458291
894.942903391
895.246868876
895.406464224
895.24688135
871.873986263
565.57897439
565.748357092
570.971785026
580.982396062
588.819648066
598.220544952
616.092223514
650.482259358
708.430846917
778.931963351
845.287287722
892.168495866
895.34034498
895.246805911
895.290267074
895.246841641
895.358250562
895.246855489
895.503237936
890.227681272
564.843699339
565.738344586
572.492736427
584.312891303
593.943266511
604.305249995
622.190398457
654.715451112
709.000212185
774.976431071
839.383838578
888.631842525
895.246762615
895.45276801
895.246814495
895.369852249
895.246834652
895.487580877
895.246843786
895.488072974
565.582771701
567.322457626
578.956392937
594.122307245
605.88440913
617.832906767
637.013975435
669.624978357
719.364572787
780.110156881
842.500331498
888.988460166
895.403726202
895.246783676
895.562706306
895.246816501
895.481306164
895.246826717
895.660970438
895.246832155
565.16063007
574.05732407
591.581101694
609.32806295
621.997834362
635.555590877
657.221056606
692.394327402
740.729341507
797.655990779
856.25924417
892.873995072
895.246749996
895.556244053
895.246796585
895.623804967
895.246812706
895.595480779
895.246817672
895.740847488
565.587228268
587.357999724
608.209803062
626.164493974
638.439714569
654.083807561
680.118215269
719.032265207
768.51866417
824.453958891
876.903113685
895.2467154
895.413589992
895.246772034
895.662696577
895.246799078
895.663909399
895.246805206
895.739906664
895.246806187
568.482692898
606.898522563
625.065410674
640.39896161
652.450725305
671.99929319
704.303943931
748.316898696
800.480294149
855.443540598
892.526241322
895.337376713
895.246742945
895.627437371
895.246782624
895.732134995
895.246794247
895.704601034
895.246795319
895.756618984
589.54662999
629.191452105
638.87331464
648.992215999
661.93356818
687.143287132
727.041991887
777.536572899
833.244116562
882.174519298
895.299749801
895.246709791
895.600006053
895.246761407
895.774946957
895.246782781
895.765269118
895.246785374
895.769264328
895.246781637
633.94789994
648.906970681
648.210517299
652.342937214
666.261948892
697.557160843
745.190097519
802.310248461
859.902019574
893.806343327
895.246670093
895.560289129
895.246735155
895.800520696
895.246768397
895.837448783
895.246776387
895.771272017
895.246773742
891.970445826
669.393542766
664.146607274
655.133408984
655.443934664
669.310967332
705.090899147
758.561783639
820.117306446
875.726361131
895.246614982
895.431418798
895.246703392
895.772107149
895.246749697
895.88569246
895.246766896
895.836996883
895.246766491
895.790009745
890.131666781
669.005099534
678.259328582
665.981611783
663.024555928
676.23549972
713.723731405
769.935583531
832.851968565
883.858091511
895.326368721
895.246663134
895.713762375
895.246726561
895.907553051
895.246754405
895.884882481
895.246759915
895.800394045
895.246753995
889.908444309
670.466472647
700.756730577
686.460061133
681.570529697
692.750287134
728.304879596
783.78041008
845.35166856
889.86162721
895.246607385
895.632528286
895.246698526
895.90173089
895.246737569
895.899941704
895.246751724
895.830691384
895.246749171
895.750480032
889.967674913
670.60750727
739.123200416
720.944427117
715.705238549
724.035578551
754.551953972
805.627539717
862.428909044
894.586384908
895.449362745
895.246663593
895.867842471
895.24671572
895.897759503
895.246738089
895.8331639
895.246742494
895.707952198
895.246734591
890.979125845
671.275818135
791.275167684
769.353518886
765.799865666
771.84611842
796.466960828
839.637737439
884.689632216
895.379837903
895.246619365
895.885479976
895.24668706
895.93619238
895.246715841
895.767676581
893.81085667
891.062166625
891.948171713
895.379468974
893.201863737
671.985670817
828.047108273
816.396922158
817.995252666
824.418258922
845.340345948
877.890651719
895.295222466
895.246561403
895.951730779
895.246647902
895.973795803
895.246682131
892.13539235
888.009242453
885.694990755
886.074860745
890.146228259
894.945265171
896.698526754
684.396285988
829.884360263
830.072362581
833.020441311
842.870413095
864.205100269
888.682207044
895.246476384
895.952871171
895.246590274
894.06072715
887.615842942
883.402844191
881.020275383
882.286555246
884.363573548
886.334288574
890.488259929
894.883968723
897.985041724
710.682727743
809.629721552
811.89459471
816.316713927
829.79364268
852.162702547
872.394806249
876.632293035
871.744442364
863.077240229
856.400593825
859.813213978
867.946388411
876.157441092
883.058736673
886.49621349
888.371681891
891.291968838
894.680688395
897.930705175
706.32985103
731.054287092
731.952395484
739.043466251
756.894706205
774.873363951
781.390851893
774.778867776
760.226497142
749.053461245
761.627927463
800.518804421
842.529581463
868.953881257
883.012635333
890.371124766
892.206185693
892.791590532
894.801406426
897.483644865
659.774449459
638.236893381
638.430762385
641.285587977
648.445034878
653.302382765
651.064846836
643.533792682
634.514759015
630.633963776
647.361109724
699.075792806
775.776916566
838.241025599
874.136159098
890.382542973
896.223521224
895.588038767
895.683803314
897.440498505
607.798280469
604.449932785
608.779560971
606.258646289
600.910622816
596.607138082
594.334622894
591.80211809
589.571723204
588.673548762
595.824472472
627.401477416
696.058334968
777.525178995
843.751177332
884.032247025
897.835184429
898.764959343
897.762011594
897.969699961
586.888994615
603.820878682
609.672371187
605.383415825
595.245555622
586.74694102
584.322475772
583.646308296
583.254007827
583.040132925
587.14699062
610.98266645
664.240002781
735.371813883
808.33767225
868.875264444
897.346511157
900.09514673
899.652226926
899.220451971
586.688493881
615.028690077
619.034368754
612.333395633
597.740797012
586.466651173
582.938549251
582.858090298
582.848004469
582.859786488
586.873970318
610.93297367
661.174240684
725.839711409
794.546347288
858.470407883
896.279665839
900.117767277
900.140427767
900.132981287
589.044053288
634.447823963
634.013295507
626.141201084
606.940403711
590.460207845
584.344120057
583.213799288
582.925950173
583.260933645
589.758843056
616.344641367
664.639564267
726.836329612
794.202091336
857.934302672
896.558221448
900.145363383
900.117779476
900.158516653
607.724811362
648.506096893
642.709949016
636.263554419
620.977361413
603.589428702
593.057668674
588.851937084
587.538200722
589.028623454
601.282383114
632.727932241
678.890209591
736.38612749
800.957570658
863.466456423
898.57220443
900.101535271
900.173820595
900.117786791
636.674266955
652.75880933
643.147895223
639.873855916
635.325203393
626.036171195
616.017485601
608.685034457
605.563026354
608.232191844
626.299408997
661.286063536
706.029064333
760.103538719
822.101430439
879.621139586
900.084468168
900.173561311
900.101548065
900.190883779
656.958408868
652.759156162
642.302150142
639.1421887
645.022136496
654.200483555
657.516262674
650.933831548
645.616780823
647.715414226
667.405736113
701.209246623
744.701417803
797.944221186
856.906822453
896.830746813
900.138886338
900.084485689
900.18287391
893.945274192
661.362610091
651.489263505
639.704404413
635.481629163
644.543413806
677.233795064
709.992339928
714.958102791
709.459660994
708.399882876
723.525487856
752.884030224
794.658514402
846.009151405
890.649547006
900.109172573
900.066148555
900.166477875
898.878306402
866.073551024
661.407309085
646.576881521
634.25413041
628.595740028
637.766966074
670.30336943
737.858876528
781.615682838
786.729233284
785.594444527
793.925349572
816.157643317
852.215371404
888.741637041
900.064661586
900.049273374
900.147899487
900.043559197
865.320762498
816.749931644
650.847453324
636.17348256
625.394269765
620.150958594
626.045651413
648.613862516
719.225746131
787.597764786
829.906107677
851.060831611
863.504158701
877.111194214
894.24761791
900.053890083
900.02783737
900.132970606
898.213244228
856.083911066
784.231972807
774.877369529
621.099516332
619.978644568
614.921686566
611.38403651
613.983185584
627.68398336
674.670461238
754.660436538
818.296766128
855.238954433
882.704764027
899.605052158
900.066343684
900.013271275
900.115170212
895.405578251
840.737530677
751.009640412
720.01318911
753.108249569
599.248219008
606.222056767
606.086572094
604.702222229
605.358087097
611.807637491
634.12632028
687.513803853
762.523371941
827.81911644
871.664286346
896.689127143
899.986177247
900.093209675
892.419693934
831.695659996
726.896724121
683.865836591
698.176060616
747.633261233
597.889173512
600.97372345
601.754570428
601.340902355
601.29852033
603.663586633
612.618502547
636.213479017
685.272795065
755.856965354
825.063805489
873.279464428
889.167661962
882.487024467
830.183385601
723.79066602
672.43425689
671.213247324
694.969530087
747.30711602
599.195106185
600.085511009
600.758531339
600.837584423
600.899552639
601.698073268
606.652272025
619.270685299
644.59387333
691.712895167
757.655525323
818.361798571
836.997418002
813.694574997
732.918812574
672.89356331
668.905748971
670.686373568
696.662523192
751.73524331
597.929484574
600.666130773
601.296671249
601.330694377
601.029494124
601.893666205
606.805170818
618.796359739
640.820288755
675.928686402
719.61246439
757.550651052
760.078705773
729.060826154
678.031865659
668.905683214
668.772136101
673.263498813
706.793823757
768.451713548
599.147237654
603.031101957
604.014516111
604.305376564
603.103406353
603.920605941
609.23125943
621.659267078
644.242903923
679.159130666
715.17172045
726.565428375
716.538182317
686.033959142
668.905611354
668.762218041
668.90574285
682.972942774
730.163879493
798.150004332
598.175083148
607.226463989
610.297128079
611.799890198
609.654186937
610.394580936
617.269212502
632.179937949
657.045035494
691.304897884
720.06300936
723.862974982
704.316697264
673.827932666
668.826329261
668.905690716
671.982230386
703.665020108
764.290897502
832.669343074
599.197660688
612.013536024
619.475030127
623.786897494
622.955402674
624.760250115
635.23521244
655.509063216
684.481370756
715.986778273
734.655218315
728.858416525
698.941871695
670.081017574
668.905633932
669.04898654
686.125445182
735.286975952
802.215651271
861.585845487
598.925969859
619.07617225
628.62377989
637.66142073
642.998881236
650.904343683
668.298207699
695.582351107
728.45575242
754.153088419
758.71870778
739.398984477
695.284035338
669.966019552
669.150949247
677.766025119
713.281726831
772.746172351
836.523220906
878.265323855
600.425474471
629.642484599
635.899019832
647.848413951
665.470647683
687.94081203
715.965048378
750.880517937
785.349920471
800.017888783
790.335179827
747.922897903
695.136435231
674.533738232
678.142868249
701.402864483
749.635276963
810.225124349
862.155366717
883.490953397
618.062832165
642.454973692
642.088895624
651.393083188
681.197485057
725.863413555
769.769673028
810.159669193
837.362765862
839.073711724
816.849801573
756.200196381
703.107173714
691.992404057
703.050104419
737.755972887
789.59996851
842.588892366
875.473193814
883.065954144
653.198169961
657.142854186
648.600107407
654.386439395
688.852578301
751.891854338
812.739314675
846.186484573
850.580829162
850.677560031
835.771583273
774.207114993
727.903595393
725.41088673
741.872081052
779.949988818
827.052121033
864.73824175
877.8172892
879.579057322
683.780583762
677.846555633
658.17368645
661.394557247
696.240860417
764.793673215
829.82930979
850.580748105
850.742512183
850.642888936
850.09787033
806.467901447
768.967712898
769.222833036
785.785217059
819.468660347
854.888451186
874.486427746
877.167594021
877.214301218
700.432399304
703.114268915
674.899903099
675.174825133
707.318981185
773.309440445
833.394572584
850.613519938
850.64282698
851.019355396
850.7061175
842.262225007
816.049453094
811.938991814
823.492057224
847.895824017
869.696955733
877.518190827
877.214276712
877.219123305
712.074198407
728.35535211
696.925396111
695.812190993
724.919391973
784.718936433
836.616668656
850.636894674
850.853698954
850.706052923
851.111933181
850.769956226
847.090458661
840.320663246
846.365042239
863.193263457
876.302972716
879.801465309
877.680296842
877.276359114
723.800127354
739.220878385
721.570164281
720.220524741
749.399355186
802.86438895
842.086702645
850.681172088
850.705971843
851.111856493
850.769882169
851.153308533
850.82764244
850.113078442
856.605885639
871.315531364
880.687020569
882.946802525
880.252599299
877.285154498
735.369575065
739.250089105
739.317134171
739.373711289
774.33016279
822.450769641
846.961825385
850.705868051
850.932322087
850.769789413
851.171562375
850.827556543
851.065305856
850.889054045
862.755320769
877.470422975
885.401138758
887.437337725
884.72821555
878.160502916
739.086604923
739.22223687
739.318589293
739.12620551
781.594965293
825.571343519
846.585838523
850.742896277
850.705821031
851.095611758
850.769727562
851.102968734
848.474978975
851.844817381
868.903018592
883.606191492
890.773348519
892.421726695
890.08552341
881.853865098
728.447321133
715.313771826