/*--------------------------------*- C++ -*----------------------------------*\
| =========                 |                                                 |
| \\      /  F ield         | OpenFOAM: The Open Source CFD Toolbox           |
|  \\    /   O peration     | Version:  2312                                  |
|   \\  /    A nd           | Website:  www.openfoam.com                      |
|    \\/     M anipulation  |                                                 |
\*---------------------------------------------------------------------------*/
FoamFile
{
    version     2.0;
    format      ascii;
    arch        "LSB;label=32;scalar=64";
    class       volScalarField;
    location    "0.25/water";
    object      alphat.gas;
}
// * * * * * * * * * * * * * * * * * * * * * * * * * * * * * * * * * * * * * //

dimensions      [1 -1 -1 0 0 0 0];

internalField   nonuniform List<scalar> 
6000
(
2.01208692087e-07
8.41445163693e-08
3.5622589e-08
2.43059323781e-08
9.50380204208e-08
7.0128507609e-07
2.95667870511e-06
6.66502020586e-06
1.00789085441e-05
1.22570171122e-05
1.34009967245e-05
1.3933954409e-05
1.41568984588e-05
1.42367834872e-05
1.42562923644e-05
1.4253321842e-05
1.42439999863e-05
1.42345502867e-05
1.42269809761e-05
1.42216656712e-05
9.05359698449e-07
6.49252769624e-07
3.35093351481e-07
1.77682650889e-07
7.44198403721e-08
5.68114818753e-08
1.20571390942e-07
6.97667109997e-07
3.02569651031e-06
6.94617220665e-06
1.03677996825e-05
1.24595719652e-05
1.35238389765e-05
1.40027204072e-05
1.41920327764e-05
1.42514564875e-05
1.42584466751e-05
1.42477692599e-05
1.42338305038e-05
1.42219670365e-05
1.24387027214e-06
1.08054225615e-06
7.1984120461e-07
3.95690371993e-07
2.20030628028e-07
1.05676884156e-07
7.65986279868e-08
1.75547529857e-07
9.3569000134e-07
3.39073898529e-06
7.06149345479e-06
1.02706426262e-05
1.23426253939e-05
1.34643296791e-05
1.3997728648e-05
1.4218854436e-05
1.42916633656e-05
1.43017255408e-05
1.4289776302e-05
1.42736064669e-05
1.47330256239e-06
1.33717152309e-06
9.84453441602e-07
6.19823605167e-07
4.00094116251e-07
1.92312003019e-07
1.04058158097e-07
9.85045098834e-08
3.571995207e-07
1.66751288037e-06
4.59507543598e-06
8.0656432612e-06
1.0848172536e-05
1.26255649219e-05
1.36022584125e-05
1.40749147927e-05
1.42722286612e-05
1.43354048784e-05
1.43410946804e-05
1.43270534564e-05
1.6394948078e-06
1.52309918781e-06
1.17355989227e-06
8.03256067296e-07
4.86965036347e-07
3.24762733805e-07
1.41595864902e-07
9.23130651469e-08
1.74171970326e-07
8.53313708673e-07
2.97246537944e-06
6.20779666599e-06
9.32521820736e-06
1.16190214335e-05
1.30415353369e-05
1.38153847616e-05
1.41861944066e-05
1.43366172904e-05
1.4379806028e-05
1.43779018974e-05
1.74030905907e-06
1.65459223247e-06
1.31832769457e-06
9.46733508634e-07
6.22343494034e-07
3.58081960151e-07
2.21173707216e-07
9.46587818526e-08
1.06380233283e-07
4.45955950202e-07
1.91326244444e-06
4.73363459177e-06
7.91844502525e-06
1.0558703709e-05
1.23698145789e-05
1.34530058169e-05
1.40271436823e-05
1.42933644511e-05
1.43940781912e-05
1.44160014211e-05
1.79506914042e-06
1.7453635904e-06
1.42819963708e-06
1.05777508296e-06
7.2808431872e-07
4.57750830003e-07
2.42640072797e-07
1.2820374228e-07
7.2005684653e-08
2.27326467562e-07
1.19939557315e-06
3.56857044074e-06
6.66618679671e-06
9.5137800951e-06
1.16386629416e-05
1.30126552288e-05
1.38016040534e-05
1.42036328809e-05
1.43794060782e-05
1.44369126744e-05
1.83164892749e-06
1.80680459602e-06
1.50140120952e-06
1.13321511383e-06
8.04380855669e-07
5.36412003986e-07
3.16249991007e-07
1.59833254762e-07
6.93139540278e-08
1.03503263803e-07
6.85402395606e-07
2.61229732347e-06
5.54491211427e-06
8.50897951592e-06
1.08829763526e-05
1.25192703129e-05
1.35217681448e-05
1.40711550734e-05
1.433560449e-05
1.44391853022e-05
1.88123588963e-06
1.86069047276e-06
1.54933020929e-06
1.17971236481e-06
8.57011793831e-07
5.97727786271e-07
3.82359169984e-07
1.9966166995e-07
9.73510875911e-08
5.25529919626e-08
3.03282364684e-07
1.75394503311e-06
4.4850138873e-06
7.52803502899e-06
1.01163064215e-05
1.19917888186e-05
1.32012550937e-05
1.39031745039e-05
1.4265545365e-05
1.44232913047e-05
1.93987707371e-06
1.89891222262e-06
1.56673223186e-06
1.20032866558e-06
8.92023716834e-07
6.45773209428e-07
4.393298798e-07
2.56564806349e-07
1.09233699026e-07
5.077778905e-08
9.55707264951e-08
9.38216107522e-07
3.39013439078e-06
6.51677775308e-06
9.32815267777e-06
1.14387867503e-05
1.28511875335e-05
1.37070064164e-05
1.41727788502e-05
1.43906230963e-05
1.91410256443e-06
1.85647956512e-06
1.54904588868e-06
1.20858617815e-06
9.1809461878e-07
6.84433556128e-07
4.8860841884e-07
3.11275772639e-07
1.52699030263e-07
5.46967891181e-08
4.06244522066e-08
3.07988485934e-07
2.1787955001e-06
5.38271465947e-06
8.47780417291e-06
1.08519021622e-05
1.24742097845e-05
1.34873872921e-05
1.40605535506e-05
1.43422551671e-05
1.90458502766e-06
1.84844965686e-06
1.55011472164e-06
1.22042527614e-06
9.39899116891e-07
7.15801590464e-07
5.30594637106e-07
3.61939014636e-07
1.99468200675e-07
7.21206147234e-08
3.56156144182e-08
7.23646409267e-08
9.78052130896e-07
4.04004670987e-06
7.4969781644e-06
1.02026197272e-05
1.20632036657e-05
1.32439259729e-05
1.39292133973e-05
1.4277976941e-05
1.8899011846e-06
1.84501368864e-06
1.55302195605e-06
1.22992703493e-06
9.56793586853e-07
7.41040129978e-07
5.65754566294e-07
4.06407892561e-07
2.43954024545e-07
9.61130041583e-08
3.04547521909e-08
3.53266969123e-08
2.51344772417e-07
2.53061507216e-06
6.32578433402e-06
9.44889000025e-06
1.15970141751e-05
1.29683208201e-05
1.37754446701e-05
1.41960626313e-05
1.87901999759e-06
1.83948977373e-06
1.55062118109e-06
1.23251666893e-06
9.66249297684e-07
7.59463428887e-07
5.94360636897e-07
4.43767429287e-07
2.82171979126e-07
1.18361934114e-07
3.47043460069e-08
2.3327683572e-08
6.92430634104e-08
1.18793114778e-06
5.0048883111e-06
8.56202206083e-06
1.10491180347e-05
1.26448010884e-05
1.35924257941e-05
1.4093560933e-05
1.86719133883e-06
1.8348090709e-06
1.5472902381e-06
1.23061190848e-06
9.70223597801e-07
7.72782336183e-07
6.17716817747e-07
4.74404220013e-07
3.12489216016e-07
1.36178731323e-07
3.82535406423e-08
2.00978668337e-08
4.11436419392e-08
3.95344570426e-07
3.6267426596e-06
7.52351808182e-06
1.03813956924e-05
1.22508114299e-05
1.3370387438e-05
1.39666065974e-05
1.86418269847e-06
1.83562574905e-06
1.54681238251e-06
1.22886165544e-06
9.73137256228e-07
7.84676071954e-07
6.38552892034e-07
4.99982835444e-07
3.35495084857e-07
1.4960741411e-07
4.12843982032e-08
1.9049954973e-08
2.65045873088e-08
1.42375233672e-07
2.33657155364e-06
6.3085530272e-06
9.54604949702e-06
1.17596267522e-05
1.30969624402e-05
1.38103893013e-05
1.86607474105e-06
1.84291924547e-06
1.55194589374e-06
1.23273650699e-06
9.8106479389e-07
7.99792534883e-07
6.59708692739e-07
5.22460664356e-07
3.53464364554e-07
1.61311348552e-07
4.51673688417e-08
1.8755572583e-08
1.86955798057e-08
6.61592325335e-08
1.21820735132e-06
4.88170490348e-06
8.50410567211e-06
1.11433429324e-05
1.27573171242e-05
1.36188645227e-05
1.88157148148e-06
1.85991023653e-06
1.56647957984e-06
1.24792036607e-06
9.99423813926e-07
8.21336003213e-07
6.82460130929e-07
5.43008515529e-07
3.69335752783e-07
1.74848703078e-07
5.18166597553e-08
1.96398003124e-08
1.6699336748e-08
3.67731534234e-08
5.21784080899e-07
3.40351349126e-06
7.25561488742e-06
1.03768980071e-05
1.23348571029e-05
1.33844596022e-05
1.90602536389e-06
1.87768118284e-06
1.58884502397e-06
1.27758580945e-06
1.03075250624e-06
8.4943101624e-07
7.06317387648e-07
5.62000280421e-07
3.85806933822e-07
1.93983095624e-07
6.33668035836e-08
2.17256340784e-08
1.6241839939e-08
2.7187182032e-08
1.92738264491e-07
2.05131411491e-06
5.82058371314e-06
9.43727866976e-06
1.18114450826e-05
1.30977105739e-05
1.93274988201e-06
1.91219562549e-06
1.64581013943e-06
1.34041496257e-06
1.08047351498e-06
8.82735201566e-07
7.2849985051e-07
5.77393076383e-07
4.03847143739e-07
2.21667800875e-07
8.01432857432e-08
2.4963414144e-08
1.65446787911e-08
1.89880628789e-08
6.62746769724e-08
1.02865209315e-06
4.29789388762e-06
8.31507343846e-06
1.11692729832e-05
1.27474438387e-05
2.01013626778e-06
2.02647557671e-06
1.77296899598e-06
1.44114322692e-06
1.14081551219e-06
9.13950408111e-07
7.4349207072e-07
5.87826472073e-07
4.25451689939e-07
2.55279494919e-07
1.02327961582e-07
2.93005501302e-08
1.70809777886e-08
1.81828137477e-08
3.70576245922e-08
3.87093605527e-07
2.86391113218e-06
7.04017537271e-06
1.04004435799e-05
1.23237694837e-05
2.15410054258e-06
2.20390968592e-06
1.92669188276e-06
1.53786654207e-06
1.18949923176e-06
9.34305724373e-07
7.5134270091e-07
5.98098511512e-07
4.50357733066e-07
2.92494939051e-07
1.29165868509e-07
3.48681171911e-08
1.74856616595e-08
1.81921631325e-08
2.41612845166e-08
1.03531434752e-07
1.62019156274e-06
5.67369220426e-06
9.50731403249e-06
1.18195122459e-05
2.31953566479e-06
2.37056972892e-06
2.02718890666e-06
1.58640223963e-06
1.21515481786e-06
9.47155463129e-07
7.57412970258e-07
6.09795497894e-07
4.77262917551e-07
3.31760951739e-07
1.59829270149e-07
4.17839046195e-08
1.77582560082e-08
1.7806570142e-08
2.28316615218e-08
5.63787327556e-08
6.29452763756e-07
4.28786910699e-06
8.5011045387e-06
1.12301566395e-05
2.41529322518e-06
2.42567789472e-06
2.0377965542e-06
1.59010792508e-06
1.2240361146e-06
9.55180338523e-07
7.62893859507e-07
6.21315926618e-07
5.02896531498e-07
3.70068613649e-07
1.92544912175e-07
5.01957675666e-08
1.8194053478e-08
1.71732831683e-08
2.12851648804e-08
3.34920976323e-08
1.80508895897e-07
2.9024565552e-06
7.40959909575e-06
1.05553635987e-05
2.42544383214e-06
2.40422071409e-06
2.01631551027e-06
1.58398940924e-06
1.22703963356e-06
9.59162928024e-07
7.66766308136e-07
6.30827303939e-07
5.24910549202e-07
4.04111496402e-07
2.24094367588e-07
6.01913541876e-08
1.8963181993e-08
1.66988664755e-08
1.97475137446e-08
2.79015405757e-08
9.10845106275e-08
1.57026195422e-06
6.24264697904e-06
9.79144956808e-06
2.39888376201e-06
2.3716173808e-06
2.00216102027e-06
1.58315781447e-06
1.23036272728e-06
9.62767480509e-07
7.70818105647e-07
6.39648369877e-07
5.44309073391e-07
4.32554205801e-07
2.50909248175e-07
7.14698430651e-08
2.03515358443e-08
1.65785066507e-08
1.86673162146e-08
2.38174143397e-08
6.16284131496e-08
6.64408844831e-07
4.99407397695e-06
8.92965482107e-06
2.3722231662e-06
2.35046363145e-06
1.99815283973e-06
1.58615153378e-06
1.23413205298e-06
9.66316968212e-07
7.75504490014e-07
6.49457065515e-07
5.6261210155e-07
4.55632518026e-07
2.72826719067e-07
8.29870624366e-08
2.24239259196e-08
1.68024019762e-08
1.81574440124e-08
2.12553792816e-08
3.54200715686e-08
2.71651912086e-07
3.71676586697e-06
7.96861479764e-06
2.36326463469e-06
2.34844317306e-06
1.99994208396e-06
1.58879426636e-06
1.23697886136e-06
9.69641388177e-07
7.81337991053e-07
6.61299865205e-07
5.80081735911e-07
4.73705613492e-07
2.89318703603e-07
9.33129756021e-08
2.48084721363e-08
1.72479336019e-08
1.81432282233e-08
1.99772748205e-08
2.65715115112e-08
1.28317304742e-07
2.49867296062e-06
6.91005415913e-06
2.36402784146e-06
2.34757032193e-06
1.99831657124e-06
1.58699934099e-06
1.23691739847e-06
9.7227491202e-07
7.88441432819e-07
6.74650357789e-07
5.95774671528e-07
4.86614341956e-07
2.99371448977e-07
1.00579977654e-07
2.68515568699e-08
1.77610132673e-08
1.83882873278e-08
1.95047643565e-08
2.28527096129e-08
7.25322174009e-08
1.42891824589e-06
5.75930024114e-06
2.36599816081e-06
2.34975420026e-06
1.99810716518e-06
1.58410652101e-06
1.23517513618e-06
9.74256797115e-07
7.9616324562e-07
6.87978799314e-07
6.08461475838e-07
4.93667090399e-07
3.01834691518e-07
1.03413645813e-07
2.79627661503e-08
1.81491629235e-08
1.86205837765e-08
1.9439211457e-08
2.1140734602e-08
4.89627726591e-08
6.60266702872e-07
4.56677179356e-06
2.37580895491e-06
2.35404043856e-06
1.99911674716e-06
1.58146764099e-06
1.23246981411e-06
9.75282139435e-07
8.03628133712e-07
6.99818802846e-07
6.1718888342e-07
4.941417142e-07
2.96618082997e-07
1.01922257377e-07
2.80277024303e-08
1.82815375876e-08
1.87295913839e-08
1.94782778326e-08
2.03057687375e-08
3.05580346579e-08
2.64336793531e-07
3.40807829145e-06
2.37372057325e-06
2.35404188819e-06
1.99842944124e-06
1.57784555993e-06
1.22869643177e-06
9.75347753631e-07
8.10376555465e-07
7.09224484654e-07
6.21512826857e-07
4.87972831383e-07
2.85448196321e-07
9.79319561374e-08
2.75522973232e-08
1.82639921813e-08
1.8753122661e-08
1.94079924539e-08
1.97206837131e-08
2.35294108401e-08
1.1613081645e-07
2.32249011402e-06
2.37527338215e-06
2.35365227381e-06
1.99275638556e-06
1.57063326134e-06
1.2234432203e-06
9.75123684014e-07
8.16498797074e-07
7.1599071181e-07
6.21233205635e-07
4.75616360162e-07
2.70956440336e-07
9.35873335988e-08
2.71433685347e-08
1.82337037156e-08
1.87159647077e-08
1.92220034227e-08
1.91701152003e-08
2.08979228214e-08
6.45428706793e-08
1.39387548467e-06
2.37107514789e-06
2.34168178681e-06
1.97482037766e-06
1.55550653318e-06
1.215209888e-06
9.75197117504e-07
8.22174659257e-07
7.20148696363e-07
6.15969852767e-07
4.58376820109e-07
2.56054959658e-07
9.0507155832e-08
2.72443200143e-08
1.83037302407e-08
1.86605800274e-08
1.89908475322e-08
1.86379965647e-08
1.92168678275e-08
4.37216553273e-08
7.41357270246e-07
2.36967942505e-06
2.32221521189e-06
1.94776567262e-06
1.53439657953e-06
1.20636872462e-06
9.77395654876e-07
8.28157027549e-07
7.21901461131e-07
6.05522042179e-07
4.38552494573e-07
2.43352188849e-07
8.95418975646e-08
2.81745019445e-08
1.85522177209e-08
1.86236718991e-08
1.87675147165e-08
1.81782261405e-08
1.80855703968e-08
3.24301543414e-08
3.64283502444e-07
2.34404771387e-06
2.28079789139e-06
1.90637370524e-06
1.50935269961e-06
1.20213536161e-06
9.84854002441e-07
8.35609375885e-07
7.2078854017e-07
5.90388502011e-07
4.19288655462e-07
2.34897571212e-07
9.1340305001e-08
3.01941763788e-08
1.8991114913e-08
1.86119989539e-08
1.85327592134e-08
1.77415318265e-08
1.72683338949e-08
2.17053367878e-08
1.71609250077e-07
2.29855610633e-06
2.21373730605e-06
1.85153389885e-06
1.48912491923e-06
1.21095033613e-06
1.00112391141e-06
8.44106184419e-07
7.14398816887e-07
5.71381851576e-07
4.03759194946e-07
2.32491299194e-07
9.66282836253e-08
3.32867579764e-08
1.9585728005e-08
1.85831446056e-08
1.82094242843e-08
1.72312991993e-08
1.66024830892e-08
1.81922051607e-08
8.15431893016e-08
2.21990146846e-06
2.12664707645e-06
1.80295558103e-06
1.49267368183e-06
1.24071645314e-06
1.02431887883e-06
8.47114459878e-07
6.98619135826e-07
5.51761923506e-07
3.96201138743e-07
2.37539054908e-07
1.04977807989e-07
3.70483197335e-08
2.02739102053e-08
1.84502920483e-08
1.77305596915e-08
1.65911887081e-08
1.59446139627e-08
1.67731177382e-08
4.45502481168e-08
2.11602201045e-06
2.03846153488e-06
1.79720115971e-06
1.54336733876e-06
1.29031827165e-06
1.04158875554e-06
8.35661014106e-07
6.77635497535e-07
5.39581046844e-07
3.98000353043e-07
2.47631070493e-07
1.14446148979e-07
4.0927384073e-08
2.09302122419e-08
1.8149333623e-08
1.7105982631e-08
1.58349940371e-08
1.51182405451e-08
1.55779166533e-08
3.09319542768e-08
2.07374027218e-06
2.08317163213e-06
1.91502432515e-06
1.65882326932e-06
1.3388635221e-06
1.0354557673e-06
8.11807531166e-07
6.59320181603e-07
5.34970514761e-07
4.04859464914e-07
2.59020141983e-07
1.23729503918e-07
4.47353793683e-08
2.14927922002e-08
1.77002643659e-08
1.63949878102e-08
1.49949327727e-08
1.41099297759e-08
1.42798555282e-08
2.17816117154e-08
2.24076629926e-06
2.37903023101e-06
2.19679967425e-06
1.79473877029e-06
1.3479941481e-06
1.0027788255e-06
7.82945977991e-07
6.4565625317e-07
5.35406891811e-07
4.13449502454e-07
2.70297456113e-07
1.32919938008e-07
4.87107262509e-08
2.20728471969e-08
1.71913444015e-08
1.56520555324e-08
1.41137874984e-08
1.30048475513e-08
1.28506686369e-08
1.49723044258e-08
2.74765627778e-06
2.92724950196e-06
2.52801270325e-06
1.85478759751e-06
1.29986377575e-06
9.56038624256e-07
7.58601245327e-07
6.39088166966e-07
5.39786666939e-07
4.23736558268e-07
2.83412028162e-07
1.44186847571e-07
5.38599206552e-08
2.29913579061e-08
1.67458161285e-08
1.49220957855e-08
1.32485777403e-08
1.18928554118e-08
1.1392021973e-08
1.25746493298e-08
3.5562922973e-06
3.63388035353e-06
2.72445840137e-06
1.7908101378e-06
1.23004695092e-06
9.26519458045e-07
7.53574432724e-07
6.44149322767e-07
5.50089891843e-07
4.39328535726e-07
3.03343100765e-07
1.61889014291e-07
6.23050591671e-08
2.4833598656e-08
1.65411973559e-08
1.42603700893e-08
1.24487421848e-08
1.08479447268e-08
9.98039727309e-09
1.04555544059e-08
4.22008681588e-06
4.13385293686e-06
2.73460005821e-06
1.76512510515e-06
1.24846632665e-06
9.63140642544e-07
7.86835541777e-07
6.67815793813e-07
5.70491720465e-07
4.64998458928e-07
3.35588274532e-07
1.91321991575e-07
7.72950226715e-08
2.85871471516e-08
1.6829848548e-08
1.37448213192e-08
1.17367164506e-08
9.88405652426e-09
8.66335581069e-09
8.53514495753e-09
4.11425055683e-06
4.53451203275e-06
3.15588209921e-06
2.09331232673e-06
1.46775721543e-06
1.1027104255e-06
8.72267605748e-07
7.16414598541e-07
6.02260366636e-07
4.99299392571e-07
3.78985594409e-07
2.3373787298e-07
1.01582431944e-07
3.55238811211e-08
1.78832467878e-08
1.34589824636e-08
1.11054337094e-08
8.97672641426e-09
7.46088129859e-09
6.9356874859e-09
3.78926664457e-06
4.74816376074e-06
3.81549779826e-06
2.71504306411e-06
1.87298347363e-06
1.33654760054e-06
1.00953247159e-06
7.93842665306e-07
6.44946031366e-07
5.34748109628e-07
4.23518412886e-07
2.82315426168e-07
1.34187567983e-07
4.64451577193e-08
1.99130276267e-08
1.34348348563e-08
1.05524506733e-08
8.1497212203e-09
6.40438858147e-09
5.56338402696e-09
3.73340810704e-06
4.96794653015e-06
4.33661536107e-06
3.27911566742e-06
2.34314392019e-06
1.63329331841e-06
1.18453459781e-06
8.96348581693e-07
7.00460896053e-07
5.69047479936e-07
4.6076381478e-07
3.27417287716e-07
1.70130124362e-07
6.08150009399e-08
2.29691308712e-08
1.36139398166e-08
1.00493141807e-08
7.39171996853e-09
5.47560764523e-09
4.41458050217e-09
3.60894712168e-06
5.02908869975e-06
4.67104406164e-06
3.68934060009e-06
2.71301356869e-06
1.92316985765e-06
1.36926344693e-06
1.00981991474e-06
7.66338386471e-07
6.04823563788e-07
4.89634310353e-07
3.63171143515e-07
2.03703641239e-07
7.69080576642e-08
2.68606970798e-08
1.39081723879e-08
9.55149771881e-09
6.67230199835e-09
4.65201518665e-09
3.47357642214e-09
3.4571534523e-06
4.96611958348e-06
4.83031989697e-06
3.9544009234e-06
2.98327392265e-06
2.1493978065e-06
1.5312218139e-06
1.11773883815e-06
8.3427859003e-07
6.42483540973e-07
5.12749617864e-07
3.88307113097e-07
2.30693147983e-07
9.24518163706e-08
3.11771675786e-08
1.42707277839e-08
9.0137277043e-09
5.95736213213e-09
3.91150959794e-09
2.70778156384e-09
3.31270791055e-06
4.85548914453e-06
4.86704430576e-06
4.08550697953e-06
3.14279127587e-06
2.29970804215e-06
1.6565978248e-06
1.20918923138e-06
8.95085860846e-07
6.78051415794e-07
5.31720304576e-07
4.03504333018e-07
2.47780201221e-07
1.04561459533e-07
3.51724139836e-08
1.4570667514e-08
8.3896918574e-09
5.21847986708e-09
3.22722529419e-09
2.07810834254e-09
3.20671278903e-06
4.77632479138e-06
4.84187820444e-06
4.10481025849e-06
3.19550674794e-06
2.37617243667e-06
1.73719689773e-06
1.27256251481e-06
9.38644059992e-07
7.051192441e-07
5.4580025448e-07
4.11139814617e-07
2.54599062561e-07
1.10114405288e-07
3.7171723818e-08
1.43645402868e-08
7.62050797795e-09
4.43788129028e-09
2.57202482987e-09
1.54355014237e-09
3.14382106196e-06
4.74234632271e-06
4.76736974504e-06
4.04029524137e-06
3.16988372547e-06
2.39644574618e-06
1.76948558675e-06
1.29760181775e-06
9.56319996716e-07
7.17870213874e-07
5.52277120367e-07
4.11163986245e-07
2.51795020784e-07
1.08704016473e-07
3.64793707016e-08
1.34000555677e-08
6.62560301729e-09
3.61789742563e-09
1.93896530004e-09
1.08002503177e-09
3.12937494096e-06
4.64695316946e-06
4.57799210702e-06
3.89252662956e-06
3.09256726467e-06
2.35677794409e-06
1.74545351606e-06
1.27968098878e-06
9.46267035428e-07
7.14970711171e-07
5.49478598807e-07
4.02556329674e-07
2.39688367234e-07
1.00971944468e-07
3.32650148733e-08
1.17380868791e-08
5.47693710268e-09
2.77631149625e-09
1.34901118996e-09
6.88207897668e-10
3.14538020959e-06
4.55093987772e-06
4.38487497197e-06
3.71165675765e-06
2.95522914842e-06
2.25782527825e-06
1.67205227199e-06
1.22743667967e-06
9.15316584397e-07
6.99423873885e-07
5.37244759018e-07
3.84792623538e-07
2.1926459709e-07
8.84971623643e-08
2.82790167125e-08
9.62535622121e-09
4.26852782803e-09
1.96897683515e-09
8.37684615485e-10
3.8466373552e-10
3.16423383549e-06
4.565988011e-06
4.3063329645e-06
3.54203464187e-06
2.79323558004e-06
2.12682711877e-06
1.57322648852e-06
1.15949101154e-06
8.75144292094e-07
6.75956624159e-07
5.16735862116e-07
3.58498553176e-07
1.92638090575e-07
7.34768557888e-08
2.25156579027e-08
7.37694812325e-09
3.0991761372e-09
1.26007409883e-09
4.44739175966e-10
1.8524525521e-10
3.1883621068e-06
4.61375066413e-06
4.22436905032e-06
3.39329742525e-06
2.63872426908e-06
1.9947866489e-06
1.47361077355e-06
1.09366791279e-06
8.35642105525e-07
6.48809635238e-07
4.90134277975e-07
3.25322377541e-07
1.62796701092e-07
5.81252991118e-08
1.68895507281e-08
5.27744656423e-09
2.06322525766e-09
7.04635221137e-10
1.99610738021e-10
8.32395675823e-11
3.24735132621e-06
4.6271039871e-06
4.10612967737e-06
3.24522171351e-06
2.48512423343e-06
1.86388984276e-06
1.3811455351e-06
1.03780389719e-06
8.0128301698e-07
6.21955536633e-07
4.59986936755e-07
2.87769771202e-07
1.33027571775e-07
4.41958344403e-08
1.20372317932e-08
3.5258604947e-09
1.23729688893e-09
3.36569835828e-10
8.40353129523e-11
4.29150327184e-11
3.21343657264e-06
4.45401141652e-06
3.88925055625e-06
3.03328214403e-06
2.29585782651e-06
1.7213163412e-06
1.29414662312e-06
9.92368031367e-07
7.75516559171e-07
5.9981336637e-07
4.28075545304e-07
2.49054145129e-07
1.06293993367e-07
3.2783419797e-08
8.25511912973e-09
2.20799400644e-09
6.59988999983e-10
1.44009074747e-10
4.15548913751e-11
2.92611078056e-11
3.13078479798e-06
4.01315253697e-06
3.55466584762e-06
2.75074289349e-06
2.06727222458e-06
1.56877478798e-06
1.21561937552e-06
9.62550599877e-07
7.64874639233e-07
5.84675623103e-07
3.95963323098e-07
2.13043990554e-07
8.45912553289e-08
2.42958867193e-08
5.57800096965e-09
1.31447354132e-09
3.18403269736e-10
6.49590301452e-11
2.76127503391e-11
2.47745071468e-11
2.94926426844e-06
3.60233755651e-06
3.18008153011e-06
2.42282451647e-06
1.82336940633e-06
1.42988202982e-06
1.16502125868e-06
9.61692010244e-07
7.72709970541e-07
5.75209279827e-07
3.65675745485e-07
1.83306464174e-07
6.87260149356e-08
1.85763751271e-08
3.86073231486e-09
7.72695565441e-10
1.52053088077e-10
3.70039848894e-11
2.27766109922e-11
2.31312309017e-11
2.63974615451e-06
3.16149112814e-06
2.74377340658e-06
2.07151153702e-06
1.61266620808e-06
1.3491188729e-06
1.17039791476e-06
9.95940813875e-07
7.94974008452e-07
5.69479138186e-07
3.4098764718e-07
1.62493764163e-07
5.87456114772e-08
1.52603495653e-08
2.89452250571e-09
4.85759127224e-10
8.38422831997e-11
2.72878397222e-11
2.07559517583e-11
2.20657347528e-11
2.23326644212e-06
2.6326792805e-06
2.26515067401e-06
1.78564252509e-06
1.51084251364e-06
1.3700291957e-06
1.23859967176e-06
1.05573037135e-06
8.24762843624e-07
5.68685765504e-07
3.27053998384e-07
1.52312766948e-07
5.45442794142e-08
1.40529240075e-08
2.51468918394e-09
3.64603658235e-10
6.01653574392e-11
2.4030406668e-11
1.96895633065e-11
2.08716874756e-11
1.81380524903e-06
2.10238263976e-06
1.91640059838e-06
1.69140818353e-06
1.57442451837e-06
1.4931647685e-06
1.34837216061e-06
1.12587296706e-06
8.58348062253e-07
5.78175778512e-07
3.29424625179e-07
1.54573159244e-07
5.65992830153e-08
1.50560668165e-08
2.70680380708e-09
3.59966470653e-10
5.76431360651e-11
2.38523751795e-11
1.94127398622e-11
1.96566615196e-11
1.67161735266e-06
1.897449788e-06
1.90735948908e-06
1.84090052099e-06
1.78994589318e-06
1.68020044328e-06
1.47205369222e-06
1.19658235584e-06
8.98822415995e-07
6.07260962472e-07
3.55177170888e-07
1.73360926224e-07
6.7159355721e-08
1.92636903953e-08
3.70775286144e-09
4.81425602054e-10
7.24590605473e-11
2.67037989234e-11
2.03870144318e-11
1.91394998691e-11
1.9279253134e-06
2.09996534728e-06
2.221230073e-06
2.20289866253e-06
2.09692008648e-06
1.88139120626e-06
1.58865281539e-06
1.27189538572e-06
9.61517907006e-07
6.70076056155e-07
4.13956509316e-07
2.16273082515e-07
9.10087472091e-08
2.89593484482e-08
6.29387707786e-09
8.64422616165e-10
1.16807629836e-10
3.49656195542e-11
2.3577644847e-11
2.01429441806e-11
2.38766369049e-06
2.68411973821e-06
2.78930401353e-06
2.66827972885e-06
2.41010267128e-06
2.07912286268e-06
1.72747303568e-06
1.38726055627e-06
1.06917105149e-06
7.76963562907e-07
5.14851215973e-07
2.95295499022e-07
1.38775156073e-07
5.0181652769e-08
1.26450427575e-08
1.99789551049e-09
2.39210737198e-10
5.46923390605e-11
3.06901499307e-11
2.38353447705e-11
3.08701027638e-06
3.43555319957e-06
3.41927056777e-06
3.13153288962e-06
2.74532756817e-06
2.34486603597e-06
1.95406221056e-06
1.58424024775e-06
1.24435901491e-06
9.38603192821e-07
6.64975133239e-07
4.23380063949e-07
2.27972947103e-07
9.58757434778e-08
2.82656761442e-08
5.34543510484e-09
6.5517250525e-10
1.03845966101e-10
4.64560341576e-11
3.18082097334e-11
3.73687493664e-06
3.98761948685e-06
3.84615072323e-06
3.51235849669e-06
3.11997048419e-06
2.70748772273e-06
2.28421639828e-06
1.87158600558e-06
1.49287851987e-06
1.15440312685e-06
8.55359073021e-07
5.91797763452e-07
3.63644152412e-07
1.81608985283e-07
6.41944188281e-08
1.44505469303e-08
2.10977501607e-09
2.55197494487e-10
8.10465942385e-11
4.63686776479e-11
3.25476707825e-06
3.97067141394e-06
4.04000020259e-06
3.80213795316e-06
3.46259897219e-06
3.06405287212e-06
2.62010843713e-06
2.17259732827e-06
1.76086360279e-06
1.38689133366e-06
1.05352745122e-06
7.63329850041e-07
5.12980642839e-07
2.97339351117e-07
1.28037572043e-07
3.50247190435e-08
6.13678328186e-09
7.81641235917e-10
1.47070981687e-10
7.0023980877e-11
2.74338052178e-06
3.97902358e-06
4.20189914871e-06
3.98390182282e-06
3.66908920682e-06
3.30298724894e-06
2.87163669362e-06
2.40754101638e-06
1.97640375406e-06
1.57586056573e-06
1.21670565832e-06
9.04173508032e-07
6.37411895192e-07
4.04402235468e-07
2.01984512011e-07
6.66918533971e-08
1.40463361894e-08
2.07056455146e-09
2.83391139663e-10
1.02667716901e-10
2.58897362477e-06
3.94638656968e-06
4.25643900574e-06
4.05803492708e-06
3.7570702325e-06
3.41037309524e-06
2.99905045405e-06
2.54577733724e-06
2.10819725876e-06
1.69296378511e-06
1.32144157321e-06
9.98829372505e-07
7.24083444092e-07
4.8193906867e-07
2.60927328079e-07
9.7111620473e-08
2.35852643095e-08
3.95661869195e-09
5.38800480225e-10
1.36498259795e-10
2.5051898886e-06
3.87340740343e-06
4.21620047054e-06
4.0338932407e-06
3.74781351636e-06
3.41724569559e-06
3.02076983295e-06
2.58040388877e-06
2.14611749356e-06
1.73413959539e-06
1.36610978422e-06
1.0469730895e-06
7.74233848231e-07
5.29501228395e-07
2.97947745855e-07
1.17498633647e-07
3.06720216502e-08
5.50964231195e-09
7.65612285609e-10
1.64147308374e-10
2.44502511537e-06
3.80027339359e-06
4.13508411881e-06
3.94452168085e-06
3.66042781904e-06
3.33858287923e-06
2.9535238027e-06
2.52951343294e-06
2.10973340843e-06
1.71374151247e-06
1.36071598194e-06
1.05555470661e-06
7.92832217795e-07
5.50154951728e-07
3.12736587545e-07
1.24822302184e-07
3.30359990334e-08
5.95514569321e-09
8.15802235277e-10
1.74173265721e-10
2.39737069378e-06
3.7490098575e-06
4.05282237356e-06
3.8192186452e-06
3.51363497904e-06
3.18895080042e-06
2.81518846632e-06
2.41234005126e-06
2.01598558486e-06
1.64631605653e-06
1.31813456889e-06
1.03515972246e-06
7.87667000869e-07
5.48734947144e-07
3.0785846157e-07
1.20041082896e-07
3.08994771176e-08
5.33820915955e-09
7.05824673115e-10
1.64231851059e-10
2.38509307116e-06
3.76421818983e-06
3.99103217423e-06
3.67126230099e-06
3.32059661099e-06
2.98098875424e-06
2.61776666529e-06
2.24235324088e-06
1.87907961069e-06
1.54489593901e-06
1.25031491651e-06
9.95843718024e-07
7.65713412518e-07
5.29321564254e-07
2.86901325436e-07
1.06457806218e-07
2.59266885199e-08
4.17242259083e-09
5.35596117468e-10
1.46722065783e-10
2.43892246264e-06
3.8302241052e-06
3.86865382578e-06
3.45993448375e-06
3.07787986055e-06
2.72475498869e-06
2.37252901493e-06
2.03206815533e-06
1.71269428824e-06
1.42335571157e-06
1.16967526866e-06
9.46893927053e-07
7.31986575001e-07
4.9473119728e-07
2.5403371891e-07
8.81326813635e-08
2.00028821606e-08
2.96744008322e-09
3.82982173188e-10
1.29483981376e-10
2.6077315193e-06
3.78220764381e-06
3.5860431109e-06
3.16927120403e-06
2.78918469895e-06
2.42718565312e-06
2.09636984247e-06
1.8006343192e-06
1.53454777851e-06
1.29763786218e-06
1.08866946923e-06
8.95748919505e-07
6.89120955552e-07
4.47467392078e-07
2.14295824546e-07
6.89844216566e-08
1.45565639568e-08
2.01038927186e-09
2.75563155311e-10
1.15140809834e-10
2.82147106842e-06
3.68596068546e-06
3.37590587899e-06
2.90358727072e-06
2.49951331814e-06
2.13622436079e-06
1.82842770858e-06
1.57800165287e-06
1.36817617793e-06
1.18559964836e-06
1.01894163037e-06
8.46933002142e-07
6.38070716029e-07
3.91519387574e-07
1.73654410168e-07
5.20802909257e-08
1.03256382736e-08
1.36937520236e-09
2.10081041474e-10
1.04143546436e-10
3.00121192073e-06
3.8770981186e-06
3.4416366048e-06
2.79529971307e-06
2.3167998e-06
1.92544253107e-06
1.61563275274e-06
1.39518637814e-06
1.23534311638e-06
1.10196081305e-06
9.67245035528e-07
8.00308909654e-07
5.80345938936e-07
3.33724084421e-07
1.38014054574e-07
3.91703301755e-08
7.46392519245e-09
9.980759695e-10
1.76231074595e-10
9.62642023379e-11
3.2543088378e-06
3.96108500436e-06
3.60176248006e-06
2.84276572829e-06
2.26562574831e-06
1.82240910519e-06
1.48575717441e-06
1.27304578401e-06
1.1496747057e-06
1.05262408395e-06
9.30670619924e-07
7.53345913578e-07
5.21573734889e-07
2.82907513535e-07
1.11599106211e-07
3.07640441397e-08
5.82023351985e-09
8.30780093884e-10
1.67663556467e-10
9.19445683579e-11
3.26637813414e-06
3.89874169178e-06
3.65004978251e-06
2.89001086549e-06
2.25605201537e-06
1.7800692627e-06
1.42662360508e-06
1.21481001177e-06
1.11198072294e-06
1.02982081251e-06
9.01685763035e-07
7.09002277589e-07
4.71366559501e-07
2.46860242356e-07
9.62104630348e-08
2.66648364606e-08
5.21746927497e-09
8.32802676267e-10
1.85939868197e-10
9.2938364676e-11
3.00052810551e-06
3.66954217901e-06
3.50724871916e-06
2.8066469384e-06
2.18942632259e-06
1.73761125329e-06