/*--------------------------------*- C++ -*----------------------------------*\
| =========                 |                                                 |
| \\      /  F ield         | OpenFOAM: The Open Source CFD Toolbox           |
|  \\    /   O peration     | Version:  2312                                  |
|   \\  /    A nd           | Website:  www.openfoam.com                      |
|    \\/     M anipulation  |                                                 |
\*---------------------------------------------------------------------------*/
FoamFile
{
    version     2.0;
    format      ascii;
    arch        "LSB;label=32;scalar=64";
    class       volScalarField;
    location    "0.86/water";
    object      Ct2;
}
// * * * * * * * * * * * * * * * * * * * * * * * * * * * * * * * * * * * * * //

dimensions      [0 0 0 0 0 0 0];

internalField   nonuniform List<scalar> 
1504
(
1
1
1
1
1
1
1
1
1
1
1
1
1
1
1
1
1
1
1
1.00184715246
1
1
1
1
1
1
1
1
1
1
1
1
1
1
1
1
1
1
1
1.00000000645
1
1
1
1
1
1
1
1
1
1
1
1
1
1
1
1
1
1
1
1
1
1
1
1
1
1
1
1
1
1
1
1
1
1
1
1
1
1
1
1
1
1
1
1
1
1
1
1
1
1
1
1
1
1
1
1
1
1
1
1
1
1
1
1
1
1
1
1
1
1
1
1
1
1
1
1
1
1
1
1
1
1
1
1
1
1
1
1
1
1
1
1
1
1
1
1
1
1
1
1
1
1
1
1
1
1
1
1
1
1
1
1
1
1
1
1
1
1
1
1
1
1
1
1
1
1
1
1
1
1
1
1
1
1
1
1
1
1
1
1
1
1
1
1
1
1
1
1
1
1
1
1
1
1
1
1
1
1
1
1
1
1
1
1
1
1
1
1
1
1
1
1
1
1
1
1
1
1
1
1
1
1
1
1
1
1
1
1
1
1
1
1
1
1
1
1
1
1
1
1
1
1
1
1
1
1
1
1
1
1
1
1
1
1
1
1
1
1
1
1
1
1
1
1
1
1
1
1
1
1
1
1
1
1
1
1
1
1
1
1
1
1
1
1
1
1
1
1
1
1
1
1
1
1
1
1
1
1
1
1
1
1
1
1
1
1
1
1
1
1
1
1
1
1
1
1
1
1
1
1
1
1
1
1
1
1
1
1
1
1
1
1
1
1
1
1
1
1
1
1
1
1
1
1
1
1
1
1
1
1
1
1
1
1
1
1
1
1
1
1
1
1
1
1
1
1
1
1
1
1
1
1
1
1
1
1
1
1
1
1
1
1
1
1
1
1
1
1
1
1
1
1
1
1
1
1
1
1
1
1
1
1
1
1
1
1
1
1
1
1
1
1
1
1
1
1
1
1
1
1
1
1
1
1
1
1
1
1
1
1
1
1
1
1
1
1
1
1
1
1
1
1
1
1
1
1
1
1
1
1
1
1
1
1
1
1
1
1
1
1
1
1
1
1
1
1
1
1
1
1
1
1
1
1
1
1
1
1
1
1
1
1
1
1
1
1
1
1
1
1
1
1
1
1
1
1
1
1
1
1
1
1
1
1
1
1
1
1
1
1
1
1
1
1
1
1
1
1
1
1
1
1
1
1
1
1
1
1
1
1
1
1
1
1
1
1
1
1
1
1
1
1
1
1
1
1
1
1
1
1
1
1
1
1
1
1
1
1
1
1
1
1
1
1
1
1
1
1
1
1
1
1
1
1
1
1
1
1
1
1
1
1
1
1
1
1
1
1
1
1
1
1
1
1
1
1
1
1
1
1
1
1
1
1
1
1
1
1
1
1
1
1
1
1
1
1
1
1
1
1
1
1
1
1
1
1
1
1
1
1
1
1
1
1
1
1
1
1
1
1
1
1
1
1
1
1
1
1
1
1
1
1
1
1
1
1
1
1
1
1
1
1
1
1
1
1
1
1
1
1
1
1
1
1
1
1
1
1
1
1
1
1
1
1
1
1
1
1
1
1
1
1
1
1
1
1
1
1
1
1
1
1
1
1
1
1
1
1
1
1
1
1
1
1
1
1
1
1
1
1
1
1
1
1
1
1
1
1
1
1
1
1
1
1
1
1
1
1
1
1
1
1
1
1
1
1
1
8.96861186659
8.96990230571
8.97125519936
8.97224793555
8.97281800944
8.97310099263
8.97324235991
8.97332265053
8.97337480382
8.97341330898
8.97344623284
8.97347871431
8.97351449541
8.97355655232
8.97360592111
8.97365665532
8.97369573897
2.1730596732
8.52000839916
8.96925647131
8.96939321618
8.97052861569
8.97168653589
8.97249345887
8.9729385355
8.97315905149
8.97327362691
8.97334162895
8.97338726365
8.97342202979
8.97345266398
8.97348362779
8.97351829722
8.97355949229
8.97360848788
8.9736598206
8.97369945518
1.59435012299
7.67539283838
8.96864378012
8.97008516833
8.9710712882
8.97204432402
8.97268845764
8.97303292234
8.97320560669
8.97329937666
8.97335729657
8.97339739516
8.97342892248
8.97345755109
8.97348719131
8.97352090682
8.97356135845
8.97361004668
8.97366219406
8.97370304456
1.43073949955
6.36029551449
8.9602641367
8.9706776066
8.97152152728
8.97232837161
8.97283714695
8.97310396138
8.97324095311
8.9733187721
8.9733685888
8.97340413703
8.97343298223
8.97345996734
8.9734885681
8.97352159009
8.97356153343
8.97361008994
8.97366334502
8.97370617368
1.38368612386
4.93762799563
8.93529902033
8.97115390157
8.97188044748
8.97254438996
8.97294549034
8.97315440851
8.97326530988
8.97333108264
8.97337456419
8.97340652519
8.9734332815
8.97345904819
8.97348697179
8.97351965272
8.97355942817
8.97360812484
8.97366283694
8.97370849254
1.23538201382
3.75305451133
8.8878563086
8.97151956229
8.97215482138
8.97270081602
8.97301952028
8.97318655933
8.97327878843
8.97333568344
8.97337441633
8.97340372268
8.97342900944
8.97345403512
8.97348171122
8.9735144828
8.97355451945
8.9736037011
8.9736602447
8.97370965617
1.05114327032
2.9109845081
8.81102022567
8.97179875056
8.97235369494
8.97280643414
8.97306449313
8.97320222626
8.97328150316
8.97333213979
8.97336755511
8.97339510312
8.97341955293
8.97344435189
8.97347226013
8.97350561304
8.97354640239
8.97359644938
8.973655165
8.97370932496
1.00300719502
2.34892672527
8.6947218487
8.97201442859
8.9724898397
8.97287073953
8.97308549767
8.97320336245
8.97327399906
8.97332049622
8.97335383177
8.97338043597
8.97340465199
8.9734297359
8.9734583684
8.97349281427
8.97353486861
8.97358614137
8.97364724008
8.97370715428
1.00002494276
1.97311656341
8.52850805444
8.97218837156
8.97257913835
8.97290405513
8.97308804924
8.97319259673
8.97325760747
8.97330152882
8.97333374021
8.97336005306
8.97338453902
8.97341035543
8.97344016074
8.97347617847
8.97351997598
8.9735727489
8.97363618357
8.97370276362
1.00000000224
1.70940704678
8.27358223711
8.97233767759
8.97263593955
8.97291585884
8.97307757282
8.97317301032
8.97323430307
8.97327666069
8.97330837609
8.97333483393
8.97335994001
8.97338681998
8.97341815238
8.97345613768
8.97350207186
8.97355647466
8.97362179573
8.97369567372
1
1.51740931996
7.78586303265
8.97168396198
8.97267127345
8.97291354761
8.97305869322
8.97314761685
8.97320630304
8.97324766521
8.97327921955
8.97330604577
8.97333195606
8.97336009312
8.9733931857
8.97343341919
8.97348176499
8.97353774936
8.97360397039
8.97368520575
1
1.41554193459
6.76652251022
8.96405319095
8.97269372285
8.97290288821
8.97303524219
8.97311918712
8.9731758426
8.97321645402
8.97324795126
8.97327518852
8.97330193518
8.97333138739
8.97336634521
8.97340897835
8.97345987612
8.97351721118
8.97358270831
8.97367033626
1
1.25888001488
4.84789364473
8.91593631217
8.97270277465
8.97288831435
8.97301032104
8.97309016893
8.97314504548
8.97318494316
8.97321632813
8.97324388424
8.97327137605
8.97330208201
8.97333888807
8.97338394014
8.97343738866
8.97349567784
8.97355814283
8.97364948242
1
1.00010974955
2.57735141573
8.65441779481
8.97157601784
8.97287313426
8.97298641718
8.97306274
8.97311594559
8.97315505821
8.97318617687
8.97321386238
8.97324190745
8.97327369841
8.97331221771
8.97335957168
8.97341541841
8.973474118
8.97353056991
8.97362016157
1
1
1.52180123491
7.49683891618
8.95747553364
8.97286476388
8.97296693001
8.9730397113
8.97309103768
8.97312907648
8.97315960477
8.97318708452
8.97321535558
8.97324792901
8.97328788671
8.9733372677
8.9733951816
8.97345359875
8.97350043626
8.97357840794
1
1
1.30018673749
4.41542210792
8.82414239812
8.9726856909
8.97295643336
8.97302456422
8.97307325539
8.97310956654
8.9731389115
8.97316563752
8.97319362602
8.97322651375
8.97326747277
8.97331842936
8.973377875
8.97343514531
8.97346819107
8.9735177035
1
1
1.00000068213
1.86627078602
7.92664818055
8.96641566746
8.97295862247
8.97302019794
8.97306503856
8.9730986606
8.97312600313
8.97315124831
8.97317829294
8.97321088654
8.97325227064
8.97330419435
8.97336443354
8.97341948753
8.97343391823
8.97342702213
1
1
1
1.40168219035
4.94496161416
8.87175259736
8.97297388375
8.97302814739
8.97306753708
8.97309738811
8.97312183591
8.97314481984
8.97317021501
8.97320186264
8.9732430442
8.97329524604
8.9733553821
8.97340690281
8.97339698344
8.97328718627
1
1
1
1.01132214685
2.14449229816
8.13149118851
8.97127473171
8.97304767491
8.97308030274
8.97310534745
8.97312608942
8.97314611379
8.97316923291
8.97319935794
8.97323977924
8.97329165181
8.97335115184
8.9734008351
8.97337958797
8.97314231345
1
1
1
1
1.44673785859
5.7243603807
8.92106614434
8.9730787259
8.97310154238
8.97312079081
8.97313715697
8.97315366471
8.97317401057
8.97320215163
8.97324134809
8.97329231096
8.97335039498
8.97339918125
8.97338917714
8.97316196105
1
1
1
1
1.2947128008
2.94605251995
8.54144255804
8.97301122534
8.97312865986
8.97314115975
8.97315257629
8.97316516582
8.9731824043
8.97320825216
8.97324587863
8.97329536569
8.97335074449
8.97339584964
8.97339610283
8.97330438703
1
1
1
1
1.00350313354
1.71983237725
7.16207302997
8.96074847566
8.97315933699
8.97316345976
8.97316939959
8.97317783453
8.97319184111
8.97321529637
8.97325117828
8.97329868325
8.97334982078
8.97338734865
8.97338982594
8.97338277995
1
1
1
1
1.00000000013
1.42920389619
4.73399686949
8.83795336859
8.97319794717
8.97318501234
8.97318472041
8.97318886035
8.97319968487
8.97322082888
8.97325491536
8.97329991705
8.97334490746
8.97337003018
8.9733696188
8.97342988253
1
1
1
1
1
1.33952937464
2.69236939444
8.28118622097
8.9714814051
8.9732037109
8.97319668875
8.97319625429
8.97320405957
8.9732232424
8.97325603347
8.97329925519
8.97333878336
8.97335127897
8.9733508866
8.97347181691
1
1
1
1
1
1.04094454031
1.74163590741
6.72174932764
8.93148646292
8.97322605656
8.97320505124
8.97319972038
8.97320472297
8.97322249921
8.97325510103
8.97329964102
8.97334280627
8.97336461004
8.9733892187
8.97353804051
1
1
1
1
1
1.00000233047
1.4450958184
4.29139214229
8.60602100315
8.97056959548
8.97321289761
8.97320126569
8.9732035826
8.97322059696
8.97325428673
8.97330413214
8.97336433611
8.97342642501
8.97349964072
8.9736256231
1
1
1
1
1
1
1.36495253501
2.39021470042
7.22580549261
8.89261496993
8.97284137255
8.97320577868
8.97320744473
8.97322505364
8.97325988796
8.97331266739
8.97338215327
8.97346821584
8.97357353479
8.97368787503
1
1
1
1
1
1
1.05476491478
1.59736591907
4.64871954109
8.31194000281
8.95024124435
8.97319236396
8.97323215216
8.97325582649
8.97329664252
8.97335127138
8.97342128681
8.97351402725
8.97362682647
8.97372563099
1
1
1
1
1
1
1.00000063298
1.40817356402
2.52068268302
6.48553143842
8.69486007904
8.9682876603
8.97330380314
8.97334306714
8.97338855012
8.97343879518
8.97350069168
8.97358160397
8.97367343629
8.97374720439
1
1
1
1
1
1
1
1.188199527
1.6224355913
3.98862177577
7.60657880357
8.87126232146
8.97275801956
8.9734712594
8.97351196649
8.97355268243
8.97359960897
8.973655015
8.97371461137
8.9737624469
1
1
1
1
1
1
1
1.00013137358
1.41359989884
2.28821735359
5.50540539826
8.31568792552
8.94865811546
8.97348531761
8.97348715
8.97353186451
8.97359592112
8.97370034718
8.97374695888
8.97377812942
1
1
1
1
1
1
1
1
1.30417470314
1.6266665213
3.45182118978
6.84948778058
8.70637015901
8.94254568567
8.8991022957
8.89087961177
8.90674132197
8.96607465412
8.97359780594
8.97376658527
1
1
1
1
1
1
1
1
1.04803918568
1.4353678548
2.16902109342
4.67342263067
7.60130622488
8.1727076563
6.0300309849
4.58721467846
4.52215864704
7.43119149182
8.87916390302
8.95852575737
1
1
1
1
1
1
1
1
1.00004785977
1.36813352777
1.56051219507
2.53635213811
4.9881095087
5.98909000411
1.70622445667
1.12917310817
1.00413176184
1.40310981636
3.36817091275
7.54059710046
1
1
1
1
1
1
1
1
1
1.04310591701
1.39777043712
1.55015408582
2.44464528086
2.80290465959
1.1289024118
1
1
1
1.00000000001
2.03794109017
1
1
1
1
1
1
1
1
1
1.00000000002
1.03365795574
1.38583600195
1.42668652847
1.00025256009
1
1
1
1
1
1.39044561398
1
1
1
1
1
1
1
1
1
1
1.00000000159
1.00000000058
1
1
1
1
1
1
1
1.13100960707
1
1
1
1
1
1
1
1
1
1
1
1
1
1
1
1
1
1
1
1.03745067778
)
;

boundaryField
{
    emptyPatch
    {
        type            empty;
    }
    minY
    {
        type            calculated;
        value           nonuniform List<scalar> 0();
    }
    maxY
    {
        type            calculated;
        value           nonuniform List<scalar> 0();
    }
    water_to_cooler
    {
        type            calculated;
        value           nonuniform List<scalar> 
38
(
8.97379442966
8.97379718542
8.97379981742
8.97380235525
8.9738048377
8.97380731088
8.97380982622
8.97381243801
8.9738151999
8.9738181604
8.97382135789
8.97382481558
8.97382853711
8.9738325032
8.97383666974
8.97384096852
8.97384531291
8.97384960822
8.97385376486
8.97385771471
8.9738614218
8.9738648758
8.97386809129
8.97387110646
8.9738739754
8.97387676447
8.97387954662
8.97388239791
8.97388539724
8.97388862176
8.97389214373
8.97387287914
8.95861215282
7.54089393693
2.03817821133
1.39056342469
1.13104757102
1.03746163534
)
;
    }
    water_to_heater
    {
        type            calculated;
        value           uniform 1;
    }
    procBoundary3to1
    {
        type            processor;
        value           nonuniform List<scalar> 
41
(
1
1
1
1
1
1
1
1
1
1
1
1
1
1
1
1
1
1
1
1
1
1
1
1
1
1
1
1
1
1
1
1
1
1
1
1
1
1
1
1
1.08044622979
)
;
    }
    procBoundary3to2
    {
        type            processor;
        value           nonuniform List<scalar> 
41
(
1
1
1
1
1
1
1
1
1
1
1
1
1
1
1
1
1
1
1
1.21006955617
8.96777131855
8.96921246431
8.97075825496
8.97195096859
8.97266899813
8.97303102711
8.97320644829
8.97330149895
8.97336112185
8.97340378906
8.97343919502
8.97347328907
8.97351023099
8.97355315085
8.97360285949
8.97365315626
8.97369226281
3.74273359231
8.87045398247
8.96831793345
8.96831793345
)
;
    }
}


// ************************************************************************* //
