/*--------------------------------*- C++ -*----------------------------------*\
| =========                 |                                                 |
| \\      /  F ield         | OpenFOAM: The Open Source CFD Toolbox           |
|  \\    /   O peration     | Version:  2312                                  |
|   \\  /    A nd           | Website:  www.openfoam.com                      |
|    \\/     M anipulation  |                                                 |
\*---------------------------------------------------------------------------*/
FoamFile
{
    version     2.0;
    format      ascii;
    arch        "LSB;label=32;scalar=64";
    class       volScalarField;
    location    "0.805/water";
    object      alphat.gas;
}
// * * * * * * * * * * * * * * * * * * * * * * * * * * * * * * * * * * * * * //

dimensions      [1 -1 -1 0 0 0 0];

internalField   nonuniform List<scalar> 
1496
(
4.25858985112e-06
5.44435732871e-06
5.19924638348e-06
4.40177842949e-06
3.70342908271e-06
3.15014138312e-06
2.63216401966e-06
2.13992535609e-06
1.6894356937e-06
1.31615912784e-06
1.04496831503e-06
8.70519687484e-07
7.61695101782e-07
6.79676809775e-07
5.93105243292e-07
4.88799127135e-07
3.72592880387e-07
2.57635750025e-07
1.56548467631e-07
8.52467665577e-08
3.83792476594e-06
5.49184170047e-06
5.56239250872e-06
4.91221629479e-06
4.22375381835e-06
3.64405423365e-06
3.09077047759e-06
2.56897844775e-06
2.07707339365e-06
1.63225588902e-06
1.26755445642e-06
1.00390993108e-06
8.31701537693e-07
7.16903264614e-07
6.18133045769e-07
5.0883997288e-07
3.880227445e-07
2.67649879026e-07
1.60470222449e-07
8.32286793927e-08
3.76344281681e-06
5.5425366163e-06
5.80806019124e-06
5.26580160266e-06
4.59675679641e-06
4.02343301996e-06
3.48933957278e-06
2.956759097e-06
2.44450534312e-06
1.96167958799e-06
1.53598537931e-06
1.19311301401e-06
9.46664640994e-07
7.81678124976e-07
6.58644168407e-07
5.390467123e-07
4.11100754804e-07
2.83327277677e-07
1.67347025793e-07
8.15860940418e-08
3.66973225343e-06
5.46556528122e-06
5.89786752952e-06
5.48192196746e-06
4.85900829353e-06
4.29805161028e-06
3.78328478389e-06
3.27598436449e-06
2.77721255914e-06
2.26650344577e-06
1.80561537467e-06
1.41004806906e-06
1.09848177457e-06
8.76097638591e-07
7.17287520244e-07
5.80043925008e-07
4.41273901126e-07
3.03600535929e-07
1.766571297e-07
8.06977795601e-08
3.53476930635e-06
5.29282142851e-06
5.83641638859e-06
5.55545437793e-06
5.00922878908e-06
4.48046106533e-06
3.98950860718e-06
3.50295572996e-06
3.01297646384e-06
2.51777417396e-06
2.0445854668e-06
1.62096210726e-06
1.26434481994e-06
9.91287298327e-07
7.91927330864e-07
6.29986918936e-07
4.756500425e-07
3.25020982807e-07
1.86061924436e-07
8.0757714656e-08
3.33321293291e-06
5.05172497728e-06
5.6705812685e-06
5.50879524678e-06
5.05470772247e-06
4.57571481082e-06
4.11633333617e-06
3.6546422925e-06
3.18298382969e-06
2.70475032651e-06
2.22818331805e-06
1.79216893431e-06
1.41331446372e-06
1.10691980368e-06
8.72343373543e-07
6.82777579499e-07
5.08445852212e-07
3.41661734775e-07
1.91020324518e-07
8.05685341702e-08
3.11446914257e-06
4.77967588687e-06
5.44405264614e-06
5.37743217868e-06
5.01183771884e-06
4.58952098328e-06
4.16572537647e-06
3.72957020311e-06
3.27613222743e-06
2.81157012118e-06
2.34737105817e-06
1.90968641724e-06
1.52151793901e-06
1.19794958802e-06
9.40104808463e-07
7.26496737596e-07
5.30887681535e-07
3.46937323381e-07
1.86869211343e-07
7.67294427921e-08
2.91107856256e-06
4.5156034371e-06
5.19412977262e-06
5.1856067687e-06
4.88995853408e-06
4.52238946241e-06
4.13575396223e-06
3.72567370576e-06
3.29146530939e-06
2.84254845062e-06
2.39245564583e-06
1.96201440449e-06
1.57484817445e-06
1.24654018248e-06
9.77073475369e-07
7.46267464415e-07
5.31924899779e-07
3.34399664179e-07
1.71633194554e-07
6.85219125378e-08
2.75677060774e-06
4.30223445714e-06
4.94506512761e-06
4.9427148265e-06
4.68959650592e-06
4.36770517722e-06
4.01565917406e-06
3.63080169748e-06
3.21677089398e-06
2.78613471953e-06
2.35443011932e-06
1.93979330316e-06
1.56430799676e-06
1.24206868014e-06
9.69974193441e-07
7.28147530203e-07
5.00829262003e-07
2.99177740412e-07
1.45774742201e-07
5.75026875933e-08
2.65477498616e-06
4.10680530778e-06
4.63905200205e-06
4.62532142384e-06
4.40012503917e-06
4.11543715064e-06
3.7930827651e-06
3.43235417306e-06
3.0414562611e-06
2.63504433704e-06
2.22810488224e-06
1.83864334849e-06
1.48633799448e-06
1.1795590757e-06
9.10155497398e-07
6.61341111217e-07
4.30960643636e-07
2.41753707214e-07
1.12704899975e-07
4.60127757668e-08
2.57976667211e-06
3.86151356709e-06
4.21354429541e-06
4.16208694997e-06
3.97985730995e-06
3.73235533903e-06
3.44453542952e-06
3.11901382459e-06
2.76235946191e-06
2.38972542647e-06
2.01887751552e-06
1.66773445522e-06
1.348472565e-06
1.06061364017e-06
7.92972863785e-07
5.42161264579e-07
3.27717512234e-07
1.72633976189e-07
7.87350714026e-08
3.48173320666e-08
2.52666861914e-06
3.61094425304e-06
3.73169546144e-06
3.55740503996e-06
3.34128504081e-06
3.14834100387e-06
2.94132467522e-06
2.68985994899e-06
2.39718968148e-06
2.08199821977e-06
1.76453475879e-06
1.45952793605e-06
1.17105333302e-06
8.92782429405e-07
6.22462646604e-07
3.88163282152e-07
2.18130023682e-07
1.0901879275e-07
4.87907918926e-08
2.34110451125e-08
2.52897684326e-06
3.37956633338e-06
3.27505344021e-06
2.86159036076e-06
2.60693079713e-06
2.49487774188e-06
2.39465137219e-06
2.24068151777e-06
2.0308187572e-06
1.78521457076e-06
1.52302010278e-06
1.25316752598e-06
9.74352995737e-07
6.86298247176e-07
4.27298938644e-07
2.45361771778e-07
1.28789280728e-07
5.8768535846e-08
2.58920386788e-08
1.49486915542e-08
2.54332923761e-06
3.31557285963e-06
3.02157294129e-06
2.39388087346e-06
2.03495847448e-06
1.95211490109e-06
1.94176404334e-06
1.88073684582e-06
1.74962344811e-06
1.56332832933e-06
1.33475859289e-06
1.06705895073e-06
7.64509756938e-07
4.69998605095e-07
2.64534282005e-07
1.39861883669e-07
6.5209251798e-08
2.83112971583e-08
1.46361551551e-08
1.06470271693e-08
2.48805612684e-06
3.45699034263e-06
3.09371469756e-06
2.25560934603e-06
1.71230642447e-06
1.58944715981e-06
1.64557925144e-06
1.66679060117e-06
1.59648044892e-06
1.43878128242e-06
1.20143490084e-06
8.93072286487e-07
5.6050912882e-07
3.02082480871e-07
1.53100134854e-07
7.25007738403e-08
3.3232817606e-08
1.68388709403e-08
1.07234030498e-08
8.71336027629e-09
2.43444850582e-06
3.34275078232e-06
3.18291740159e-06
2.30019665794e-06
1.60150645007e-06
1.40613544521e-06
1.51249800949e-06
1.60198360591e-06
1.56094539706e-06
1.38692993052e-06
1.09923547147e-06
7.40694445191e-07
4.11378159953e-07
1.97101445954e-07
9.23481601745e-08
4.51093042208e-08
2.40809343539e-08
1.46706654542e-08
1.04655768276e-08
8.70439759766e-09
2.4003120394e-06
3.05850089257e-06
3.00440864025e-06
2.28549602967e-06
1.59508963479e-06
1.38494895865e-06
1.52892603679e-06
1.65286995651e-06
1.60044313546e-06
1.37844996899e-06
1.03710275017e-06
6.56101245683e-07
3.40063090619e-07
1.57856493406e-07
7.84247469212e-08
4.36736183667e-08
2.69914953476e-08
1.8462892911e-08
1.3994035618e-08
1.1756897487e-08
2.56688365814e-06
2.91996005303e-06
2.75576175664e-06
2.19896344362e-06
1.64974375422e-06
1.49386020858e-06
1.66107518209e-06
1.78120239409e-06
1.69627551502e-06
1.43205370011e-06
1.06048358831e-06
6.66049469628e-07
3.50045343103e-07
1.78861024746e-07
1.01121772641e-07
6.24712679702e-08
4.21418580901e-08
3.10208068876e-08
2.47612567261e-08
2.1499496156e-08
2.68723490398e-06
2.86636422681e-06
2.64955215619e-06
2.20780302915e-06
1.80360561046e-06
1.71259281647e-06
1.8762937961e-06
1.9739296102e-06
1.86688234819e-06
1.57581490202e-06
1.17830209912e-06
7.62750265603e-07
4.46758265164e-07
2.67892578965e-07
1.67942499462e-07
1.10029460183e-07
7.75871088795e-08
5.9512883288e-08
4.93376649153e-08
4.43173291488e-08
2.83758138405e-06
3.01067107909e-06
2.79093281279e-06
2.39301809305e-06
2.06228610655e-06
2.00007189384e-06
2.14013008946e-06
2.23029061826e-06
2.11941123793e-06
1.80279381865e-06
1.36744780266e-06
9.45227244324e-07
6.38694999653e-07
4.37747979808e-07
2.98726566667e-07
2.05211234093e-07
1.48332514378e-07
1.15878669839e-07
9.78988930748e-08
8.9581343555e-08
3.12144664001e-06
3.31192849762e-06
3.07765173855e-06
2.66641319346e-06
2.34266342346e-06
2.26832699539e-06
2.38803161228e-06
2.4840207673e-06
2.3777240467e-06
2.045987362e-06
1.60907535369e-06
1.21246822877e-06
9.10701880986e-07
6.8225862637e-07
5.03031670411e-07
3.66391460779e-07
2.73738882735e-07
2.18453504324e-07
1.88243149541e-07
1.75064833655e-07
3.44239380576e-06
3.56649918856e-06
3.25130003082e-06
2.8234116617e-06
2.49398725829e-06
2.39574584844e-06
2.4997993289e-06
2.621084902e-06
2.55859732758e-06
2.27135039003e-06
1.88704828458e-06
1.52413186082e-06
1.21043159527e-06
9.52694037436e-07
7.45337610234e-07
5.78924972058e-07
4.55024155969e-07
3.77915501092e-07
3.36088415826e-07
3.16406829853e-07
3.22602302784e-06
3.29718010074e-06
3.05139107212e-06
2.72497310162e-06
2.45727849091e-06
2.35804913408e-06
2.44923405913e-06
2.61474739387e-06
2.65403360382e-06
2.46928167035e-06
2.15639613623e-06
1.81454538517e-06
1.47452679019e-06
1.18426060581e-06
9.55919960689e-07
7.8100650237e-07
6.47027586351e-07
5.64202019486e-07
5.19147282779e-07
4.8979458365e-07
2.5092957241e-06
2.91419449781e-06
2.87382085326e-06
2.63447087787e-06
2.40450807823e-06
2.32362496551e-06
2.42127040033e-06
2.59931879632e-06
2.68699672041e-06
2.5866683893e-06
2.34483395484e-06
2.02676188325e-06
1.67045088652e-06
1.35479079707e-06
1.10414789836e-06
9.24145696874e-07
7.9135071566e-07
7.16737355572e-07
6.75074484133e-07
6.33394130187e-07
2.17682046226e-06
2.70259604503e-06
2.75855204367e-06
2.55946408625e-06
2.35946161321e-06
2.31546896365e-06
2.43695154346e-06
2.61290205968e-06
2.70159964194e-06
2.63219809861e-06
2.43086381078e-06
2.13826309828e-06
1.79045357705e-06
1.46510517062e-06
1.19950469693e-06
1.00723249866e-06
8.74768048608e-07
8.09120378911e-07
7.70532375189e-07
7.17237994779e-07
1.97596279796e-06
2.50716460165e-06
2.61426064319e-06
2.45422024983e-06
2.30425178909e-06
2.31832386147e-06
2.4594750623e-06
2.60975558569e-06
2.66992907247e-06
2.60116539329e-06
2.41991343315e-06
2.15156774988e-06
1.82656086878e-06
1.50653386603e-06
1.23950036486e-06
1.04250977348e-06
9.16571193219e-07
8.5909359714e-07
8.21347703122e-07
7.57525303317e-07
1.99732786698e-06
2.42953965349e-06
2.47720619408e-06
2.32221510459e-06
2.22295282075e-06
2.29054227582e-06
2.4298246168e-06
2.53768234506e-06
2.56322568084e-06
2.4889887931e-06
2.32307904128e-06
2.08004471912e-06
1.78430851922e-06
1.48134230468e-06
1.22624996985e-06
1.04440817707e-06
9.3765454716e-07
8.89843067132e-07
8.49846615198e-07
7.72630425026e-07
2.09164400685e-06
2.42943200035e-06
2.38741115877e-06
2.18573226606e-06
2.0668814163e-06
2.16393520229e-06
2.30700515656e-06
2.38021842997e-06
2.37974943552e-06
2.30442781352e-06
2.1564369837e-06
1.94311293233e-06
1.67925344854e-06
1.4011680538e-06
1.18193653427e-06
1.03263102451e-06
9.53656286877e-07
9.15094204551e-07
8.67120619225e-07
7.69624032412e-07
2.16939769676e-06
2.42092122687e-06
2.400742994e-06
2.11322828414e-06
1.78504171737e-06
1.85126874787e-06
2.04793111968e-06
2.1300716416e-06
2.12553851326e-06
2.06171183891e-06
1.9387900397e-06
1.75460094117e-06
1.51626552123e-06
1.29557358482e-06
1.12752497946e-06
1.02399677748e-06
9.73677765585e-07
9.38548739088e-07
8.73536711899e-07
7.48684214974e-07
2.23194774794e-06
2.46902998649e-06
2.53251126264e-06
2.2395669951e-06
1.68676610627e-06
1.51681270605e-06
1.63523443856e-06
1.79362124372e-06
1.8221886822e-06
1.77648176388e-06
1.67753692573e-06
1.52523106096e-06
1.34811827705e-06
1.19500476141e-06
1.08785629743e-06
1.03021998311e-06
9.99215401427e-07
9.54899291503e-07
8.61750288579e-07
7.0430903641e-07
2.26398779506e-06
2.50356289721e-06
2.65137307595e-06
2.44932777499e-06
1.92226239725e-06
1.50137580622e-06
1.33879839029e-06
1.43959191616e-06
1.51273922444e-06
1.49954593002e-06
1.42968701035e-06
1.32368621967e-06
1.21545692844e-06
1.13005328986e-06
1.07872091609e-06
1.05278388812e-06
1.02218800046e-06
9.52331571847e-07
8.21311200069e-07
6.29214248854e-07
2.26782468464e-06
2.508910264e-06
2.71692007567e-06
2.61423920076e-06
2.15865628523e-06
1.70513884901e-06
1.33089906599e-06
1.21678384165e-06
1.23169561124e-06
1.24966362163e-06
1.22664659084e-06
1.18061802173e-06
1.13813960969e-06
1.11091438217e-06
1.09704300867e-06
1.078307719e-06
1.02645216894e-06
9.173634457e-07
7.43873522201e-07
5.20608034386e-07
2.25738531408e-06
2.51218839419e-06
2.74408207924e-06
2.72990955435e-06
2.35443117054e-06
1.93428459619e-06
1.51974468601e-06
1.2183548846e-06
1.07045115875e-06
1.03502006137e-06
1.05463367481e-06
1.08104724594e-06
1.10458471301e-06
1.12119497339e-06
1.12050268271e-06
1.08604177138e-06
9.97812490061e-07
8.43446208627e-07
6.30730983933e-07
3.8768065276e-07
2.2468325694e-06
2.5151236757e-06
2.72923900208e-06
2.79137538407e-06
2.49974551093e-06
2.12910197368e-06
1.74225741195e-06
1.35301946506e-06
1.07588583251e-06
9.27679009975e-07
9.19952320098e-07
9.99394211088e-07
1.08539391503e-06
1.13258177723e-06
1.12792447454e-06
1.06468282143e-06
9.32270734395e-07
7.37486955056e-07
4.94283669948e-07
2.52913302589e-07
2.25646384772e-06
2.521881194e-06
2.68518982525e-06
2.8063891084e-06
2.56274468828e-06
2.23704371586e-06
1.88804005565e-06
1.49846975903e-06
1.15720505093e-06
9.19589843689e-07
8.50866519871e-07
9.39902107153e-07
1.06769994182e-06
1.13265854476e-06
1.11263468287e-06
1.00987534109e-06
8.38724745703e-07
6.15347843792e-07
3.54011683263e-07
1.42152429146e-07
2.30197831524e-06
2.53540394541e-06
2.63487284327e-06
2.79447075055e-06
2.61310264186e-06
2.29395540488e-06
1.98590643915e-06
1.61755566683e-06
1.25041979771e-06
9.58259412204e-07
8.37877312771e-07
9.13984220143e-07
1.05667758215e-06
1.1190845122e-06
1.06699327556e-06
9.28211477699e-07
7.35695768018e-07
4.94285503608e-07
2.31251956842e-07
7.01574451251e-08
2.36517172055e-06
2.55272698134e-06
2.58902954049e-06
2.76520481194e-06
2.69755020218e-06
2.37473339431e-06
2.06917492524e-06
1.71118294246e-06
1.32729189257e-06
1.00278672487e-06
8.50909578591e-07
9.09081302869e-07
1.04026154132e-06
1.07911298918e-06
9.98941224917e-07
8.46138542431e-07
6.44969120103e-07
3.90481658774e-07
1.40342567798e-07
3.35921445141e-08
2.38142480623e-08
2.41919540182e-08
2.3729108201e-08
2.41293863462e-08
2.78182428997e-08
3.95147971096e-08
6.33869026616e-08
8.82942064723e-08
1.0199185965e-07
1.02837385818e-07
9.07432354256e-08
8.04437321429e-08
1.49475061831e-07
1.14757411915e-06
3.04854513007e-06
4.10681353063e-06
4.93984013066e-08
3.50598182028e-08
2.79560216839e-08
2.46059218154e-08
2.47243717621e-08
2.52688591854e-08
2.42736744338e-08
2.57056457069e-08
3.09109609148e-08
4.26544120966e-08
5.88529581852e-08
7.17518247986e-08
7.66083277116e-08
7.35013521968e-08
6.154864325e-08
5.38257619632e-08
3.27898432238e-07
1.70743103842e-06
3.04957789494e-06
4.1681927382e-06
4.5223027953e-08
3.1505424553e-08
2.5963977648e-08
2.37760720378e-08
2.54869607071e-08
2.52701898353e-08
2.46920922607e-08
2.70825555855e-08
3.29216919354e-08
4.22376686576e-08
5.12338811169e-08
5.59919624391e-08
5.46898148358e-08
4.89623925759e-08
3.79419317211e-08
5.88384519916e-08
6.87739468175e-07
1.70906716949e-06
3.02093069448e-06
4.21265778244e-06
4.10764827565e-08
2.82471503304e-08
2.38681980382e-08
2.31260838292e-08
2.53557586493e-08
2.44578496918e-08
2.47500528319e-08
2.75397730138e-08
3.23829572361e-08
3.87835855455e-08
4.34260222994e-08
4.35863222574e-08
3.83351613928e-08
3.2154487255e-08
2.72174973572e-08
2.06358226257e-07
6.8304910094e-07
1.62457133764e-06
2.91144955744e-06
4.19165352932e-06
3.7273971367e-08
2.5355298148e-08
2.17727875073e-08
2.26132833968e-08
2.43272497545e-08
2.32838579989e-08
2.43307266023e-08
2.69084771841e-08
2.95300318867e-08
3.33521539775e-08
3.58819204262e-08
3.29801118173e-08
2.70474221116e-08
2.34450395791e-08
2.40786422886e-08
2.22994089165e-07
6.60332723706e-07
1.33864196539e-06
2.25500332977e-06
4.06018943372e-06
3.4337087475e-08
2.28721493565e-08
2.00927085412e-08
2.16446231479e-08
2.26324422047e-08
2.21613158964e-08
2.38157054313e-08
2.59102131117e-08
2.62337981209e-08
2.69710573646e-08
2.794025764e-08
2.39442866089e-08
2.05624684775e-08
2.01652712187e-08
2.46847743917e-08
5.43955630399e-08
3.86753878061e-07
4.56867509875e-07
6.20063792884e-07
3.6117057037e-06
3.26009151505e-08
2.10043433852e-08
1.89595731615e-08
2.02708304579e-08
2.09951962484e-08
2.14644269541e-08
2.36723819902e-08
2.51030131122e-08
2.3647220012e-08
2.17569868741e-08
2.1892086815e-08
1.93537055542e-08
2.07468324737e-08
2.52582032837e-08
3.02450897552e-08
4.01103420363e-08
7.19514511741e-08
9.40305949285e-08
2.96867964746e-07
2.67731261035e-06
3.08167724585e-08
1.96682635594e-08
1.78896259819e-08
1.88749555626e-08
2.01429108309e-08
2.16024621657e-08
2.41187455175e-08
2.44627257489e-08
2.19974770817e-08
1.98008654048e-08
2.16517376674e-08
2.31787398679e-08
2.73855750701e-08
2.72774399608e-08
3.02635341585e-08
4.14279458542e-08
6.40326557172e-08
6.36514144869e-08
1.92954004025e-07
2.0857205037e-06
2.83891830016e-08
1.86397020898e-08
1.65622847027e-08
1.77830731763e-08
2.03792579175e-08
2.28885939911e-08
2.50687476069e-08
2.42890478905e-08
2.18357241095e-08
2.06048837607e-08
2.38670416726e-08
2.65053208201e-08
2.6326868441e-08
2.55807084968e-08
2.98636138374e-08
3.85112227788e-08
5.28567358127e-08
9.37083760292e-08
2.02387894751e-07
1.84512770545e-06
2.58734129184e-08
1.75281337469e-08
1.50326082816e-08
1.72304340504e-08
2.15009542157e-08
2.51051194458e-08
2.68567936355e-08
2.55588442119e-08
2.26263899183e-08
2.0650433318e-08
2.46826233391e-08
3.09450416354e-08
3.35824404777e-08
3.40730684541e-08
3.43848157778e-08
3.71967037901e-08
4.6246375002e-08
1.25137439323e-07
2.32390728862e-07
1.91472388294e-06
2.33884841671e-08
1.6067583668e-08
1.33667463818e-08
1.67206096351e-08
2.26437716064e-08
2.76819086973e-08
2.98918044232e-08
2.86700026148e-08
2.54988816119e-08
2.19163737068e-08
2.11401409778e-08
2.87621176853e-08
4.04066303513e-08
4.8925368898e-08
5.49157300072e-08
5.73677537391e-08
6.35745121507e-08
1.67089630378e-07
3.54719772336e-07
2.01583231226e-06
1.9966977065e-08
1.40936584089e-08
1.19126682945e-08
1.55569762703e-08
2.25410785179e-08
2.95946094597e-08
3.35963039926e-08
3.36150699053e-08
3.14805265825e-08
2.6109093638e-08
2.14318856272e-08
1.96925138239e-08
2.33095458331e-08
4.40192093003e-08
6.340962618e-08
8.59894864332e-08
1.12836885389e-07
1.96617304754e-07
3.90829745528e-07
2.07280882937e-06
1.55878547291e-08
1.19916990714e-08
1.07305345089e-08
1.39032919865e-08
2.11230711374e-08
3.02480600756e-08
3.7186633524e-08
4.03927932311e-08
3.8862653452e-08
3.13790167261e-08
2.53822726883e-08
2.19605919399e-08
1.84475354158e-08
1.70721550386e-08
5.50335386574e-08
8.65548898224e-08
1.26468877963e-07
1.94201032086e-07
3.59401190031e-07
2.05669410244e-06
1.19876001231e-08
1.01588305783e-08
9.81546258122e-09
1.29851103344e-08
2.06538538553e-08
3.18670191558e-08
4.26156355055e-08
4.80363302852e-08
4.50340470368e-08
3.68209248385e-08
2.9723682702e-08
2.47624624086e-08
2.02875312194e-08
1.62473547261e-08
2.16465222835e-08
1.23361145977e-07
1.77071412342e-07
1.89621839463e-07
2.56619295859e-07
1.67164906225e-06
9.48595939388e-09
8.7997796305e-09
9.58325352287e-09
1.37562572458e-08
2.30236030739e-08
3.72387238835e-08
5.09518718947e-08
5.53032066862e-08
5.05887869843e-08
4.18317974821e-08
3.34083301651e-08
2.70667103742e-08
2.13096823812e-08
1.6886036514e-08
1.85217716637e-08
7.90951351487e-08
5.25501491967e-07
1.91536107945e-07
2.63881503775e-07
8.46601915397e-07
8.01292011946e-09
8.35863737169e-09
1.08107845069e-08
1.7293347255e-08
2.99193420965e-08
4.79527064185e-08
6.13614997571e-08
6.26829481761e-08
5.61563667376e-08
4.5836314137e-08
3.60992850227e-08
2.87111285279e-08
2.21294324289e-08
1.77444924826e-08
2.03090132894e-08
7.92517295943e-08
6.15164248156e-07
1.99836611036e-07
2.8476000902e-07
6.48981174298e-07
8.05474202384e-09
9.95623288141e-09
1.52641719353e-08
2.58720647586e-08
4.36616839844e-08
6.40641765338e-08
7.33095876018e-08
7.02645015398e-08
6.07857735784e-08
4.85690128452e-08
3.78615110954e-08
2.97722295825e-08
2.26954761055e-08
1.88330813878e-08
2.40034819175e-08
1.30442802527e-07
7.26706130926e-07
2.11627722676e-07
3.07392441495e-07
6.0533046522e-07
1.12338000704e-08
1.63817699487e-08
2.64913324755e-08
4.30965067501e-08
6.59740913464e-08
8.36737847448e-08
8.49432857394e-08
7.65984048683e-08
6.39084194971e-08
5.01712425281e-08
3.90499841683e-08
3.04338179062e-08
2.3373244323e-08
2.03385695419e-08
4.1745028432e-08
3.73865981877e-07
8.55105196052e-07
2.26473242645e-07
3.276129966e-07
5.98478516476e-07
2.16077182499e-08
3.22924701211e-08
4.90158585497e-08
7.17013373259e-08
9.47703412528e-08
1.02245515288e-07
9.41160196626e-08
8.10453352633e-08
6.5724226404e-08
5.11528496858e-08
4.00631540826e-08
3.07429101513e-08
2.44978840508e-08
2.30569451989e-08
1.02738851123e-07
5.26107651745e-07
9.79054849155e-07
2.96661656898e-07
3.47524821498e-07
5.90590681289e-07
4.57547000882e-08
6.26459851944e-08
8.59252325162e-08
1.09562259208e-07
1.22651282547e-07
1.16091979287e-07
1.00920441602e-07
8.42738554586e-08
6.71045569652e-08
5.20645770194e-08
4.11078708959e-08
3.10988927037e-08
2.61768731235e-08
3.9698842594e-08
2.94078677886e-07
5.87973068141e-07
1.08381674944e-06
3.42408611802e-07
3.70003034207e-07
5.8891210276e-07
9.2595062417e-08
1.15445298392e-07
1.37848025774e-07
1.48768505294e-07
1.43758225914e-07
1.2631394822e-07
1.06698039203e-07
8.72316232109e-08
6.88011141623e-08
5.33285915176e-08
4.22020768313e-08
3.28494515522e-08
2.8799940737e-08
1.33855601597e-07
3.40041488491e-07
6.42039820194e-07
1.16721618338e-06
3.27212413046e-07
3.87398974253e-07
6.20257201084e-07
1.78796248737e-07
1.99333983278e-07
2.01427421149e-07
1.84814867235e-07
1.60817826693e-07
1.35552628905e-07
1.11855561623e-07
8.97538835451e-08
7.01855217468e-08
5.42365872924e-08
4.28757046827e-08
3.53188791272e-08
4.36257214977e-08
2.32184613745e-07
3.60293615441e-07
7.03167137164e-07
1.25159061855e-06
2.77586907477e-07
3.89060040532e-07
6.44107259641e-07
3.11323928556e-07
3.05963402827e-07
2.67744337833e-07
2.17695273638e-07
1.76340878944e-07
1.43281795477e-07
1.15246973575e-07
9.066425223e-08
7.0142088765e-08
5.40373923118e-08
4.3162625295e-08
3.68671456447e-08
7.75868018782e-08
2.42260700705e-07
3.72009393875e-07
7.74174321985e-07
1.18934430988e-06
2.68696180887e-07
3.6382278679e-07
6.02940860713e-07
4.58484231547e-07
4.06147288666e-07
3.23451528093e-07
2.43626703981e-07
1.87248688901e-07
1.4661389268e-07
1.14683247887e-07
8.84613961655e-08
6.77200792073e-08
5.26452663813e-08
4.35658353976e-08
3.66614615287e-08
1.63137612224e-07
2.33622543195e-07
3.60584085852e-07
7.85157504526e-07
1.16084376189e-06
2.4899378314e-07
3.17555270888e-07
4.97932865345e-07
5.68175315137e-07
4.70827218015e-07
3.54946154366e-07
2.54733090949e-07
1.87897664374e-07
1.42206835812e-07
1.08304686474e-07
8.21764190254e-08
6.25786285739e-08
4.99011532012e-08
4.24822180896e-08
4.88598427011e-08
2.00865695936e-07
2.20476696738e-07
3.25432964719e-07
7.01536770356e-07
1.18143258265e-06
2.41203714779e-07
2.48127092481e-07
2.76395846144e-07
6.24727443178e-07
4.95594119945e-07
3.58199665288e-07
2.46895628034e-07
1.75710195364e-07
1.29219868748e-07
9.63490008083e-08
7.26227382943e-08
5.56799436594e-08
4.54499967914e-08
3.94165810104e-08
6.61547795874e-08
1.98349190554e-07
2.08122451854e-07
2.82754583131e-07
5.69542248758e-07
1.04785647242e-06
2.6525818412e-07
1.96174898019e-07
2.60367009387e-07
6.43402841883e-07
4.9109376446e-07
3.39703881122e-07
2.2426212098e-07
1.53683579736e-07
1.10385432137e-07
8.16600987628e-08
6.16860384896e-08
4.78514148096e-08
3.97151760347e-08
3.51743629149e-08
6.74496133537e-08
1.9111290274e-07
1.97152627905e-07
2.47329676048e-07
4.5420702245e-07
8.37703437595e-07
6.57901907396e-07
1.71739616588e-07
2.51730771567e-07
6.37552033379e-07
4.67480403411e-07
3.09170438936e-07
1.9521648107e-07
1.28493418574e-07
9.05319259367e-08
6.65471962324e-08
5.04945731232e-08
3.97654414988e-08
3.3403493815e-08
3.02200683144e-08
4.87395527847e-08
1.79773046906e-07
1.84871799742e-07
2.18211526925e-07
3.70354262761e-07
6.82643435618e-07
8.09599631052e-07
2.07492108515e-07
2.31609438037e-07
6.12121240519e-07
4.30430429703e-07
2.7359115295e-07
1.66572925931e-07
1.05251474848e-07
7.1859086067e-08
5.20912558794e-08
3.9601364967e-08
3.16249378484e-08
2.68661637391e-08
2.45862694636e-08
3.22757612894e-08
1.29910398889e-07
1.65701334094e-07
1.90910387877e-07
3.07293592271e-07
5.7471188979e-07
6.350709939e-07
1.98950405911e-07
2.06083657094e-07
5.68860401154e-07
3.818571655e-07
2.3302891159e-07
1.3680428599e-07
8.28648364017e-08
5.42152562053e-08
3.82799766026e-08
2.89358020315e-08
2.33587650845e-08
2.01050645943e-08
1.85775956255e-08
1.8253614911e-08
3.49204890575e-08
1.43354404921e-07
1.66327570559e-07
2.6187383102e-07
5.12222294676e-07
5.17619022946e-07
1.33534347686e-07
1.75168005844e-07
5.04454818821e-07
3.18557007878e-07
1.83389686022e-07
1.01969607385e-07
5.85456020327e-08
3.65030206107e-08
2.51258819592e-08
1.91018770505e-08
1.59961476779e-08
1.46096950063e-08
1.44294714311e-08
1.50808562022e-08
1.68931523825e-08
3.08437588602e-08
1.26204001769e-07
2.43044993567e-07
5.05026454406e-07
1.29204307295e-07
6.96577334152e-08
1.60386769069e-07
4.14746285127e-07
2.3838005715e-07
1.24462612457e-07
6.3405310127e-08
3.4234660995e-08
2.09956674244e-08
1.51443845192e-08
1.27963289035e-08
1.2164684998e-08
1.23370060692e-08
1.30092815089e-08
1.47434386043e-08
1.76905107645e-08
2.16202519823e-08
2.58792444334e-08
5.48902886859e-08
7.99428943335e-08
5.8406014494e-08
5.23085449159e-08
4.16234806214e-07
3.03676612193e-07
1.50999670972e-07
6.84585304096e-08
3.20909823348e-08
1.78763600187e-08
1.27937459751e-08
1.13654167603e-08
1.12632615002e-08
1.07942376181e-08
1.07075646337e-08
1.22684399072e-08
1.53089929063e-08
1.90110985726e-08
2.33209980214e-08
2.96101063341e-08
4.20276735059e-08
6.84055479707e-08
5.77052571902e-08
3.93803092177e-08
9.8275343362e-07
1.90143270668e-07
7.83208392045e-08
3.19524029377e-08
1.65166735998e-08
1.20945378893e-08
1.11853199591e-08
1.08862414196e-08
9.07105367442e-09
8.13736094562e-09
9.22685283885e-09
1.22046758881e-08
1.63031608916e-08
2.06711993667e-08
2.54586082213e-08
3.19762410784e-08
4.41925480155e-08
6.12940904336e-08
5.28820547879e-08
3.41513932603e-08
9.20576107476e-07
9.97415426834e-08
3.57630948183e-08
1.69016148099e-08
1.24667303952e-08
1.16127811235e-08
1.08719924234e-08
8.45038406479e-09
6.51279366166e-09
6.65831117936e-09
8.45299266168e-09
1.21848674069e-08
1.68226702965e-08
2.16170013559e-08
2.65508660794e-08
3.2478186722e-08
4.19682283246e-08
5.29520219621e-08
4.3791347924e-08
3.15963747058e-08
6.90982347977e-07
4.62158289344e-08
1.90293314399e-08
1.3282031637e-08
1.24730331905e-08
1.17577586448e-08
9.43521987839e-09
6.08616129426e-09
5.07031067753e-09
5.80862134001e-09
8.02732635985e-09
1.19240931855e-08
1.66727521323e-08
2.1580559543e-08
2.66923403376e-08
3.2240858885e-08
3.92827898178e-08
4.44358595155e-08
3.09321067487e-08
4.27022694587e-08
4.98643957089e-07
2.33216345945e-08
1.44935018184e-08
1.31635193816e-08
1.32121093532e-08
1.17643317569e-08
8.14772979299e-09
4.99546773339e-09
4.5223559289e-09
5.52056820261e-09
7.87010291672e-09
1.16630539881e-08
1.62065207769e-08
2.09961589745e-08
2.58690060022e-08
3.10564642825e-08
3.68412803693e-08
4.08457754652e-08
2.26882592344e-08
1.09565980716e-07
4.56595089449e-07
1.56325397807e-08
1.3694219577e-08
1.41529553587e-08
1.51363449035e-08
1.27741753472e-08
8.03763536495e-09
4.98244487956e-09
4.78634561697e-09
5.9125066747e-09
8.06470775046e-09
1.17277755497e-08
1.60195217551e-08
2.05179470143e-08
2.50448676625e-08
2.97096951432e-08
3.47744922821e-08
3.96262444123e-08
3.10301371246e-08
1.96576950951e-07
3.36735905814e-07
)
;

boundaryField
{
    emptyPatch
    {
        type            empty;
    }
    minY
    {
        type            zeroGradient;
    }
    maxY
    {
        type            calculated;
        value           nonuniform List<scalar> 
40
(
2.36466043825e-06
2.55244874672e-06
2.58870752001e-06
2.76488164839e-06
2.69726808506e-06
2.37444315023e-06
2.06887017774e-06
1.71088442339e-06
1.32701791763e-06
1.00255533988e-06
8.50705305563e-07
9.08877889153e-07
1.04006166928e-06
1.07893373327e-06
9.9878532108e-07
8.45999990695e-07
6.44860378799e-07
3.90413543129e-07
1.40317057851e-07
3.35859585048e-08
1.56297526441e-08
1.36927302621e-08
1.41525875026e-08
1.51358560919e-08
1.27737879939e-08
8.03750160029e-09
4.98241441692e-09
4.78633225896e-09
5.91249156526e-09
8.06468789347e-09
1.17277469892e-08
1.60194828138e-08
2.05178973693e-08
2.50448075145e-08
2.9709624567e-08
3.47744103497e-08
3.96261518321e-08
3.10303715113e-08
1.96578216105e-07
2.37623563388e-09
)
;
    }
    water_to_cooler
    {
        type            compressible::alphatWallBoilingWallFunction;
        phaseType       vapor;
        relax           constant 1;
        partitioningModel
        {
            type            Lavieville;
            alphaCrit       0.2;
        }
        otherPhase      liquid;
        dmdt            uniform 0;
        dDep            uniform 1e-05;
        qQuenching      uniform 0;
        alphatConv      uniform 0;
        value           nonuniform List<scalar> 
38
(
4.31853145918e-09
4.32107800781e-09
4.30597997665e-09
4.31417721405e-09
4.29566416737e-09
2.93773428994e-09
5.63829655159e-10
3.11874078589e-10
2.29799832394e-10
2.4624813088e-10
2.46165633573e-10
2.46238737309e-10
2.46165507298e-10
1.4340921508e-10
4.64893846996e-11
2.94096942898e-11
2.24925995701e-11
1.88125104202e-11
1.70124395526e-11
1.64631690066e-11
1.65038703859e-11
1.68006025514e-11
1.68056887187e-11
1.64001360135e-11
3.91680386586e-11
3.11456103838e-10
3.11760496257e-10
2.04095839247e-10
1.4695959417e-10
1.42690008765e-10
5.26625439509e-11
2.60531267993e-11
1.25213670682e-10
1.25022414554e-10
7.62437838454e-11
3.81223798935e-11
1.79375741152e-11
2.47617494445e-11
)
;
    }
    water_to_heater
    {
        type            compressible::alphatWallBoilingWallFunction;
        phaseType       vapor;