/*--------------------------------*- C++ -*----------------------------------*\
| =========                 |                                                 |
| \\      /  F ield         | OpenFOAM: The Open Source CFD Toolbox           |
|  \\    /   O peration     | Version:  2312                                  |
|   \\  /    A nd           | Website:  www.openfoam.com                      |
|    \\/     M anipulation  |                                                 |
\*---------------------------------------------------------------------------*/
FoamFile
{
    version     2.0;
    format      ascii;
    arch        "LSB;label=32;scalar=64";
    class       volScalarField;
    location    "0.66/cooler";
    object      T;
}
// * * * * * * * * * * * * * * * * * * * * * * * * * * * * * * * * * * * * * //

dimensions      [0 0 0 1 0 0 0];

internalField   nonuniform List<scalar> 
187
(
300.00001718
300.000015455
300.000014203
300.000013375
300.000012959
300.00001784
300.000015963
300.000014585
300.000013668
300.000013209
300.000019338
300.000016874
300.000015144
300.000014046
300.000013512
300.000020052
300.000017442
300.00001561
300.000014448
300.000013884
300.000020988
300.000018223
300.000016281
300.000015048
300.000014449
300.00002234
300.000019363
300.000017266
300.00001593
300.000015279
300.000024193
300.000020947
300.000018642
300.000017163
300.00001644
300.000026646
300.000023076
300.000020507
300.00001884
300.000018018
300.000029814
300.000025861
300.000022965
300.000021059
300.000020112
300.000033846
300.000029441
300.000026148
300.000023948
300.000022845
300.000039056
300.000034101
300.000030323
300.000027762
300.000026466
300.000045982
300.000040323
300.000035929
300.000032904
300.000031357
300.000054999
300.0000484
300.000043198
300.000039569
300.000037697
300.000066365
300.000058504
300.000052238
300.000047821
300.000045524
300.000080306
300.0000708
300.000063156
300.00005772
300.000054878
300.000096968
300.000085425
300.000076067
300.000069369
300.000065853
300.000116551
300.000102582
300.000091183
300.000082992
300.000078686
300.000139269
300.000122498
300.000108752
300.000098863
300.000093667
300.000164967
300.000145047
300.000128711
300.000116986
300.000110844
300.000192958
300.000169648
300.000150619
300.000137047
300.000129972
300.000222231
300.000195471
300.000173857
300.00015859
300.000150685
300.000252254
300.000222079
300.000198104
300.000181379
300.000172785
300.000283856
300.000250108
300.000223818
300.000205711
300.000196472
300.00031836
300.000280549
300.000251703
300.000232079
300.000222126
300.00035795
300.000315114
300.000282979
300.000261322
300.000250382
300.00040482
300.000355642
300.000318888
300.000294186
300.00028173
300.000457253
300.000400718
300.000358364
300.000329929
300.000315618
300.000512172
300.000447985
300.000399792
300.000367489
300.000351266
300.000567497
300.000495918
300.00044209
300.000406047
300.000387968
300.000621629
300.000543359
300.000484344
300.000444806
300.000424972
300.000673043
300.000589112
300.000525511
300.000482802
300.000461353
300.000720726
300.000631985
300.000564395
300.000518877
300.000495983
300.000763159
300.00067038
300.000599411
300.000551499
300.000527368
300.00079857
300.000702388
300.000628647
300.000578788
300.000553656
300.000825318
300.000726267
300.000650344
300.000599001
300.000573113
300.000842258
300.000740928
300.000663397
300.000610999
300.000584586
300.000849181
300.000746123
300.000667452
300.000614363
300.000587621
300.000609429
300.000582578
)
;

boundaryField
{
    emptyPatch
    {
        type            empty;
    }
    minY
    {
        type            zeroGradient;
    }
    maxY
    {
        type            zeroGradient;
    }
    maxX
    {
        type            zeroGradient;
    }
    cooler_to_water
    {
        type            compressible::turbulentTemperatureTwoPhaseRadCoupledMixed;
        refValue        nonuniform List<scalar> 
37
(
300.000088697
300.000093641
300.000099719
300.000107827
300.000117487
300.000128876
300.000141968
300.000156824
300.000173909
300.000194005
300.000218445
300.000249652
300.000291243
300.000346657
300.00041868
300.0005068
300.00061017
300.000728317
300.000862042
300.001009411
300.001167293
300.001336848
300.00152944
300.001762613
300.002041862
300.002353552
300.002680704
300.003014426
300.003337545
300.003630167
300.003882271
300.004095669
300.004272589
300.004417138
300.004534094
300.004627997
300.004702481
)
;
        refGradient     uniform 0;
        valueFraction   nonuniform List<scalar> 
37
(
0.0162455334386
0.0162676222427
0.0162871093894
0.0202522530149
0.019465309034
0.0188860334943
0.0184965007928
0.0181651114917
0.0178155152173
0.0174613731956
0.0171337074931
0.016859683082
0.0166623815468
0.0165405071068
0.0164709346449
0.0164350482181
0.0164181223016
0.0164081748438
0.0164021028855
0.0163992791725
0.0163977438152
0.0163949086058
0.016388753726
0.0163312358287
0.0162508599384
0.0162318279071
0.0162440912648
0.0162534907183
0.0162535899345
0.0162360786548
0.0161215466733
0.0160471361804
0.0160162780762
0.0160438252334
0.0161382779504
0.0162473129088
0.0163075810995
)
;
        source          uniform 0;
        value           nonuniform List<scalar> 
37
(
300.000018336
300.000019066
300.000020647
300.00002182
300.000022856
300.000024341
300.00002636
300.000028998
300.000032368
300.000036629
300.000042116
300.000049402
300.00005892
300.000070984
300.00008586
300.000103681
300.000124629
300.000148905
300.000176368
300.00020631
300.000237684
300.000269979
300.000304194
300.000341845
300.000385186
300.000436302
300.000493208
300.000552667
300.000612332
300.000670279
300.000724584
300.000774688
300.000819172
300.00085643
300.000884968
300.000903553
300.000911796
)
;
        kappaMethod     solidThermo;
        Tnbr            T.liquid;
        region          solid;
        otherPhase      gas;
    }
    procBoundary2to0
    {
        type            processor;
        value           nonuniform List<scalar> 5(300.000016772 300.000015135 300.000013948 300.000013164 300.000012771);
    }
    procBoundary2to3
    {
        type            processor;
        value           nonuniform List<scalar> 6(300.000847178 300.000742681 300.000663019 300.000663019 300.000598933 300.000571837);
    }
}


// ************************************************************************* //
