/*--------------------------------*- C++ -*----------------------------------*\
| =========                 |                                                 |
| \\      /  F ield         | OpenFOAM: The Open Source CFD Toolbox           |
|  \\    /   O peration     | Version:  2312                                  |
|   \\  /    A nd           | Website:  www.openfoam.com                      |
|    \\/     M anipulation  |                                                 |
\*---------------------------------------------------------------------------*/
FoamFile
{
    version     2.0;
    format      ascii;
    arch        "LSB;label=32;scalar=64";
    class       volScalarField;
    location    "99";
    object      pMean;
}
// * * * * * * * * * * * * * * * * * * * * * * * * * * * * * * * * * * * * * //

dimensions      [1 -1 -2 0 0 0 0];

internalField   nonuniform List<scalar> 
1875
(
107130
107124
107103
107088
107074
107061
107051
107043
107036
107031
107028
107026
107026
107027
107029
107032
107036
107041
107047
107054
107062
107072
107082
107096
107103
106940
106932
106918
106907
106897
106888
106881
106875
106870
106867
106865
106864
106864
106866
106869
106872
106877
106882
106887
106893
106899
106906
106913
106922
106930
106816
106811
106804
106797
106790
106783
106776
106771
106766
106762
106760
106759
106760
106763
106767
106773
106779
106785
106791
106798
106803
106809
106814
106818
106823
106688
106682
106676
106669
106663
106656
106649
106644
106639
106635
106633
106633
106635
106638
106643
106649
106657
106664
106671
106677
106683
106688
106692
106696
106698
106581
106576
106572
106568
106562
106557
106552
106547
106543
106541
106540
106540
106542
106546
106551
106557
106563
106570
106576
106581
106586
106590
106593
106596
106597
106476
106470
106467
106463
106458
106453
106448
106444
106441
106439
106439
106440
106442
106446
106451
106456
106462
106467
106472
106477
106481
106484
106487
106490
106490
106377
106370
106369
106366
106361
106357
106353
106350
106348
106347
106347
106348
106350
106353
106356
106360
106364
106368
106372
106375
106379
106382
106384
106386
106386
106274
106267
106267
106264
106261
106257
106254
106252
106249
106248
106248
106249
106250
106252
106255
106258
106261
106264
106266
106269
106272
106274
106276
106278
106277
106172
106165
106166
106164
106162
106159
106156
106153
106151
106149
106148
106148
106148
106150
106151
106153
106155
106157
106159
106161
106164
106166
106168
106170
106169
106064
106058
106060
106058
106057
106054
106051
106048
106045
106043
106041
106040
106040
106041
106042
106043
106045
106046
106048
106050
106052
106054
106056
106058
106057
105955
105951
105952
105951
105949
105946
105943
105940
105937
105934
105932
105931
105930
105930
105930
105931
105933
105935
105936
105938
105941
105943
105944
105946
105946
105845
105841
105841
105840
105838
105835
105832
105829
105826
105823
105821
105819
105818
105818
105819
105819
105821
105822
105824
105827
105829
105831
105832
105834
105834
105732
105730
105729
105727
105726
105723
105720
105718
105715
105712
105710
105708
105708
105707
105708
105709
105710
105712
105714
105716
105718
105720
105722
105724
105724
105619
105617
105616
105615
105613
105611
105608
105606
105604
105601
105600
105598
105598
105598
105599
105600
105602
105604
105605
105607
105609
105611
105613
105615
105617
105508
105507
105505
105504
105502
105500
105498
105496
105494
105493
105492
105491
105491
105492
105493
105494
105496
105497
105499
105500
105502
105504
105506
105508
105510
105398
105398
105396
105394
105393
105391
105389
105388
105387
105386
105385
105386
105386
105387
105388
105389
105391
105392
105394
105395
105397
105398
105399
105401
105403
105292
105292
105290
105288
105287
105285
105284
105283
105282
105281
105281
105282
105282
105283
105284
105285
105287
105288
105289
105290
105292
105293
105294
105295
105297
105188
105188
105187
105185
105183
105181
105180
105179
105178
105177
105177
105178
105179
105179
105180
105182
105183
105184
105185
105186
105187
105189
105190
105190
105192
105084
105084
105084
105082
105080
105078
105076
105075
105074
105073
105073
105074
105075
105075
105076
105077
105079
105080
105081
105082
105083
105084
105085
105086
105088
104981
104981
104981
104979
104977
104975
104973
104972
104970
104970
104969
104970
104970
104971
104972
104973
104974
104975
104976
104977
104978
104979
104980
104981
104983
104878
104879
104878
104877
104875
104873
104871
104869
104867
104866
104866
104866
104867
104867
104868
104869
104869
104870
104871
104872
104872
104873
104874
104875
104878
104774
104775
104775
104773
104772
104770
104768
104766
104764
104763
104763
104763
104763
104763
104764
104764
104765
104765
104766
104766
104767
104767
104768
104769
104772
104670
104670
104670
104669
104668
104666
104664
104662
104661
104659
104659
104659
104659
104659
104660
104660
104660
104660
104661
104661
104662
104662
104663
104663
104666
104565
104565
104564
104563
104562
104561
104559
104557
104556
104555
104554
104554
104554
104554
104555
104555
104555
104555
104556
104556
104556
104557
104557
104558
104561
104460
104459
104459
104458
104456
104455
104454
104452
104451
104450
104449
104449
104449
104449
104449
104450
104450
104450
104450
104451
104451
104452
104452
104453
104455
104355
104353
104352
104352
104351
104349
104348
104347
104346
104345
104344
104344
104344
104344
104344
104344
104345
104345
104345
104346
104347
104347
104348
104348
104350
104249
104247
104246
104246
104245
104243
104242
104241
104240
104239
104239
104238
104238
104239
104239
104239
104240
104240
104241
104241
104242
104243
104243
104244
104245
104144
104141
104140
104140
104138
104137
104136
104135
104134
104134
104133
104133
104133
104134
104134
104135
104136
104136
104137
104138
104138
104139
104140
104140
104141
104037
104035
104035
104034
104032
104031
104030
104029
104028
104028
104028
104029
104029
104030
104031
104032
104032
104033
104034
104034
104035
104036
104036
104037
104038
103931
103929
103929
103928
103927
103926
103924
103924
103923
103924
103924
103924
103925
103926
103927
103928
103929
103930
103931
103931
103932
103932
103933
103933
103934
103826
103824
103823
103822
103821
103820
103820
103819
103819
103819
103820
103820
103821
103822
103823
103824
103825
103826
103827
103828
103828
103829
103829
103830
103830
103721
103719
103718
103717
103716
103715
103715
103714
103714
103715
103715
103716
103717
103718
103719
103720
103721
103722
103723
103723
103724
103724
103725
103725
103725
103616
103614
103613
103612
103611
103610
103610
103610
103610
103610
103611
103612
103613
103614
103615
103616
103617
103617
103618
103619
103619
103620
103620
103621
103620
103511
103509
103508
103507
103507
103506
103506
103506
103506
103506
103507
103508
103509
103510
103511
103512
103512
103513
103514
103514
103515
103515
103516
103516
103516
103407
103404
103404
103403
103402
103402
103402
103401
103402
103402
103403
103403
103404
103406
103407
103408
103408
103409
103409
103410
103410
103411
103411
103412
103411
103303
103301
103300
103299
103299
103298
103298
103298
103298
103298
103299
103299
103300
103301
103303
103303
103304
103305
103305
103305
103306
103306
103307
103307
103307
103199
103197
103197
103196
103195
103195
103194
103194
103194
103194
103195
103195
103196
103197
103198
103199
103199
103200
103200
103201
103201
103201
103202
103202
103202
103096
103094
103094
103093
103092
103092
103091
103091
103091
103091
103091
103092
103092
103093
103093
103094
103094
103095
103095
103095
103096
103096
103096
103097
103097
102993
102991
102991
102990
102990
102989
102989
102989
102988
102988
102988
102988
102989
102989
102989
102989
102990
102990
102990
102991
102991
102991
102991
102992
102992
102889
102888
102888
102887
102887
102886
102886
102886
102885
102885
102885
102885
102885
102885
102885
102886
102886
102886
102886
102886
102886
102887
102887
102887
102888
102786
102785
102785
102784
102784
102783
102783
102782
102782
102781
102781
102781
102781
102781
102781
102782
102782
102782
102782
102782
102782
102782
102782
102783
102784
102682
102682
102681
102680
102680
102679
102679
102678
102678
102677
102677
102677
102677
102677
102677
102677
102678
102678
102678
102678
102678
102678
102678
102679
102680
102579
102578
102577
102577
102576
102575
102575
102574
102574
102573
102573
102573
102573
102573
102573
102573
102574
102574
102574
102574
102575
102575
102575
102575
102576
102474
102474
102473
102473
102472
102471
102471
102470
102470
102469
102469
102469
102469
102469
102469
102469
102470
102470
102470
102471
102471
102471
102472
102471
102473
102370
102369
102369
102368
102368
102367
102367
102366
102366
102365
102365
102365
102365
102365
102365
102365
102365
102365
102366
102366
102367
102367
102367
102367
102368
102266
102265
102265
102264
102264
102263
102263
102262
102262
102261
102261
102261
102261
102260
102260
102260
102261
102261
102261
102262
102262
102263
102263
102263
102264
102161
102161
102160
102160
102159
102159
102158
102158
102157
102157
102156
102156
102156
102156
102156
102156
102157
102157
102158
102158
102159
102159
102159
102159
102161
102057
102056
102056
102055
102055
102054
102054
102053
102053
102052
102052
102052
102052
102052
102052
102053
102053
102054
102054
102055
102055
102056
102056
102056
102057
101953
101952
101952
101951
101951
101950
101950
101949
101949
101948
101948
101948
101948
101948
101949
101949
101950
101951
101951
101952
101952
101952
101953
101953
101954
101849
101849
101848
101848
101847
101847
101846
101845
101845
101845
101844
101844
101845
101845
101846
101846
101847
101848
101848
101849
101849
101849
101850
101850
101851
101745
101745
101745
101744
101744
101743
101742
101742
101741
101741
101741
101741
101741
101742
101743
101743
101744
101745
101745
101746
101746
101746
101747
101747
101747
101642
101641
101641
101640
101640
101639
101639
101638
101638
101638
101638
101638
101638
101639
101639
101640
101640
101641
101641
101642
101642
101643
101643
101643
101644
101538
101538
101537
101537
101536
101536
101536
101535
101535
101535
101535
101535
101535
101535
101535
101536
101536
101537
101537
101538
101538
101538
101539
101539
101540
101435
101435
101434
101434
101433
101433
101433
101432
101432
101432
101432
101432
101432
101432
101432
101432
101432
101432
101433
101433
101434
101434
101435
101435
101435
101333
101332
101332
101332
101331
101331
101331
101330
101330
101330
101330
101330
101329
101329
101329
101329
101329
101329
101329
101330
101330
101330
101331
101331
101332
101231
101230
101230
101230
101229
101229
101229
101228
101228
101228
101228
101228
101227
101227
101227
101227
101226
101226
101226
101227
101227
101227
101228
101228
101229
101129
101129
101128
101128
101127
101127
101127
101126
101126
101126
101126
101126
101125
101125
101125
101125
101125
101124
101124
101125
101125
101125
101126
101126
101127
101027
101027
101026
101026
101025
101025
101025
101024
101024
101024
101024
101023
101023
101023
101023
101023
101023
101023
101023
101023
101023
101024
101025
101025
101026
100925
100924
100924
100924
100923
100923
100923
100922
100922
100922
100922
100922
100922
100922
100922
100922
100922
100922
100922
100922
100923
100923
100924
100924
100925
100823
100823
100822
100822
100822
100821
100821
100821
100821
100821
100820
100820
100820
100820
100820
100820
100820
100820
100821
100821
100822
100823
100823
100824
100824
100723
100722
100722
100721
100721
100721
100721
100720
100720
100720
100720
100719
100719
100719
100719
100719
100719
100719
100720
100721
100722
100722
100723
100723
100724
100622
100621
100621
100621
100620
100620
100620
100620
100620
100619
100619
100619
100618
100618
100618
100618
100618
100619
100620
100620
100621
100622
100622
100623
100624
100523
100522
100522
100521
100521
100521
100521
100520
100520
100520
100520
100519
100519
100519
100519
100519
100519
100520
100520
100521
100522
100522
100523
100523
100524
100423
100422
100422
100421
100421
100421
100421
100420
100420
100420
100420
100419
100419
100419
100419
100419
100420
100420
100421
100421
100422
100422
100423
100423
100424
100326
100325
100325
100325
100325
100324
100324
100324
100324
100324
100324
100324
100323
100323
100323
100323
100324
100324
100324
100324
100325
100325
100325
100325
100326
100225
100224
100225
100225
100225
100225
100225
100225
100225
100225
100224
100224
100224
100224
100224
100224
100224
100224
100224
100224
100224
100224
100224
100224
100225
100114
100116
100117
100118
100118
100118
100118
100118
100118
100118
100118
100118
100118
100118
100118
100118
100118
100118
100117
100117
100117
100117
100116
100115
100113
100022
100027
100029
100030
100030
100030
100030
100030
100030
100030
100030
100030
100030
100030
100030
100030
100030
100030
100030
100030
100030
100029
100029
100027
100022
100003
100004
100005
100005
100005
100005
100005
100005
100005
100005
100005
100005
100005
100005
100005
100005
100005
100005
100005
100005
100005
100005
100005
100004
100003
100001
100001
100001
100001
100001
100001
100001
100001
100001
100001
100001
100001
100001
100001
100001
100001
100001
100001
100001
100001
100001
100001
100001
100001
100001
100001
100001
100001
100001
100001
100001
100001
100001
100001
100001
100001
100001
100001
100001
100001
100001
100001
100001
100001
100001
100001
100001
100001
100001
100001
100001
100001
100001
100001
100001
100001
100001
100001
100001
100001
100001
100001
100001
100001
100001
100001
100001
100001
100001
100001
100001
100001
100001
100001
100001
100000
100000
100000
100000
100000
100000
100000
100000
100000
100000
100000
100000
100000
100000
100000
100000
100000
100000
100000
100000
100000
100000
100000
100000
100000
100000
100000
100000
100000
100000
100000
100000
100000
100000
100000
100000
100000
100000
100000
100000
100000
100000
100000
100000
100000
100000
100000
100000
100000
100000
100000
100000
100000
100000
100000
100000
100000
100000
100000
100000
100000
100000
100000
100000
100000
100000
100000
100000
100000
100000
100000
100000
100000
100000
100000
)
;

boundaryField
{
    inlet
    {
        type            calculated;
        value           nonuniform List<scalar> 
25
(
107157
107151
107130
107115
107100
107088
107077
107069
107062
107057
107053
107052
107051
107052
107054
107057
107061
107066
107073
107080
107089
107098
107109
107123
107130
)
;
    }
    outlet
    {
        type            calculated;
        value           uniform 100000;
    }
    walls
    {
        type            calculated;
        value           nonuniform List<scalar> 
150
(
107130
106940
106816
106688
106581
106476
106377
106274
106172
106064
105955
105845
105732
105619
105508
105398
105292
105188
105084
104981
104878
104774
104670
104565
104460
104355
104249
104144
104037
103931
103826
103721
103616
103511
103407
103303
103199
103096
102993
102889
102786
102682
102579
102474
102370
102266
102161
102057
101953
101849
101745
101642
101538
101435
101333
101231
101129
101027
100925
100823
100723
100622
100523
100423
100326
100225
100114
100022
100003
100001
100001
100001
100000
100000
100000
107103
106930
106823
106698
106597
106490
106386
106277
106169
106057
105946
105834
105724
105617
105510
105403
105297
105192
105088
104983
104878
104772
104666
104561
104455
104350
104245
104141
104038
103934
103830
103725
103620
103516
103411
103307
103202
103097
102992
102888
102784
102680
102576
102473
102368
102264
102161
102057
101954
101851
101747
101644
101540
101435
101332
101229
101127
101026
100925
100824
100724
100624
100524
100424
100326
100225
100113
100022
100003
100001
100001
100001
100000
100000
100000
)
;
    }
    defaultFaces
    {
        type            empty;
    }
}


// ************************************************************************* //
