/*--------------------------------*- C++ -*----------------------------------*\
| =========                 |                                                 |
| \\      /  F ield         | OpenFOAM: The Open Source CFD Toolbox           |
|  \\    /   O peration     | Version:  2312                                  |
|   \\  /    A nd           | Website:  www.openfoam.com                      |
|    \\/     M anipulation  |                                                 |
\*---------------------------------------------------------------------------*/
FoamFile
{
    version     2.0;
    format      ascii;
    arch        "LSB;label=32;scalar=64";
    class       volVectorField;
    location    "0.24/water";
    object      U.gas;
}
// * * * * * * * * * * * * * * * * * * * * * * * * * * * * * * * * * * * * * //

dimensions      [0 1 -1 0 0 0 0];

internalField   nonuniform List<vector> 
6000
(
(0.0641798153343 0.324433181168 0)
(0.108624762309 0.206315077731 0)
(0.103064513555 0.180611678555 0)
(0.112922773631 0.162772613304 0)
(0.111035555957 0.156978359472 0)
(0.111793511061 0.152811219634 0)
(0.0985435254514 0.150385494653 0)
(0.0663973137694 0.159036636521 0)
(0.0351532734021 0.249776993368 0)
(0.0119189368366 0.293434612197 0)
(-0.010040852793 0.293839536334 0)
(-0.0259668068578 0.291369070401 0)
(-0.036651597319 0.288844033842 0)
(-0.0436156447011 0.286895039542 0)
(-0.0483949809946 0.285474732672 0)
(-0.051763727876 0.284447123166 0)
(-0.0541003669685 0.283720830418 0)
(-0.055628922271 0.283234230075 0)
(-0.0564944035668 0.282943452205 0)
(-0.0567771828493 0.282821241811 0)
(0.0264758448602 0.668830021645 0)
(0.0719221228683 0.464960878737 0)
(0.0903449318659 0.406742574332 0)
(0.0961471286975 0.372306960231 0)
(0.102739816431 0.357358651982 0)
(0.103703029622 0.34860140881 0)
(0.101847905194 0.343737174553 0)
(0.0921924651482 0.35355248405 0)
(0.0564599436525 0.473836431757 0)
(0.0132491834192 0.533493520318 0)
(-0.00263773678988 0.530810336217 0)
(-0.00500725512381 0.527446479529 0)
(-0.0069337781023 0.524294721623 0)
(-0.00857955045223 0.521770479496 0)
(-0.00998968439201 0.519797476147 0)
(-0.0111850969013 0.518256703082 0)
(-0.0121706291616 0.517071782357 0)
(-0.0129475717493 0.516187386603 0)
(-0.0135191525781 0.515559714014 0)
(-0.0138849512067 0.515159268605 0)
(0.0301660246842 0.763223502357 0)
(0.0686378002234 0.574309044179 0)
(0.0791503928873 0.495219067853 0)
(0.0845207091802 0.455381881581 0)
(0.0889947075511 0.433420349488 0)
(0.0907237062508 0.420981709954 0)
(0.0905435168035 0.41364720683 0)
(0.0869470363865 0.413079206694 0)
(0.0716237386456 0.454948269086 0)
(0.0278983838873 0.485806066588 0)
(-0.00910180853829 0.484660086111 0)
(-0.0150612889502 0.48255852108 0)
(-0.0157423126938 0.481050011302 0)
(-0.0163221030763 0.479654402657 0)
(-0.0167915298529 0.47833763462 0)
(-0.0171811032335 0.47711786872 0)
(-0.0175031143039 0.476018596783 0)
(-0.0177509521647 0.475056650179 0)
(-0.0179063842138 0.474241087571 0)
(-0.0179319156667 0.473577456418 0)
(0.0414360612176 0.872197274435 0)
(0.0858670766955 0.678392655825 0)
(0.0894423262688 0.571556985374 0)
(0.0904888984652 0.518075915965 0)
(0.0901910664885 0.488173020562 0)
(0.088166417861 0.469739091142 0)
(0.0852823471044 0.457784648057 0)
(0.0811419643083 0.451815376944 0)
(0.0733944017934 0.467431000186 0)
(0.0456497107016 0.489417053466 0)
(0.000955125465497 0.493570916532 0)
(-0.0213158701952 0.491041611036 0)
(-0.0213334018253 0.489384659591 0)
(-0.0211753831045 0.487916679191 0)
(-0.0209735577665 0.486534646421 0)
(-0.0207177792858 0.485230684231 0)
(-0.0204241882755 0.484020319249 0)
(-0.0201016525775 0.48292823118 0)
(-0.0197428916505 0.481979191445 0)
(-0.019310251938 0.481196575393 0)
(0.0488715583824 0.925406962656 0)
(0.100403820763 0.759645721292 0)
(0.101844490398 0.635651493889 0)
(0.0998659301844 0.566502970822 0)
(0.0971767598315 0.527912882576 0)
(0.0926260760698 0.503817755983 0)
(0.0869170085857 0.487597224414 0)
(0.080482165583 0.477130509966 0)
(0.0727985059328 0.478938343229 0)
(0.0579488179883 0.488398182068 0)
(0.0148170535588 0.492108682703 0)
(-0.0225116002103 0.489089191017 0)
(-0.026889680937 0.487246747883 0)
(-0.0262492293377 0.486031604583 0)
(-0.0256034669444 0.484879738052 0)
(-0.0249032953098 0.483767786472 0)
(-0.0241534550073 0.482702328774 0)
(-0.0233674469522 0.481706488435 0)
(-0.0225480356857 0.48080993633 0)
(-0.0216650941242 0.480044246584 0)
(0.053765643144 0.9505182267 0)
(0.109803594771 0.815127470238 0)
(0.109934477541 0.693005449022 0)
(0.106377921458 0.608855629227 0)
(0.103108934746 0.560695669246 0)
(0.0985275433624 0.530619685965 0)
(0.092079845632 0.510161970009 0)
(0.0840305591479 0.49589122133 0)
(0.0749823616821 0.489962396462 0)
(0.0638845092964 0.491221640404 0)
(0.0334401952847 0.493013479084 0)
(-0.0113235041885 0.488284384736 0)
(-0.0315230371758 0.485996758238 0)
(-0.0305327798539 0.484922313364 0)
(-0.0295361061229 0.483937190594 0)
(-0.0284992501658 0.482994485047 0)
(-0.0274099959294 0.482085947656 0)
(-0.0262758634603 0.481224524411 0)
(-0.0251017245646 0.480434707147 0)
(-0.0238614760999 0.479746824206 0)
(0.0546869202971 0.959052559684 0)
(0.111437206213 0.848066171615 0)
(0.111714458856 0.738594326966 0)
(0.107940831407 0.648943638939 0)
(0.104502549142 0.589864386743 0)
(0.101185346451 0.553383279759 0)
(0.096188940504 0.528576863811 0)
(0.088637103563 0.510728295347 0)
(0.0791361593772 0.499670412423 0)
(0.0682642277353 0.495115006832 0)
(0.0505747618035 0.494123067937 0)
(0.00365814580734 0.488507336148 0)
(-0.0332025155162 0.484346391471 0)
(-0.0343648066472 0.482971038285 0)
(-0.033019644644 0.482171541491 0)
(-0.0316723541216 0.48141311284 0)
(-0.030290781441 0.480680604593 0)
(-0.0288712235966 0.479978497478 0)
(-0.0274141646776 0.479324967652 0)
(-0.025893698129 0.478747331453 0)
(0.0531728980275 0.964562545615 0)
(0.108238353578 0.867495613323 0)
(0.108957474893 0.770999766372 0)
(0.105896327828 0.685318637343 0)
(0.102844743703 0.618190780442 0)
(0.100731531862 0.574228765615 0)
(0.0978396263682 0.545007258444 0)
(0.0922250912705 0.523572295091 0)
(0.0835565878457 0.50842555573 0)
(0.0729967554909 0.499514417188 0)
(0.0601072944828 0.495421376262 0)
(0.0261860704928 0.491520908815 0)
(-0.0194413227596 0.4822581763 0)
(-0.037570923851 0.480576432377 0)
(-0.0358617076849 0.480001007155 0)
(-0.0342522591098 0.479457562183 0)
(-0.0326365773403 0.478927987242 0)
(-0.0310005182206 0.478409110689 0)
(-0.0293360442543 0.477914349173 0)
(-0.0276185944134 0.477466022365 0)
(0.0533248391817 0.968341296211 0)
(0.109262216089 0.878944547973 0)
(0.109716815804 0.793883689198 0)
(0.10571132073 0.715353402883 0)
(0.102497762227 0.647155371685 0)
(0.100616187494 0.595729917504 0)
(0.0991480920453 0.56154914582 0)
(0.0955033195773 0.536251015133 0)
(0.0882711913755 0.5172277544 0)
(0.0783239388401 0.504499699807 0)
(0.0667653534813 0.497471655365 0)
(0.0486544459918 0.494173244152 0)
(2.63010065741e-05 0.482967195703 0)
(-0.0376402170457 0.478307444409 0)
(-0.0377444034745 0.477537861815 0)
(-0.0359822894616 0.477261556728 0)
(-0.0342487923636 0.476966385932 0)
(-0.0325120449328 0.476650134808 0)
(-0.0307567072004 0.476323059054 0)
(-0.0289585063637 0.476004071788 0)
(0.0529780293972 0.968088389935 0)
(0.109413279363 0.883852312042 0)
(0.110410631015 0.809277307329 0)
(0.106490798186 0.739257278758 0)
(0.10395729674 0.675288818639 0)
(0.102395748765 0.620377686086 0)
(0.101319132434 0.58014666529 0)
(0.0988454879743 0.550570882979 0)
(0.0930617845833 0.527499760733 0)
(0.0839566474598 0.510927941769 0)
(0.0733096083404 0.500982628273 0)
(0.0604301518307 0.496012348435 0)
(0.0262242200749 0.489451364095 0)
(-0.0198347440108 0.476290118126 0)
(-0.0382297022747 0.475248081258 0)
(-0.0365315839692 0.475221264586 0)
(-0.0349239334481 0.475135803973 0)
(-0.0332976267959 0.474986754167 0)
(-0.0316370686979 0.474784818518 0)
(-0.0299111736027 0.47455290269 0)
(0.0513978390634 0.96711649265 0)
(0.10738870616 0.885217735216 0)
(0.110121819304 0.819040581707 0)
(0.10755871302 0.758180270499 0)
(0.106229935542 0.701361200709 0)
(0.104987312523 0.648204233379 0)
(0.103660324216 0.602584859239 0)
(0.101534453685 0.567993568277 0)
(0.09692023101 0.540545676283 0)
(0.0889423682764 0.519886269572 0)
(0.0789598078094 0.506684983428 0)
(0.0677718644752 0.499555102903 0)
(0.0491107533671 0.495948201302 0)
(0.000473069308478 0.47700380491 0)
(-0.0360193082623 0.474036544072 0)
(-0.0359853529911 0.473884916863 0)
(-0.0348146868456 0.473860702582 0)
(-0.0335524411909 0.473739388674 0)
(-0.0321813147035 0.473537879142 0)
(-0.030676264665 0.473284150535 0)
(0.0487726624701 0.969882187798 0)
(0.103499787246 0.886880832829 0)
(0.108511942012 0.826711169532 0)
(0.107696030856 0.775029235415 0)
(0.10756722735 0.726776674085 0)
(0.106658505234 0.678129779252 0)
(0.104934320425 0.629886150982 0)
(0.102505603958 0.589176027723 0)
(0.0986510921135 0.55720262183 0)
(0.0919490326421 0.532266368451 0)
(0.0826678727245 0.515201882751 0)
(0.0723601485224 0.505345066305 0)
(0.0590638611596 0.500410510297 0)
(0.0194900373225 0.487096184332 0)
(-0.0236861185191 0.474787510279 0)
(-0.0351568723799 0.47374000733 0)
(-0.0346605009791 0.473465675703 0)
(-0.0339340084759 0.473114482096 0)
(-0.0329607872939 0.472700861915 0)
(-0.0317390734492 0.47225195083 0)
(0.0454600548292 0.983466076947 0)
(0.0977078230108 0.894413550602 0)
(0.104195552592 0.837058153497 0)
(0.104424752692 0.793037135282 0)
(0.104885528748 0.752946052773 0)
(0.104203920804 0.709228196984 0)
(0.102405306315 0.66039226904 0)
(0.0999772439022 0.613553059097 0)
(0.0968148424565 0.577001109886 0)
(0.0912572266306 0.547763021974 0)
(0.0827255001991 0.526304161471 0)
(0.0727280384188 0.512880941538 0)
(0.0610699484154 0.505440568138 0)
(0.0362530339219 0.499845301584 0)
(-0.00882279200122 0.47621402045 0)
(-0.0358381608921 0.474721559745 0)
(-0.0359780179484 0.473820568671 0)
(-0.0356449959695 0.472931446493 0)
(-0.0349144444903 0.472068341996 0)
(-0.0338183540015 0.471248007466 0)
(0.0461246883827 1.00645253266 0)
(0.0993908988503 0.911381929893 0)
(0.104143189858 0.854843565179 0)
(0.101111659644 0.815464004532 0)
(0.0997663242317 0.781006737081 0)
(0.0983529218151 0.740435738245 0)
(0.0967148943742 0.691028232237 0)
(0.0946906365311 0.639458970346 0)
(0.0918246591862 0.597746905141 0)
(0.0867126893511 0.564295069522 0)
(0.0785624742033 0.53824573641 0)
(0.0683892019809 0.520621046957 0)
(0.0569874346487 0.510013236799 0)
(0.0411945733558 0.504897547221 0)
(-0.00278235422988 0.484333672809 0)
(-0.0388352369474 0.476294671909 0)
(-0.040524480698 0.474012524627 0)
(-0.0399848137615 0.472391847935 0)
(-0.0389780093875 0.47096701759 0)
(-0.0375673607543 0.469716548147 0)
(0.0492420780518 1.03584091003 0)
(0.103625066532 0.938648982322 0)
(0.10392694015 0.881645875555 0)
(0.0961577154257 0.843574474851 0)
(0.0914155023875 0.810352054676 0)
(0.0890041688682 0.769253007524 0)
(0.088068016391 0.718186007679 0)
(0.086782165304 0.663616739883 0)
(0.0840511573321 0.616248060273 0)
(0.0791355622814 0.578238812471 0)
(0.071259121755 0.547787785548 0)
(0.0608606863433 0.525929852733 0)
(0.0494427301323 0.511895557899 0)
(0.0364078785969 0.504095830051 0)
(0.00344826688725 0.496052851483 0)
(-0.0362848573201 0.475311461681 0)
(-0.0494449333384 0.472204829417 0)
(-0.0475828780593 0.4701330041 0)
(-0.0454858223399 0.46833508094 0)
(-0.0431165395759 0.466849115948 0)
(0.0520193389041 1.07038721298 0)
(0.103565425307 0.971120618279 0)
(0.096285548611 0.911475986776 0)
(0.0849372822237 0.871630924685 0)
(0.0785331292702 0.835040078493 0)
(0.0769565649763 0.789967557466 0)
(0.0778453706944 0.736586819198 0)
(0.0781132050603 0.68069928251 0)
(0.0762710843987 0.629268416744 0)
(0.0720190538289 0.586339415757 0)
(0.0649621123741 0.551915106438 0)
(0.0548055435131 0.526434883048 0)
(0.0427280111889 0.50944954236 0)
(0.0302744385387 0.499370784062 0)
(0.0134443851911 0.49603232183 0)
(-0.0298867807102 0.476896985395 0)
(-0.0610568243508 0.467299788996 0)
(-0.0575261665857 0.464665970439 0)
(-0.0535776745946 0.463129329521 0)
(-0.0496624449662 0.461928525625 0)
(0.0501687327616 1.0981091165 0)
(0.0953195341297 0.998497963117 0)
(0.0840256546552 0.935269965299 0)
(0.0738325902673 0.891802768831 0)
(0.069029853453 0.849667826041 0)
(0.0693562677124 0.799701549932 0)
(0.0720042648694 0.744421125725 0)
(0.0739911137243 0.688544817842 0)
(0.0739323877348 0.636140412956 0)
(0.0713139933082 0.590012076266 0)
(0.0655478278419 0.552163940236 0)
(0.056113687395 0.523519141127 0)
(0.0435379556221 0.503938354945 0)
(0.0305387474992 0.492162249463 0)
(0.0178067041555 0.487338388296 0)
(-0.0156749317569 0.481750375682 0)
(-0.0566038385791 0.457414905081 0)
(-0.0672659721885 0.455417117271 0)
(-0.0609670115167 0.455122483247 0)
(-0.0554042179587 0.454891429637 0)
(0.0470984169703 1.11739243507 0)
(0.0897001319914 1.019912338 0)
(0.0801684418428 0.953277189031 0)
(0.0722214608255 0.905452560268 0)
(0.0690475931929 0.858005308138 0)
(0.0704027659827 0.804023986908 0)
(0.0740445677786 0.747462478447 0)
(0.0775069144729 0.692109681719 0)
(0.0792470357562 0.640354709767 0)
(0.0782631141198 0.593909733546 0)
(0.0735094480711 0.554223561655 0)
(0.0645951674498 0.522360255602 0)
(0.0522696341592 0.499558946323 0)
(0.038574162998 0.485647142407 0)
(0.0260783207931 0.479507968315 0)
(0.0106299310752 0.479291063499 0)
(-0.0370239579669 0.453915407812 0)
(-0.0716146192523 0.444842016462 0)
(-0.0648712399215 0.445455658803 0)
(-0.0582550037344 0.446677853852 0)
(0.0489485647725 1.13244767156 0)
(0.0945652219769 1.03745990538 0)
(0.0857397419773 0.970453599251 0)
(0.0773483443809 0.9187238039 0)
(0.0742457446631 0.866436805529 0)
(0.0758890446191 0.809203672285 0)
(0.080155881288 0.751636254581 0)
(0.084586286465 0.696657491436 0)
(0.0877254992334 0.645698995484 0)
(0.0881970322793 0.600473209419 0)
(0.0840395560284 0.561230260826 0)
(0.0751225768231 0.527039559261 0)
(0.0634739182273 0.500246719664 0)
(0.0506396409485 0.483148787025 0)
(0.0389678285379 0.475235010784 0)
(0.0279912327602 0.473691085203 0)
(-0.00665099202312 0.464300137058 0)
(-0.0515528242543 0.435812482686 0)
(-0.0638799218059 0.436215676364 0)
(-0.0568346451656 0.438885133963 0)
(0.0489334610567 1.13937285134 0)
(0.0953306303079 1.04755648665 0)
(0.0877098337817 0.984083055113 0)
(0.0801048626472 0.930821496641 0)
(0.0776937154211 0.874910791921 0)
(0.0799241368828 0.815321908097 0)
(0.0848372052023 0.757213343248 0)
(0.0903944804057 0.702826771153 0)
(0.0952622375906 0.653426260722 0)
(0.0972608642987 0.610500256369 0)
(0.0937912360308 0.572675751421 0)
(0.0847426794511 0.537947325851 0)
(0.0731600041917 0.507469165553 0)
(0.0616883443766 0.486522071696 0)
(0.051340246477 0.475799626336 0)
(0.042127435479 0.472717843505 0)
(0.025501013175 0.472651356946 0)
(-0.023396500967 0.429156252695 0)
(-0.0568994873526 0.429602083057 0)
(-0.050919482346 0.432998840922 0)
(0.0480838650276 1.14157188046 0)
(0.0945060925105 1.05177315343 0)
(0.0879192266092 0.99217402467 0)
(0.0809158349496 0.939276294456 0)
(0.0792335785566 0.881533454997 0)
(0.082092258301 0.820833829828 0)
(0.0881223845233 0.763083163625 0)
(0.0956742185967 0.710386285458 0)
(0.102449014484 0.664316902658 0)
(0.105039601702 0.624479481607 0)
(0.101561273255 0.587826349213 0)
(0.092389526489 0.553474072102 0)
(0.0805290236288 0.520683805458 0)
(0.0697770587331 0.495836665685 0)
(0.0608520113663 0.481477682388 0)
(0.053324243943 0.476229642282 0)
(0.043092777755 0.475751656978 0)
(-0.0010692662612 0.434117795187 0)
(-0.0408663709352 0.426720741943 0)
(-0.0413567913249 0.42981157521 0)
(0.0458939951803 1.14576580773 0)
(0.0905907974627 1.0551674794 0)
(0.0850335417178 0.997353635516 0)
(0.0795059223605 0.944742821221 0)
(0.0795517989575 0.886392610651 0)
(0.0841828003435 0.825903900879 0)
(0.0923823633104 0.769670759029 0)
(0.101765126639 0.720365311998 0)
(0.108643285861 0.678931505251 0)
(0.110698231536 0.64211900339 0)
(0.107376616439 0.606486118793 0)
(0.0982632518188 0.57257922229 0)
(0.0860653702984 0.53896431118 0)
(0.0753040210683 0.510325080703 0)
(0.0671101876242 0.491681495566 0)
(0.0607332398056 0.483343666131 0)
(0.0528575842488 0.480981278458 0)
(0.0206183483688 0.452445307147 0)
(-0.018560317652 0.426754768017 0)
(-0.0296977356106 0.429268514078 0)
(0.0424068632417 1.16232481406 0)
(0.0839593091501 1.06364243846 0)
(0.0797208791033 1.00217103999 0)
(0.0765755568413 0.947888960969 0)
(0.0794593553471 0.88972038345 0)
(0.0868833984755 0.830964749655 0)
(0.0973324057165 0.777697502803 0)
(0.106899329841 0.73341416627 0)
(0.112415047109 0.696549894192 0)
(0.114070897246 0.662630475164 0)
(0.111472116569 0.628379198196 0)
(0.103024848946 0.595404143182 0)
(0.0903073283726 0.56199733592 0)
(0.0785339950294 0.529041466552 0)
(0.0703111114756 0.505410907854 0)
(0.0640036733465 0.493026771644 0)
(0.0563741783775 0.488131062933 0)
(0.0335781696242 0.472622246125 0)
(-0.00132406354965 0.428369484178 0)
(-0.0182198743294 0.430708532419 0)
(0.0417642897336 1.19030454017 0)
(0.0836007641883 1.07827053123 0)
(0.0798993783462 1.00891729618 0)
(0.0770294879085 0.950382220078 0)
(0.0815586299249 0.89252720024 0)
(0.0908845457647 0.83669200959 0)
(0.101711070553 0.787734062343 0)
(0.109800488933 0.749034899785 0)
(0.114536650217 0.716043316828 0)
(0.116752150044 0.684716152695 0)
(0.115212702704 0.652417298558 0)
(0.107422849991 0.62188627838 0)
(0.0931957595097 0.589384582482 0)
(0.0792941984767 0.550352523523 0)
(0.0704824866177 0.521205475474 0)
(0.0636670296859 0.50371003647 0)
(0.0552204090179 0.495486873431 0)
(0.0379482036966 0.488906335522 0)
(0.0085035706183 0.430914168276 0)
(-0.00927876760433 0.433221752159 0)
(0.0422474496952 1.21892128476 0)
(0.0859130665727 1.09450253869 0)
(0.0834569146168 1.01730111516 0)
(0.0806794332403 0.954045471629 0)
(0.0857051089332 0.896609792262 0)
(0.0952306317785 0.844175083603 0)
(0.104874961227 0.800063010706 0)
(0.111561447968 0.765961893061 0)
(0.116429249123 0.73603431692 0)
(0.119655264563 0.706738784746 0)
(0.119466682512 0.676938768568 0)
(0.110475331812 0.649297722826 0)
(0.0929237904279 0.617280561283 0)
(0.0778096124257 0.573454831314 0)
(0.0687498996616 0.537217150015 0)
(0.0608123855134 0.513581629578 0)
(0.05099901142 0.501265230869 0)
(0.0366319260856 0.497233571397 0)
(0.0120572296702 0.432410610609 0)
(-0.00412077618462 0.435753876339 0)
(0.0427708063806 1.24406817758 0)
(0.088529044454 1.10911020657 0)
(0.0882376668221 1.02583061839 0)
(0.0862309830599 0.96015144057 0)
(0.0912010490654 0.904180112226 0)
(0.0994752847959 0.855041410531 0)
(0.107281921626 0.81500442078 0)
(0.113387710299 0.783801269138 0)
(0.118697523396 0.755727993221 0)
(0.12265258632 0.727953291373 0)
(0.120722874316 0.700611060034 0)
(0.107625233688 0.673509370734 0)
(0.0903649655383 0.641132408143 0)
(0.0768776985012 0.59787312704 0)
(0.0664824533907 0.55251951946 0)
(0.0569663496072 0.521992162257 0)
(0.0459185975113 0.504927734249 0)
(0.0320637657244 0.498777075829 0)
(0.0107644784796 0.441018656511 0)
(-0.00202067283781 0.437549483314 0)
(0.0424019301037 1.26518184591 0)
(0.0896802787681 1.12124022944 0)
(0.0922824761218 1.03536799624 0)
(0.0914535004904 0.971198372674 0)
(0.0961038850403 0.918413448113 0)
(0.102984276892 0.872077143414 0)
(0.10958811232 0.834162832732 0)
(0.1151593584 0.804037104742 0)
(0.120037187084 0.776412028827 0)
(0.12200999738 0.749441665114 0)
(0.114805265446 0.722299868039 0)
(0.100279443517 0.692783671773 0)
(0.0865264744245 0.659986297337 0)
(0.0744282417694 0.620210125326 0)
(0.0634235602011 0.569028363919 0)
(0.0528428626069 0.529746767083 0)
(0.0411133695069 0.507453187757 0)
(0.0272094068137 0.498433906046 0)
(0.00833281441896 0.467214453588 0)
(-0.000967826014118 0.439238718047 0)
(0.0409314694364 1.28677515466 0)
(0.0883639852022 1.13415626369 0)
(0.0934172360555 1.04925709336 0)
(0.0934561471108 0.990135482767 0)
(0.0978788194499 0.942085132052 0)
(0.10419443386 0.897664710529 0)
(0.110087664593 0.85931487047 0)
(0.114532995707 0.82800550816 0)
(0.116716322724 0.798634980619 0)
(0.111932916197 0.769374889987 0)
(0.100342787495 0.739093159589 0)
(0.0895254392314 0.706996826808 0)
(0.0802177994974 0.674060454971 0)
(0.0700465927202 0.637253562242 0)
(0.0591458906475 0.587208215498 0)
(0.0479269205864 0.537232332838 0)
(0.036286054256 0.509914607498 0)
(0.0226148874458 0.497762751284 0)
(0.00596588211817 0.489419914762 0)
(-0.000689610418513 0.440032490483 0)
(0.0436494350221 1.30505900665 0)
(0.0958074541488 1.15178124512 0)
(0.100653026499 1.07314320867 0)
(0.0970375822138 1.02211766398 0)
(0.0988271800697 0.978600329265 0)
(0.102863751973 0.932571067036 0)
(0.105975420452 0.889803659937 0)
(0.105472387785 0.853730444111 0)
(0.099969169318 0.818825680421 0)
(0.0908385657856 0.783618972976 0)
(0.0832874713156 0.748639424711 0)
(0.0778640553363 0.715117180114 0)
(0.0712210104942 0.683078550889 0)
(0.0626039974767 0.648727330844 0)
(0.0526125068895 0.603086277076 0)
(0.0427906806198 0.544988437918 0)
(0.0321426482063 0.512931673151 0)
(0.019039635565 0.497321092948 0)
(0.00390049568228 0.492694709991 0)
(-0.0027373712457 0.443251927208 0)
(0.0484410408638 1.31851644059 0)
(0.105275089783 1.17694830697 0)
(0.107344356706 1.11213905353 0)
(0.0975484066326 1.07414263856 0)
(0.0922009927798 1.03139522196 0)
(0.0893489289742 0.974674704929 0)
(0.085852357098 0.922005329678 0)
(0.0796784990629 0.877638002173 0)
(0.0729032857167 0.834238847714 0)
(0.0682943111186 0.791347212181 0)
(0.0661024463458 0.751589215636 0)
(0.064113882316 0.717024119046 0)
(0.0602614673278 0.686900908678 0)
(0.053824302477 0.655220678776 0)
(0.0461010211683 0.613680702682 0)
(0.0384000938931 0.553701478004 0)
(0.028709158569 0.516464550692 0)
(0.0159912714208 0.496912278074 0)
(0.00162554468146 0.489474638053 0)
(-0.0107491158735 0.461790216652 0)
(0.0525730878716 1.33017814821 0)
(0.109590088727 1.20853799741 0)
(0.103728373838 1.1679226832 0)
(0.083340204672 1.15216410426 0)
(0.066501762567 1.10127211793 0)
(0.056559576544 1.01938782096 0)
(0.050802538497 0.951605997393 0)
(0.0467024782137 0.896638982262 0)
(0.0450137204353 0.843552505175 0)
(0.0458130654076 0.793003830983 0)
(0.0478033441973 0.750109379714 0)
(0.0487692588071 0.714350801227 0)
(0.0474689730767 0.684907221973 0)
(0.0441325352312 0.65574764505 0)
(0.0399096907454 0.618003419018 0)
(0.0346448732139 0.562307857413 0)
(0.0259097160869 0.519591068275 0)
(0.0130270189334 0.495740559164 0)
(-0.0015113317136 0.484959015274 0)
(-0.0187005080173 0.478366493109 0)
(0.0542871658793 1.33506070003 0)
(0.105747776563 1.24205917982 0)
(0.0878108738257 1.24128967942 0)
(0.0561449926361 1.26103813913 0)
(0.0302425157242 1.18336412765 0)
(0.0182109125166 1.06060899155 0)
(0.0154009008661 0.973108923643 0)
(0.0165328422411 0.905927210241 0)
(0.0199839419153 0.843541085376 0)
(0.0248852223705 0.787750649628 0)
(0.0297595072335 0.74491574415 0)
(0.0329739956298 0.707963388999 0)
(0.0344310948614 0.676694381216 0)
(0.0350628412229 0.648629889333 0)
(0.0350931283401 0.615431141404 0)
(0.0320960415753 0.568881623288 0)
(0.0239006279269 0.521428513816 0)
(0.0108059090736 0.492712599837 0)
(-0.00392532594928 0.478587324502 0)
(-0.0190161437275 0.475024524566 0)
(0.0524090009166 1.33377675584 0)
(0.0954275914076 1.27543764602 0)
(0.0688475268448 1.33177875808 0)
(0.0319545048822 1.39926609685 0)
(0.00217490162932 1.26710799616 0)
(-0.00977591292687 1.09212828271 0)
(-0.00981595386399 0.981355930762 0)
(-0.00475993104803 0.901855852767 0)
(0.00215882132002 0.832598010652 0)
(0.00953582136368 0.774876985394 0)
(0.0165270232289 0.734475926831 0)
(0.0222391893127 0.697546679503 0)
(0.0265549285201 0.663720615446 0)
(0.0306135510774 0.634758959031 0)
(0.0337581815868 0.606383675423 0)
(0.031719786905 0.571283431205 0)
(0.0233444073615 0.522222967384 0)
(0.0103569396368 0.486728061924 0)
(-0.00423047548671 0.469558344491 0)
(-0.017705367557 0.464219254968 0)
(0.0522342866204 1.32345988612 0)
(0.0933585734644 1.30116126009 0)
(0.065195052447 1.43268669869 0)
(0.0278911828542 1.55602722344 0)
(-0.00383867986344 1.34922185879 0)
(-0.0179520878417 1.11412459053 0)
(-0.0182844603147 0.977690129708 0)
(-0.0119581195908 0.886917742869 0)
(-0.00364593081756 0.81379646435 0)
(0.00485292292136 0.757034998845 0)
(0.0133527578581 0.719574741627 0)
(0.0211842678494 0.683920085299 0)
(0.0275375828503 0.648711861507 0)
(0.033118132115 0.618040449652 0)
(0.0362926154624 0.593401607256 0)
(0.0337266868055 0.568235737799 0)
(0.0258416043389 0.522869421083 0)
(0.0140096961759 0.478696191802 0)
(-0.000396243088796 0.458562467969 0)
(-0.0140178162828 0.452088672519 0)
(0.0511546570657 1.30286089119 0)
(0.0922043026155 1.313818594 0)
(0.0673764576408 1.5322078075 0)
(0.0351448484381 1.71040455213 0)
(0.00661838333019 1.42913442749 0)
(-0.00778984562873 1.13199908336 0)
(-0.00940896633298 0.969402573832 0)
(-0.00379752179517 0.869060308815 0)
(0.00422073904705 0.794554554991 0)
(0.0125989955141 0.740233829156 0)
(0.021362516388 0.704873909975 0)
(0.0298472487935 0.670792180462 0)
(0.0367134987631 0.635517950194 0)
(0.0417053065749 0.603775191742 0)
(0.04306695776 0.581589230369 0)
(0.0393398529299 0.562359712283 0)
(0.0320200600303 0.523309410606 0)
(0.0218439296152 0.472672832387 0)
(0.00839269259086 0.448349132249 0)
(-0.00536857564951 0.440662065416 0)
(0.0491457039476 1.28576256531 0)
(0.0878938763873 1.32637114132 0)
(0.0641510932473 1.62744299057 0)
(0.0390901993875 1.83304601927 0)
(0.0199552591989 1.49396227628 0)
(0.010253719751 1.14680775673 0)
(0.00945095242066 0.963587036668 0)
(0.0142658923309 0.856347556688 0)
(0.021343476182 0.781681490165 0)
(0.0289914213344 0.729712058398 0)
(0.0371374213952 0.695390738303 0)
(0.0450211411382 0.662414230349 0)
(0.0512370413207 0.627586031729 0)
(0.0548432050437 0.595578419159 0)
(0.0541874489349 0.574820101085 0)
(0.0488897621155 0.558180300183 0)
(0.0410666726067 0.523885154158 0)
(0.0315082029358 0.471672035212 0)
(0.0193778970303 0.441510965255 0)
(0.00679777819102 0.431676463675 0)
(0.0461307832439 1.28587909808 0)
(0.0787112305177 1.36261342878 0)
(0.0520702227953 1.72494720355 0)
(0.0309543370675 1.91561815665 0)
(0.022561570522 1.51794872257 0)
(0.0231288683796 1.1492849848 0)
(0.0264665878309 0.95947868567 0)
(0.0323474053008 0.849873127517 0)
(0.0395887319825 0.776153810715 0)
(0.0471875540343 0.726658150081 0)
(0.0548796674972 0.692812455555 0)
(0.061942945408 0.660325299788 0)
(0.0672370014121 0.625885168514 0)
(0.06953238551 0.593885500293 0)
(0.0671808757782 0.573614572466 0)
(0.060311805123 0.557776857536 0)
(0.0510538343105 0.526096918643 0)
(0.0410235732633 0.475239080645 0)
(0.0303215747657 0.439039025181 0)
(0.0190306514369 0.426050322284 0)
(0.0416522127497 1.31015336815 0)
(0.0597213323213 1.46579263286 0)
(0.0242255428325 1.82487881396 0)
(0.00920867975308 1.95853011143 0)
(0.0143041947027 1.47674141386 0)
(0.0271922839273 1.12909881913 0)
(0.0361154976299 0.950114324975 0)
(0.0448395757292 0.84469639261 0)
(0.0538256502235 0.774549354477 0)
(0.0624997635878 0.728655296834 0)
(0.070355888812 0.695403985241 0)
(0.0769272622292 0.66315414703 0)
(0.0815288235888 0.629043684062 0)
(0.0829256983002 0.597215424326 0)
(0.0793074864511 0.576992081903 0)
(0.0711001073336 0.561212449126 0)
(0.0608474925169 0.530969028191 0)
(0.0504596813373 0.482115433278 0)
(0.0406758723459 0.440920272082 0)
(0.030488853167 0.423939669235 0)
(0.0259516694769 1.41466281349 0)
(0.00870655335683 1.74396969958 0)
(-0.0339759528071 1.87044324401 0)
(-0.0189832890181 1.89561749469 0)
(0.00797666566522 1.38171606318 0)
(0.0277506924845 1.08914773382 0)
(0.041218636099 0.932573561555 0)
(0.0533360084967 0.837226846126 0)
(0.0647430879274 0.77381029213 0)
(0.0747819820099 0.732537509715 0)
(0.0829873250942 0.700304253391 0)
(0.0893468711006 0.668477163264 0)
(0.0935188561534 0.634912100123 0)
(0.0943418757816 0.603648092071 0)
(0.0898578218329 0.583502394296 0)
(0.080834775869 0.567607509269 0)
(0.0703567125126 0.538489959058 0)
(0.0600293935155 0.491870541174 0)
(0.0506266388582 0.446730533608 0)
(0.0410030198232 0.425023455936 0)
(0.0165047596898 1.60575874972 0)
(0.0177076984917 2.0149826193 0)
(-0.00956544190711 1.9227244966 0)
(-0.00455496016713 1.73933088784 0)
(0.0212944363931 1.28699945633 0)
(0.0369622691569 1.04692706419 0)
(0.0505274196931 0.912555830377 0)
(0.0640018167302 0.828901297781 0)
(0.0767050948173 0.773758973347 0)
(0.0873584885093 0.736923890011 0)
(0.0955302080157 0.705948390229 0)
(0.101531824312 0.674820547065 0)
(0.105116691608 0.642098567112 0)
(0.105110505992 0.611809582046 0)
(0.0996754927489 0.591860389461 0)
(0.0904189580591 0.575813179522 0)
(0.0805759974504 0.548304800264 0)
(0.0704580607292 0.504734395143 0)
(0.0606036159216 0.456081012222 0)
(0.0507167305481 0.428836062341 0)
(0.0229753422178 1.74482382629 0)
(0.037318674577 2.12246576369 0)
(0.0222757108442 2.00725639677 0)
(0.0267725782632 1.60219584993 0)
(0.0432013735759 1.22419551794 0)
(0.0539394980698 1.01591963696 0)
(0.0654953672246 0.897036060694 0)
(0.0786721827836 0.823203492472 0)
(0.0916284413957 0.775794295949 0)
(0.102235661795 0.742339398397 0)
(0.110002790695 0.71255493411 0)
(0.11530859253 0.682191637666 0)
(0.117765390379 0.650434763977 0)
(0.116249796559 0.621231906319 0)
(0.109878020553 0.60152152736 0)
(0.101260925395 0.585333266634 0)
(0.0925834949553 0.560398317982 0)
(0.0821320410964 0.521086598912 0)
(0.0705209891415 0.469196140645 0)
(0.0594672966866 0.434867153991 0)
(0.0278818968831 1.77808370181 0)
(0.0534377338884 2.16641886913 0)
(0.0516097820225 2.02830057214 0)
(0.0576918442289 1.52033144801 0)
(0.0665878386592 1.18611273243 0)
(0.0739623895354 0.996894717355 0)
(0.0838851921724 0.888286258505 0)
(0.096503674086 0.822102616913 0)
(0.109217857276 0.780809487343 0)
(0.119339559661 0.749708771994 0)
(0.12638058454 0.720882668988 0)
(0.130580686345 0.691159396375 0)
(0.131285752523 0.660262662973 0)
(0.127755615837 0.632018624901 0)
(0.120801033166 0.612415029066 0)
(0.113622791585 0.596225513845 0)