/*--------------------------------*- C++ -*----------------------------------*\
| =========                 |                                                 |
| \\      /  F ield         | OpenFOAM: The Open Source CFD Toolbox           |
|  \\    /   O peration     | Version:  2312                                  |
|   \\  /    A nd           | Website:  www.openfoam.com                      |
|    \\/     M anipulation  |                                                 |
\*---------------------------------------------------------------------------*/
FoamFile
{
    version     2.0;
    format      ascii;
    arch        "LSB;label=32;scalar=64";
    class       volScalarField;
    location    "0.77/water";
    object      epsilon.gas;
}
// * * * * * * * * * * * * * * * * * * * * * * * * * * * * * * * * * * * * * //

dimensions      [0 2 -3 0 0 0 0];

internalField   nonuniform List<scalar> 
1504
(
3711.96086571
864.78448063
228.823129142
86.9932563805
30.7102723869
10.1125518319
3.69093994895
1.59948721545
0.851736096123
0.552949970788
0.413518581362
0.334287228534
0.289650016218
0.294651334186
0.349568189166
0.410810892331
0.40607228023
0.312685833187
0.181135699573
0.0390090128021
6867.85777729
1292.16046356
291.86579039
97.7526752447
32.507177795
10.642062848
3.94421998335
1.72166844603
0.91231507533
0.582934488277
0.426740373597
0.336414846672
0.281085949541
0.275053625056
0.320169152044
0.376951049189
0.386052916741
0.31934265879
0.208583400461
0.061711225972
8630.79414345
1792.8776524
431.986294368
124.619508563
38.3232881899
12.5718678712
4.73739841405
2.05058633514
1.05137228285
0.64545567436
0.456419441402
0.350594836517
0.285187398079
0.268082451512
0.301469041602
0.352499973187
0.375644270618
0.333997936451
0.241443964153
0.093102736146
8536.05828135
2004.32865616
542.624386144
171.099707446
52.4948326683
17.3128750099
6.45422007959
2.70112830459
1.30623225299
0.753102713399
0.506603838049
0.377838368771
0.301831501097
0.273169725596
0.292917695131
0.338698114868
0.377130620451
0.359350075812
0.274895194267
0.130174760669
7891.3753976
1992.29617992
583.227065537
197.610620944
66.158125089
22.9383057032
8.6747264465
3.57717292286
1.65675696873
0.900764684536
0.575150810115
0.416260139219
0.328892039561
0.288736782245
0.293270180734
0.335556624044
0.390611057192
0.396808018749
0.315926411333
0.172834218172
7268.38748533
1899.00780638
582.500687804
207.273699438
74.0691967097
27.2828908374
10.7026360848
4.467638001
2.04051884843
1.07044715202
0.655651429885
0.462562300726
0.363230659542
0.311805637864
0.301871232535
0.34297837271
0.416077180312
0.446243321773
0.366125952225
0.221004921589
6704.52675243
1786.65777629
557.726907081
201.685056783
75.3799235986
29.4442605126
12.0795025133
5.1837476894
2.39040130055
1.23835757592
0.737886115135
0.512350084401
0.402335910815
0.340432879796
0.319194886808
0.362241264581
0.454716475365
0.506174550127
0.425952375644
0.274548066116
6438.63357686
1687.50046351
519.393126878
184.397337345
72.3002846218
29.7708037209
12.7244610603
5.6373379789
2.65767665959
1.3783430204
0.810236410145
0.561000763447
0.443854268526
0.374088856143
0.34779795404
0.395852990167
0.50681733724
0.57609282707
0.498163691761
0.333935889043
6483.50735684
1646.0041088
490.235869713
173.181140699
69.0958824739
29.1775822197
12.8059864097
5.84110333142
2.82020412531
1.46846870931
0.862144062992
0.604516123991
0.486725476373
0.414599043963
0.387269897346
0.444854140387
0.572810188636
0.658086087083
0.588613988293
0.401659926421
6882.5246501
1661.89960095
479.688487599
169.39069662
66.5821786929
28.1416890411
12.516793016
5.84191860598
2.86252186788
1.49048510688
0.88662114701
0.641319748445
0.531694023117
0.462801213096
0.440308628799
0.510899662426
0.65291380649
0.754868905034
0.702814840573
0.485027623609
7636.22897264
1703.3382868
501.069377086
170.276568772
64.9466904038
27.0914765147
12.1005329247
5.69573249905
2.77434662951
1.44155000027
0.885513051433
0.673232976001
0.580911887046
0.52096718901
0.508582006463
0.59317015365
0.744180522161
0.866789278119
0.839996424707
0.593384963058
8153.9132765
1844.35381892
525.275927952
172.269494042
63.8106756674
26.2109881972
11.6345220408
5.37350109055
2.54864297434
1.33808965994
0.869954858569
0.704627402394
0.635525322465
0.589065119309
0.588343021268
0.682802903843
0.840853964561
0.991631301046
0.99446865556
0.737662637329
7768.62148073
1815.86832181
522.252940958
170.335242686
62.3050235433
25.2403048448
10.87454486
4.79233798673
2.22320875874
1.21317979328
0.853718393355
0.736508832823
0.692638481934
0.661727127428
0.670129181314
0.763268786842
0.937893915486
1.12570969812
1.16125721703
0.912588569451
6996.4808566
1679.36154658
493.96740127
162.500273809
59.2430262098
23.36346586
9.57011119056
4.03646655573
1.88056247362
1.10298724442
0.845713666379
0.765848853204
0.740626617995
0.724191772666
0.737096948085
0.826788760361
1.02570847959
1.25669126248
1.32132978495
1.09025461509
5914.92924268
1462.9696588
438.216412214
146.851584896
53.2907596515
20.4026888452
8.03051703082
3.30412928453
1.59795410964
1.02616246248
0.841840232266
0.78353624224
0.766954446943
0.758968167087
0.772934800078
0.866148360021
1.08056045149
1.35595027861
1.45692547633
1.25964803769
4720.16736918
1186.70808526
369.482315503
127.682273446
46.7121833067
17.6322750713
6.72023901639
2.75817569887
1.41981381109
0.979421409932
0.82799212144
0.775426821541
0.759927072308
0.753531672867
0.76435877674
0.867941693453
1.07691524241
1.38447377753
1.54785646059
1.39862631658
3514.61980668
970.521021491
323.572488564
116.446645867
43.1146448095
15.9779051403
5.99479956205
2.50216087223
1.34179397031
0.940292202378
0.787450432015
0.72852150929
0.71097663623
0.704842600658
0.709750916144
0.794223929271
1.00028759527
1.2965343943
1.53857792101
1.47251870073
2682.90196928
884.701888616
321.616193467
120.800788043
44.8841938657
16.0711133537
5.83364167085
2.43787421867
1.30493595093
0.886768744772
0.712982265369
0.639769521994
0.61624176531
0.613544147242
0.619702497059
0.666196909311
0.835950877734
1.090895456
1.3736789876
1.44295849077
2875.13071202
1055.91422116
398.120762393
146.408749011
51.1026270328
17.3708282925
6.21492626892
2.58767727338
1.3307731651
0.839164847715
0.624950279548
0.527958943002
0.490328718824
0.485971120029
0.49695177524
0.521223396824
0.605502750626
0.816162521483
1.07774778906
1.29058859131
4173.30383274
1518.51782791
513.334619384
170.658986705
56.9818813591
19.8762774137
7.49858608818
3.14144769662
1.51321429899
0.853518991218
0.565601630772
0.432526011102
0.371738385476
0.353383857901
0.360372993302
0.377260920362
0.415859627498
0.528252100504
0.761505463709
1.04570092689
6294.70756898
1952.67990542
568.533130738
175.034666415
60.2387622905
23.1389958501
9.59927373023
4.10094503044
1.89789265898
0.972422392513
0.569802271243
0.386493091421
0.297199932156
0.257084598878
0.249961660357
0.259801001953
0.282049839056
0.33992559411
0.503736709054
0.788607139898
7159.66990703
1890.58039754
549.303772961
175.692792421
64.7921550986
27.401196058
12.2969340341
5.18930927602
2.35923955422
1.17084106448
0.640248959486
0.396579986662
0.275935851547
0.213204320205
0.188844133943
0.189057684178
0.203154325891
0.23980197394
0.337971042022
0.589815838959
7038.97039329
1841.12676128
531.164396527
174.912093574
68.2890253001
31.160795348
15.0111079234
6.22855680949
2.80575219515
1.38944883472
0.750263680038
0.447365783042
0.294328816392
0.210338738521
0.170673644944
0.160946618279
0.168633450813
0.194928599999
0.265847282477
0.469828331326
7054.71195582
1811.24076265
510.789187692
169.264429624
68.3066984655
32.6275178655
15.9752552599
6.99786038371
3.24271773084
1.62154392995
0.877923170363
0.520446333726
0.33491303138
0.231286358373
0.179462117124
0.161352164477
0.1632885813
0.182672671236
0.238628631909
0.401019423254
7461.71468411
1834.12710799
507.911263207
167.788041642
68.0946233179
32.1226476159
15.4809791691
7.33454286803
3.58002655174
1.83828860634
1.01031754485
0.602265394219
0.384767743972
0.264219977661
0.203529136998
0.179110640501
0.17610594646
0.190065556247
0.235741997466
0.37276858829
8253.6670752
1965.45221297
543.350927258
179.161585021
71.2013076215
32.1159976133
15.6206067563
7.70184158624
3.89292138764
2.04126638346
1.13678435644
0.679950458577
0.433168523288
0.30067216277
0.235368917109
0.207267243397
0.200487190527
0.210247303261
0.248521929376
0.369859495487
9104.64980764
2172.62472215
627.76845179
211.892279557
82.6154404528
36.7153508924
17.447633458
8.62082311164
4.37678433137
2.29923122685
1.27728465202
0.755162036051
0.478013844745
0.338271008202
0.272015137994
0.2422411431
0.232587183242
0.238710887005
0.271159153397
0.382090611668
8788.117426
2339.02825118
741.559804636
264.083580122
105.419927019
45.6684823206
21.1385724076
10.2538434401
5.1320687508
2.66092830314
1.44622341819
0.829301373837
0.520957749512
0.377972245474
0.31319340661
0.282793038508
0.270542367792
0.273185056886
0.299853950953
0.400978128166
7342.2887347
2251.94613759
793.822001867
307.282339459
126.591827107
55.0914732252
25.3332511851
12.1801712617
6.04192834143
3.08723335625
1.6239897594
0.898280509978
0.563830150731
0.421329939218
0.359360490865
0.328469807252
0.313455793029
0.312248948462
0.332783471257
0.421964109053
5946.33452051
2021.76844446
759.843247082
309.40328154
132.74077388
59.533275236
27.9553325122
13.6242608898
6.81465766065
3.45584446089
1.7633535424
0.953651971982
0.606450449853
0.468764698674
0.4102883757
0.378691299041
0.360335160185
0.354759147026
0.368453155174
0.442947074796
5208.551258
1743.73982692
665.099504244
279.501599961
124.848725369
58.325714008
28.3606202536
14.2075321625
7.23972872305
3.66242062304
1.83366974456
0.990835167089
0.648576589494
0.519717283155
0.465099411333
0.432395237252
0.41011167577
0.39922697293
0.40545967482
0.461624936854
4786.53607353
1535.0310392
575.219482079
243.490314407
111.659721131
54.0052890867
27.1543698519
14.0110153808
7.27650642006
3.67615849424
1.83319269653
1.01155178539
0.690063682556
0.572530918708
0.521795003578
0.48802993164
0.461183541976
0.443874984087
0.44117392666
0.476471197096
4371.5008737
1365.07106829
500.897144272
210.827203295
97.852916426
48.4173193033
24.9779919623
13.2189366486
6.95538291732
3.50749361541
1.77044206409
1.01717988024
0.727920913688
0.622391047597
0.575839210326
0.541870355935
0.510745232187
0.485097456424
0.470930494376
0.486216259942
4052.64691096
1227.08482709
440.500560553
182.715859986
84.7620664494
42.4101427175
22.2751104615
11.9901921595
6.31872330353
3.18396868971
1.65573894483
1.00542695313
0.754082856498
0.659595773945
0.617724972671
0.586016401017
0.552109338447
0.517744980054
0.488673511652
0.484463860807
3927.18296682
1139.30654682
396.255887645
159.912361779
73.2312694393
36.6726103609
19.4315169613
10.4585781292
5.43818785727
2.76551277972
1.508696116
0.973097412562
0.756900709598
0.670027807188
0.632903173685
0.606313195811
0.571557100936
0.528229453157
0.487241137354
0.465695189846
4012.66695442
1113.42971556
371.708352367
144.74028667
64.8187603831
32.0679353767
16.788499057
8.82730615723
4.5352849976
2.37366075493
1.36863411493
0.923111336634
0.727728246323
0.641942927203
0.604967787779
0.575994501397
0.541113035122
0.500611448565
0.458051361736
0.42779237641
4012.70554914
1100.52777601
361.763277946
138.835687494
60.8644677272
29.273121764
14.8398078875
7.62958602141
3.96581683213
2.1543941948
1.28376509345
0.869541323651
0.671189023594
0.574100278331
0.523339118746
0.491611169893
0.465771388173
0.435903392732
0.401053081715
0.371365411898
3703.56571884
1100.88225883
378.581409536
147.398658645
63.3880339574
29.5121781132
14.606461391
0.00135774813509
0.00181074241882
0.00285853805457
0.00517091218359
0.0101962504779
0.0204757981268
0.0388538445462
0.0658157174255
0.0984640602711
0.133445284329
0.169467709803
0.208040755461
0.254692117384
0.323644367695
0.452239780736
0.739698355383
1.44005253621
0.00507701560262
0.00232094617018
0.0014479798956
0.00153151666199
0.00208748279198
0.00338752884976
0.00623713405805
0.0122782029679
0.0240952706362
0.0439399098636
0.0712467757299
0.102788450167
0.135645178268
0.168954794857
0.204353007111
0.247098257615
0.310533650448
0.430026226799
0.699590415203
1.34056330505
0.00555477972045
0.00288775189421
0.00166932433973
0.00174540906018
0.00243285204541
0.00404928843067
0.0075466992736
0.0147373444661
0.0281147003781
0.0491748205236
0.0764541762858
0.106662031005
0.137343473655
0.168000366046
0.200347973563
0.239359580368
0.297497362526
0.408211028682
0.661408220523
1.25405285232
0.00881512934144
0.00332453191476
0.00195283201114
0.00201041037545
0.00286580663835
0.00487684692559
0.00914575999516
0.017608461906
0.0325062880749
0.054482204264
0.081392968597
0.110087875177
0.138569650536
0.166643794559
0.196067735631
0.231520862723
0.284585952864
0.386814337085
0.624892176232
1.18027701959
0.0168737901313
0.00339367892003
0.00231745588749
0.00234229528896
0.00341212550149
0.00591229521001
0.0110877123713
0.0209214062543
0.0372312397484
0.0597937611669
0.0860327239332
0.11307534942
0.139353023213
0.164921382178
0.191550388014
0.223622215461
0.271844576341
0.365846716709
0.589654264317
1.11792372257
0.0262393787724
0.00334278394864
0.00277532902673
0.00276357964452
0.00410670098666
0.00720852144548
0.0134315684719
0.0246956255184
0.0422387982921
0.065046004436
0.090347954436
0.115630858624
0.139715187497
0.162860100465
0.186824363873
0.215693556661
0.259307404254
0.345315107894
0.5552723543
1.06485529377
0.0451048839925
0.00379250876513
0.00332397691195
0.00330605942179
0.00499509577303
0.00882844087011
0.0162348011372
0.0289296228866
0.0474603509505
0.070170785546
0.0943060635577
0.117748227179
0.139662998448
0.160472318867
0.181904065314
0.207750047993
0.246992632492
0.325219341673
0.521324012906
1.01817015443
0.0733849461143
0.00534998042107
0.00397135645814
0.00401250784222
0.00613165953011
0.0108376019121
0.0195371432416
0.0335848489893
0.0527993943027
0.0750835667779
0.0978571134573
0.119402385438
0.139185234987
0.15775410104
0.176788760856
0.199790953168
0.234899649435
0.305549325196
0.487434108152
0.974401969911
0.108829863178
0.00898626184902
0.00478970581461
0.00493607879524
0.00757257072785
0.0132886898364
0.0233384260601
0.0385717138554
0.0581265553227
0.0796800832839
0.10093438145
0.120553648124
0.138258796147
0.154691919673
0.171469016663
0.191805307787
0.223013530303
0.286288639245
0.453328685635
0.929908005282
0.15184282786
0.0167226440561
0.00593644293002
0.00614095184548
0.00936771667384
0.0162057347988
0.027585437455
0.0437536363438
0.0632927674201
0.0838510030566
0.103470809675
0.121164539352
0.136864430063
0.151276587908
0.165938927668
0.183783223485
0.211316468554
0.267425762178
0.418880540443
0.88137342547
0.205507251487
0.0316331591801
0.0076077436864
0.00771334158263
0.0115569264782
0.0195775733678
0.0321788306335
0.0489721328367
0.0681566611866
0.0875057792027
0.105419688198
0.12121692646
0.135000306991
0.147513880612
0.160204766751
0.175724042949
0.199796490451
0.248962422878
0.384123284326
0.82626810136
0.275201591824
0.0554635926472
0.00998145029429
0.00979355912126
0.0141724233581
0.0233614962307
0.036993526469
0.0540760190376
0.0726066705913
0.0905868422199
0.106763335826
0.120716607805
0.132683747804
0.14342453534
0.154284332045
0.16763589178
0.188448560321
0.230911621098
0.349227958208
0.763140720839
0.365931691857
0.0823044594135
0.0133420887103
0.012649711856
0.0172484932119
0.0274930839919
0.0419001086445
0.0589399686479
0.0765680016471
0.0930690937847
0.107508910082
0.119687485154
0.129945008037
0.139038453149
0.148201983355
0.159532033869
0.177271258281
0.213291730776
0.314463690892
0.691729677893
0.47637190605
0.120575472704
0.0186801958078
0.0167861526679
0.0208508104586
0.0319070732871
0.0467858229142
0.0634739220369
0.0800006860948
0.0949532697507
0.107680820114
0.118164619248
0.126821582793
0.134390354757
0.141985496199
0.151428200153
0.166264697157
0.196119106781
0.280150910077
0.612912281609
0.595297042727
0.181016523891
0.0283420748501
0.0228230004466
0.0251158583077
0.0365548499955
0.0515602651692
0.0676153281531
0.0828856555567
0.0962523491168
0.1073097244
0.116186029217
0.123352345745
0.12951562026
0.135662821284
0.143339624064
0.155425169591
0.179396740885
0.246610367822
0.528529350141
0.693945614637
0.253141575957
0.0471545747939
0.0304583296377
0.0302781511776
0.0413994235907
0.0561350373453
0.071303575536
0.0852024646243
0.0969754268427
0.106421716088
0.11378545112
0.119572270356
0.124445721762
0.129257251246
0.135274462524
0.144735709089
0.163094541786
0.214105846357
0.44117030548
0.805574742719
0.329931826742
0.0831282821012
0.0364333597461
0.0367297053637
0.0464407623128
0.0604252143516
0.0744783401048
0.086930956272
0.0971325931557
0.105044521296
0.110998136554
0.115516592527
0.119209887567
0.122786118365
0.127229807372
0.134157759517
0.147133091146
0.182801980362
0.353965552849
0.923943683578
0.405820184963
0.113759342365
0.036317713525
0.0447640133494
0.0518405621866
0.0644194344199
0.0771291869882
0.0880912796554
0.0967685070385
0.103235708088
0.10788415569
0.111239040011
0.113847629063
0.116267507046
0.119193869547
0.123630910385
0.13137147971
0.152720906268
0.270285055942
1.00439570082
0.483302913883
0.156056809533
0.037419763083
0.0517653385044
0.0580949059399
0.0683066503633
0.0793727069308
0.0887954817398
0.0959993149966
0.101110854621
0.104551734268
0.106833773727
0.108433880597
0.109756463886
0.111204405264
0.113157714036
0.115695770119
0.123779764537
0.193399527531
1.01122335801
0.532096602961
0.2155955149
0.0577798654171
0.0471513140906
0.0656109422419
0.0725958844528
0.0814915960499
0.0892499768211
0.0949972108084
0.0988199640956
0.101133381906
0.102422255095
0.103095331174
0.103419078864
0.103513769996
0.103098512723
0.100534120384
0.0966410804867
0.126775455175
0.946831532411
0.568905075919
0.273287603109
0.0769642338151
0.0343480135986
0.070255156609
0.078142780243
0.0839297479168
0.0897170138258
0.0939439607876
0.0965014204245
0.0977400805523
0.0980977258613
0.0979175132892
0.0973545576069
0.0963348923867
0.0943176553666
0.0893367213945
0.0792918804673
0.0799195847499
0.84499820556
0.59668366262
0.331459136462
0.120846181801
0.0402365175854
0.0580001544309
0.0851928577746
0.0873730854783
0.0905494249203
0.0930585666723
0.0943134346394
0.0944979088156
0.0939636429235
0.0929783939231
0.0915975245262
0.0896086369938
0.0865431201018
0.0817886196382
0.0740683179283
0.0589127150967
0.743870776292
0.616814556661
0.384036249525
0.179548054018
0.0607446195865
0.0381980006351
0.0862252929496
0.0927903268082
0.092290695953
0.092666707582
0.0924911512959
0.0916000912245
0.0901886482885
0.0884277882505
0.0862918299373
0.0835072551185
0.079839799478
0.0765251508509
0.0783954550982
0.0867327849413
0.668130317696
0.640940607785
0.452899945995
0.254392055515
0.0915325834851
0.0409256078608
0.0642530586538
0.0993205619458
0.0957392312038
0.0932021997601
0.0913184344386
0.0892627653514
0.0869660448987
0.0845067931628
0.0819269846321
0.079266779276
0.0769632276528
0.0774062705959
0.0887905570862
0.133338061123
0.62677914989
0.673035247243
0.541575707429
0.351096449032
0.151746626659
0.0600066727198
0.0408700774767
0.0937767236067
0.101632939376
0.0952662507984
0.0911922294663
0.0878085476816
0.0845947948982
0.0815035614727
0.0787277596662
0.0768385430844
0.077322895897
0.083767030481
0.107031035189
0.190946683772
0.613713533087
0.712728276157
0.639455893437
0.449645837032
0.232010267895
0.0852117935564
0.0444669288358
0.0636397086447
0.106654912393
0.0997934321559
0.0928032032303
0.0878993054749
0.0838160592211
0.0802582931288
0.0774833602423
0.0764411074692
0.0794012766942
0.0917208149739
0.129059943316
0.258328942065
0.617542757954
0.7565729986
0.74196214306
0.563259813061
0.332309171864
0.139130383343
0.0619443035203
0.0430281184709
0.0936522301794
0.10686300074
0.0972603844238
0.0907870625666
0.0862700797702
0.0830972557189
0.0814590611763
0.0825074974246
0.0893432637341
0.109777485631
0.166871254812
0.352520623466
0.628476822639
0.80413965834
0.844323731845
0.691653593856
0.437670336848
0.209756578417
0.081778109331
0.0478101232405
0.0634222493985
0.110613470633
0.107138915925
0.10041611186
0.0979722902508
0.0984971676221
0.101597579414
0.108867035258
0.124884503211
0.161628414177
0.252713399719
0.515633334101
0.643081263787
0.851536476603
0.945553147912
0.832128659965
0.557409439022
0.300211596379
0.128872630211
0.0677778381195
0.0482711859653
0.0998203384865
0.127598362147
0.127846797907
0.133206682633
0.142629241481
0.155810392889
0.175552795925
0.210004835062
0.279180156799
0.431526478244
0.810295210389
0.657058036361
0.895831980203
1.03959006954
0.97639446272
0.703161003582
0.418033676853
0.196357327034
0.0832417028822
0.0551712142882
0.0816862112884
0.15746805206
0.18532653031
0.202221450582
0.223430626056
0.250254952091
0.288957786682
0.354885524464
0.481580539185
0.739603785963
1.31025523367
0.665489352924
0.931405684898
1.12022420002
1.11622877283
0.872719363187
0.556058095412
0.293257623718
0.133393455422
0.0832849116927
0.0723994068142
0.167133510923
0.258488913951
0.295820190937
0.329962857092
0.374821417687
0.442230924872
0.5570568381
0.773053267758
1.20128101118
2.10280539869
0.664713030274
0.947985815548
1.17729739796
1.23367701047
1.0505622032
0.734508321721
0.443093863686
0.222075123522
0.110773031425
0.0848026696406
0.134612603498
0.294836330902
0.398242020753
0.457834914543
0.530355888071
0.639182360826
0.817423488214
1.14649055592
1.81572641867
3.25737672587
0.647915123833
0.933020298479
1.19667235283
1.3029375646
1.2054009779
0.946904017958
0.65100472097
0.380611130406
0.196527264287
0.133701219023
0.110021262862
0.221665570841
0.450709330827
0.59618158116
0.720794529142
0.901550931487
1.15842924611
1.60059171624
2.54915842635
4.76493055783
0.608403964849
0.877235892307
1.16355483023
1.31025249204
1.28580330005
1.11433385762
0.874694239151
0.63584083682
0.384053643342
0.215712091773
0.163149690709
0.152962884792
0.25219192946
0.353617974938
0.537077794993
0.979821079313
1.50336813236
2.15836315442
3.36999208507
6.51847821512
0.553323922414
0.784841245508
1.06618538511
1.24634334848
1.27434395126
1.18104338329
1.01639171803
0.823835808862
0.645200901604
0.473291932355
0.309354927248
0.211921588422
0.236556917877
0.239919231723
0.277985858633
0.387853841947
0.76695633777
1.65770101283
3.5980120275
8.34213245682
0.491339609868
0.64931531164
0.908411827305
1.10634998952
1.17604351086
1.14282783318
1.04448877704
0.915176791291
0.780174365532
0.659741556075
0.569166817995
0.47573968885
0.381994768998
0.332933298868
0.325184980429
0.367992980756
0.553070053687
0.792706107135
1.27939610576
9.84655427494
0.426520546364
0.50807852996
0.71784518996
0.906853381662
1.01060831274
1.02855136018
0.988208714063
0.915209704605
0.831051294183
0.749914152342
0.677362634852
0.618449172972
0.566250883915
0.517472305898
0.493227017714
0.53980697832
0.725083581926
1.02379203118
1.40002040769
10.7284582464
0.358574299147
0.391202133642
0.51880017087
0.692011202417
0.812998633192
0.87487281074
0.891216457507
0.875502047685
0.843870747746
0.807578347757
0.773091173984
0.742187310015
0.712935637752
0.684564156425
0.692077353322
0.809137023906
1.21668276981
2.39865565792
2.58506020943
11.2810365747
)
;

boundaryField
{
    emptyPatch
    {
        type            empty;
    }
    minY
    {
        type            fixedValue;
        value           nonuniform List<scalar> 0();
    }
    maxY
    {
        type            inletOutlet;
        inletValue      nonuniform List<scalar> 0();
        value           nonuniform List<scalar> 0();
    }
    water_to_cooler
    {
        type            epsilonWallFunction;
        blending        stepwise;
        value           nonuniform List<scalar> 
38
(
15.8913067161
14.982060778
14.1322384485
13.3380398152
12.5931909565
11.8892834345
11.216098036
10.5625070557
9.91797159931
9.27421278027
8.62639570258
7.97357924169
7.31866835686
6.66793597865
6.03021921302
5.41603302853
4.83702023989
4.30546743988
3.83200716723
3.42270180405
3.11679709665
2.92654825543
2.9091430311
2.94890951473
3.05277420923
3.26640695781
3.89373742271
5.60993487827
9.38200654893
16.0212366772
25.9858156513
39.1964742314
54.8742814677
71.8221949461
88.3763141151
98.8251831411
99.9095015403
96.2629805422
)
;
    }
    water_to_heater
    {
        type            epsilonWallFunction;
        blending        stepwise;
        value           nonuniform List<scalar> 
60
(
11590.7145448
11590.7145448
20970.1064643
27139.3291567
28604.4408253
28604.4408253
27828.8223518
27828.8223518
26240.0904477
26240.0904477
24753.5673516
23853.2366403
23933.5654361
23933.5654361
24812.1571587
24812.1571587
26444.7701408
26444.7701408
27125.8254829
25367.1419637
22168.2790545
22168.2790545
18145.6348549
18145.6348549
13341.3672367
13341.3672367
9353.61811966
7750.74874659
9748.05141702
9748.05141702
15987.4989941
15987.4989941
25350.9530147
25350.9530147
30490.4822058
31082.3281309
31495.3763541
31495.3763541
32854.9001024
32854.9001024
35437.7617946
35437.7617946
38130.1081445
35885.7956356
28425.257863
28425.257863
22009.0521956
22009.0521956
18374.3207032
18374.3207032
16057.8374089
14137.5053644
12565.2344094
12565.2344094
11630.185072
11630.185072
11234.6138914
11234.6138914
10750.6369013
10205.7554115
)
;
    }
    procBoundary3to1
    {
        type            processor;
        value           nonuniform List<scalar> 
41
(
7.53214118577
4.00701660806
2.20906130341
1.30104107822
0.844742115104
0.612969752316
0.490873140323
0.423138088783
0.384571508846
0.363487513164
0.344899479496
0.323722550741
0.303818188146
3707.32096674
1201.96552358
434.675176839
172.04302046
72.8508644933
33.1370030959
7.53214118577
16.0978582756
0.291472539764
0.304099731494
0.370224938821
0.495118718027
0.626377125621
0.722128495807
0.78726117151
0.829657167666
0.857760700501
0.880622853279
0.903734976447
0.926121308271
0.945962002226
0.975738432283
1.07663185116
1.42643962998
3.07078332656
9.30181877757
7.13593535521
13.8414802718
)
;
    }
    procBoundary3to2
    {
        type            processor;
        value           nonuniform List<scalar> 
41
(
2272.76279027
687.651565354
209.597409673
80.6211229937
29.3223069289
9.88823368729
3.62989583714
1.57158358916
0.833965017432
0.543243966934
0.412512174887
0.342908160923
0.310744550907
0.326660708904
0.388601267254
0.451959334938
0.430763872849
0.309895754524
0.152775515961
0.0263297011709
0.00121612340586
0.00158828472632
0.00243591555872
0.00430790064076
0.00845339161105
0.0172700850089
0.0339960538115
0.0602236914374
0.0936972858853
0.130718945439
0.169501092347
0.211369633369
0.262098146064
0.336785616116
0.474851493634
0.782041744611
1.55349774912
0.00518988902936
0.0018471467346
0.00127291444555
0.00127291444555
)
;
    }
}


// ************************************************************************* //
