/*--------------------------------*- C++ -*----------------------------------*\
| =========                 |                                                 |
| \\      /  F ield         | OpenFOAM: The Open Source CFD Toolbox           |
|  \\    /   O peration     | Version:  2312                                  |
|   \\  /    A nd           | Website:  www.openfoam.com                      |
|    \\/     M anipulation  |                                                 |
\*---------------------------------------------------------------------------*/
FoamFile
{
    version     2.0;
    format      ascii;
    arch        "LSB;label=32;scalar=64";
    class       volVectorField;
    location    "0.77/water";
    object      U.gas;
}
// * * * * * * * * * * * * * * * * * * * * * * * * * * * * * * * * * * * * * //

dimensions      [0 1 -1 0 0 0 0];

internalField   nonuniform List<vector> 
1504
(
(0.0111035824218 1.69773329878 0)
(-0.0182891637065 1.77035902112 0)
(-0.0673072425673 1.89512816476 0)
(-0.0775141311947 2.00109869047 0)
(-0.0761958264515 1.51715538685 0)
(-0.0677558165647 1.13885273179 0)
(-0.0555106959128 0.967762217858 0)
(-0.0418737762103 0.869612706847 0)
(-0.0291461827331 0.80013514609 0)
(-0.0176186618815 0.758619660335 0)
(-0.00589725078564 0.727290409231 0)
(0.00566859376235 0.694549337916 0)
(0.0151533603047 0.659010558094 0)
(0.0214580774826 0.626425694778 0)
(0.0249175521769 0.610272362698 0)
(0.0258150264995 0.59873112881 0)
(0.0238174585457 0.566532293882 0)
(0.0187582182756 0.513140757521 0)
(0.0101868653156 0.463880146652 0)
(-0.00227430675368 0.444535741453 0)
(0.00195877897648 2.04815020553 0)
(-0.0432451640412 2.16352543585 0)
(-0.0925043537295 1.94920760736 0)
(-0.0866443086787 1.96955991874 0)
(-0.0720321225196 1.45714398462 0)
(-0.0600054154047 1.0842299463 0)
(-0.0478039816022 0.921879932699 0)
(-0.0337431905823 0.832260762706 0)
(-0.0202843127703 0.771979588946 0)
(-0.00806825562696 0.737196639803 0)
(0.00406678509294 0.709011491171 0)
(0.0155768924792 0.679110506478 0)
(0.0248071722413 0.646084230373 0)
(0.0308351537719 0.615293264743 0)
(0.033859669904 0.598001936865 0)
(0.0342704576166 0.587317652756 0)
(0.0320477105884 0.558070498703 0)
(0.0270728547552 0.511036207713 0)
(0.0193634597631 0.459099839604 0)
(0.00805861780919 0.436293130558 0)
(0.0239753080982 2.16913463789 0)
(0.0428976731253 2.39405060458 0)
(0.00830988455641 2.09388243081 0)
(-0.0227107864135 1.93363967166 0)
(-0.0238647650851 1.40792138207 0)
(-0.0231961181728 1.04961585664 0)
(-0.0189351087167 0.889841529269 0)
(-0.00936741524289 0.805151131792 0)
(0.00181914866789 0.752091061033 0)
(0.0129491947662 0.721583793997 0)
(0.0240610693839 0.695562354073 0)
(0.0342499044091 0.667777138155 0)
(0.042066564857 0.637006925888 0)
(0.0467144782105 0.607876433807 0)
(0.0481828605881 0.589235093567 0)
(0.0474085540953 0.578102260587 0)
(0.0446692345973 0.551993727043 0)
(0.0390767987149 0.51092716914 0)
(0.030960770957 0.458200868596 0)
(0.0200970631681 0.430891711719 0)
(0.0308582923204 2.06655481052 0)
(0.0627760024334 2.38109009197 0)
(0.0615638457004 2.22060702223 0)
(0.0462499053683 1.98849391242 0)
(0.0284041650364 1.41277046364 0)
(0.0200542498811 1.05419044631 0)
(0.017269072953 0.883654982378 0)
(0.0216891477055 0.795833234107 0)
(0.0300407499003 0.744752589912 0)
(0.0397827743177 0.715080500681 0)
(0.0496113053513 0.68964529825 0)
(0.0581823899342 0.662863763927 0)
(0.0640694404793 0.633634719315 0)
(0.0665833536123 0.605644196729 0)
(0.0660095747375 0.585606561331 0)
(0.0640558278986 0.572620760245 0)
(0.0606936658383 0.549826675458 0)
(0.0539203697154 0.51434914751 0)
(0.0444489878816 0.462801565525 0)
(0.0332677013582 0.429333198994 0)
(0.0282531180535 1.92460360631 0)
(0.0614417086927 2.31759091782 0)
(0.0656397463629 2.20173945739 0)
(0.0654263080285 2.02972375648 0)
(0.0619664625534 1.44169249654 0)
(0.0543644101792 1.07998818368 0)
(0.0502955418387 0.896393814247 0)
(0.052420815164 0.801104968386 0)
(0.0591614352785 0.748039763496 0)
(0.0679793831021 0.71708402154 0)
(0.0767060002033 0.691126312177 0)
(0.0837318431963 0.664550497736 0)
(0.0875681493876 0.636246079285 0)
(0.0875370392233 0.608915837309 0)
(0.0850338939851 0.587546203837 0)
(0.0823390234455 0.572010346926 0)
(0.078318474999 0.552232688107 0)
(0.0698928688745 0.522298989768 0)
(0.0583173675406 0.473223278693 0)
(0.0463370067773 0.43242162342 0)
(0.0262904930608 1.79773762944 0)
(0.0581821334351 2.22883203666 0)
(0.0678665289691 2.15734654637 0)
(0.0758072436593 1.99366873195 0)
(0.0797423977004 1.45272337446 0)
(0.0782623223273 1.10356884007 0)
(0.0768888639927 0.91575855444 0)
(0.0796813446301 0.814604132929 0)
(0.0865469272089 0.758715617314 0)
(0.0951355583675 0.725903211809 0)
(0.102945020087 0.698814864453 0)
(0.108617656864 0.672002182843 0)
(0.110215016679 0.644142751994 0)
(0.10728354419 0.617137429075 0)
(0.103171471282 0.594686101651 0)
(0.100418314075 0.576869667979 0)
(0.0959943334276 0.559534353166 0)
(0.0855239708474 0.535203229893 0)
(0.0712974081549 0.488836948863 0)
(0.0582814137169 0.440595960388 0)
(0.023629716068 1.69391153324 0)
(0.0517607864844 2.14062752106 0)
(0.061478428945 2.08681473393 0)
(0.0746821718101 1.92688565429 0)
(0.0878314414056 1.42619751098 0)
(0.0943341360797 1.11281406672 0)
(0.0974636124203 0.933116763043 0)
(0.102805548609 0.831198147727 0)
(0.111134147578 0.774149771192 0)
(0.120002863668 0.739804751221 0)
(0.12723103203 0.711457825507 0)
(0.131644408798 0.684225418827 0)
(0.130548514311 0.65639694608 0)
(0.124641544366 0.62956114546 0)
(0.119517525794 0.606662097311 0)
(0.117398403928 0.587546842168 0)
(0.112621032073 0.572225786815 0)
(0.0995032363532 0.55304442051 0)
(0.0823697905891 0.509145048638 0)
(0.0684051363454 0.454067602586 0)
(0.0179879941616 1.63914507831 0)
(0.0370403400101 2.08038335712 0)
(0.0417374515636 2.02326968594 0)
(0.06455661545 1.79327076949 0)
(0.0925469824573 1.36632231228 0)
(0.105545735065 1.10605558317 0)
(0.113604778725 0.944835181081 0)
(0.122640443225 0.848067422416 0)
(0.133306549232 0.792759312895 0)
(0.142584476714 0.757591117734 0)
(0.149127422289 0.72816208395 0)
(0.151997749468 0.700482831517 0)
(0.148083884348 0.672455900634 0)
(0.13983962126 0.645889370336 0)
(0.134333296042 0.623315367843 0)
(0.132773312391 0.604097578471 0)
(0.126947855675 0.590534571633 0)
(0.11078823126 0.575572532504 0)
(0.0911578411349 0.533932162075 0)
(0.0764807288621 0.47281733854 0)
(0.0119544604037 1.6544409439 0)
(0.0225575486694 2.06250769649 0)
(0.0315902059563 1.94661901412 0)
(0.0651897874553 1.59598886304 0)
(0.0984651711461 1.29417825364 0)
(0.115094373052 1.0886527584 0)
(0.127859154056 0.951373977635 0)
(0.141046389013 0.864803962834 0)
(0.153830732867 0.813792609572 0)
(0.162781298558 0.778364181131 0)
(0.168304494367 0.748211853993 0)
(0.169466372071 0.720132506365 0)
(0.162912236424 0.691854986223 0)
(0.153200035778 0.665852134517 0)
(0.147773997317 0.644203012096 0)
(0.14599554842 0.625815591471 0)
(0.138054432662 0.61410204523 0)
(0.119089394243 0.602551567924 0)
(0.0978286964367 0.563179297805 0)
(0.0824894901274 0.496627249338 0)
(0.00696995742045 1.73643195007 0)
(0.0118361488173 2.0752188088 0)
(0.0389854788369 1.7557995588 0)
(0.0820348234584 1.43455598754 0)
(0.106315428985 1.2272498954 0)
(0.125366933123 1.06767071602 0)
(0.142427910367 0.955626623273 0)
(0.159120413498 0.882671415444 0)
(0.172360073327 0.836585397413 0)
(0.179932599244 0.801267767649 0)
(0.184154780816 0.770850061358 0)
(0.183368124814 0.742434801021 0)
(0.1748974372 0.714092065117 0)
(0.164707024983 0.688965040705 0)
(0.159305665331 0.668488712895 0)
(0.156234569097 0.651409454131 0)
(0.145471055199 0.642026163316 0)
(0.124413157286 0.633347756516 0)
(0.102364613436 0.59656333007 0)
(0.0862467370378 0.525221535598 0)
(-0.00203430969518 1.90482902333 0)
(0.025741050147 1.94829472865 0)
(0.0694010212204 1.55643154892 0)
(0.0955330141535 1.33703012192 0)
(0.118406448757 1.17381427761 0)
(0.139228890257 1.05064968021 0)
(0.15966579874 0.962723642801 0)
(0.177317909047 0.903259611153 0)
(0.188043978429 0.860772411323 0)
(0.193372159725 0.826039263495 0)
(0.196261874561 0.795621000836 0)
(0.193674587156 0.76691169868 0)
(0.184077589408 0.738736304662 0)
(0.173840050831 0.714551241885 0)
(0.16785081924 0.694905799931 0)
(0.162249733782 0.679199986346 0)
(0.148390011044 0.672605634867 0)
(0.126385448481 0.666442623793 0)
(0.104588691703 0.632682673615 0)
(0.0877557133039 0.558505380388 0)
(0.0166639973118 2.01371630327 0)
(0.0531801750646 1.7266929296 0)
(0.0857850393264 1.44751336703 0)
(0.110359571479 1.26492308968 0)
(0.133601440836 1.13746257454 0)
(0.156681694994 1.04415275277 0)
(0.177701634084 0.976352195928 0)
(0.191666998831 0.926336178966 0)
(0.198458325085 0.886369904554 0)
(0.20207000225 0.85256464617 0)
(0.203501430961 0.82213970257 0)
(0.199560966142 0.793048114471 0)
(0.189617692975 0.765083994254 0)
(0.17919586138 0.741400347139 0)
(0.171398721679 0.721698302398 0)
(0.162147202671 0.707099089071 0)
(0.145861033972 0.703659602975 0)
(0.124612084089 0.70008149496 0)
(0.104467856973 0.669499785704 0)
(0.0872996559594 0.596036069329 0)
(0.0245620513506 1.9608524404 0)
(0.0688673117586 1.58388339984 0)
(0.100881934299 1.36043177608 0)
(0.12637124707 1.21548603716 0)
(0.151720697334 1.1193703582 0)
(0.173962999499 1.04925242443 0)
(0.18954213995 0.995032558168 0)
(0.197741701724 0.950742618193 0)
(0.202337152617 0.913153445664 0)
(0.204767510902 0.88013222189 0)
(0.20459038188 0.849626606999 0)
(0.199815519604 0.82009063357 0)
(0.189794003982 0.792021443337 0)
(0.178284027724 0.76798724233 0)
(0.16737911555 0.747144630905 0)
(0.154690356732 0.733403529082 0)
(0.138022927675 0.733496511353 0)
(0.119511092303 0.732880888615 0)
(0.102082691545 0.704860644789 0)
(0.0842277832854 0.635574769313 0)
(0.0246665967276 1.84157205027 0)
(0.0747513790322 1.46856422528 0)
(0.113784154051 1.29499030622 0)
(0.141810310476 1.18737702852 0)
(0.165571633048 1.11679637369 0)
(0.180664185728 1.06227303117 0)
(0.190108764489 1.01662927901 0)
(0.196595787769 0.976545056675 0)
(0.200449326702 0.940645849156 0)
(0.201029784576 0.908013257031 0)
(0.198675301383 0.877443233073 0)
(0.192662284356 0.847609325033 0)
(0.182298927857 0.818920437196 0)
(0.168920445999 0.793412059151 0)
(0.154799610726 0.770663932376 0)
(0.140486067906 0.757125151169 0)
(0.125353752773 0.760462708181 0)
(0.110237658046 0.763008990643 0)
(0.0950298541926 0.736881624453 0)
(0.07704827209 0.673756155534 0)
(0.0232751896414 1.66963014775 0)
(0.0791404003655 1.3720363396 0)
(0.123871941259 1.25429746101 0)
(0.147953723298 1.17949874362 0)
(0.165559282115 1.12689845408 0)
(0.176519771347 1.08311837037 0)
(0.185947118622 1.04308851216 0)
(0.191879120178 1.00502836376 0)
(0.193179906304 0.969394281981 0)
(0.190441579545 0.936789400952 0)
(0.184795022192 0.906213302078 0)
(0.176568416493 0.876071377182 0)
(0.164621744422 0.846160062678 0)
(0.149367397203 0.818148030461 0)
(0.133732716432 0.792912611463 0)
(0.119475263305 0.777484760905 0)
(0.10667110565 0.782311948812 0)
(0.0951659912511 0.788321268996 0)
(0.0827886502103 0.765026244682 0)
(0.0673900593357 0.707842115561 0)
(0.0213336568369 1.50630306907 0)
(0.0846473576521 1.32371338224 0)
(0.131708677165 1.25208833061 0)
(0.146001118522 1.19848794393 0)
(0.161452774362 1.15722635889 0)
(0.173146771481 1.11884638523 0)
(0.181045978474 1.07924174983 0)
(0.182708311485 1.03922731652 0)
(0.178484265009 1.00217255989 0)
(0.17016138778 0.969095311293 0)
(0.159756391147 0.938182505734 0)
(0.147954430168 0.907012542556 0)
(0.133815369753 0.874895634044 0)
(0.117974181003 0.843488996793 0)
(0.103127336312 0.814860533953 0)
(0.0906699213052 0.794834340515 0)
(0.0814193371412 0.796448355968 0)
(0.074993546148 0.805424174526 0)
(0.0673739872943 0.787566276473 0)
(0.0562708547896 0.735373272321 0)
(0.0210825609571 1.52780339475 0)
(0.0892218270103 1.36233404524 0)
(0.137005088951 1.30813211217 0)
(0.14552031733 1.26157018837 0)
(0.158246992945 1.22137674648 0)
(0.165418802298 1.17850295283 0)
(0.166018264722 1.1305227227 0)
(0.159079448533 1.08343969651 0)
(0.146348684119 1.04260247612 0)
(0.131132906902 1.00748239549 0)
(0.115853892015 0.974423146603 0)
(0.101111808075 0.94037856748 0)
(0.0862222454596 0.904544224456 0)
(0.0722294906905 0.86879410009 0)
(0.0609519706909 0.835637011544 0)
(0.0525388134461 0.809362358124 0)
(0.0484796749484 0.801230714532 0)
(0.0490892095255 0.808559676358 0)
(0.0489521866724 0.799025870256 0)
(0.0441496219488 0.753140709957 0)
(0.03070800329 1.74258350541 0)
(0.103069137491 1.51976637237 0)
(0.138441535488 1.44915634051 0)
(0.131584829567 1.39223968709 0)
(0.12875028327 1.33613274182 0)
(0.122053163231 1.27053828157 0)
(0.110131267407 1.1986974441 0)
(0.0931499412497 1.13553970623 0)
(0.0742869589935 1.08600454569 0)
(0.0567405033271 1.04492448243 0)
(0.0420053269089 1.00652817126 0)
(0.0298718753087 0.967395009471 0)
(0.0195087409836 0.926802300847 0)
(0.0114270652139 0.886511782171 0)
(0.00627499267345 0.848825807022 0)
(0.00442180717844 0.816881798037 0)
(0.00776908454448 0.797111788239 0)
(0.0170773459889 0.794503062665 0)
(0.0269783686864 0.792372616478 0)
(0.0302185438422 0.757962063971 0)
(0.0507174904082 1.98615792507 0)
(0.107885843066 1.75544672005 0)
(0.0911468087432 1.65963799937 0)
(0.0491663305036 1.57807026171 0)
(0.0161123265887 1.48528344853 0)
(-0.00920225119414 1.3724908317 0)
(-0.0289162201884 1.25441115601 0)
(-0.0436007610542 1.16297108446 0)
(-0.0535213744718 1.1009081275 0)
(-0.0593140228045 1.05328482086 0)
(-0.0616377396033 1.01050975174 0)
(-0.0615185484779 0.968165511521 0)
(-0.0597949146382 0.925321646673 0)
(-0.0568990216461 0.883098002658 0)
(-0.0526758841414 0.843657348364 0)
(-0.04602467388 0.809366060474 0)
(-0.034594545838 0.782692151707 0)
(-0.0169543233193 0.76749336155 0)
(0.00292490739114 0.764358093868 0)
(0.0148594046195 0.747753728577 0)
(0.0647791119193 2.04520616615 0)
(0.0864094707057 1.94923615898 0)
(0.00999680471769 1.84048168927 0)
(-0.0532424863613 1.72805503368 0)
(-0.107400042173 1.59796630232 0)
(-0.149625993538 1.43787491561 0)
(-0.177329021253 1.26558598364 0)
(-0.187969751327 1.13397456668 0)
(-0.184303691357 1.05612333234 0)
(-0.172612302891 1.00673181724 0)
(-0.157678165702 0.96689672784 0)
(-0.141734145493 0.928457516125 0)
(-0.125880458467 0.88957066315 0)
(-0.110862848033 0.850853129176 0)
(-0.096584406672 0.814403615416 0)
(-0.0818464678499 0.78230002425 0)
(-0.0646115742877 0.754942918567 0)
(-0.0420868642118 0.733002190153 0)
(-0.0159176776367 0.721740298407 0)
(0.00371487813733 0.721418205558 0)
(0.0583145266431 1.80325982844 0)
(0.0828853635843 2.04409535178 0)
(0.0193905882008 1.96545973486 0)
(-0.0411900363444 1.83860532579 0)
(-0.0997698294083 1.67872074022 0)
(-0.151283323469 1.47983319098 0)
(-0.192049205419 1.25325472974 0)
(-0.215258060751 1.06994050465 0)
(-0.219140802276 0.974353071497 0)
(-0.208657590733 0.92199228527 0)
(-0.189795909117 0.889301488981 0)
(-0.167777032496 0.860432551476 0)
(-0.145689582729 0.830102150391 0)
(-0.125221675635 0.798877484768 0)
(-0.106535462429 0.768723811007 0)
(-0.0884417382272 0.741804608629 0)
(-0.0692841641516 0.717615088564 0)
(-0.0473087140045 0.694864057669 0)
(-0.0210965292503 0.677226403198 0)
(0.00259156412014 0.6820931473 0)
(0.0156811035109 1.55613418142 0)
(0.0275970917513 2.05553400719 0)
(0.0170166089144 2.03211012293 0)
(0.00269125448524 1.91080222531 0)
(-0.0183820830874 1.75927169133 0)
(-0.0547662714687 1.56998620547 0)
(-0.103017647439 1.30951533082 0)
(-0.137505417646 1.02264413541 0)
(-0.151278772926 0.907452161968 0)
(-0.15539609567 0.846407971613 0)
(-0.149196869082 0.814303917802 0)
(-0.134600825928 0.793738150844 0)
(-0.116071551235 0.771257728755 0)
(-0.0979553083661 0.747037212951 0)
(-0.0815858902915 0.722824884528 0)
(-0.065964479614 0.701038930366 0)
(-0.0493258433445 0.680869643855 0)
(-0.0304439640083 0.659727402435 0)
(-0.00863808860203 0.63977466715 0)
(0.0124318268109 0.639352059669 0)
(0.0081686542329 1.48306648169 0)
(0.0145899463458 2.04420569745 0)
(0.010819836576 2.04664369331 0)
(0.00717583437873 1.93061085352 0)
(0.00227250634515 1.81090793673 0)
(-0.0076355679306 1.66409446896 0)
(-0.0304371176089 1.4299552516 0)
(-0.0535614670814 1.02320469336 0)
(-0.0649898239462 0.883101092334 0)
(-0.0718093848353 0.809517815192 0)
(-0.0740699893563 0.769240626074 0)
(-0.0697356406006 0.749895841131 0)
(-0.0591453366943 0.730956308705 0)
(-0.0470052449244 0.71032297884 0)
(-0.0361111915635 0.689345158776 0)
(-0.02585845651 0.670488713149 0)
(-0.014381589044 0.653062468057 0)
(-0.000103746143323 0.633893612889 0)
(0.015915104946 0.613393901394 0)
(0.0309132620913 0.604848171627 0)
(0.00262142418739 1.4806740617 0)
(0.00262388281286 2.05855096092 0)
(-0.000160659033378 2.05709664491 0)
(0.000734563948746 1.93988677823 0)
(0.00268942863131 1.82960810504 0)
(0.00305912148753 1.69987435862 0)
(0.00613664051207 1.4775444453 0)
(0.00673725362452 1.05014423391 0)
(0.00146685363412 0.893061369483 0)
(-0.00184744745127 0.807680314112 0)
(-0.00330537329811 0.757742340405 0)
(-0.00221308858721 0.73351351429 0)
(0.00251916524497 0.71357244069 0)
(0.00880842396226 0.692988649951 0)
(0.014266213005 0.672448929161 0)
(0.0190474969785 0.654088934421 0)
(0.024903304776 0.637492282061 0)
(0.0337210256802 0.619598184687 0)
(0.0452699995845 0.599123631821 0)
(0.0554753069637 0.584504383278 0)
(-0.00335816776301 1.5467588326 0)
(-0.010654409783 2.10151626124 0)
(-0.0145892610497 2.07405907118 0)
(-0.0135013648343 1.95042273073 0)
(-0.0114071853997 1.8419333453 0)
(-0.00477581898171 1.69640999453 0)
(0.0216986375063 1.39096298071 0)
(0.0444413357216 1.06608680557 0)
(0.0467874750801 0.913075779177 0)
(0.0482771112981 0.823052961622 0)
(0.0506346465058 0.767365541704 0)
(0.0531851790429 0.737591087687 0)
(0.0558278868953 0.714296490604 0)
(0.0584642632393 0.691699026757 0)
(0.0601784553195 0.669866615847 0)
(0.060907008204 0.6504448469 0)
(0.0622489672784 0.633226409964 0)
(0.0663764559884 0.615545603539 0)
(0.0745305584544 0.595219185629 0)
(0.0813421893879 0.576852357044 0)
(-0.00728906293321 1.67515980808 0)
(-0.0166583348112 2.17010682715 0)
(-0.0187339756864 2.11103119568 0)
(-0.0187030787575 1.98086656001 0)
(-0.0146029803859 1.85072582485 0)
(0.0157895410905 1.58710152769 0)
(0.0533167735577 1.28420025357 0)
(0.0695505520447 1.06510673023 0)
(0.0777853130261 0.929147013024 0)
(0.0843024354558 0.841995858587 0)
(0.0908682134214 0.786020295359 0)
(0.0958089138494 0.752857712356 0)
(0.0980700587923 0.725982969718 0)
(0.0988220817074 0.700821509764 0)
(0.0982962991298 0.677082109165 0)
(0.096413759356 0.655979371212 0)
(0.0945955037783 0.637436390461 0)
(0.0951249003713 0.619190047606 0)
(0.100274792851 0.598760978597 0)
(0.10432851693 0.578415677425 0)
(-0.00527535776769 1.80825285231 0)
(-0.00720875241687 2.22941340625 0)
(-0.00267315681854 2.15686825413 0)
(0.000233444295189 2.01451299675 0)
(0.0231335920393 1.7696489717 0)
(0.0555035993522 1.4551500591 0)
(0.07569861977 1.23278617495 0)
(0.0907750249122 1.05852023343 0)
(0.102198546934 0.940276664743 0)
(0.113149764258 0.860315611008 0)
(0.123185358065 0.808139261235 0)
(0.129088913373 0.773064754412 0)
(0.130784721809 0.743249531026 0)
(0.13060091816 0.715801891212 0)
(0.128761358324 0.690226139222 0)
(0.125226591773 0.66743861189 0)
(0.121259212783 0.647419200464 0)
(0.119070878273 0.628274447995 0)
(0.121378571658 0.60744615635 0)
(0.123127908325 0.586163357737 0)
(0.00738393511646 1.85186435719 0)
(0.0217975012536 2.24869030322 0)
(0.03287730034 2.18332408579 0)
(0.0501367062403 1.9789625479 0)
(0.0714289310754 1.66115895638 0)
(0.0866518314077 1.40095167072 0)
(0.100382749942 1.2025508649 0)
(0.113327668328 1.05420879539 0)
(0.126497856668 0.949823543695 0)
(0.140231472894 0.878419735188 0)
(0.15111078659 0.830785006611 0)
(0.155849272763 0.79434801111 0)
(0.156719483349 0.762673763074 0)
(0.156044405343 0.733618298243 0)
(0.153353998996 0.706626982671 0)
(0.148668212359 0.682447798465 0)
(0.143141797676 0.661093382566 0)
(0.138858235442 0.640985369844 0)
(0.138546098157 0.619693711713 0)
(0.138021209862 0.59761589627 0)
(0.0175419839486 1.91238689519 0)
(0.0484237655917 2.1899995979 0)
(0.0743973100525 2.13057079225 0)
(0.0945343774238 1.89704497141 0)
(0.106683706059 1.61514900298 0)
(0.115797408134 1.37286485591 0)
(0.125838360513 1.18955941978 0)
(0.138076566905 1.05512701569 0)
(0.152503956316 0.960855362575 0)
(0.16677266609 0.897507090168 0)
(0.175644555714 0.852552975884 0)
(0.178483091035 0.815407384311 0)
(0.178826497593 0.782858980591 0)
(0.177529298047 0.75284697819 0)
(0.173980586438 0.724888242513 0)
(0.168276745139 0.699645171055 0)
(0.161465758464 0.677144061034 0)
(0.155434609495 0.656067646628 0)
(0.152634261597 0.634258275986 0)
(0.149864575582 0.611265740386 0)
(0.0452982917943 1.97786361824 0)
(0.0949409798164 2.0860171756 0)
(0.106605301492 2.02328115381 0)
(0.119497991062 1.82875979358 0)
(0.129124106926 1.58000029119 0)
(0.13786048501 1.35742533358 0)
(0.148556360722 1.18550059559 0)
(0.162053550142 1.0607699447 0)
(0.177569806908 0.97474917271 0)
(0.190585368299 0.917490577883 0)
(0.196705168176 0.873635161245 0)
(0.198168650132 0.836482037344 0)
(0.197990010636 0.803605319398 0)
(0.19589305383 0.773055592171 0)
(0.191441938738 0.744440315442 0)
(0.184746077278 0.718348217532 0)
(0.176815232985 0.69481758212 0)
(0.169334608023 0.67270697508 0)
(0.164445219279 0.650155246337 0)
(0.159575645302 0.626210030808 0)
(0.050581546738 1.94371425079 0)
(0.105564557792 1.98105868099 0)
(0.116759114059 1.91589341269 0)
(0.130208075978 1.75155233548 0)
(0.14263651055 1.54038207511 0)
(0.154705180437 1.34177103957 0)
(0.168410933642 1.18416835433 0)
(0.184408138906 1.06928192095 0)
(0.200568715854 0.991458954323 0)
(0.211373045824 0.938006542487 0)
(0.215202923307 0.894850015701 0)
(0.215720147574 0.858005626617 0)
(0.21465645295 0.82505968938 0)
(0.211528133553 0.794198330014 0)
(0.205989305989 0.765069300293 0)
(0.198256694477 0.738200943695 0)
(0.189295852506 0.713616509895 0)
(0.18063824652 0.69029974236 0)
(0.174117701196 0.666618663993 0)
(0.167663914106 0.641546087619 0)
(0.0529194663136 1.87914668088 0)
(0.113133298278 1.86713583707 0)
(0.126668844659 1.80422788729 0)
(0.140250490829 1.66783421954 0)
(0.155035744111 1.49450223939 0)
(0.170597259615 1.32402066959 0)
(0.187732239312 1.1840212096 0)
(0.206272549209 1.08086015851 0)
(0.222329977702 1.01131637992 0)
(0.230591460483 0.960223185918 0)
(0.232413124947 0.917694339755 0)
(0.231754373761 0.881088373998 0)
(0.22921489872 0.84800802348 0)
(0.22451888284 0.816766616752 0)
(0.217528953903 0.787023578672 0)
(0.208520512441 0.759208038809 0)
(0.198488545509 0.733330196125 0)
(0.18886602474 0.708429646086 0)
(0.181255493209 0.68303906993 0)
(0.174073196391 0.656279951334 0)
(0.0511882342244 1.7991783474 0)
(0.11500534587 1.75759253901 0)
(0.134258320653 1.69927705835 0)
(0.149551256524 1.58938394158 0)
(0.167268104757 1.44955541024 0)
(0.186240731263 1.30741135509 0)
(0.206899611042 1.18715966559 0)
(0.227570041475 1.09796000949 0)
(0.242360761945 1.03576360035 0)
(0.24762753581 0.986211557706 0)
(0.24737478956 0.944105163609 0)
(0.244874286253 0.90728972783 0)
(0.240173194167 0.873604237016 0)
(0.233396946238 0.841580150658 0)
(0.224584508873 0.8108196655 0)
(0.214154181538 0.781613776426 0)
(0.203075457428 0.753932540548 0)
(0.192655661056 0.726719502342 0)
(0.184307758387 0.698702988252 0)
(0.177260014461 0.66920171991 0)
(0.0434915874111 1.73803754885 0)
(0.107160486307 1.65810368147 0)
(0.135347882395 1.60598385517 0)
(0.154228338922 1.5205013215 0)
(0.176108929421 1.41057043841 0)
(0.199145158329 1.29587906117 0)
(0.223651551777 1.19704436137 0)
(0.245001548399 1.12280408032 0)
(0.256208343331 1.06602016439 0)
(0.258099476198 1.01757448778 0)
(0.255799974772 0.975257030502 0)
(0.250819809452 0.937319766716 0)
(0.243581795132 0.902222704794 0)
(0.234561212542 0.868754348855 0)
(0.22409385408 0.836382206756 0)
(0.212563301328 0.805021323362 0)
(0.200461339222 0.774254175347 0)
(0.189043324718 0.743388028809 0)
(0.180265982718 0.711819810313 0)
(0.174274400884 0.67893650652 0)
(0.0290153454041 1.7475449676 0)
(0.085712188867 1.57789200504 0)
(0.124113487347 1.52968627636 0)
(0.148907363076 1.46456158494 0)
(0.176732000271 1.38122637504 0)
(0.20485194349 1.29340352388 0)
(0.23160734581 1.21636783715 0)
(0.249540627781 1.1547059453 0)
(0.255522077213 1.10167196674 0)
(0.254676887233 1.05381656354 0)
(0.250358410423 1.00993317033 0)
(0.242957478756 0.969550403447 0)
(0.233533926739 0.932068128038 0)
(0.223107235628 0.896416421849 0)
(0.211766937929 0.861306646453 0)
(0.198882422765 0.825981231587 0)
(0.185414764563 0.79074824729 0)
(0.174446507666 0.755891396894 0)
(0.167894393643 0.720859061349 0)
(0.164999057525 0.684759924785 0)
(0.0237487200219 1.82143920525 0)
(0.0783567279226 1.53338359351 0)
(0.1178971316 1.48061842312 0)
(0.141596238917 1.42813955763 0)
(0.171381503084 1.36631949912 0)
(0.199795330608 1.30227844781 0)
(0.221345440849 1.24369091105 0)
(0.231477185252 1.19118479883 0)
(0.233785582036 1.14124984667 0)
(0.231677690356 1.09202420773 0)
(0.225276662687 1.04408967236 0)
(0.215658145197 0.999377216196 0)
(0.204765850368 0.958316349005 0)
(0.193324426425 0.919243478886 0)
(0.180988968057 0.879974404946 0)
(0.168792403083 0.840045787953 0)
(0.158728264126 0.800657991777 0)
(0.152167326596 0.762309534024 0)
(0.149592487507 0.724175756967 0)
(0.150314602121 0.68515590506 0)
(0.0297518255504 1.91399488473 0)
(0.0883903626046 1.5473821465 0)
(0.120079211235 1.47471010954 0)
(0.134063155396 1.42344532838 0)
(0.156620594041 1.37372707377 0)
(0.17626318261 1.32594970744 0)
(0.18846912186 1.28050084533 0)
(0.193585409044 1.23525866494 0)
(0.193118314977 1.18490761261 0)
(0.186930547207 1.12786785201 0)
(0.17588203973 1.07011031906 0)
(0.163075102623 1.01806391126 0)
(0.151459971273 0.972459326463 0)
(0.141868176117 0.929522604543 0)
(0.134480431711 0.886403093225 0)
(0.129227176524 0.842954459312 0)
(0.125944158214 0.8002219704 0)
(0.125250799589 0.758722184407 0)
(0.127778355215 0.717955702086 0)
(0.132835596621 0.676794029003 0)
(0.0434958761165 1.99329678588 0)
(0.106728904017 1.61185339331 0)
(0.122424285376 1.50970179369 0)
(0.121853315991 1.45229646257 0)
(0.130200891275 1.4046009207 0)
(0.138073817351 1.36385795046 0)
(0.140624436543 1.32627664558 0)
(-0.0712941049951 0.481434737429 0)
(-0.064624126707 0.479694511728 0)
(-0.0588845681268 0.477500939357 0)
(-0.0536893499571 0.474285763682 0)
(-0.0487004506929 0.469190362744 0)
(-0.0436874164972 0.461307812348 0)
(-0.0385905687946 0.450284581935 0)
(-0.0335166425591 0.436670915179 0)
(-0.0286096010097 0.421427531471 0)
(-0.023954134031 0.405305548185 0)
(-0.0195839218389 0.388721051054 0)
(-0.0155104469717 0.371846810678 0)
(-0.0117544306485 0.354691582205 0)
(-0.00838978990133 0.337127924691 0)
(-0.00553248088353 0.318918729366 0)
(-0.00265746457501 0.300186815799 0)
(-0.000534866705631 0.282965110717 0)
(-0.0148890684366 0.43932219131 0)
(-0.0372678688552 0.44565693241 0)
(-0.0699403052131 0.471337993829 0)
(-0.0811942148775 0.468396250073 0)
(-0.0731271227988 0.467474460997 0)
(-0.0662793676222 0.46576532149 0)
(-0.0600665445295 0.462680183614 0)
(-0.0541415840874 0.457367122325 0)
(-0.0482953018903 0.449078974954 0)
(-0.0424978785128 0.437745243647 0)
(-0.0368531642508 0.424086592397 0)
(-0.0314688045294 0.409023566227 0)
(-0.0263961918183 0.393212131261 0)
(-0.0216492113957 0.37700578571 0)
(-0.0172274630819 0.360547501557 0)
(-0.0131411849888 0.343838032609 0)
(-0.00945691301074 0.326760029971 0)
(-0.00629818103056 0.309085047374 0)
(-0.00319662584984 0.290875326135 0)
(-0.000762844374627 0.274115644321 0)
(-0.00387976676196 0.429548729355 0)
(-0.0163722207184 0.429130159087 0)
(-0.0584269764895 0.457745689658 0)
(-0.0880678644985 0.45388934062 0)
(-0.078942679081 0.453923035663 0)
(-0.0712581822648 0.452773557996 0)
(-0.0642681591216 0.449853642999 0)
(-0.0576371581135 0.44436404426 0)
(-0.0511849112243 0.435767466603 0)
(-0.0449052300246 0.424265393454 0)
(-0.0388886185656 0.410686445238 0)
(-0.0332060933262 0.395888343216 0)
(-0.0278810700858 0.380443033781 0)
(-0.0229114864089 0.36465356619 0)
(-0.0182870662714 0.348639599488 0)
(-0.0140093262564 0.332397329077 0)
(-0.0101353457171 0.315822476107 0)
(-0.0067925466233 0.298702784013 0)
(-0.00358832535459 0.281041580999 0)
(-0.000951646592201 0.264714947746 0)
(0.00884773740326 0.421890000489 0)
(-0.000132150514255 0.419230314908 0)
(-0.0485154988956 0.43818318187 0)
(-0.0892265047016 0.439373118279 0)
(-0.081320713231 0.439817720539 0)
(-0.0731506758623 0.439226026651 0)
(-0.0657024628219 0.436442016332 0)
(-0.0586697010809 0.430778158385 0)
(-0.0519042147745 0.421943150408 0)
(-0.045415833563 0.410378462864 0)
(-0.0392744932531 0.396963798967 0)
(-0.0335180525832 0.382483394047 0)
(-0.0281479038541 0.367436341875 0)
(-0.023150035448 0.352085011447 0)
(-0.0185072418545 0.336530578291 0)
(-0.0142134630965 0.320767154359 0)
(-0.0103149350421 0.304705200859 0)
(-0.00693739262702 0.288155716119 0)
(-0.00378409802841 0.271069424181 0)
(-0.0010843936313 0.255153073005 0)
(0.022103792862 0.417025685229 0)
(0.0137697358058 0.413603067193 0)
(-0.0269625384976 0.41695831603 0)
(-0.0743527119354 0.426582766141 0)
(-0.0797578559227 0.426138637939 0)
(-0.0713657907688 0.425994005833 0)
(-0.0638628317456 0.423231220707 0)
(-0.0568031023712 0.417340314009 0)
(-0.0500753892392 0.408292862009 0)
(-0.0436988140633 0.39672070308 0)
(-0.0377204108088 0.383508129579 0)
(-0.032151169635 0.369361840296 0)
(-0.0269771969391 0.354718284627 0)
(-0.0221769638632 0.339805743942 0)
(-0.0177292134248 0.324710691283 0)
(-0.0136228902185 0.309426156521 0)
(-0.0098934265197 0.293877989676 0)
(-0.00666016384057 0.2779064522 0)
(-0.00373428363451 0.261420481131 0)
(-0.00114010500611 0.245901819694 0)
(0.0353741594007 0.415779537883 0)
(0.0271746197818 0.411530310148 0)
(0.0034787670643 0.405219349988 0)
(-0.0475171776212 0.415587981755 0)