/*--------------------------------*- C++ -*----------------------------------*\
| =========                 |                                                 |
| \\      /  F ield         | OpenFOAM: The Open Source CFD Toolbox           |
|  \\    /   O peration     | Version:  2312                                  |
|   \\  /    A nd           | Website:  www.openfoam.com                      |
|    \\/     M anipulation  |                                                 |
\*---------------------------------------------------------------------------*/
FoamFile
{
    version     2.0;
    format      ascii;
    arch        "LSB;label=32;scalar=64";
    class       volScalarField;
    location    "0.29/water";
    object      T.gas;
}
// * * * * * * * * * * * * * * * * * * * * * * * * * * * * * * * * * * * * * //

dimensions      [0 0 0 1 0 0 0];

internalField   nonuniform List<scalar> 
750
(
744.763202151
715.555942017
686.56553163
657.603301778
628.92407184
600.839394572
573.642430042
547.561685497
522.768695655
499.381375321
477.476887893
457.110535784
438.325377341
421.119690722
405.409339441
391.073550227
378.082404854
366.599458599
356.849420693
348.921441377
710.089208977
677.379204606
647.957335098
619.227231091
592.238882473
566.57637827
542.186230123
519.197980901
497.880433988
478.266640733
460.069946168
442.705995349
425.971853463
410.367302169
396.398669311
384.478665396
374.010525061
364.438692617
355.049531037
346.774647647
705.134390248
671.502433773
641.314667041
611.656802074
583.864051667
557.498415814
532.492918767
508.902913303
486.970573861
466.708952029
447.877044121
430.20525558
413.798841627
398.957263922
385.693594619
373.586792408
362.323564794
352.186346819
343.901088935
337.398913858
705.397598287
672.409857386
642.669723142
613.287508729
585.716176704
559.595759861
534.863342838
511.42223298
489.325312142
468.696088779
449.498464051
431.300386379
413.470675012
396.651247071
382.256125369
369.869398115
358.966453398
349.449023398
341.424217294
334.971939475
700.724500509
674.332128848
649.484388225
624.826018527
601.327023633
578.738035386
557.164193113
536.574301667
516.822215819
497.731657995
479.552929088
462.311725416
446.017436767
430.551882016
416.126980377
402.768016051
390.401639504
379.014411597
368.675710921
359.541000335
699.94118874
672.189433551
647.016890794
622.205113184
598.568065116
575.882663123
554.254970757
533.653424655
513.897742101
494.731924086
476.400103349
459.067632716
442.703659133
427.437138872
413.169272797
400.044354311
387.934851124
376.963936453
367.047237808
358.391767731
733.138585145
699.128380712
666.712512347
634.930668385
603.807064738
573.509505797
544.652965856
517.932058624
493.725638016
472.063637945
452.782373991
435.500531937
419.6512282
404.123323015
387.821853407
372.304014264
358.185361517
347.821502711
340.99650883
335.663234669
762.29000535
729.035432615
695.514126896
661.961512548
628.674420587
595.997231697
564.279996338
533.849322073
504.969227449
477.818555193
452.538546076
429.295233828
408.282042011
389.566926954
372.94071696
358.002842069
344.800499177
334.134502841
326.253782362
320.878094582
780.126784417
742.005059734
704.154881275
666.787341891
630.09437179
594.432524707
560.257144804
527.963209748
497.815825855
469.991188824
444.703428104
422.244723888
402.884516896
386.136773981
369.729428671
351.032907711
333.2975636
321.404029483
314.217174156
310.026524383
779.686767881
741.85885265
703.719939414
665.578921406
627.953620109
591.479846243
556.756910297
524.23017317
494.205059992
466.838743707
442.147088966
420.152415424
400.801455266
383.782964544
368.426995958
354.077940521
340.389307149
327.661529003
317.556799978
311.25877624
756.089074167
723.379586975
690.470988006
657.63785467
625.178397315
593.3083007
562.314997892
532.415440908
504.401499303
478.666898631
454.791034354
432.730643563
412.638070893
394.647941269
378.815870447
364.915946253
352.709660278
342.124444869
333.226399687
326.287024027
773.692171106
738.09999522
701.750711162
664.807893804
627.812087495
591.611094209
557.041999251
524.784402177
495.2506888
468.489122294
444.300513898
422.549820255
403.175035796
386.145210785
371.375449075
358.705338575
347.858610275
338.585353891
330.838526899
324.866458019
778.790750044
742.312553126
705.774264111
669.417271447
633.630288802
598.919103148
565.748609983
534.416896562
505.03769898
477.720270762
452.658746864
430.008549849
409.837645626
392.128094059
376.765322481
363.549198779
352.174245606
342.331330387
333.9255614
327.28732694
755.007655849
723.550595895
692.395140581
662.083862977
633.464990046
607.073686415
582.180382705
557.616827664
533.168033109
509.167472656
485.965818376
463.901414264
443.2358532
424.15283719
406.768203112
391.106046192
377.094797252
364.538918363
353.597455189
344.573234687
720.50970747
686.10412389
651.528471826
615.43806045
580.408640623
554.93328056
537.503928212
521.434985246
505.203810252
488.877956411
472.611653558
456.54559596
440.872819452
425.759704076
411.24103046
397.240299944
383.877583125
371.593417445
360.704596314
351.521515807
719.962140191
685.957660759
652.280821129
618.375761311
584.170144949
549.155002575
519.411476876
500.530670275
485.402293213
470.778272717
456.51466108
442.694186609
429.343763825
416.39960022
403.704311484
391.253706277
379.343580464
368.330240122
358.48384155
349.99662809
750.555898844
717.306958641
683.688686286
649.928165466
616.720630411
585.210949325
556.970555446
531.942045695
508.772213587
486.956145649
466.762800481
448.258778569
431.036519548
414.667878082
399.156887865
384.744989465
371.855960146
360.654307397
351.046261294
342.972789311
782.287394036
743.732179346
705.614066355
668.35563861
632.141769439
597.198988676
563.926760256
533.026728341
504.841237236
479.522232965
457.052391804
437.318704335
419.096455421
399.38590646
376.387124087
354.643987855
339.435853045
329.357457051
322.674851896
318.247654701
749.603909041
716.04713777
683.110035086
651.281608768
621.357955206
594.243606674
569.739894736
545.984067311
522.349963259
499.223394367
477.049575764
456.068330953
436.064429304
416.44866018
395.930546725
372.737326108
346.653225596
328.206179676
317.575508739
312.591131542
690.393855095
662.828522766
636.118827201
607.800141852
577.024163951
541.515396014
516.034128528
501.337310538
488.2574899
474.396624469
459.557887837
443.840976623
427.521995651
410.919509915
394.321352092
378.091753079
362.440672574
347.605795673
334.276003213
324.758251297
688.908040203
660.788471724
632.992382195
605.85736202
578.624138764
551.627856321
523.16697506
492.596295111
465.700382507
451.206661494
440.099588528
428.805835639
417.031081912
404.883724877
392.504999091
380.019729792
367.767354144
356.286013371
345.831667277
336.913201658
702.148560627
663.173302363
630.568273221
602.150204771
576.720423566
552.501915342
527.743414808
499.083084737
466.292041604
440.495246085
424.664162475
413.0744956
402.854950748
393.431422295
384.584810589
376.174181903
368.103489876
360.284243649
352.697089093
345.71686265
759.752832837
725.379352853
691.511849115
658.737113515
627.406094211
597.564475026
568.718797627
540.30519081
512.160334436
484.74195163
458.919669263
435.13754189
413.668633702
395.16856165
379.822208892
369.13265247
362.184753898
356.145079336
350.244701419
344.559746692
768.156437337
736.629490966
705.819553896
676.133091454
647.787396996
620.84254299
594.663636333
568.639157061
542.159079069
513.990894141
483.978307491
456.723518059
433.483888403
413.573130208
396.064048848
380.984839286
367.804963026
356.926524281
350.506431209
346.017525401
758.388880107
730.668791981
702.729353801
674.567682882
646.340384166
618.153349023
589.707917464
559.818678412
528.699341454
499.901015647
473.712246435
449.01876231
424.885003803
405.311871406
394.858159071
385.900191238
376.536111735
367.044655269
357.931425605
350.105287651
762.345047893
734.113777769
706.033441883
678.269292229
650.923936953
623.98843588
597.177743647
569.642016413
539.265603782
506.071637703
474.318530939
443.143368425
421.830046872
409.81143688
399.262884468
388.773807963
378.534107906
368.85538471
360.055124627
352.465901282
780.921385509
743.992781895
707.227147182
670.789623195
634.870230754
599.788860775
566.087919838
534.580549206
506.203167129
478.628536562
447.541762624
415.567472066
391.757362828
373.637675635
361.520028439
354.197939547
348.442951667
343.26211407
338.644134575
334.581111826
779.894169368
742.902065129
706.241154466
670.491336549
636.081013354
603.255605233
572.162056941
542.886470318
515.366669279
489.20200662
463.978214451
440.147742759
417.661403405
395.731513276
374.926805774
358.19384839
346.856293307
338.566788543
331.872282902
326.707488269
747.555826687
712.340523645
678.009336436
645.032524989
613.739656187
584.25672122
556.59551532
530.745149262
506.707209969
484.421008669
463.717547291
444.455566265
426.526676278
409.82649782
394.33076054
380.316257349
368.159703192
357.870260772
348.891386165
340.775489526
647.129838115
629.869496485
614.184645987
597.462801747
580.558588502
563.291596943
545.817120473
528.275714634
510.946747355
494.437731546
479.140589158
463.922983436
445.778762557
426.471754509
412.459959664
400.552201867
389.370346776
379.109351189
369.663923987
360.864103839
631.740643187
613.123090166
596.640974048
580.40838192
565.1615971
550.605490335
536.702911111
523.151199087
509.991773926
497.06405905
484.452229569
471.992516815
459.507899382
446.21910617
432.384082772
419.733901896
408.066123059
397.406109194
387.943512855
379.221679149
631.027089114
598.084750551
560.627088515
514.407154284
489.831099614
477.20963723
466.346569586
455.487447318
442.940220701
428.479786683
413.002124017
400.304403177
390.173575935
381.831516237
374.662039271
368.3723655
362.709973369
357.661750641
352.867498101
347.840634887
606.455586654
561.277551207
531.391502494
518.698263187
509.065968326
499.330145156
489.938711767
481.222058042
473.303483244
463.385407365
453.935126597
417.900886021
389.522337255
372.881251992
359.519236139
345.686861405
334.47679849
327.066691293
322.103595323
318.051686711
610.695201891
587.453267257
551.2072568
515.602617041
500.043814429
490.547336159
481.215796644
471.283783294
460.466915868
448.411247779
435.324890198
422.517311412
411.24506921
401.776153711
391.610985463
376.319337048
354.412977194
337.714024768
325.649627379
316.59661645
613.906815579
596.188482444
579.950939598
562.270426054
542.723311118
524.667622299
510.378365868
497.654573649
486.28841251
475.649298322
466.188497142
457.781474953
450.587623785
443.536483868
430.48439264
412.826295739
401.788594152
388.834444502
373.284073987
358.825392841
613.255690078
599.072989706
582.976481685
565.468939312
542.424071199
509.094122601
471.57935864
457.120309504
445.821350817
433.334424475
420.181973045
406.811528137
393.370974771
380.034042466
367.989916838
357.132482023
345.792183105
334.654958868
325.063094586
317.190880074
733.714608754
697.484231044
664.60125345
634.078358159
606.712202162
582.483780928
559.919110951
537.643939496
516.628238702
496.424806723
476.868515539
457.83348422
439.25527515
421.196903316
403.940173772
387.782759449
372.877632025
359.510121969
348.260504864
339.71388225
318.531591544
317.098522726
312.725692079
311.168082762
320.377787144
321.310929711
313.340278343
305.072431575
301.906292027
301.525369233
)
;

boundaryField
{
    emptyPatch
    {
        type            empty;
    }
    minY
    {
        type            fixedValue;
        value           uniform 300;
    }
    maxY
    {
        type            inletOutlet;
        inletValue      nonuniform List<scalar> 0();
        value           nonuniform List<scalar> 0();
    }
    maxX
    {
        type            fixedValue;
        value           nonuniform List<scalar> 0();
    }
    water_to_heater
    {
        type            copiedFixedValue;
        sourceFieldName T.liquid;
        value           nonuniform List<scalar> 
59
(
794.804587873
794.860112489
794.959725661
794.968268564
795.008849598
795.012516815
795.077318908
795.113577155
795.082850162
794.980751362
794.990283296
795.119745168
795.936337746
796.466508555
797.062930766
797.028533056
796.562328924
796.900959599
797.087174699
797.272943933
796.895783828
796.358634149
795.839457977
795.8634176
795.914795448
795.855835559
796.194315083
796.949595509
796.979926515
796.215940045
795.907829729
796.046130114
796.012270482
795.944507912
796.142203133
796.166885728
796.220027909
796.372138245
796.355748481
796.186290461
796.264822675
796.820387324
796.824860985
796.785004822
796.705133008
796.043647153
796.006607977
796.231048392
796.320552174
796.301873356
796.435486134
796.454936997
796.518990304
796.541746629
796.532151522
796.520468201
796.597669379
796.33716866
796.302654774
)
;
    }
    procBoundary0to1
    {
        type            processor;
        value           nonuniform List<scalar> 
38
(
305.374998756
306.312363453
306.537559447
312.85830116
316.949601909
316.543246337
311.941489698
304.377264179
302.702534265
303.435019071
307.993499841
317.819821083
319.36665964
320.464806612
319.584408128
320.758518236
315.511462226
310.311325265
309.762188453
321.294755834
331.304150848
315.161467687
304.266444192
302.41054607
311.794354977
305.726028321
313.588556375
306.669407098
305.784807055
303.862801538
303.340075529
307.122433076
306.737385566
303.917432016
301.529954859
300.574499477
300.400448611
305.374998756
)
;
    }
    procBoundary0to3
    {
        type            processor;
        value           nonuniform List<scalar> 
20
(
785.526661144
749.868742995
715.371280673
682.535912342
651.75541793
623.073007694
596.410818582
571.609832086
548.384149401
526.374719394
505.259204676
484.865464947
465.145936053
446.144128051
428.006494724
410.94794003
395.217306996
381.130878696
369.06330459
359.394024637
)
;
    }
}


// ************************************************************************* //
