/*--------------------------------*- C++ -*----------------------------------*\
| =========                 |                                                 |
| \\      /  F ield         | OpenFOAM: The Open Source CFD Toolbox           |
|  \\    /   O peration     | Version:  2312                                  |
|   \\  /    A nd           | Website:  www.openfoam.com                      |
|    \\/     M anipulation  |                                                 |
\*---------------------------------------------------------------------------*/
FoamFile
{
    version     2.0;
    format      ascii;
    arch        "LSB;label=32;scalar=64";
    class       volScalarField;
    location    "0.13/water";
    object      epsilon.gas;
}
// * * * * * * * * * * * * * * * * * * * * * * * * * * * * * * * * * * * * * //

dimensions      [0 2 -3 0 0 0 0];

internalField   nonuniform List<scalar> 
1504
(
2856.85302255
805.703536634
234.243926063
72.1499627073
24.3108067141
9.33128694093
4.03277997435
1.98360019008
1.12656583518
0.739077002892
0.562402639735
0.490916687514
0.489619968365
0.593382056132
0.76124144542
0.835816277222
0.811761706745
0.685493286072
0.475250447357
0.147744806272
3103.22443949
858.942225364
251.929190975
81.2954100626
29.2793102078
11.4240811328
4.83731652444
2.29048649178
1.2384987622
0.772538263939
0.560549348324
0.46740322858
0.439514786979
0.49845929365
0.668723851457
0.763970730384
0.771416674693
0.699944167977
0.535118387515
0.26121289318
3115.72415554
877.004688038
264.315397615
88.8717169416
33.9428679182
13.9454864928
5.98354833508
2.74569161471
1.4170774961
0.841096476551
0.580880698029
0.46233615536
0.412734326467
0.43378900747
0.583362364105
0.693911889952
0.726014652397
0.689255260279
0.570359244314
0.374024966062
3083.20692537
874.946740724
268.357969677
92.726651676
36.8590164616
15.9677209516
7.11318857553
3.28282148123
1.65053530658
0.941110013978
0.62117761309
0.473044559663
0.405713136947
0.399471213166
0.519120106588
0.639174408083
0.687083175113
0.672833061893
0.590220444896
0.410224022683
3012.61137204
860.513040231
266.138238563
93.4912858959
38.3367104842
17.33966881
8.00926885515
3.76062900512
1.88094870246
1.04980539674
0.670780644326
0.493092918257
0.411400458339
0.388105720555
0.478908772932
0.602704155769
0.660939253584
0.659716013119
0.599457076247
0.433080839375
2971.72590771
847.144752869
262.675131536
93.107037432
38.963189247
18.1893516746
8.63725929493
4.12522243293
2.07132529771
1.14653876188
0.718615542739
0.516563043684
0.423663393244
0.390128261519
0.459595619857
0.583215198551
0.646880600655
0.653558848749
0.604848244539
0.450641005415
2903.0217604
831.393859378
258.14045926
91.8995248783
38.9155399411
18.5603761461
8.98415404608
4.35079027471
2.20105603494
1.21813014282
0.757272344862
0.539202663798
0.439557764913
0.400421731195
0.456914332946
0.579068286983
0.645802162076
0.656085844178
0.613887952084
0.466221065105
2850.64816923
816.499125677
253.749008239
90.4157506902
38.4353291854
18.5043665076
9.04511286554
4.42560512139
2.26043625752
1.2581986387
0.783249316265
0.559123212608
0.45790041886
0.416963975978
0.467706209913
0.589214448507
0.65686910254
0.668983797833
0.629078991392
0.480959433595
2779.12647626
802.059332663
249.759686382
88.8775106296
37.6453334593
18.0416283226
8.81217846136
4.34553342789
2.24786488517
1.26579926385
0.796056350298
0.576354626132
0.478472669002
0.43925507548
0.490146056087
0.612558404024
0.680018994371
0.691241761895
0.651143026942
0.495928342089
2753.47866058
791.358366054
245.531169392
86.9116676699
36.4389774866
17.1375423645
8.30045199194
4.12762630315
2.1709412997
1.24342916107
0.797536876253
0.592252481311
0.501480274081
0.467271626584
0.523034316484
0.64809920348
0.713285127253
0.722139968111
0.679065036459
0.51184507354
2758.94256443
791.381130896
243.754814677
85.3504655773
35.0494583332
15.9790318539
7.65192930536
3.83889414165
2.05410217729
1.20085586439
0.793741383168
0.608762271754
0.52645559723
0.500096885403
0.564466123788
0.692895129256
0.753838121816
0.757977498576
0.710822811088
0.528666000045
2819.68965116
803.201637479
244.976438483
84.4420595183
33.7098761184
14.8780043598
7.04650885049
3.55358607645
1.92712069091
1.15393175772
0.791467193629
0.625300557193
0.551867951693
0.535257906345
0.61007275862
0.740321129733
0.793775590259
0.792361825708
0.740005612138
0.543466547336
2900.02336208
825.50129946
249.869291256
84.9835393654
33.043690187
14.1985628659
6.62411917216
3.3277326001
1.81972056195
1.11987986375
0.792404887617
0.639333786748
0.57562711703
0.568633403673
0.652525041863
0.778964647523
0.821648671474
0.812955383745
0.754593021065
0.5502557745
3003.05879772
853.910672265
258.359287444
87.4834624063
33.5207216174
14.1134412258
6.44717700138
3.19807005451
1.75852555021
1.10521561174
0.794944272101
0.651307492609
0.596052302194
0.595806101045
0.682114033309
0.793839053463
0.821025513704
0.802440347519
0.735341966779
0.543765123013
3097.56367576
881.487393381
267.481645966
90.9612601275
34.8565109933
14.53178189
6.51906325956
3.18775668463
1.75612903169
1.11034840923
0.802650505003
0.664147445657
0.612854578558
0.613393190478
0.6890434235
0.769557246911
0.77620505125
0.743409039433
0.673243270387
0.531467657863
3191.73323338
908.188116693
276.838722924
95.0219767489
36.8018779395
15.3769470455
6.8459039694
3.31557317286
1.81731674623
1.14301581102
0.825116245546
0.68259921473
0.628155628524
0.622227939818
0.671151545919
0.706178777398
0.69076871686
0.65040839821
0.599767545202
0.534684884934
3235.29016237
925.897192091
284.591016246
99.0539592015
39.1572499749
16.6248480196
7.4379879114
3.59290998905
1.95443965494
1.21903191781
0.872187005743
0.713316724159
0.647418492797
0.627874835108
0.640451226718
0.632162532193
0.605067388555
0.570309632804
0.545404831214
0.559919258419
3226.70411888
930.993952677
290.123425169
102.953777747
41.7778485005
18.201124287
8.28970375538
4.03132818523
2.18391423166
1.35107564113
0.952863833526
0.763941442914
0.678186900004
0.639676792768
0.616355054144
0.58019075942
0.552063190268
0.52780905712
0.513723352872
0.627492427377
3137.07624484
917.520559037
291.385464928
105.659793754
43.8967316684
19.6910000565
9.24322687946
4.59010886329
2.50274107397
1.54148752206
1.07192793527
0.84014554134
0.726907152505
0.664912058975
0.611420987148
0.56179550067
0.537833137189
0.525485697094
0.548306607516
0.813193382132
3015.25139658
886.503413425
285.715194452
105.191944586
44.4773069488
20.4955065212
9.97023263333
5.12535005728
2.85719830829
1.76842807234
1.22268235228
0.941077768915
0.794720194609
0.703884786131
0.627062753457
0.57259973219
0.555834212408
0.569352676871
0.677749151305
1.24926992357
2878.35977193
848.479599949
274.697785203
101.446076054
43.1644386021
20.329582974
10.2510093793
5.48613809134
3.16053304174
1.99358660067
1.3854444794
1.05672587255
0.873774681166
0.751306937664
0.659299574878
0.603222003403
0.599196329211
0.669058239982
0.946239494851
1.83491415996
2753.20131945
806.180533395
258.847071277
94.6245326764
40.2265201234
19.3254795024
10.088281056
5.62603426002
3.36953597862
2.18759085305
1.5391093661
1.17151048806
0.951998703258
0.803559094614
0.699800835238
0.64564121831
0.672134648681
0.862786434371
1.42336706648
2.23642613195
2645.45037438
761.109428062
240.493384251
86.7730706781
36.9048405232
18.0734720118
9.75214612689
5.66336098539
3.5266980906
2.35633806247
1.67912504419
1.27645421259
1.02507295695
0.85169704789
0.736548569317
0.69626871051
0.80249752752
1.22673465312
1.93560430892
2.88383465911
2529.59340539
712.600451599
222.77852282
80.1981590077
34.4984771506
17.318786725
9.66173375693
5.81983736741
3.74114752779
2.54386927807
1.81841518236
1.37379263357
1.0812553183
0.87673410141
0.761243737341
0.764969474051
1.04974036882
1.73031578976
2.44154333406
3.75645575448
2373.21316247
665.883662089
208.477215367
76.203780943
33.7865632705
17.6120201646
10.1902107001
6.3165042947
4.11836550377
2.78909017435
1.9650463505
1.44623349628
1.09186877358
0.865714363895
0.778913475697
0.891476638422
1.4457833232
2.15500293586
3.29151042116
4.60326422187
2151.90959072
618.333799065
197.769766752
75.3688131814
35.18668685
19.2847205131
11.5984361609
7.30407811832
4.71319634808
3.08795080682
2.08227644263
1.44964393822
1.03995303928
0.833516791202
0.821607797079
1.12458605723
1.81964511526
2.83328565452
4.164033415
5.16700384465
1871.81118846
567.657050046
191.516083652
77.7409199462
38.3172511189
21.9253378227
13.6248908032
8.58577830865
5.370134172
3.32026290551
2.09207557656
1.36967541894
0.963259667527
0.822023735662
0.935500782983
1.41071062541
2.27846356551
3.55986863905
4.69847015363
5.37248454291
1646.22326538
535.758207909
192.45602582
81.0650974734
39.8637405694
23.1939146914
14.8484593116
9.48238065988
5.74195088347
3.32042631223
1.96290076234
1.24213387304
0.908951557272
0.875702000518
1.12221575718
1.66822733571
2.78111733806
3.97653836615
4.82856334599
5.203112831
1653.24608682
561.35339523
204.725643738
79.0034046122
35.9886589184
21.7172063648
14.7163136579
9.63953634957
5.6366082265
3.07766681899
1.74275643602
1.10991183853
0.901244843319
0.993459906073
1.28483663955
1.97856324628
3.10085292795
4.05213084748
4.62863099112
4.8268108959
1951.4654576
678.730522281
225.020927134
72.9150746524
30.9289702413
19.1329752047
13.3950824353
8.85986069611
5.01491945041
2.61533927622
1.46031956107
0.991374502092
0.936184809195
1.11585519018
1.46671460043
2.2493677382
3.19815715569
3.88579996929
4.26497505196
4.31419605871
2812.585572
969.540643092
265.190472291
70.6666898332
27.0903227542
15.8495423201
10.6905655548
6.92940991598
3.8708672451
2.00944935773
1.17299379723
0.901650751742
0.974891223507
1.21245862655
1.66233180881
2.39717713259
3.11301933222
3.58546087619
3.79530552686
3.75068597318
6045.38690276
1638.96116139
386.006545357
94.9108667879
31.2522943698
14.8142229298
8.48536371609
5.02741164652
2.77015196359
1.49118623348
0.94927642084
0.832367025647
0.976200045509
1.29480879904
1.7797861532
2.3823935054
2.89054737404
3.18708140981
3.28474580465
3.1379899278
11039.9906298
2569.12851325
671.648377953
179.975544657
54.6057607924
20.3748206996
9.07302995158
4.4413497218
2.25024808263
1.214447617
0.819455162472
0.76908643685
0.932425491889
1.3040684428
1.75728073618
2.2199554149
2.56322754541
2.7421078923
2.75010163064
2.51005789207
12205.4352262
3217.63708014
1000.02494236
339.056090169
111.631500173
36.8673778896
13.9066883952
5.69443087262
2.49714901307
1.23753078669
0.793723262206
0.71948089796
0.855555449358
1.22047072325
1.61927931163
1.9666898999
2.19649680073
2.28590185513
2.22577133227
1.84061890642
10828.0083482
3228.7729384
1111.73680574
424.10773223
170.649608762
66.7293386491
22.9142188161
8.60416850571
3.43773370536
1.52306840461
0.858726821998
0.700215088297
0.773311756461
1.08380943573
1.42992441603
1.69640200716
1.84165966688
1.86111298368
1.71418977162
1.18836423006
9141.31066441
2882.57413677
1054.20511373
433.14380872
192.338931462
86.4797860009
33.912267089
12.7075005178
4.88052000167
2.0152818193
1.00452239401
0.720733652909
0.71849481641
0.942351002909
1.23706395032
1.44464679605
1.52567700973
1.4728102619
1.21563951548
0.724643695532
7500.12961884
2439.93741603
930.662868223
404.580736249
193.426967127
96.3908478851
43.2985892646
17.3481036214
6.67461935703
2.64496107142
1.20973712236
0.774611233973
0.702501728065
0.822382342895
1.05805538159
1.21913635511
1.24008499772
1.10814294479
0.78582742213
0.457736478197
5945.51449445
1992.19280689
785.301290648
356.980305254
180.878697544
96.9441243118
48.5644435749
0.00025650868244
0.000287517301791
0.000298022181438
0.000283849616726
0.000253838586602
0.000227485828487
0.000210741749215
0.000237057115147
0.000703641279064
0.00620220283509
0.0448479713533
0.145055001556
0.274693436067
0.451674366319
0.749718524837
1.38663533634
3.0811256064
0.0306151416206
0.000794902411641
0.000208345995749
0.000262321454353
0.00029750237302
0.000309168227071
0.000292509889033
0.000257214458501
0.000227811335703
0.00020746208145
0.000222261111941
0.000615430626458
0.00576260297421
0.0442325751143
0.1446226195
0.273376485789
0.448511898808
0.742607391106
1.36608581749
2.99475738358
0.0531654858424
0.00515165907416
0.000221215730034
0.000279782598041
0.000318889305919
0.000330516942001
0.000309183217989
0.000265400416221
0.000231245727719
0.00020769168533
0.000211154728179
0.000527857922618
0.00528160571198
0.0436062367332
0.14430384721
0.272284433002
0.445664932176
0.736290169237
1.34887092348
2.92085672658
0.0962889105326
0.0178037277019
0.000289855498343
0.000309935431893
0.000352199372707
0.000362403745212
0.000334272257389
0.000278625677666
0.000237209432788
0.00021080848619
0.000204255120995
0.000451614567585
0.00483615913651
0.0431959414353
0.144354137841
0.271684221629
0.443388729254
0.730971640493
1.33542504006
2.86264821725
0.166656058643
0.0272953650902
0.000750916715859
0.000356497898666
0.00039840528904
0.000405023852742
0.000367820316707
0.000297157592284
0.000245379135677
0.000216143951686
0.000201565532513
0.000394907566589
0.00450634510907
0.0432196357863
0.144994624787
0.271808548101
0.44191171087
0.726763602553
1.32561664576
2.82132347137
0.231377726871
0.047248608596
0.00344180394028
0.000432341611256
0.00045952549206
0.000458815678578
0.000409591695986
0.000321171839189
0.000255756816244
0.000223084454382
0.000202683394302
0.000362801998993
0.00436521580443
0.043844810393
0.146369496894
0.272805575331
0.441381094225
0.723672249217
1.31894157032
2.79616585486
0.267235342945
0.0717121812486
0.00998456424083
0.000588075690885
0.00053917827007
0.000524821239508
0.000459377219934
0.000350675705524
0.000268593172771
0.000231197136881
0.000207176539965
0.000358777060824
0.00447064428405
0.0451548012283
0.148518512908
0.274708384859
0.44182819273
0.721599214194
1.31455760055
2.784577339
0.282042725348
0.0774130411131
0.0154652150428
0.000932996803461
0.000643035331849
0.000604834058241
0.00051734133619
0.000385630874877
0.000284320082423
0.000240342430946
0.000215000536526
0.000387072466892
0.0048580067232
0.0471319847812
0.151373516016
0.277439001307
0.443170247958
0.720302671072
1.31135401659
2.78246628006
0.290229720689
0.085318385382
0.0176481884183
0.00134297846123
0.000776733246811
0.000701296542852
0.00058431793242
0.000426226819975
0.0003034880467
0.000250754965212
0.000226793916165
0.000453806118697
0.00553343209224
0.0496621897026
0.154778118823
0.280833947682
0.44520808368
0.719435142046
1.30808633204
2.78490398656
0.299109400544
0.0908993676691
0.0183859070299
0.00164621519525
0.000945731340391
0.000816955284771
0.00066181813523
0.000473335679677
0.000327010212512
0.000263144778528
0.000243951223767
0.00056574578442
0.00646958911874
0.0525564889708
0.158517859554
0.284717979548
0.447746041947
0.718635805493
1.30348407985
2.78670697868
0.307250903579
0.0953725814044
0.0185419032843
0.00188040595448
0.00116037022153
0.00095459345605
0.000752162026814
0.000529247832646
0.000356628881891
0.000278710622203
0.000268376131262
0.000727030242437
0.00760524012483
0.0555789567739
0.16233996474
0.288893492215
0.450766118183
0.717646537883
1.29646385449
2.78259796922
0.315408486264
0.101035041745
0.0194321947342
0.00230268013468
0.00143633310004
0.00111859392552
0.000859377761761
0.000597190558725
0.000394438150134
0.000299088187057
0.000301855334797
0.000934930007865
0.00884727325107
0.058468518341
0.165969449826
0.293119206432
0.454090861717
0.716624914446
1.28622398985
2.76744169531
0.326023074023
0.109323136821
0.0229779798945
0.00323168138643
0.00178741685696
0.00131341321248
0.000988189786185
0.000681595930911
0.000443585114842
0.000326392885632
0.00034513482491
0.00117602943735
0.0100744777485
0.0609508965221
0.16911633279
0.297142199066
0.45750428151
0.715254694352
1.27235200548
2.73695069447
0.340361727757
0.123491581721
0.0283282462505
0.00458982941356
0.00222376925483
0.00154568945666
0.00114577313906
0.000789104353127
0.000508747380787
0.000363273535162
0.000396994726667
0.0014242034876
0.011143487919
0.0627439327755
0.171473036292
0.300695191499
0.460816651825
0.713379286613
1.25428202177
2.68776805997
0.358954893724
0.14702764897
0.0363909548459
0.00643173855423
0.00275160948216
0.00182754736024
0.0013436545023
0.000929608831506
0.000596843849061
0.000413140848014
0.000453798304458
0.00164144873264
0.0118975931461
0.0635622652492
0.172711358818
0.303483771639
0.463834524154
0.710923355753
1.23183732928
2.61737366936
0.387418386036
0.184475520208
0.049902519662
0.00869947980723
0.00338132240023
0.00218382674031
0.00160169110539
0.00111833104542
0.000718307190678
0.000480840174642
0.000510173612404
0.00178288954269
0.0121817177018
0.0631323423566
0.172493442145
0.30518970165
0.466358219646
0.707889871518
1.20521693256
2.52457725706
0.438329025137
0.243247954464
0.0724526003787
0.0111190290367
0.00416128742198
0.00266564536909
0.00195566428463
0.0013798005342
0.000889352372444
0.000574240327849
0.000561739495325
0.00180845220837
0.0118720967759
0.0612366712458
0.170518694065
0.305510483053
0.468218892824
0.704421989523
1.17516133203
2.4102061751
0.539983894893
0.341328844603
0.107301557595
0.013518355738
0.00524136259317
0.00337761584534
0.00247311767648
0.00175604497563
0.00113615953471
0.000707129686619
0.000609995240081
0.00170064562125
0.0109195283989
0.0577872997935
0.166615578873
0.304248149005
0.469364414914
0.70091909646
1.14319055498
2.27805080264
0.79174916301
0.524097654712
0.143272477166
0.0160726694522
0.00698486296167
0.00454310464594
0.00328833081221
0.00232457867855
0.00150295053839
0.000903605001717
0.000667719645245
0.00148183427542
0.00939329099461
0.0529110462976
0.16085814096
0.301422866419
0.469956328026
0.698139316546
1.11176593769
2.13560591205
1.41954111182
0.928722275322
0.179753511111
0.02061691608
0.0101968485493
0.00664339300465
0.00467814652436
0.00323670386123
0.00206829455454
0.00120450783833
0.000761835158892
0.00121837467447
0.0075019994405
0.0470151272315
0.153661988517
0.297361139266
0.470414215187
0.697183175788
1.08417009786
1.99385999356
2.21384625965
1.57178644216
0.310643109466
0.0302470087652
0.0164886392049
0.010625768364
0.00721452622385
0.00479712690062
0.00297997955582
0.00167852365661
0.000931933104921
0.00099798567055
0.00555076072687
0.0407613415894
0.145780844772
0.292691715739
0.471355595486
0.699306697394
1.06403029444
1.86570570015
2.67729392735
2.1091518714
0.707326477495
0.0588804625801
0.0263287867459
0.0176791673516
0.0118827268994
0.00759969025514
0.0045239044466
0.00244621415869
0.00122994456127
0.000890964849652
0.00383666911962
0.034921251458
0.138167931663
0.288227310395
0.473443909972
0.705616497324
1.05460895569
1.76334218744
3.33748841475
2.77436959605
0.983299922885
0.137549509184
0.0308275562458
0.0258695634447
0.0191050797667
0.0124549380929
0.00721312477526
0.0037281373563
0.00173387970204
0.000932759368147
0.00257529724852
0.0302479606835
0.131788595936
0.284778630514
0.477189179436
0.716745546674
1.05810296202
1.6956210444
4.04494121983
3.44619197184
1.15180493014
0.277941965231
0.0555363809571
0.0279695506888
0.0251341634346
0.0189149771014
0.0115881138374
0.0058994601227
0.00258063061361
0.00114047341918
0.00187448245043
0.0273293576336
0.127434146955
0.283012043948
0.482864885777
0.732722290139
1.0752693296
1.66651657762
4.70774600829
3.93413173873
1.26372214471
0.326217327073
0.0779634962378
0.0352452128653
0.0257726678969
0.0229615995578
0.0168505230522
0.00933856907954
0.00401441243348
0.00156126008345
0.00180588300056
0.0265638562857
0.125627797655
0.283319814265
0.490376842199
0.752936068801
1.10550452243
1.675539578
5.18035855738
4.22114410795
1.25654878551
0.313795047333
0.101053311223
0.0513411393213
0.0276683436469
0.0223173221685
0.0194344608727
0.0132653355885
0.0062017772196
0.00224160322104
0.00206730219301
0.0272318988847
0.126312776259
0.286134278568
0.500158840851
0.777003764961
1.14744092034
1.71927003471
5.41673918313
4.20639675779
1.13507895336
0.28970434306
0.104820372071
0.0518343439691
0.0331953404479
0.0217914886804
0.0183656833983
0.0152803348676
0.00879421338143
0.00323255848208
0.00248564754639
0.0288054615351
0.128998727513
0.291034544765
0.511681336243
0.804157433879
1.19974725248
1.79412517269
5.32022475974
3.84912840743
0.943022917798
0.259243172981
0.0980331544071
0.0486267212772
0.0362654604179
0.0226180884503
0.0168739148456
0.0146601078172
0.0106316708778
0.00448115797267
0.0030358896
0.0311696307581
0.133388216225
0.297681670411
0.524487037528
0.833416537734
1.26059977564
1.89647377204
4.98897341141
3.15315641336
0.739434828452
0.228374963172
0.0894801898725
0.0453601153631
0.03532494934
0.0227400614892
0.0160035744456
0.0132585901967
0.0109300849459
0.00565968377917
0.00368045904804
0.034281677525
0.139231096966
0.305748383871
0.538150381136
0.863926017014
1.32831830526
2.023435367
4.4781725721
2.3432980355
0.565138382906
0.19064626967
0.0799162755578
0.0417939747323
0.0327818479887
0.0215412185232
0.015102506211
0.012086555153
0.0102675784103
0.00632594230314
0.00433431777826
0.038088491823
0.14629332283
0.314912720298
0.552273329106
0.894918087112
1.40138278265
2.17286598314
3.88056286438
1.65999859059
0.428417830803
0.156993212917
0.0705622633731
0.0383735940938
0.0299908194644
0.0196876939004
0.0139456777053
0.0111105791643
0.00939710645645
0.00634435427662
0.00489807880168
0.0424824011257
0.154357146379
0.324881539128
0.566513867026
0.925733874446
1.47844935406
2.34327100555
3.15484909292
1.13187086655
0.324196357519
0.13011406551
0.0629379101321
0.0353180757468
0.0272458699308
0.0175319640549
0.0125984988623
0.0102409957353
0.00858856839971
0.00590839128759
0.00536151936353
0.0473602237618
0.163238819601
0.335423722017
0.580623402661
0.95585112386
1.55833019213
2.53370334553
2.31121036298
0.753307458732
0.248298138213
0.109209742978
0.0571800563804
0.0328786053222
0.0247354000951
0.0152120022566
0.0111113019418
0.00929036429128
0.00785530331812
0.00523433763494
0.00587357780509
0.0528881603139
0.17280432173
0.34638209961
0.594459850638
0.984891512876
1.63992262147
2.74339841917
1.49470817088
0.502610562786
0.19651403449
0.0935624092891
0.0528791177258
0.0310683167003
0.0226541631195
0.0132194455838
0.00986912586777
0.00840460377171
0.00697568700499
0.00434753380398
0.00664124315021
0.0592628775702
0.182950960851
0.357648972067
0.607960407575
1.01259406478
1.72211689002
2.97118833469
0.914581254479
0.344018520208
0.157512319491
0.0823025053232
0.0497128501594
0.029679380477
0.0208198039642
0.0117620187048
0.00910547629475
0.00775081704914
0.00605821073445
0.00330326729914
0.00783098349987
0.0665451677081
0.193563775701
0.369130418613
0.621100009158
1.03877250185
1.80372822451
3.21500186878
0.560334405226
0.247286672356
0.126994678982
0.0748963001273
0.0473774480012
0.0284628243776
0.0188267790223
0.0107438205631
0.00867764771242
0.00718799783001
0.00507709984126
0.00239854050988
0.00981381785088
0.0746112271302
0.204492095789
0.380722986941
0.633860017757
1.06328160264
1.8834816493
3.47162928312
0.362268396633
0.192996023348
0.109683879749
0.0709582164739
0.0455027827005
0.027664752332
0.0164370268349
0.0100812978471
0.00834287978738
0.00647085392233
0.00394187273224
0.00176102012376
0.0123568985938
0.0827181665717
0.215565096591
0.392303028961
0.646209343241
1.08599340507
1.96003578883
3.73673744614
0.257868642741
0.157182493002
0.102364649927
0.069737003908
0.0435168545119
0.027511353385
0.0139958184316
0.00973373958936
0.00787564085097
0.00545612690067
0.00274027331824
0.00142092891951
0.0149079500521
0.0907866632673
0.226589284693
0.403727004655
0.658095052709
1.10678002165
2.03205313537
4.00541304985
)
;

boundaryField
{
    emptyPatch
    {
        type            empty;
    }
    minY
    {
        type            fixedValue;
        value           nonuniform List<scalar> 0();
    }
    maxY
    {
        type            inletOutlet;
        inletValue      nonuniform List<scalar> 0();
        value           nonuniform List<scalar> 0();
    }
    maxX
    {
        type            epsilonWallFunction;
        blending        stepwise;
        value           nonuniform List<scalar> 
38
(
31.0922559451
30.625252601
30.2419135158
29.9479384368
29.7395885647
29.604560219
29.5224961224
29.4681643599
29.414989843
29.3370042287
29.2090713107
29.0091146907
28.7252324004
28.3537932525
27.8975809542
27.3690705479
26.7926401034
26.206794257
25.6640715475
25.2257480334
24.9524040417
24.8933107514
25.0771141383
25.5079720042
26.1705871538
27.0367100499
28.0873869249
29.2942300792
30.6301428736
32.0718356295
33.5999646097
35.1987288984
36.8540873357
38.5509620481
40.2707425656
41.9900846667
43.6810067163
45.3105838473
)
;
    }
    water_to_heater
    {
        type            epsilonWallFunction;
        blending        stepwise;
        value           nonuniform List<scalar> 
60
(
8669.66490886
8669.66490886
9368.7804568
9511.68933135
9409.3877997
9409.3877997
9237.51353095
9237.51353095
9056.1905594
9056.1905594
8885.34222811
8681.54817127
8501.15200561
8501.15200561
8368.68462817
8368.68462817
8406.57042155
8406.57042155
8565.74888502
8847.63327658
9148.26294752
9148.26294752
9451.46097619
9451.46097619
9724.81767445
9724.81767445
9898.85738901
9881.17438461
9644.12709885
9644.12709885
9230.59519008
9230.59519008
8782.63662731
8782.63662731
8324.63235183
7848.18152108
7246.41956353
7246.41956353
6588.65760364
6588.65760364
5897.27784722
5897.27784722
5208.3244006
4859.26960654
5275.05660441
5275.05660441
6889.82632547
6889.82632547
11307.9579666
11307.9579666
23609.2647037
41183.3898359
47325.9622487
47325.9622487
45008.8950764
45008.8950764
39222.4034425
39222.4034425
32115.6026059
24737.6113566
)
;
    }
    procBoundary3to1
    {
        type            processor;
        value           nonuniform List<scalar> 
41
(
20.8091577995
8.30959173349
3.31163836766
1.45267690441
0.853642646455
0.716564856756
0.729083406319
0.901329943096
1.01504995866
0.973098285555
0.769346805494
0.510249693611
0.317792013279
4733.91627449
1596.41047505
637.96380604
299.185357273
158.961286048
90.2311521698
20.8091577995
49.053091618
0.206879210973
0.140715056943
0.102680513706
0.070159912341
0.0407058204865
0.0250883149437
0.012276295405
0.00951417795921
0.00707022873508
0.00417014238875
0.00171104357896
0.00134138165111
0.0174335414414
0.098795467012
0.237352644498
0.414846449464
0.669479842102
1.12563622168
2.09842263218
4.27006780922
)
;
    }
    procBoundary3to2
    {
        type            processor;
        value           nonuniform List<scalar> 
41
(
2426.66278796
719.529922211
219.303527423
67.3219173296
22.1685703405
8.30619904302
3.5997798443
1.81981528725
1.07591732508
0.736383424803
0.582693702731
0.529753069627
0.556089980214
0.698440890855
0.842055151964
0.89173092534
0.82551917283
0.641803229368
0.346742927393
0.101891261097
0.000261823694467
0.000288322466623
0.000296360071829
0.000282477857057
0.000255154880223
0.0002309856901
0.000218066479104
0.000254778498957
0.000781980570368
0.00653792753763
0.0452546316794
0.145354438545
0.275978556181
0.454917098462
0.757412481439
1.41001077911
3.17802963367
0.017324198486
0.000198364076438
0.000208814058991
0.000208814058991
)
;
    }
}


// ************************************************************************* //
