/*--------------------------------*- C++ -*----------------------------------*\
| =========                 |                                                 |
| \\      /  F ield         | OpenFOAM: The Open Source CFD Toolbox           |
|  \\    /   O peration     | Version:  2312                                  |
|   \\  /    A nd           | Website:  www.openfoam.com                      |
|    \\/     M anipulation  |                                                 |
\*---------------------------------------------------------------------------*/
FoamFile
{
    version     2.0;
    format      ascii;
    arch        "LSB;label=32;scalar=64";
    class       volScalarField;
    location    "0.78/water";
    object      epsilonm;
}
// * * * * * * * * * * * * * * * * * * * * * * * * * * * * * * * * * * * * * //

dimensions      [0 2 -3 0 0 0 0];

internalField   nonuniform List<scalar> 
6000
(
16.7159368772
2.64062363303
0.344957703245
0.0417402403493
0.00568670891562
0.000866126819733
0.000220638620435
0.000100730346456
6.75060181172e-05
5.56539958344e-05
5.06883352821e-05
4.83783729165e-05
4.72092004858e-05
4.65658525791e-05
4.61820500715e-05
4.59376331838e-05
4.57754914013e-05
4.56662443323e-05
4.55933220518e-05
4.55467288528e-05
545.405585646
104.348057577
17.6508327465
2.64047801693
0.335035453452
0.0402456353261
0.00563919293823
0.000902340776413
0.000220694617207
9.87516167015e-05
6.66095288934e-05
5.52449602131e-05
5.04881107325e-05
4.82786041734e-05
4.71567723442e-05
4.65314567186e-05
4.61505368699e-05
4.59031772863e-05
4.57383360768e-05
4.56306268216e-05
771.263329962
179.887150922
40.2581654263
8.26933732564
1.42012506046
0.194380028973
0.0246802746197
0.00371826066428
0.000685999089341
0.000200359370017
9.84285932265e-05
6.80091732595e-05
5.63797543006e-05
5.12627652352e-05
4.88073258485e-05
4.75347635498e-05
4.681552389e-05
4.63722715479e-05
4.60820994677e-05
4.58896495319e-05
988.180823997
245.021414357
61.022494588
14.9224814158
3.29457035732
0.585744907275
0.0814474851133
0.0110767857231
0.00180669035845
0.00040323726329
0.000151382060531
8.72548710153e-05
6.49365795193e-05
5.55237172274e-05
5.11088405368e-05
4.88889538183e-05
4.76930692578e-05
4.69944253629e-05
4.65534397145e-05
4.62628462074e-05
1078.35219838
283.173614956
75.6725351957
20.4571405206
5.28878017499
1.19083278778
0.207275578811
0.0290256855966
0.00429820067444
0.000789538995711
0.000234421326069
0.000113859972743
7.6123340369e-05
6.09898587415e-05
5.40213040865e-05
5.05555505597e-05
4.87294099489e-05
4.7702274923e-05
4.70794406205e-05
4.66783202739e-05
1059.6494955
294.959918955
84.3621244637
24.6778570208
7.1128789531
1.88486061812
0.413193791611
0.0684006240745
0.00987854903302
0.00155004833078
0.000365883238123
0.00014972460908
9.00452759114e-05
6.75864797512e-05
5.74917961705e-05
5.2504517344e-05
4.98962244131e-05
4.84588393845e-05
4.76149438288e-05
4.70873747123e-05
1000.8601249
289.720998824
87.4603952598
27.2971879083
8.52082095094
2.52699831191
0.655987266538
0.134626925288
0.0215992947039
0.00311725350519
0.000582594755306
0.000198231614948
0.000106983596754
7.52461603382e-05
6.14446524434e-05
5.46906878598e-05
5.1167517774e-05
4.92433191223e-05
4.81378869695e-05
4.74663424803e-05
961.385226248
282.671677394
88.25025793
28.7999328002
9.47196940108
3.01593704475
0.885357495615
0.221272545854
0.0434397668898
0.00655438931094
0.000973254675055
0.000266515367918
0.000127695588387
8.39917290136e-05
6.58175318446e-05
5.70671848896e-05
5.25198885395e-05
5.00461156621e-05
4.8643404683e-05
4.7811832107e-05
926.130336153
277.915904523
88.7633866399
29.6960397504
10.0372476481
3.34569171398
1.07542789819
0.318482731375
0.0804245624365
0.0148707906194
0.00184834523749
0.000377315824162
0.000154963730993
9.4283850598e-05
7.06802624509e-05
5.96384086096e-05
5.39552565583e-05
5.08768763359e-05
4.91470241277e-05
4.813996104e-05
906.865576217
278.869767289
90.1845424555
30.2850473983
10.3127184922
3.54310987199
1.22871219884
0.421133454445
0.134163320261
0.0344124795749
0.00450621113393
0.000617944852403
0.000199304237566
0.000108021682374
7.64858861971e-05
6.25470198049e-05
5.55446443008e-05
5.17845177979e-05
4.96844427578e-05
4.84774190507e-05
958.611788141
294.807154502
93.9192008102
30.914110111
10.5184060011
3.72658136099
1.38761024029
0.534427109667
0.206572824681
0.0727263393783
0.0145967884686
0.00144460065254
0.00029792820637
0.000130292224745
8.42754370219e-05
6.60882687953e-05
5.74006528576e-05
5.28291891983e-05
5.02975325011e-05
4.88553395854e-05
1139.38793829
332.207571958
100.427844328
32.2447544481
11.0863285067
4.07092645357
1.59889903526
0.671806224758
0.29767918014
0.133138456518
0.0430555527582
0.00512795889635
0.000578258939413
0.000173314527366
9.59899074594e-05
7.07269195861e-05
5.96820224919e-05
5.40840298792e-05
5.1027817048e-05
4.93000129916e-05
1326.19638158
364.283217357
107.743362162
34.5728372118
12.0593498877
4.55130813235
1.85574101639
0.827770220134
0.401150112444
0.210389074896
0.0977239481692
0.0201728019831
0.00162218445879
0.000273308632282
0.000115625194839
7.72003204339e-05
6.25919426992e-05
5.56223223614e-05
5.19061530835e-05
4.98258109184e-05
1361.23657731
377.938051821
112.431385485
36.3614182327
12.8659997151
4.97589140177
2.09749849246
0.974372544488
0.505004085202
0.292185025187
0.172770356744
0.0600480140539
0.00605776656368
0.000545150057259
0.000151320921484
8.6611468963e-05
6.63887815174e-05
5.75219689116e-05
5.29551041002e-05
5.04376582938e-05
1372.9297997
382.23591353
114.218693073
37.2100966712
13.3340408016
5.2618361275
2.2830082342
1.09861074258
0.596254521182
0.368988248138
0.251517083701
0.124467369304
0.020958516183
0.00141790546658
0.000222812812933
0.000100849952038
7.14671017646e-05
5.98973353339e-05
5.42065908026e-05
5.11432534751e-05
1366.74350843
383.084895223
115.054207854
37.6756484247
13.5987026709
5.4382744893
2.41259878143
1.19628214727
0.671422409307
0.436957773243
0.322708261033
0.197648136936
0.053668962271
0.00377234731747
0.000364824100699
0.00012269230722
7.84401585003e-05
6.29355498319e-05
5.57213899126e-05
5.19658838113e-05
1370.44221676
384.723713061
115.905981987
38.0028108648
13.7542332944
5.54846784098
2.50489183479
1.27384464402
0.73481965363
0.49457554845
0.384588778606
0.265121963125
0.101470423231
0.00918419374902
0.00064161226431
0.000157440999936
8.84653247977e-05
6.69458603806e-05
5.76021241227e-05
5.29505795812e-05
1393.2112071
390.552926621
117.465668148
38.4531758054
13.9205067813
5.64055814468
2.57554114868
1.33412964994
0.788412172787
0.54700256314
0.441722915844
0.324833171256
0.155017925635
0.0223103501578
0.00119526681824
0.000219371886687
0.000103742576495
7.2409048265e-05
5.99996980888e-05
5.41633403524e-05
1448.94874857
403.116164527
120.4555285
39.3328708851
14.224802975
5.76309870192
2.63884133932
1.37978671461
0.835243187135
0.599690690323
0.498327365476
0.381828581231
0.210497260317
0.0483214156103
0.00280290869585
0.000351683771076
0.000128802739101
8.01170306978e-05
6.31257471515e-05
5.56864333688e-05
1509.22023822
418.486942741
124.627763583
40.6840502187
14.7002399075
5.92726194462
2.69671802475
1.41545666751
0.879556515042
0.65253371852
0.552138828572
0.446373559807
0.273166530729
0.0893107270434
0.00835217161821
0.000673535995907
0.0001733529613
9.1409009784e-05
6.72690149871e-05
5.76121283844e-05
1557.53196398
430.221352073
128.704914495
42.3647371457
15.3503590617
6.13021037157
2.74665054279
1.440419742
0.914316422761
0.693050364456
0.595670273231
0.518050823495
0.354248742129
0.152983672453
0.0251595883923
0.00156380972845
0.000260241420192
0.000108676286102
7.28290565385e-05
6.00404010231e-05
1545.19170556
431.750487798
132.188173578
44.3814554759
16.0967267584
6.27899926227
2.73584776931
1.42849922938
0.919672252578
0.703653388795
0.60992391885
0.555057736797
0.452537467318
0.246918863451
0.0654863980904
0.00461347757351
0.000453201635338
0.000136672689118
8.04149271066e-05
6.30937142831e-05
1489.91324136
432.994703467
137.494923669
46.7725276162
16.5871266784
6.17866825063
2.621549329
1.38282705396
0.896477210713
0.680286502599
0.587953894064
0.551123574568
0.487110875746
0.348173042373
0.137214177912
0.0154491742934
0.000924038603902
0.00018451377419
9.09570029124e-05
6.69408134846e-05
1470.73087233
449.347528574
146.020221696
48.9445734036
16.5416195477
5.95834282664
2.55352722062
1.3485887112
0.859398013198
0.637691827424
0.543166458831
0.513958162246
0.476824403226
0.390170954997
0.220875390834
0.0441967998598
0.00217493600861
0.000271140046762
0.000105923796898
7.18160138299e-05
1545.77431834
485.745232389
156.635666241
50.6306415058
16.501346602
6.00526012794
2.59133845606
1.34643440787
0.830024665368
0.597988629822
0.499456917738
0.467087841818
0.447446169825
0.388812164852
0.279879322273
0.0921736002383
0.00570247407164
0.000437721291574
0.000127742739354
7.80509875121e-05
1723.50397314
538.692121161
168.085919498
52.8214334305
17.3549647523
6.38675067749
2.75617549478
1.39511216003
0.827483253864
0.580266483171
0.474019670668
0.42952108183
0.415141562361
0.37826756045
0.303059031028
0.145031613102
0.0148319588601
0.000774073430498
0.00016079729883
8.61645490447e-05
2016.44072058
602.592968071
180.75295274
56.1819370613
18.8911762568
7.11813563782
3.05494739187
1.503089409
0.861919548541
0.59181772905
0.470802334049
0.410449292624
0.391822877849
0.371441946708
0.317561347523
0.192483969294
0.0341003357202
0.00148850755568
0.00021336839334
9.69858579263e-05
2379.5608937
668.899943659
193.324341722
59.724072659
20.4799271251
7.8995349829
3.41249211009
1.65499364733
0.930369664864
0.627330240692
0.485725192492
0.411577695651
0.384920625016
0.375290709907
0.339764471118
0.238812149341
0.066191199907
0.00310085946722
0.000302780733501
0.00011197630426
2721.01101579
731.098375513
205.981684172
63.3634708584
21.9690961406
8.60273422325
3.74653230509
1.81392922303
1.01615171003
0.675620727025
0.512336028766
0.429086274243
0.396530544001
0.393872989233
0.377020254124
0.291145900053
0.110895618702
0.00716080744345
0.000472413391981
0.000134030044634
2982.94829473
778.411631993
217.171350678
66.6174268262
23.1762345792
9.15919721283
4.02645231992
1.96642153946
1.10935143016
0.729919585962
0.546588444058
0.457681181213
0.423374240596
0.429166053105
0.430398671803
0.354166358537
0.16774639577
0.0177793905299
0.000825366272901
0.000168321308457
3113.88969437
808.298018063
225.035252524
68.8717725001
24.0163922905
9.56851014876
4.25388777029
2.10801797897
1.20057842281
0.783693048001
0.584974141893
0.494142387221
0.461735437117
0.477175033048
0.491717975537
0.411402435835
0.235075216859
0.0414154787978
0.00160036009743
0.000223695839868
3199.58183251
827.352351439
229.801016696
70.3844857985
24.6710055341
9.90597331324
4.44817666251
2.23578979719
1.28082984203
0.831823489359
0.624721874266
0.536664026147
0.509170672663
0.53292937091
0.551721591414
0.468443375261
0.306669627451
0.0812470065482
0.003419204761
0.000318302556067
3320.49925978
844.439201232
233.081679589
71.5561490768
25.2504444593
10.2013231097
4.61327988499
2.34374820219
1.3422248816
0.870963135725
0.66424948528
0.584416943126
0.564514496685
0.594199047151
0.607360928072
0.52480840707
0.375086283336
0.132726409537
0.00790427067543
0.000491328218452
3425.23858886
867.271897426
238.524050759
73.4216130899
25.9991003373
10.5179370843
4.76941635548
2.4300214467
1.38129343542
0.900838612369
0.703523172556
0.637244063932
0.627618134333
0.658477606253
0.658229836678
0.581805917027
0.430591969289
0.188854687465
0.018267856751
0.00081663673614
3511.59058762
884.833694968
244.029458649
75.5910960293
26.8566937211
10.8530789312
4.91694903461
2.48323517004
1.3959969226
0.922041657036
0.742282573065
0.693629387593
0.696090136452
0.719941870657
0.707438322281
0.640978274769
0.484684475933
0.24808487578
0.0381237745733
0.00144051438318
3512.11688015
891.189596636
248.15955903
77.7207187204
27.7433295642
11.1928095546
5.03057064604
2.48533262134
1.38552997171
0.935301369755
0.778528343841
0.749145410784
0.76323726719
0.772851446783
0.756944336207
0.705285600364
0.553555156349
0.316576981837
0.0700003422944
0.00275871627249
3481.37995249
883.254233673
249.221619901
79.1564624592
28.4530647633
11.4474282301
5.04238681678
2.42014900752
1.35071209149
0.939953689889
0.807330951071
0.794815385325
0.815256590956
0.814678092932
0.807452794394
0.780487269724
0.652813316719
0.404690153105
0.116218356153
0.00591182745483
3380.7236244
860.850060769
246.411893234
79.4906566321
28.7963038414
11.455031514
4.86932448957
2.27648903622
1.29169512928
0.932433889903
0.821052554741
0.818114583922
0.839783243088
0.843712463874
0.854919351874
0.869217740937
0.785628701221
0.524689186512
0.178787493608
0.0135252194397
3203.63702141
820.545369931
238.874796917
78.7064061213
28.6394195443
11.058599339
4.48448554784
2.0714117124
1.21708271164
0.909886430897
0.813602543657
0.81282436144
0.837654518982
0.855614119553
0.889831970898
0.959181743976
0.923747652085
0.660524468387
0.256885137451
0.0298414185355
2854.35225743
742.331201723
225.392256912
76.7200145852
27.6552545124
10.1629854556
3.95762709824
1.85898975546
1.14061822507
0.871245668473
0.781106744507
0.778405958401
0.810597756348
0.839861252285
0.89052531449
1.01471350875
1.03069511389
0.776250552697
0.344205387521
0.0594174483082
2207.36501566
647.919076888
215.483126581
75.27186532
26.0363384026
9.1410969979
3.56683446849
1.72889824469
1.07593739586
0.815974759873
0.719206498418
0.70563020277
0.736557127156
0.775124716501
0.831484709708
0.994388030242
1.06603891589
0.844236764776
0.418468313762
0.103962242791
1811.91665288
637.986832169
225.611419019
77.8852073549
26.1697530023
9.05092611753
3.53540258897
1.69843402812
1.02177210483
0.741835321976
0.626059530152
0.593012620615
0.606801095193
0.642440061865
0.707215375033
0.871030118164
1.00048466818
0.839448782907
0.452736986056
0.15656546622
2210.37962682
797.765593726
271.950535533
88.9177475059
29.2742608795
10.3205860117
4.03210005461
1.83256667383
1.00967227905
0.672626745388
0.528747215792
0.470971354496
0.459475038617
0.478175093379
0.537472790063
0.671625598541
0.833548685291
0.755032566796
0.451041934634
0.202625122922
3583.95454138
1138.09619904
335.390907927
105.493706689
36.5745193782
13.8196617539
5.399186452
2.26850063854
1.10521283073
0.652199182688
0.4629808127
0.377655554568
0.339833133555
0.335276326969
0.367046187799
0.469085963014
0.619617820081
0.625894626927
0.432223867788
0.235108046812
5607.93455238
1463.24518376
425.483941133
136.080182709
49.5797875007
19.7510725993
7.62953548785
3.05578701523
1.3529383871
0.711300602076
0.452842704854
0.336429879763
0.27460853553
0.246372508476
0.253647608288
0.316580321263
0.441127762638
0.503524607574
0.404768493571
0.256268019428
6280.67326622
1510.19917864
448.49660368
156.490124113
63.8269470565
28.170388611
10.8501305904
4.09799449422
1.72374842362
0.845056581472
0.498239459269
0.344604591685
0.260085314422
0.211014680354
0.199198739785
0.233190970861
0.333764547293
0.417514804296
0.380172741599
0.265682426771
5740.68559569
1430.61364381
429.912063073
154.005740174
67.4555771557
33.8184063712
14.7616526609
5.27777902572
2.1688623814
1.03086996635
0.583240729189
0.386103613868
0.278007151093
0.211352310503
0.18423442515
0.202439193425
0.284983721127
0.369915534649
0.3663619831
0.279437329614
5249.54333216
1315.98203443
391.665223674
141.075825147
64.6104601987
34.6930939072
16.1669893489
6.26922728406
2.63958524581
1.25174527547
0.694312478024
0.446778192741
0.312597640863
0.230787794511
0.191626266243
0.198627701329
0.267817673559
0.35185775189
0.366555363855
0.299992728733
4976.86720531
1235.03180848
362.32255378
129.785610402
60.5862709856
33.5025814878
15.6253079698
6.64121263136
2.96325599092
1.44842876929
0.808527432565
0.513071481628
0.353293295372
0.259181776068
0.211370668564
0.209626729292
0.26944871012
0.353013770379
0.379346384128
0.329238269818
4800.36244351
1193.19675313
347.338046911
123.070710884
56.9831878234
31.1722718012
14.5841175848
6.64054075999
3.14789048963
1.60537036861
0.913044892809
0.575886501917
0.393907650332
0.290829700729
0.237597535683
0.230005664363
0.281977782377
0.364976956321
0.401873173173
0.368372833951
4715.73246787
1171.91401148
338.703068544
117.864480811
53.1991810089
27.8017040551
13.413957641
6.50683677947
3.25843661379
1.73293346457
1.00365054486
0.630922580158
0.432717131398
0.324547816792
0.268352604706
0.256539986178
0.302396064774
0.383429392431
0.431658107032
0.418308565775
4744.14522384
1176.18876416
335.646450326
114.491410033
50.0228069222
24.7258054128
12.4669845236
6.36218286085
3.32730579233
1.83088075029
1.07386865249
0.675766068277
0.469595450898
0.360737901845
0.303604619708
0.288507636037
0.32892138489
0.40696552312
0.467496575019
0.480187360553
4950.20329488
1210.46896322
338.335315346
112.915744868
47.4442788169
23.1832186717
11.8912563886
6.23352947551
3.35791801996
1.8915623154
1.11677371713
0.708991684373
0.505165238534
0.400278558665
0.343859516492
0.325862644093
0.361208598722
0.434656672025
0.51039439474
0.554677436073
5400.83077655
1273.88380557
347.696905899
114.706464693
48.0999803448
22.9645772617
11.6423187462
6.12179035286
3.35010213012
1.90610909544
1.12852679399
0.731250529746
0.540931906225
0.44421279303
0.389549666486
0.368726213039
0.39887820008
0.46673836048
0.561271766545
0.64163631692
6205.21351972
1389.92333368
380.277568655
130.772153651
52.7223793108
23.788206758
11.6196290039
6.02984164589
3.29853373363
1.86627543119
1.11139560664
0.746364384542
0.579133082701
0.493098887191
0.440581102224
0.41652694548
0.44141405117
0.503238062406
0.619063680468
0.738299095946
7167.06171074
1557.02983702
451.74021682
152.520197132
58.4201157765
24.9492745957
11.6811082451
5.92780976462
3.17608730127
1.76797690969
1.07396943302
0.760096456995
0.621140565895
0.546165179051
0.495242857582
0.467936137778
0.486041703335
0.542173255824
0.679978192963
0.840406630956
7649.33922165
1720.63398137
503.13486889
167.591852293
62.4059246713
25.6696781876
11.6114834839
5.68357032663
2.93334140283
1.62378137393
1.02975211516
0.776891491534
0.665433841715
0.599785642316
0.549945541943
0.519129640675
0.528031720024
0.579480783022
0.737755591699
0.942691597206
7423.30662952
1720.74262828
514.43914454
171.873161399
63.1846586258
25.38694971
11.0546713517
5.15173875177
2.58828967234
1.46820517399
0.992842523218
0.796446872637
0.706077631374
0.647514240961
0.598488285036
0.566019894542
0.559904436106
0.610725665049
0.782546431067
1.03407298014
6815.91846839
1628.62134782
493.282449409
165.197065997
60.3341867927
23.6258686936
9.83875127966
4.43528737244
2.24804338068
1.34417390857
0.970390011293
0.812006303936
0.733913143332
0.680501339581
0.633283899639
0.598346721644
0.575543633583
0.62331972631
0.799227662563
1.09540374622
5713.80673577
1401.84260032
432.358301042
147.561097869
53.8695253462
20.6444243521
8.42573723348
3.82295280794
2.01927906662
1.27591899335
0.956980778019
0.812509224348
0.737834093009
0.688937653646
0.646559252318
0.603947610787
0.569991338127
0.605235817439
0.777138976361
1.09977152257
4336.89198036
1143.4579023
367.261741395
128.725008863
47.2320683882
18.0868176435
7.50349782014
3.56919954539
1.96658888014
1.2602996032
0.937431781193
0.784570515397
0.706903619219
0.661909496792
0.623722876739
0.578809931765
0.539590262452
0.556249713093
0.71294503022
1.02315177352
3317.38136766
982.39794695
332.86826594
119.353414721
44.592935239
17.6500614191
7.67603011668
3.77414914899
2.06770534363
1.27007911115
0.896969840344
0.721333771545
0.635515129339
0.590918797694
0.556399143974
0.519349990956
0.482241852878
0.481394184895
0.595847981371
0.866280545276
3023.36431787
1009.73312946
355.139226331
131.084977264
49.7276380048
20.0764614731
9.06795213641
4.52620778015
2.37414739708
1.332692773
0.854830878558
0.637606467468
0.535960444391
0.483389336405
0.453248718918
0.428185919778
0.4006571864
0.391668146935
0.455010632988
0.667985592924
3636.40062064
1265.76561888
439.830335413
157.997541495
59.5022779601
24.8997929378
11.9714825426
6.18926048972
3.12918184704
1.57103009225
0.874418457742
0.57458124633
0.441000754784
0.375042049987
0.34146533272
0.323115697478
0.306996511101
0.298465844224
0.329450641288
0.47358454271
4622.43118188
1560.456359
526.382248433
181.915573835
67.0951216276
29.2927572364
15.2798850227
8.5763655679
4.50140014455
2.12623525479
1.03603519832
0.578916780502
0.39011875067
0.303226225693
0.25755286453
0.234460586995
0.223392347356
0.218310346947
0.234878070582
0.31340368959
4784.02567422
1408.71701087
467.036988074
169.859718082
68.4293590251
32.2562209109
18.1447414726
11.1024779422
6.28748098138
2.94348973107
1.35768347573
0.673688648553
0.399497784498
0.281983979533
0.218947673812
0.183058246065
0.167943625345
0.164089867826
0.173950215152
0.220004261423
4102.37094368
1167.46902398
388.273720174
145.398871662
62.7119101072
32.3018609409
19.8178017461
13.268515435
8.26204895414
3.91255752153
1.78382028283
0.843873369094
0.461196564739
0.302727324443
0.219438217724
0.168207155696
0.1432367379
0.136685646769
0.142519719171
0.173998027705
3556.84317269
1009.63007909
332.662995892
126.002087769
56.6522745537
31.0915920599
20.3469232305
14.4343528856
9.59641225237
4.94414388915
2.27772645476
1.06428360083
0.559681239418
0.351043547784
0.24488547118
0.178406953589
0.142008763704
0.130038320626
0.132542771771
0.15577860199
3210.36928121
904.413731763
295.799931386
112.125268512
51.257569645
29.0863440085
19.7791168931
14.4910481048
9.92906365025
5.44240127117
2.63023723934
1.26585870718
0.669918608099
0.413280153442
0.283894690121
0.203370121072
0.156475815962
0.137767924409
0.13707930339
0.154943911028
2935.45747704
826.173956982
269.565052255
101.630130042
46.4534273687
26.6313950236
18.3977407535
13.6326427558
9.43033945175
5.39199325733
2.7499285704
1.38488836461
0.756401765436
0.472927580357
0.326622206843
0.235130642017
0.180236457998
0.155793225561
0.151805089766
0.165752467848
2724.07707423
767.464335514
249.859620965
93.0747748247
42.0901334185
24.0008530843
16.5387187396
12.183768089
8.39208470003
4.95574042154
2.66775003121
1.41743802728
0.811029995676
0.523914292931
0.369043103512
0.270268097777
0.209843068255
0.18100397351
0.174025385138
0.184992875221
2608.63453441
733.584335024
235.421707432
85.6890266294
37.9431953528
21.3191540229
14.4920422977
10.5024015593
7.14327114672
4.34613710261
2.463598438
1.38679834169
0.839485075052
0.566667361271
0.410486236953
0.307993489465
0.244123280547
0.211830305019
0.201652719967
0.209012508548
2672.72375049
735.540736023
228.142301071
79.5265797098
33.9742454878
18.7227423534
12.5001861252
8.85146843766
5.94006766457
3.72421701108
2.2165817138
1.32461968181
0.853393686441
0.604949254486
0.452070246979
0.348644947407
0.282694477682
0.246986541738
0.232451726025
0.234124742244
3045.94569916
792.952936509
235.316513201
76.6606077989
30.8558628602
16.4876089338
10.7320765483
7.39476428837
4.95650303295
3.18614244901
1.98326295262
1.26048959797
0.866317104295
0.643682650124
0.496008452378
0.393146480152
0.325262391755
0.284969598996
0.263502953693
0.255965212883
3977.0623464
973.655001843
281.265700996
87.082727289
31.3158224744
15.496009008
9.54897384903
6.35260917959
4.23867311155
2.77272633705
1.79999609507
1.21865605084
0.890207540286
0.687950213967
0.545849520841
0.443141805024
0.371643017814
0.323926942712
0.291773075988
0.27014286591
5151.42136904
1285.87040832
379.758444904
117.183147407
39.3387233167
16.8238836173
9.23312724353
5.78169468636
3.78203684896
2.50039852529
1.69235331475
1.21487385645
0.932355536489
0.744871570265
0.60756188715
0.501635937596
0.421708964455
0.361839042146
0.313470337543
0.273412944673
5386.66450188
1509.2284048
471.932927474
150.623028795
50.0122318623
19.5289478921
9.60624022212
5.59659174291
3.55532659315
2.37180986333
1.66871761206
1.25399831504
0.998109710615
0.82607048653
0.690656265803
0.573532905244
0.475061007044
0.394149153047
0.321267382623
0.262003523653
4670.66801001
1466.5760195
484.931611774
162.162518016
55.6334148601
21.4654627258
10.0422332931
5.58864149764
3.49295424503
2.36283954017
1.71368411125
1.32932578861
1.09982280611
0.946036952572
0.808185917482
0.665259107666
0.52715234921
0.406164428351
0.307155048515
0.239366499906
3767.5186077
1257.5247972
432.066138198
149.541584339
53.5873764529
21.4730919387
10.1604047355
5.63992739663
3.54846509093
2.44474017699
1.81353572331
1.45279284591
1.24965042022
1.11549318156
0.970043545948
0.772938025548
0.556245670903
0.381008246228
0.276629846018
0.211750261784
3375.844673
1102.97325965
376.940218924
132.343459024
49.4864610763
20.9489415122
10.3339315619
5.87433011111
3.75762508413
2.63115891362
1.99435146362
1.63822661685
1.44081892802
1.31123715141
1.1326688062
0.83114900034
0.530094613064
0.343683956652
0.241840831807
0.181269246579
3178.86865988
1031.29154514
350.363938503
125.010760443
48.8560687935
21.8186809011
11.2072698552
6.51627603417
4.20300210491
2.96333327469
2.26072491278
1.85477844423
1.59186415629
1.38410017345
1.13042544287
0.786945328507
0.49300401344
0.314410607554
0.213843917306
0.155215661897
3192.57348476
1015.13888775
349.577817601
130.605484733
53.1684675764
24.3142468005
12.6562188216
7.40034189787
4.76795919244
3.33238171121
2.49198515378
1.95342037937
1.55622287103
1.26596551259
1.02125068245
0.727042393038
0.468239344437
0.298330548289
0.19878934647
0.140925279119
2861.98202214
905.016695084
314.349778988
120.523268044
51.4509515703
24.5615666122
13.102516002
7.72855416067
4.97060048729
3.43052051677
2.5032620069
1.88819302939
1.44904490275
1.1484260128
0.933318882632
0.681950014657
0.450984664224
0.290892609164
0.194138011275
0.136763027366
1933.58499794
618.792393104
222.818751289
89.7916218565
40.7659094807
20.7801538306
11.6721506284
7.08074850561
4.5930012544
3.18045960822
2.32471281242
1.7589341631
1.36045903149
1.07889898744
0.868940502554
0.639887282926
0.431749603159
0.284711790834
0.193638333478
0.137912658392
1475.40171592
463.791038369
163.091450087
65.4529401983
30.4775546773
16.2533116907
9.53597487128
5.94417876169
3.91088376237
2.75391318798
2.052972557
1.59153304222
1.26142491587
1.01009161222
0.800528817685
0.589525351846
0.405622617649
0.27587804439
0.19375480462
0.141435726898
1346.70322871
413.624852884
138.458442179
52.4914689016
23.8114782546
12.7908923078
7.6163786911
4.78372287077
3.19911341991
2.29786118784
1.75360782964
1.39723493791
1.1355250036
0.917973288419
0.720905384695
0.532489350014
0.375616353328
0.265946138019
0.194566772412
0.146619705561
1461.5678468
445.162173013
136.992943769
45.8529537461
19.3494146921
10.1749917842
6.00506832553
3.79610907583
2.57708559967
1.88568184095
1.47130041786
1.20140654106
0.996374425807
0.813245535734
0.638772088779
0.477324788513
0.348205475641
0.258273657567
0.197072053994
0.153367179158
2275.31594983
568.00980953
147.153063849
41.6203494213
16.2999977876
8.29347468597
4.83801953829
3.06631197482
2.0991518144
1.55520718343
1.23429204999
1.02731918519
0.86517920457
0.71320866876
0.564703891369
0.431181006986
0.327580537458
0.254283539164
0.201135100854
0.161022218259
3753.25014285
853.540749285
199.442533484
47.7344369154
15.9344441493
7.41051303042
4.17593052477
2.61217742176
1.77732375577
1.31812866444
1.05476332889
0.888199764328
0.75591683759
0.629353538639
0.505404407245
0.396936111546
0.313892110332
0.25250404875
0.205002424626
0.168304305482
4503.30560638
1142.260851
270.813053847
61.6946838946
18.0835914206
7.57232389024
4.02097811413
2.42263810901
1.60775644056
1.17530654847
0.936370072222
0.789852737193
0.675447735254
0.566976332441
0.462635919328
0.372923185935
0.303412610514
0.249501364945
0.207289201022
0.175055524239
4362.48306822
1230.59749622
322.43974217
77.4661499154
21.7993600626
8.5756175355
4.29428443169
2.47182539355
1.58237844782
1.12334587751
0.878103931633
0.732881478713
0.624605952341
0.525404706155
0.432936358756
0.353613160337
0.291601737556
0.244737593603
0.208512201898
0.181349593983
4302.40248213
1233.90902955
340.417906226
87.6942013169
25.8625926788
10.2005103842
4.99491951371
2.7774462965
1.70706928519
1.16349802926
0.879099390476
0.715685608061
0.600244624323
0.500036071096
0.41121642889
0.337190527569
0.280891876101
0.240091415654
0.209889815465
0.187677020186
4322.29027198
1275.4350271
366.690095837
101.789200341
32.2746844827
13.0785152378
6.35185193729
3.43177182333
2.01905517033
1.3095006635
0.942807607651
0.736842070277
0.599105335641
0.488203213959
0.397797373413
0.326371827185
0.274347436076
0.238171750093
0.21306793227
0.195018828633
4374.95961898
1391.632048
438.521771579
136.180566981
46.6287559798
18.9518734195
8.906545097
4.60906283217
2.5817337958
1.58385957219
1.07532057728
0.795549562145
0.618325030721
0.490299862415
0.394746967141
0.323951171787
0.274156783874
0.241282893228
0.219838388464
0.204925937148
4498.43235126
1367.41510657
449.037818594
160.07160665
61.7264158308
26.2066491901
12.2467354688
6.18094960244
3.33825748678
1.95464605345
1.25550628961
0.877602875775
0.651325480749
0.502191468305
0.399552781563
0.328899183694
0.281371388296
0.250983921648
0.232114344659
0.219457494933
4161.51866697
1160.60750048
388.782229207
147.95072737
62.03021846
28.2777550941
13.7906191277
7.08345740229
3.82364377664
2.21058600413
1.38536725779
0.937912898042
0.676643349228
0.513315333777
0.407375416486
0.338664827309
0.294954302891
0.267530768304
0.250969015231
0.240377298966
3271.68062626
920.865165464
310.280988616
119.36632978
51.3317949474
24.3346307187
12.4155898278
6.65681599247
3.70900969922
2.19189589516
1.38790986762
0.939967186137
0.676730927737
0.515156475488
0.413938844105
0.351130054135
0.31286092538
0.289550208386
0.275795454482
0.269038238076
2747.39823508
757.933826846
245.894572216
91.7606466069
39.32108209
19.0699525451
10.0820806289
5.62197351837
3.2588195501
1.99030829655
1.28922865005
0.887523582202
0.649360665086
0.504958640734
0.417106361267
0.364706918043
0.33346436368
0.315224104781
0.305872863055
0.309966808513
2638.3527976
684.830122031
204.673754331
71.5537086338
30.0147960424
14.7873432317
8.05030228215
4.63220151201
2.76220761122
1.72429731425