/*--------------------------------*- C++ -*----------------------------------*\
| =========                 |                                                 |
| \\      /  F ield         | OpenFOAM: The Open Source CFD Toolbox           |
|  \\    /   O peration     | Version:  2312                                  |
|   \\  /    A nd           | Website:  www.openfoam.com                      |
|    \\/     M anipulation  |                                                 |
\*---------------------------------------------------------------------------*/
FoamFile
{
    version     2.0;
    format      ascii;
    arch        "LSB;label=32;scalar=64";
    class       volScalarField;
    location    "0.99/water";
    object      alpha.gas;
}
// * * * * * * * * * * * * * * * * * * * * * * * * * * * * * * * * * * * * * //

dimensions      [0 0 0 0 0 0 0];

internalField   nonuniform List<scalar> 
1504
(
0.680356799545
0.607382608628
0.553918751312
0.488074219173
0.416582676865
0.34282909117
0.286708412703
0.281786658622
0.281265597377
0.281534331062
0.280847704481
0.281534331062
0.2825006664
0.334238872512
0.363505672366
0.363833744567
0.351754997042
0.284086577607
0.152989975762
0.0361948345313
0.685735549864
0.574835537361
0.50568041665
0.42560562685
0.353782991978
0.294481911388
0.281786658622
0.281152951558
0.281534331062
0.280648179286
0.280829648077
0.281156699517
0.294305893813
0.341617450466
0.360235525871
0.36386094878
0.36648898811
0.318801490755
0.19105368757
0.0515136207132
0.680356799545
0.526518293472
0.445019778029
0.362758952021
0.304451036826
0.281786658622
0.281145487493
0.281534331062
0.280432593673
0.280829648077
0.280360101803
0.281192233776
0.300942037483
0.336132932447
0.350290203802
0.364409481581
0.371215335552
0.355220688411
0.238032889012
0.0736870553899
0.682134272517
0.455720148064
0.375797810858
0.314575100866
0.283293169118
0.281273101952
0.281534331062
0.280432593673
0.280829648077
0.280137944249
0.280607063825
0.281205433649
0.299420594026
0.316694559964
0.335259103185
0.363933385668
0.371264194299
0.370303237938
0.276465537294
0.103185209047
0.669860048839
0.371326203622
0.322832820471
0.297537022421
0.281642037464
0.281534331062
0.280434542328
0.280829648077
0.280121508858
0.280607063825
0.28040068417
0.281923968983
0.286793696677
0.292953620663
0.320919190823
0.361232743589
0.371298158048
0.372237628209
0.306217879687
0.14138345233
0.574250733482
0.331485514514
0.32165334487
0.305868178611
0.289135744334
0.281378012593
0.281534331062
0.282819236717
0.288185367315
0.28587289305
0.278700296529
0.273264667335
0.270023043073
0.276179483746
0.305605515649
0.35179801914
0.370924844327
0.372812571603
0.333553865206
0.189418915271
0.461748863333
0.35874961776
0.368993209095
0.354634359591
0.319339276134
0.294295480332
0.291445738111
0.298052346611
0.291807811972
0.279584855619
0.267621385798
0.26172279456
0.260228303253
0.264392515454
0.283802414248
0.330053771941
0.366231538393
0.373069156916
0.358992094952
0.243724353966
0.478151654808
0.498588455814
0.507385226299
0.473284939131
0.406516980118
0.353713939426
0.323864368608
0.306046129683
0.288219733693
0.270370848993
0.258545097631
0.25461231275
0.254112856762
0.255637445082
0.260571778881
0.294014502664
0.3470640582
0.374032674577
0.386299462043
0.29605015588
0.623113010841
0.687204504312
0.660451830226
0.630138201582
0.576302667712
0.509410083501
0.425528713589
0.34874449925
0.300912587524
0.272989326158
0.256442591326
0.249657660296
0.249203439625
0.249981633779
0.249164799275
0.259188479251
0.310966329994
0.369128739528
0.387433848844
0.339713713815
0.780826296015
0.771863760799
0.745041528716
0.732790319663
0.716554961051
0.686334633479
0.613389126053
0.48951754274
0.375215135948
0.302404391015
0.261632975911
0.246542983479
0.245872308514
0.246811067682
0.246180428383
0.245812784047
0.270133442442
0.347196291909
0.387440191133
0.372254834892
0.832336432721
0.787484875303
0.771382162781
0.768076067882
0.765933924304
0.757410742291
0.722192820689
0.625523623054
0.485748669383
0.365797118459
0.282773482346
0.245527870221
0.244348324805
0.245160428956
0.245136321306
0.244094106967
0.247738043979
0.313176621494
0.387218121611
0.395886985805
0.831520871179
0.790439829387
0.781219347648
0.77933937444
0.779149046249
0.773245435225
0.745069291259
0.670916333974
0.545308261258
0.41530779943
0.30768255207
0.245912605768
0.244077206231
0.244075043933
0.244564372396
0.243895586211
0.243952931433
0.284441658463
0.381065809877
0.39941203373
0.834534035745
0.791491904019
0.786950694594
0.784715219061
0.784243008153
0.776997268691
0.747326910029
0.676369136472
0.559007779886
0.430285698292
0.315578937335
0.247250546821
0.243844262361
0.243807263846
0.243895186224
0.243703294363
0.243646820841
0.266084364751
0.365313595244
0.399421960364
0.832492598183
0.791403397952
0.790452921185
0.787570004819
0.786308400584
0.777050566657
0.744234036443
0.670582624378
0.554966565262
0.427142595334
0.310629983263
0.246338785603
0.243770397017
0.243649307262
0.243630280113
0.243562910755
0.24342584113
0.256310340845
0.346935148209
0.399410979472
0.83505832567
0.790381090237
0.790183586604
0.788528634288
0.786066098973
0.772891609587
0.730519927733
0.647504469062
0.531337177525
0.404576908785
0.289813594117
0.244053309789
0.243604227216
0.243626554501
0.243483637349
0.243468035899
0.243306308053
0.25152482554
0.332716537669
0.399419168643
0.83294065079
0.788544371467
0.789892643044
0.787694088495
0.782037982505
0.75936336226
0.70312379962
0.608295339096
0.489075782644
0.363552335114
0.262354862901
0.243613879357
0.243626554501
0.243301532638
0.24342584113
0.243329567657
0.243345978733
0.249900636392
0.32488308929
0.398832317472
0.834581489658
0.78611139899
0.78816748782
0.782592277138
0.769852177717
0.73461974823
0.66447900924
0.559778557107
0.437122152946
0.315026549724
0.245819806529
0.243626554501
0.243200241529
0.24342584113
0.243157251989
0.243345978733
0.243087160519
0.250228075404
0.322685311183
0.398438954392
0.832172144894
0.783944337972
0.780925608791
0.769425904472
0.747524780289
0.6998821782
0.616570533375
0.503590722246
0.377978798473
0.269735438309
0.243626554501
0.243203760866
0.24342584113
0.242912168002
0.243345978733
0.243036108966
0.243243414787
0.252002364988
0.3216286713
0.397957420008
0.834505673005
0.780611163008
0.765144197726
0.746230202062
0.715185206998
0.655487705544
0.559944087443
0.439101298866
0.314557120787
0.245609227753
0.243324857762
0.24342584113
0.242744984771
0.243345978733
0.242797065501
0.243243414787
0.242904839219
0.255526781439
0.322163425609
0.397657370881
0.831520871179
0.770472617474
0.738566803187
0.711933819691
0.671356843866
0.599090625028
0.492816006766
0.367378973209
0.262718040002
0.243404604674
0.24342584113
0.242658458008
0.243345978733
0.242489733521
0.243243414787
0.242761582738
0.243136228059
0.259487956116
0.323653265377
0.396261697868
0.833906840449
0.741972201739
0.69892556479
0.663413795531
0.611069777511
0.526641586141
0.413228800969
0.295373005145
0.243895187203
0.24342584113
0.242689569729
0.243345978733
0.242247756316
0.243243414787
0.242480306002
0.243136228059
0.242758633802
0.263201928837
0.324086983458
0.392985370939
0.830718330672
0.687671831317
0.64277120019
0.593959133447
0.527478934291
0.433807786893
0.323846209517
0.248792464214
0.24342584113
0.242701890465
0.243345978733
0.242068580542
0.243243414787
0.24217288948
0.243136228059
0.242548155916
0.243011530967
0.264633248622
0.321778169147
0.388334537987
0.833014783983
0.618464941934
0.563595351408
0.496153782298
0.417780544369
0.326163577843
0.253948262935
0.24342584113
0.242635619149
0.243345978733
0.241843454147
0.243243414787
0.241840180005
0.243136228059
0.242272359055
0.243011530967
0.242697019188
0.262984153609
0.313564022443
0.381180229998
0.830178492172
0.53734537086
0.459373512169
0.374669826016
0.300595788506
0.250552868764
0.24342584113
0.242527320832
0.243345978733
0.241517777888
0.243243414787
0.241433018157
0.243136228059
0.24195918716
0.243011530967
0.242485923213
0.242828112132
0.255717915441
0.297798761812
0.369757604563
0.830538606469
0.447185149203
0.342933682988
0.265804743613
0.244666765283
0.243626554501
0.2425119617
0.24342584113
0.241218546454
0.243345978733
0.241019903532
0.243243414787
0.241671951434
0.243136228059
0.242405473938
0.244305615635
0.241791334108
0.243232150591
0.276341761851
0.35319989599
0.781523399529
0.343353719367
0.261563113295
0.243521598644
0.243770397017
0.242266523018
0.243626554501
0.240846098004
0.24342584113
0.240475808017
0.243345978733
0.241261829458
0.243243414787
0.245583368797
0.252608382425
0.246391795123
0.2349471318
0.229613315834
0.253603922931
0.329620867687
0.649479484031
0.305578517032
0.255675786621
0.243954593812
0.242113365819
0.243770397017
0.240388917383
0.243626554501
0.240312296326
0.24342584113
0.240738662326
0.243345978733
0.250846331697
0.25956481275
0.255737287716
0.243057827439
0.228383174247
0.221932780983
0.233001152675
0.297278778445
0.521691725866
0.339800583299
0.299650657827
0.26628073335
0.245854847678
0.241749994232
0.243770397017
0.240312296326
0.243626554501
0.240608075435
0.24342584113
0.258116817901
0.265817872535
0.260773658831
0.252399669426
0.239212281241
0.226282700899
0.219176310153
0.219747026369
0.26074924016
0.53354852886
0.490420738626
0.469925316956
0.42177611045
0.361644473781
0.321262893632
0.302137251435
0.29566604202
0.28642237023
0.280504383595
0.279787546572
0.277855004172
0.265906888477
0.255408829068
0.247066115897
0.238242097417
0.226353741179
0.218751880003
0.218712553997
0.231395273296
0.644889385582
0.681088185234
0.673904709438
0.651681551309
0.610069228504
0.571069216598
0.546780965609
0.526229152919
0.485484806683
0.421400004685
0.351590051896
0.301169788911
0.269040115361
0.251348351934
0.242514841171
0.237820358035
0.228139539696
0.219188368381
0.218563423687
0.218846746183
0.753651179408
0.754395098153
0.754242269711
0.754727297925
0.749466747761
0.742646772854
0.734065253832
0.722683308173
0.690133780546
0.616571322135
0.489113465907
0.373993538513
0.297594373758
0.254765898613
0.238064857701
0.235884861423
0.230835472977
0.221323147671
0.218712553997
0.218564429688
0.761875171398
0.759207474584
0.760687554597
0.759207474584
0.761063765214
0.759071098252
0.760632559592
0.75901849227
0.756943249623
0.718997175121
0.615800062903
0.479958352836
0.361420783232
0.273988582325
0.235765637972
0.231966889654
0.231051362073
0.224908249237
0.218432979393
0.218712553997
0.759211360115
0.760082577552
0.759207474584
0.761278477239
0.759106097627
0.761366239378
0.759045429443
0.760742287998
0.75901849227
0.740055414978
0.666029882898
0.544248232048
0.415830603821
0.302439934646
0.237128118549
0.229131468741
0.229739383231
0.227505616393
0.218712553997
0.21842420285
0.76174977073
0.759137865592
0.760644997149
0.759165865466
0.761348541471
0.759106097627
0.761286726868
0.75901849227
0.759779578382
0.743190712011
0.676495846468
0.56418853034
0.436902988621
0.316408664958
0.239089586616
0.228491759159
0.228468601887
0.228400281149
0.223016621032
0.218712553997
0.759211360115
0.759634754
0.759207474584
0.760662875035
0.759106097627
0.76110072625
0.75901849227
0.760611461494
0.75901849227
0.742477017347
0.67534935646
0.564880835712
0.438186709536
0.315998955583
0.237757509045
0.228456432106
0.228465585219
0.228430598735
0.230531946155
0.224104361501
0.760196371312
0.757696758946
0.75957932638
0.759106097627
0.76054244514
0.75901849227
0.760795951094
0.75901849227
0.759141875726
0.735854490142
0.663051539195
0.553114008937
0.426543160473
0.302974178552
0.232645504549
0.228525098158
0.228397384681
0.228465585219
0.23753756847
0.235359426422
0.759207474584
0.7417905705
0.748578740135
0.759443577561
0.75901849227
0.760176495955
0.75901849227
0.759672880071
0.758089177208
0.718469481944
0.634987655992
0.523185937593
0.396566250881
0.277045036908
0.228782025818
0.228422969487
0.228525098158
0.22882226467
0.246741951546
0.246807603704
0.759180175402
0.700167593217
0.714995826548
0.747068438634
0.759425986305
0.75901849227
0.759606081181
1e-15
1e-15
1.02890927745e-15
1.0297886761e-15
1.02890927745e-15
1.02902106388e-15
1.02419599454e-15
1.01276686495e-15
1.0102834797e-15
1.0099444717e-15
1.01024758772e-15
1.01123853495e-15
1.01345711489e-15
1.01917556867e-15
1.03133304706e-15
1.02251150149e-15
1.70059936516e-15
0.0018078395823
3.3986739226e-06
1e-15
1e-15
1e-15
1.02906447211e-15
1.02890927745e-15
1.02926325746e-15
1.02873399674e-15
1.01604469149e-15
1.00969822964e-15
1.00859169744e-15
1.00841310102e-15
1.00869050082e-15
1.00948552473e-15
1.01126894541e-15
1.01606661069e-15
1.03143272591e-15
1.01890721948e-15
1.71349891391e-15
0.00301929653011
8.29493223349e-06
1e-15
1e-15
1e-15
1.02547387028e-15
1.02919081388e-15
1.02890927745e-15
1.02059885128e-15
1.01001582515e-15
1.00751976685e-15
1.00693973131e-15
1.0068610754e-15
1.00710741777e-15
1.00773182855e-15
1.00906508812e-15
1.01266165303e-15
1.03154252951e-15
1.01769268737e-15
1.72414221826e-15
0.00528348220204
2.43558359398e-05
1e-15
1e-15
1e-15
1.01878959554e-15
1.02841686529e-15
1.02243959374e-15
1.01109199459e-15
1.00665745556e-15
1.00549801458e-15
1.00508966462e-15
1.00504825376e-15
1.00525623467e-15
1.00577233667e-15
1.00683927851e-15
1.009586584e-15
1.03165233312e-15
1.01751997331e-15
1.74558321839e-15
0.00977088763775
8.55234233992e-05
9.42803005831e-09
1e-15
1e-15
1e-15
1.01628285026e-15
1.01118433873e-15
1.00585781814e-15
1.00401582111e-15
1.00325940624e-15
1.00296698251e-15
1.00295020883e-15
1.00312394958e-15
1.00353639504e-15
1.00441664687e-15
1.00677367234e-15
1.03176213672e-15
1.02149232304e-15
1.75021486469e-15
0.018723495479
0.000320795529637
7.94187143022e-07
1e-15
1e-15
1e-15
1.00650314712e-15
1.00479742113e-15
1.00254691069e-15
1.00148959935e-15
1.00102994758e-15
1.00088895837e-15
1.00090415928e-15
1.00102795182e-15
1.00130863087e-15
1.00197230584e-15
1.00396813441e-15
1.03241733271e-15
1.03301450662e-15
1.75053233703e-15
0.0368900971273
0.00122640336914
8.82505553242e-06
8.9568351541e-11
1e-15
1e-15
1.00171986562e-15
1.00126876926e-15
1.00037185271e-15
1.00005467428e-15
1.00000084186e-15
1e-15
1e-15
1.00001217489e-15
1.00006999095e-15
1.00031285882e-15
1.00138656206e-15
1.03426822729e-15
1.0459728568e-15
1.75086950792e-15
0.0718010937632
0.00462590161626
7.14081132389e-05
6.50967275169e-08
1e-15
1e-15
1.00038941139e-15
1.00000239202e-15
1e-15
1e-15
1e-15
1e-15
1e-15
1e-15
1e-15
1e-15
1.00007006572e-15
1.03764735463e-15
1.0613687291e-15
1.75120667881e-15
0.127203206989
0.0157338541408
0.000452750835096
1.49419671735e-06
1e-15
1e-15
1e-15
1e-15
1e-15
1e-15
1e-15
1e-15
1e-15
1e-15
1e-15
1e-15
1.00113530667e-15
1.04244496472e-15
1.08027260738e-15
1.75154384971e-15
0.194502755191
0.0427412582636
0.00224223409321
1.90615221192e-05
1e-15
1e-15
1e-15
1e-15
1e-15
1e-15
1e-15
1e-15
1e-15
1e-15
1e-15
1e-15
1.00859491182e-15
1.04853286883e-15
1.10150329499e-15
1.75688513909e-15
0.256737699872
0.087182152372
0.00853381385541
0.000155162804422
4.82228489515e-08
1e-15
1e-15
1e-15
1e-15
1e-15
1e-15
1e-15
1e-15
1e-15
1e-15
1e-15
1.0162785427e-15
1.05598301799e-15
1.12363149918e-15
1.77252934803e-15
0.303425961591
0.137824506527
0.0233274585294
0.000876008964499
2.15443550662e-06
1e-15
1e-15
1e-15
1e-15
1e-15
1e-15
1e-15
1e-15
1e-15
1e-15
1e-15
1.02337533557e-15
1.06471292068e-15
1.14454358975e-15
1.78317371842e-15
0.333478859649
0.182897244299
0.0463686142346
0.00325163250249
2.82680270423e-05
1.08735817418e-15
1e-15
1e-15
1e-15
1e-15
1e-15
1e-15
1e-15
1e-15
1e-15
1.00175696653e-15
1.03110415935e-15
1.074501432e-15
1.16442498552e-15
1.78885998598e-15
0.352445691901
0.219357258272
0.0736285349599
0.00830999588441
0.000161386858225
1.12502908501e-15
1e-15
1e-15
1e-15
1e-15
1e-15
1e-15
1e-15
1e-15
1.00309380579e-15
1.02015007383e-15
1.03961334232e-15
1.08504650268e-15
1.18333921343e-15
1.79678823231e-15
0.36574372219
0.249507496889
0.101927438351
0.0163940120049
0.000560676298792
4.45000324422e-07
1e-15
1e-15
1e-15
1e-15
1.00099260224e-15
1.00333521323e-15
1.00721383434e-15
1.01370376436e-15
1.02248587925e-15
1.02978718301e-15
1.04851358226e-15
1.09605086985e-15
1.20085135484e-15
1.80860167859e-15
0.376945975364
0.276939807934
0.130795817309
0.0275733132019
0.00145773028894
5.15214972341e-06
1e-15
1e-15
1e-15
1.01843726889e-15
1.02245199368e-15
1.02374990342e-15
1.02541129001e-15
1.02785438991e-15
1.03133496064e-15
1.0371583028e-15
1.05704056568e-15
1.10714257335e-15
1.21666014366e-15
1.82354354843e-15
0.387830961897
0.303811064779
0.161066541002
0.0422467757979
0.0032041388244
2.63175325178e-05
1.06798888673e-15
1e-15
1e-15
1.02253950483e-15
1.03101644474e-15
1.03170358101e-15
1.03257366512e-15
1.03426645628e-15
1.03741788381e-15
1.04317398583e-15
1.06459831624e-15
1.11789231291e-15
1.23077567808e-15
1.84092120222e-15
0.398417967283
0.33092405424
0.19359280993
0.0608916432494
0.00631073805318
9.46383873791e-05
1e-15
1e-15
1e-15
1.01587425309e-15
1.03255586815e-15
1.03626759046e-15
1.03715648364e-15
1.03868821362e-15
1.04171103191e-15
1.04731803062e-15
1.07067061076e-15
1.12782863476e-15
1.24334969428e-15
1.86009798798e-15
0.411368080016
0.356966601971
0.22644119191
0.0828347140303
0.0113537130954
0.000281917535688
1.00409834271e-08
1e-15
1e-15
1.00545768292e-15
1.03116286848e-15
1.03849141945e-15
1.03948704785e-15
1.04086601848e-15
1.04373493648e-15
1.04925466615e-15
1.07491183514e-15
1.13648707175e-15
1.25437839109e-15
1.88150589952e-15
0.420476644773
0.376428273379
0.255314464732
0.10667654878
0.0189555124727
0.000754716916926
1.19517979154e-06
1e-15
1.00035654461e-15
1.00083872028e-15
1.02365556027e-15
1.03648667004e-15
1.03918117889e-15
1.04061169299e-15
1.04336059823e-15
1.04893954304e-15
1.07707856666e-15
1.14357981121e-15
1.26523961602e-15
1.90279057788e-15
0.420487457343
0.387955150645
0.280433480271
0.132212652153
0.029629095386
0.00184262622084
1.12154393258e-05
1e-15
1e-15
1e-15
1.00734932531e-15
1.03004108947e-15
1.0359427267e-15
1.0374373121e-15
1.04009061368e-15
1.04591632032e-15
1.07731108739e-15
1.14907690924e-15
1.27591364838e-15
1.92194547051e-15
0.420290465745
0.397229753783
0.305410118872
0.161019669395
0.0441908037849
0.00410670125067
6.41461066044e-05
1e-15
1e-15
1e-15
1.00173508687e-15
1.01515496892e-15
1.02764895557e-15
1.03134555649e-15
1.03412459254e-15
1.04022903581e-15
1.07599185903e-15
1.15314058907e-15
1.28442874404e-15
1.93977665841e-15
0.418647349669
0.406628125945
0.3323338428
0.194914968293
0.0644809869685
0.00864302677113
0.000305212876342
1.47316117908e-06
1e-15
1e-15
1.00066287476e-15
1.00561717888e-15
1.01973755432e-15
1.02377439898e-15
1.02641361096e-15
1.03266819128e-15
1.07339743996e-15
1.15606390616e-15
1.29036229027e-15
1.95557795631e-15
0.416014552553
0.41562580557
0.359258973363
0.23380920786
0.0928021952844
0.0173468219821
0.00123788649185
2.62975608539e-05
3.53505226588e-08
1e-15
1e-15
1e-15
1.00221936342e-15
1.0150416626e-15
1.01816813164e-15
1.02428107396e-15
1.07033559645e-15
1.15848275095e-15
1.2927075838e-15
1.96971373623e-15
0.413378178039
0.423249619538
0.384262660696
0.275874684052
0.130448061182
0.0329087757568
0.00398918345165
0.000224019020764
3.42113822213e-06
1e-15
1e-15
1e-15
1.00036464207e-15
1.00802022273e-15
1.01005115315e-15
1.01554775098e-15
1.06668045673e-15
1.16229069043e-15
1.28766735107e-15
1.98483838628e-15
0.409608376475
0.42759812879
0.409887478711
0.319272151994
0.176581520416
0.0583929410421
0.0107466195152
0.00119924451685
5.83298975773e-05
2.57546543226e-07
1e-15
1e-15
1.0001611881e-15
1.00066338315e-15
1.00256409581e-15
1.00683491535e-15
1.06120066355e-15
1.17734106656e-15
1.28637688901e-15
1.99720820672e-15
0.402099956758
0.427686121144
0.427283244071
0.355066685044
0.22596095265
0.0955399847187
0.0248660084327
0.0043263788781
0.000471409022794
1.44454040418e-05
4.12201424521e-09
1e-15
1e-15
1e-15
1e-15
1.00000908903e-15
1.04345691146e-15
1.18400929205e-15
1.30039648009e-15
2.02454972528e-15
0.386828782225
0.427658651248
0.432406770231
0.382610565102
0.273267696357
0.142094278537
0.049198011418
0.0118348212727
0.00208986264014
0.000172608905881
1.34012866844e-06
1e-15
1e-15
1e-15
1e-15
1e-15
1.00045781736e-15
1.14713663769e-15
1.3014491494e-15
2.12664967464e-15
0.36162343557
0.425391008651
0.43354031117
0.413255231249
0.32079592219
0.193560267492
0.0837177618684
0.0259620320944
0.00614254245331
0.000957845332767
4.4763832921e-05
1.22191058739e-11
1e-15
1e-15
1e-15
1e-15
1e-15
1.04579598664e-15
1.26633029474e-15
2.36230687487e-15
0.326495085939
0.417278703619
0.433663614339
0.433128664668
0.361511954934
0.243711437251
0.123962017955
0.0468205007778
0.0137070788558
0.00302088171465
0.000320984532757
4.05653230011e-06
1e-15
1e-15
1.01351284624e-15
1.02591218873e-15
1.00124773251e-15
1.00105390744e-15
1.1426413081e-15
2.96884354975e-15
0.28530306733
0.398158957228
0.433741426293
0.433815869693
0.389713090909
0.284518699886
0.161319832263
0.07044368252
0.0242867761542
0.00659501503939
0.00115336273707
6.34694674888e-05
4.37438431076e-09
2.09581565375e-12
6.42991407246e-12
6.58253705297e-12
2.22553796521e-12
3.1848939041e-13
1.49358184324e-14
1.59620929584e-13
0.245940106102
0.365322703258
0.433783494334
0.433886523743
0.410022745055
0.315395950053
0.192350963073
0.0932776007879
0.036559938006
0.011601583273
0.00271504534035
0.00030811997703
5.01003982208e-06
2.91144674609e-08
1.0384047204e-07
1.2135445445e-07
6.3416029773e-08
1.00820484658e-08
8.81696675789e-11
1.10096936125e-11
0.21926726983
0.322617175992
0.4287526227
0.433966742291
0.431235299059
0.345342337181
0.223189460676
0.118556662815
0.0523533445997
0.019209531757
0.00560471708225
0.00106163770478
7.86633756978e-05
1.4871654101e-05
6.4767857274e-05
0.000104591665203
8.76808205706e-05
2.23564431817e-05
5.85163517311e-07
1.38674410523e-09
0.218712553997
0.278400413304
0.408488802866
0.434033754535
0.434095356338
0.375166661462
0.263645666734
0.155234382343
0.0786817526158
0.0344484756472
0.012861756715
0.00381488951013
0.000921903227719
0.00075211769167
0.00297952315228
0.00734165825938
0.00968731691718
0.00450009691779
0.000354701908976
2.4464875609e-06
0.218407416018
0.244831773027
0.362672017429
0.434095356338
0.434186636613
0.406502751709
0.320266390575
0.21494016527
0.128408899457
0.0699904167345
0.0353523500084
0.0168276195576
0.00824920682797
0.00926682716854
0.0218200872534
0.0767324150204
0.156763775474
0.124546709088
0.0269069037927
0.000438383806078
0.218712553997
0.227463833117
0.304880188474
0.413655057713
0.434277383317
0.434367985992
0.389178900207
0.306124302624
0.218854057032
0.149034663316
0.100125842885
0.0701287271015
0.0524623387202
0.0545472661399
0.0767331377791
0.239030064595
0.57040497262
0.593457201455
0.263691931239
0.00781975453504
0.221274638952
0.220988142385
0.256513093095
0.356819161011
0.4290761277
0.440367574772
0.436650650577
0.401277866919
0.345611454046
0.289633797206
0.244722118933
0.212561781419
0.18938717874
0.193978519934
0.268637797479
0.58455832952
0.696812059518
0.695128922397
0.529578951689
0.0299783307727
0.228636967507
0.218245049379
0.230407069835
0.290597271172
0.385260730528
0.44041588228
0.445779522308
0.445799603784
0.434103071132
0.413976759396
0.39590933148
0.379119963973
0.363574079292
0.37634412326
0.507110332705
0.696450001287
0.69505286926
0.696772227481
0.611871309203
0.0534148715282
)
;

boundaryField
{
    emptyPatch
    {
        type            empty;
    }
    minY
    {
        type            fixedValue;
        value           nonuniform List<scalar> 0();
    }
    maxY
    {
        type            inletOutlet;
        phi             phi.gas;
        inletValue      nonuniform List<scalar> 0();
        value           nonuniform List<scalar> 0();
    }
    maxX
    {
        type            zeroGradient;
    }
    water_to_heater
    {
        type            zeroGradient;
    }
    procBoundary3to1
    {
        type            processor;
        value           nonuniform List<scalar> 
41
(
0.758832739553
0.746701742142
0.688664734368
0.596644795506
0.483098450685
0.357301856231
0.250663919052
0.228520901343
0.228587854662
0.228352225961
0.232345162697
0.26168715534
0.258848535233
0.754674065023
0.637992489973
0.670490624434
0.719356934633
0.753928236787
0.759083199009
0.758832739553
0.758832739553
0.231453688617
0.218216732792
0.218801503835
0.243398364272
0.314886440036
0.401820452661
0.444051319484
0.457341363542
0.457442401168
0.455372434316
0.450974501849
0.44618269039
0.446582314071
0.461221823153
0.560021180466
0.694910630659
0.696818251903
0.695011667457
0.627984294164
0.0590296215329
)
;
    }
    procBoundary3to2
    {
        type            processor;
        value           nonuniform List<scalar> 
41
(
0.685625864723
0.62952373974
0.593599968493
0.544503994378
0.477855533274
0.398831005258
0.320208397761
0.282224990374
0.281786658622
0.281324227306
0.281534331062
0.281157049116
0.281786658622
0.31197494884
0.362004531604
0.363806539821
0.342528204674
0.259818135603
0.126939900554
0.0260415564863
1e-15
1.02150586708e-15
1.02969953524e-15
1.02890927745e-15
1.02958938294e-15
1.02890927745e-15
1.02897597311e-15
1.0162945347e-15
1.01150148476e-15
1.01100166126e-15
1.01135588711e-15
1.01250386913e-15
1.0149258757e-15
1.02138106872e-15
1.03123892183e-15
1.0261740366e-15
1.68546767114e-15
0.00109223888606
1.31714605916e-06
1e-15
1e-15
)
;
    }
}


// ************************************************************************* //
