/*--------------------------------*- C++ -*----------------------------------*\
| =========                 |                                                 |
| \\      /  F ield         | OpenFOAM: The Open Source CFD Toolbox           |
|  \\    /   O peration     | Version:  2312                                  |
|   \\  /    A nd           | Website:  www.openfoam.com                      |
|    \\/     M anipulation  |                                                 |
\*---------------------------------------------------------------------------*/
FoamFile
{
    version     2.0;
    format      ascii;
    arch        "LSB;label=32;scalar=64";
    class       volVectorField;
    location    "0.22/water";
    object      U.gas;
}
// * * * * * * * * * * * * * * * * * * * * * * * * * * * * * * * * * * * * * //

dimensions      [0 1 -1 0 0 0 0];

internalField   nonuniform List<vector> 
1496
(
(0.00552991916344 1.92354220552 0)
(0.0178519706126 2.74132978804 0)
(0.0332888218469 2.67533358978 0)
(0.0515400334531 2.39309515119 0)
(0.0696684344063 2.15417896175 0)
(0.0846572605842 1.99087225025 0)
(0.0950771377993 1.87169951449 0)
(0.100143055607 1.76431562689 0)
(0.0995140495987 1.64491186666 0)
(0.0915982547857 1.48008701236 0)
(0.0813073928391 1.07486832435 0)
(0.0734394984136 0.853360175721 0)
(0.0651951015855 0.730908983802 0)
(0.0547957587442 0.656447352795 0)
(0.0403126100087 0.614313989994 0)
(0.0217762870597 0.597040197249 0)
(0.0084679499441 0.593845339752 0)
(0.0130368669613 0.598777410063 0)
(0.0380380015273 0.597328816591 0)
(0.0799125661149 0.574190373617 0)
(-0.00228948124168 1.89993101571 0)
(-0.00263266135215 2.66189862449 0)
(0.00592998913504 2.5709790223 0)
(0.0208135352655 2.2945206531 0)
(0.0361190581934 2.0774405934 0)
(0.0482928109956 1.93671349175 0)
(0.0568344765363 1.83737057691 0)
(0.0623909402285 1.74733064622 0)
(0.0657749429901 1.64259346402 0)
(0.0685909907541 1.49213685917 0)
(0.0737391347578 1.07234716142 0)
(0.0767637346033 0.862774263846 0)
(0.0735925605616 0.745263518756 0)
(0.0664619237031 0.67123461098 0)
(0.05470911087 0.627506633191 0)
(0.0385981516758 0.609956850033 0)
(0.0274758767604 0.607793758608 0)
(0.0344515454988 0.613121427548 0)
(0.0629398369711 0.610323868782 0)
(0.111426511831 0.586890236103 0)
(-0.013698539633 1.98733980997 0)
(-0.032402062255 2.6553184192 0)
(-0.0341081530233 2.50963835708 0)
(-0.0263558349682 2.23547042705 0)
(-0.0186532918977 2.03671642003 0)
(-0.0129974513383 1.91038304478 0)
(-0.00795501646539 1.8172469231 0)
(-0.00252535967857 1.73057398118 0)
(0.00498800092485 1.62055030942 0)
(0.0346962607403 1.39632638293 0)
(0.0690755828692 1.02590133427 0)
(0.0803625435856 0.856139799331 0)
(0.0810190018687 0.752731132219 0)
(0.0762270730983 0.684138509443 0)
(0.066493410556 0.642494862299 0)
(0.0531348843432 0.626686788915 0)
(0.045878829719 0.626872035787 0)
(0.057343246623 0.632831668092 0)
(0.0917860446098 0.628875074414 0)
(0.151748820209 0.608098328623 0)
(-0.0304908650809 2.24552018477 0)
(-0.0780362350461 2.77553945739 0)
(-0.1023508881 2.54571881689 0)
(-0.114444158352 2.25861734961 0)
(-0.122520626828 2.05847460886 0)
(-0.127877337856 1.93032307157 0)
(-0.128525268388 1.81906478271 0)
(-0.112182025722 1.67520643196 0)
(-0.0517372816584 1.44085803274 0)
(0.0279421878127 1.19159857666 0)
(0.0717378430323 0.964459607971 0)
(0.0848085837442 0.841032807215 0)
(0.0881329308144 0.756005500391 0)
(0.0853847576989 0.696329238853 0)
(0.0776576832602 0.66003669554 0)
(0.0677717836853 0.648352172224 0)
(0.0657961224054 0.652366969735 0)
(0.0832579424686 0.659528170306 0)
(0.125836098041 0.656336335973 0)
(0.197469457699 0.647905334759 0)
(-0.0518331360558 2.75637510408 0)
(-0.137625138756 3.10319090068 0)
(-0.198169233985 2.76442130965 0)
(-0.250472472582 2.44072318149 0)
(-0.292195333631 2.17689643832 0)
(-0.267283163862 1.79165460199 0)
(-0.172896002654 1.62190581631 0)
(-0.0665592452728 1.43494532777 0)
(0.0123267170145 1.191773904 0)
(0.0536709777599 1.03059984531 0)
(0.0778477343069 0.913382038562 0)
(0.0909375214974 0.825373470025 0)
(0.0961737255001 0.758755701062 0)
(0.0955266740291 0.710230862898 0)
(0.0905043591355 0.68243439669 0)
(0.0856191657553 0.677363246646 0)
(0.0907974583405 0.686081961287 0)
(0.116904784111 0.695428740624 0)
(0.17395405391 0.698229340331 0)
(0.23313967315 0.715085622957 0)
(-0.0483470661658 3.4120841563 0)
(-0.130340502423 3.56982802242 0)
(-0.191087218343 3.10713321816 0)
(-0.237880526647 2.69882735328 0)
(-0.198697117847 2.01086706419 0)
(-0.110441885807 1.51189097929 0)
(-0.0538532932202 1.31887015165 0)
(-0.0036739814977 1.16746948851 0)
(0.0375852698975 1.05158730677 0)
(0.0684977576237 0.95319314553 0)
(0.0891959656345 0.875179873418 0)
(0.101897590825 0.813168121015 0)
(0.108313470902 0.763831701963 0)
(0.109720240415 0.728418427232 0)
(0.108540078161 0.712188142612 0)
(0.110173214441 0.716105594438 0)
(0.123730948533 0.730354087785 0)
(0.161623342764 0.746119682835 0)
(0.232639501063 0.771098294498 0)
(0.234318805682 0.800529846094 0)
(-0.0281191432314 3.93976504119 0)
(-0.0767078396318 3.97320452984 0)
(-0.113782565206 3.40666390494 0)
(-0.0901946851906 2.64215758627 0)
(-0.0389800357452 1.70779304321 0)
(-0.0152910769384 1.34236518848 0)
(0.0126206485853 1.16461310181 0)
(0.0424272789533 1.0468276932 0)
(0.0695476605345 0.964169665474 0)
(0.0920253939226 0.900143143051 0)
(0.1091594456 0.849151068521 0)
(0.121029658463 0.80729428093 0)
(0.128245896208 0.774224950656 0)
(0.132600341869 0.753632349835 0)
(0.137393769568 0.750997106945 0)
(0.147690559554 0.764754848864 0)
(0.174017491476 0.787854909817 0)
(0.23458901919 0.823569168757 0)
(0.271908513574 0.875798951183 0)
(0.176243913154 0.902157745745 0)
(0.00729902124439 4.12128054838 0)
(0.0193140529669 4.13727180811 0)
(0.0319583687871 3.51535540562 0)
(0.0505584028608 2.42700000068 0)
(0.0621564651097 1.65334872768 0)
(0.0655336458211 1.27890348515 0)
(0.0743012705513 1.08793245263 0)
(0.0891055233166 0.979447990722 0)
(0.106571025851 0.914069181595 0)
(0.123567695613 0.869852374255 0)
(0.13802604256 0.836706816557 0)
(0.149396474208 0.810672459485 0)
(0.158741554155 0.79276925029 0)
(0.168457585068 0.787448577908 0)
(0.181273516463 0.798240035412 0)
(0.204269361688 0.823745824513 0)
(0.255470743442 0.867404303819 0)
(0.303100184394 0.927521282218 0)
(0.229549249341 0.980257564923 0)
(0.0713712666556 1.0312586961 0)
(0.022459295564 3.97999238188 0)
(0.0614798743963 4.05681261391 0)
(0.0947249249209 3.42774990263 0)
(0.119620477115 2.34695725458 0)
(0.127627009357 1.64691415739 0)
(0.127874325118 1.26774781451 0)
(0.131452598004 1.06157072148 0)
(0.139831456344 0.949881360878 0)
(0.151490459841 0.891440992397 0)
(0.164508369437 0.858901945813 0)
(0.17723304921 0.838036487285 0)
(0.189352243677 0.824491473403 0)
(0.202315799263 0.820106412405 0)
(0.218293553229 0.828916395115 0)
(0.243129855445 0.854759935612 0)
(0.291686553439 0.903156299115 0)
(0.331874336268 0.964669398321 0)
(0.261050671617 1.02009553055 0)
(0.0952726005552 1.11655481765 0)
(-0.0107533993127 1.13732661426 0)
(0.0256913254204 3.71533812993 0)
(0.0717671535471 3.86263368574 0)
(0.113381016184 3.25091792674 0)
(0.147405397266 2.25132593597 0)
(0.164983117195 1.62657794691 0)
(0.172997272149 1.26228993269 0)
(0.180501550679 1.05476533011 0)
(0.190202831562 0.943116923866 0)
(0.201994415567 0.889482197619 0)
(0.214670043069 0.863462410833 0)
(0.226962104636 0.850503453733 0)
(0.239679150394 0.84662869733 0)
(0.256061954313 0.854597769199 0)
(0.283727693833 0.881092416184 0)
(0.333047998507 0.932891497239 0)
(0.35630807511 0.992593721333 0)
(0.269396367195 1.04792197355 0)
(0.112001911565 1.14028912258 0)
(0.00349273678054 1.26009787524 0)
(-0.0291785905246 1.17478793209 0)
(0.0201911804429 3.46433744596 0)
(0.0610948883919 3.64318594975 0)
(0.112435186214 3.00165603999 0)
(0.162123248532 2.10363100617 0)
(0.19112750212 1.56721924333 0)
(0.20835904199 1.24189888844 0)
(0.223092747059 1.05101327826 0)
(0.238874965631 0.949010122017 0)
(0.255517592437 0.900974033958 0)
(0.269916540327 0.879028328528 0)
(0.281549313649 0.871108680361 0)
(0.296618114123 0.876838443513 0)
(0.326943210231 0.904036132537 0)
(0.375788191181 0.958369403355 0)
(0.374385832661 1.01561386041 0)
(0.262781129862 1.07648929105 0)
(0.112796718242 1.16850068673 0)
(0.0164514443159 1.28471023812 0)
(-0.0246756179511 1.33765765181 0)
(-0.0293660388768 1.15880678216 0)
(0.0102250901514 3.30518057995 0)
(0.0354014581401 3.45088174343 0)
(0.100890195242 2.60159360715 0)
(0.174802231653 1.90925752985 0)
(0.212598979217 1.47599431345 0)
(0.238584656796 1.20629695794 0)
(0.261794834316 1.04725963475 0)
(0.286077771135 0.962961165306 0)
(0.308359330313 0.922100429184 0)
(0.324143302945 0.903760249139 0)
(0.340251344212 0.903122852948 0)
(0.373820458146 0.928689900386 0)
(0.417958289188 0.982969010365 0)
(0.386534517965 1.03839358351 0)
(0.250125073199 1.11139727319 0)
(0.107742568941 1.21320568608 0)
(0.0237159985714 1.31962444047 0)
(-0.0188359711578 1.37837108863 0)
(-0.0404946636348 1.36311857147 0)
(-0.0264602244265 1.09822120275 0)
(0.0237251681505 3.11737737344 0)
(0.0810549095333 3.20105589039 0)
(0.144862620687 2.20656408968 0)
(0.198522798427 1.70692015031 0)
(0.238936071093 1.37509101749 0)
(0.271383704552 1.1688205007 0)
(0.303733413901 1.04885925206 0)
(0.336152504405 0.984286913577 0)
(0.361435489841 0.951428013133 0)
(0.382671483315 0.940551071727 0)
(0.420115821895 0.960425927255 0)
(0.454262540741 1.01063214979 0)
(0.391483034726 1.06599565824 0)
(0.235927920925 1.15601168045 0)
(0.102350451912 1.27481885089 0)
(0.027669074192 1.37835424011 0)
(-0.016975118337 1.42669790692 0)
(-0.0465508997576 1.42675516271 0)
(-0.0516240440899 1.34291282311 0)
(-0.0194657977686 1.00515936706 0)
(0.00600051387444 2.96622458201 0)
(0.0750981770225 2.73909923139 0)
(0.170055918508 1.91966616315 0)
(0.22565838829 1.5280598048 0)
(0.269362094345 1.28836598814 0)
(0.310579764463 1.14364830277 0)
(0.353180488193 1.05884693129 0)
(0.3893797845 1.01098824105 0)
(0.418446728588 0.988412518627 0)
(0.45958535009 0.998751037988 0)
(0.478092629854 1.04116054613 0)
(0.385695649381 1.10083976782 0)
(0.220013124496 1.20991796582 0)
(0.0971414806656 1.34864305488 0)
(0.0295143660916 1.45493385984 0)
(-0.0182204893986 1.50128610536 0)
(-0.0540013589543 1.49782630548 0)
(-0.0741513414068 1.44068609113 0)
(-0.057461300432 1.26799160499 0)
(-0.00782689017147 0.901936104052 0)
(0.0287393814256 2.79549294334 0)
(0.114416114326 2.14227995118 0)
(0.200942632124 1.65057774581 0)
(0.256438651963 1.3844525771 0)
(0.308226130462 1.2275187256 0)
(0.36084133164 1.13147425278 0)
(0.407008390278 1.07234009458 0)
(0.443900736453 1.03911775175 0)
(0.486484786542 1.03733707483 0)
(0.483629732061 1.07024304006 0)
(0.365895304902 1.1387976769 0)
(0.201707582903 1.2687199338 0)
(0.092897338201 1.42554087124 0)
(0.032004578073 1.53717340992 0)
(-0.0169483582733 1.59209264694 0)
(-0.0572610727522 1.59528734088 0)
(-0.0872852120701 1.54423725445 0)
(-0.0911166439691 1.41149680565 0)
(-0.0515358329551 1.15559742355 0)
(0.00359485713911 0.808640066636 0)
(0.0680131059947 2.33872554749 0)
(0.174037482968 1.71109315362 0)
(0.239684059549 1.44988092309 0)
(0.299523668279 1.28904163058 0)
(0.361912798465 1.19084512522 0)
(0.414687145103 1.12600545919 0)
(0.456989819563 1.08495864791 0)
(0.496667014523 1.0694803578 0)
(0.4709269632 1.09193198679 0)
(0.336626923856 1.17164072913 0)
(0.184618383449 1.32219586019 0)
(0.0923716395804 1.49440016007 0)
(0.038387150117 1.61181422825 0)
(-0.00840476694433 1.67973016184 0)
(-0.0486905336867 1.69976503103 0)
(-0.0833438708768 1.66981662066 0)
(-0.105160539565 1.56862776493 0)
(-0.0887469057618 1.33542721817 0)
(-0.0364618338572 1.04051068516 0)
(0.0114855696311 0.736049763205 0)
(0.0671465236743 1.83703681171 0)
(0.187907341171 1.48513773349 0)
(0.272414262731 1.32850705923 0)
(0.340925103867 1.2328911561 0)
(0.40245730114 1.16768283054 0)
(0.447828864894 1.12210054116 0)
(0.483660654219 1.09313342784 0)
(0.441862748569 1.10042753706 0)
(0.303606821104 1.18689583072 0)
(0.170494238025 1.35698395166 0)
(0.0952549784313 1.54053466997 0)
(0.0488333772403 1.66644504452 0)
(0.00752531320257 1.74740784767 0)
(-0.0279852970822 1.78514795456 0)
(-0.0596778204771 1.78346563679 0)
(-0.0879803331508 1.72965425769 0)
(-0.0964651530191 1.56309669467 0)
(-0.0674732885541 1.24153406656 0)
(-0.019749377873 0.939649409987 0)
(0.0150025801097 0.686840125533 0)
(0.0585787383136 1.52507371859 0)
(0.186792160237 1.33551986977 0)
(0.288766067355 1.25492487567 0)
(0.352758563792 1.19487831891 0)
(0.407000292091 1.14911775033 0)
(0.441809302744 1.1126969093 0)
(0.400721180643 1.0947224013 0)
(0.272977928167 1.16929349318 0)
(0.158204429744 1.35543371567 0)
(0.0985587506536 1.54991103586 0)
(0.0610360215861 1.68800558028 0)
(0.0270717007561 1.78292397407 0)
(-0.00163311715692 1.83709581356 0)
(-0.0260949762293 1.85617531325 0)
(-0.0480346131836 1.84238722519 0)
(-0.0674320725503 1.77273755572 0)
(-0.0660872235723 1.53281670296 0)
(-0.0367189915551 1.15496158274 0)
(-0.00340290171318 0.858695411289 0)
(0.0171552431727 0.656107480657 0)
(0.0517751696314 1.35686397039 0)
(0.180974638745 1.25444026112 0)
(0.284449933307 1.21287816022 0)
(0.339242434608 1.17106629101 0)
(0.381049401007 1.13212762005 0)
(0.355952981093 1.09990274441 0)
(0.25468134134 1.11582657219 0)
(0.153231862443 1.30031384727 0)
(0.101155334782 1.51331987206 0)
(0.0729544344934 1.66826295363 0)
(0.0456969046683 1.77910759168 0)
(0.0228239701697 1.8504838381 0)
(0.00450936240822 1.88675959276 0)
(-0.0101801179373 1.8943900055 0)
(-0.022409696447 1.87301360673 0)
(-0.0325275501071 1.79601087752 0)
(-0.0262533123434 1.48996098771 0)
(-0.00379375229669 1.08310416441 0)
(0.0146474014435 0.802868720214 0)
(0.0243497345715 0.63755087179 0)
(0.0526444634731 1.29464828723 0)
(0.176769616355 1.24227846185 0)
(0.268070902188 1.21159908266 0)
(0.305190630759 1.16578242472 0)
(0.307140353157 1.12553639834 0)
(0.242715451456 1.10907371159 0)
(0.154404041125 1.18262157627 0)
(0.101878670728 1.42548944305 0)
(0.0774926947898 1.60658760748 0)
(0.0558227244697 1.73581605281 0)
(0.0371397874601 1.82469142623 0)
(0.0226850935146 1.87868313042 0)
(0.0124232885353 1.90238418946 0)
(0.00575068695102 1.90181067457 0)
(0.00159721416456 1.87502387202 0)
(0.00013598448709 1.79590000977 0)
(0.0108432766596 1.43647091168 0)
(0.0282299372399 1.03249700293 0)
(0.0370203506033 0.7734326036 0)
(0.040376864142 0.628881353655 0)
(0.0689673542437 1.34473077915 0)
(0.186018664048 1.32472704421 0)
(0.23813068581 1.25834117014 0)
(0.238881908651 1.192317044 0)
(0.211890226408 1.15825524953 0)
(0.152574015198 1.17209318188 0)
(0.0919784821918 1.28409085157 0)
(0.0563820707038 1.50418684561 0)
(0.0381674626995 1.65477682748 0)
(0.0246606122612 1.75971535432 0)
(0.0142764017895 1.83021254197 0)
(0.00804051019263 1.87062484183 0)
(0.00580995498324 1.88470415595 0)
(0.00698130888833 1.87768265808 0)
(0.0110936206485 1.84626884998 0)
(0.0198728690268 1.76217862836 0)
(0.0392570622514 1.37132098679 0)
(0.0573617682052 1.00046651715 0)
(0.0624130917753 0.764041837348 0)
(0.0623282615639 0.62962289047 0)
(0.0927313839495 1.55493476777 0)
(0.174990317608 1.56564791568 0)
(0.145846229655 1.39439442371 0)
(0.111292750303 1.30669441993 0)
(0.0735884946984 1.27778253297 0)
(0.0263942249388 1.3030953009 0)
(-0.0170079035741 1.401077214 0)
(-0.0411565530654 1.55273900013 0)
(-0.0490126628534 1.66192687938 0)
(-0.0510586520528 1.73909699222 0)
(-0.0493831568134 1.79089307506 0)
(-0.0440456625474 1.81837320434 0)
(-0.0349729346578 1.82408072131 0)
(-0.0219326047446 1.81042148594 0)
(-0.00460368788254 1.77385068521 0)
(0.0231289479655 1.67641871673 0)
(0.0580673896114 1.29476785002 0)
(0.0805018355718 0.977400515776 0)
(0.0847758526756 0.767077318257 0)
(0.0830160704314 0.638812027972 0)
(0.0850995102845 1.97070879224 0)
(0.0663900192875 2.08377347545 0)
(-0.0794856473477 1.68369813168 0)
(-0.146965761253 1.53432014872 0)
(-0.188977099153 1.47443564199 0)
(-0.217051892438 1.47171163195 0)
(-0.232608759309 1.51637084509 0)
(-0.233332623754 1.58729132544 0)
(-0.223416837332 1.6425050288 0)
(-0.207429233771 1.68210520212 0)
(-0.185801767617 1.70723248271 0)
(-0.158458515684 1.71691172236 0)
(-0.12575639795 1.71091460551 0)
(-0.0875389456425 1.68841880813 0)
(-0.0426144966535 1.64507666893 0)
(0.0122557862703 1.54208784775 0)
(0.0628268764309 1.21535406436 0)
(0.0887986400905 0.958237951431 0)
(0.0936836188708 0.776702799245 0)
(0.0918268784469 0.653867070698 0)
(0.0313973843513 2.4318605724 0)
(-0.122867923599 3.09377250576 0)
(-0.356050596714 2.02315802733 0)
(-0.438271973654 1.76027878598 0)
(-0.490250695736 1.64803660321 0)
(-0.509650555832 1.60138762623 0)
(-0.503140613653 1.59010902408 0)
(-0.477416359769 1.59637032472 0)
(-0.438665839077 1.60124731005 0)
(-0.393373803193 1.60233198223 0)
(-0.343859899096 1.59820068202 0)
(-0.289922496714 1.5865318397 0)
(-0.231285976276 1.56513469942 0)
(-0.16732858472 1.53165099193 0)
(-0.0972202747077 1.48173473454 0)
(-0.0218870595591 1.38820651941 0)
(0.0388035921768 1.13841047809 0)
(0.069105515907 0.93570019643 0)
(0.0781124540555 0.783206387453 0)
(0.0796915232303 0.667994184761 0)
(-0.0059345786385 2.72712571588 0)
(-0.00135578116923 3.60711240284 0)
(-0.084942992483 2.55783057861 0)
(-0.266443693794 2.14898227358 0)
(-0.411016110143 1.84783717784 0)
(-0.502673897473 1.69661694682 0)
(-0.54943626926 1.61764958711 0)
(-0.55714286166 1.57158875419 0)
(-0.534461267131 1.53344280622 0)
(-0.48924758041 1.50213371619 0)
(-0.431549494992 1.47662052618 0)
(-0.368057211234 1.44990470097 0)
(-0.30021059836 1.41689565366 0)
(-0.227771344692 1.37437698723 0)
(-0.150626073535 1.3202284883 0)
(-0.0733238160041 1.23747655135 0)
(-0.0124975640015 1.05687285006 0)
(0.0228577973512 0.899044847211 0)
(0.0402686513344 0.774120164315 0)
(0.0491211722339 0.671675035113 0)
(0.033867962476 2.65295567442 0)
(0.0919439608448 3.32533250326 0)
(0.115677074202 2.90399173806 0)
(0.0859879141134 2.53259189517 0)
(-0.0051840337101 2.19856966439 0)
(-0.14692129643 1.99472338986 0)
(-0.287618221768 1.76115457843 0)
(-0.38303848979 1.58655621576 0)
(-0.430065195857 1.47226292022 0)
(-0.434744063501 1.39276464774 0)
(-0.407072932011 1.34387518331 0)
(-0.361734191317 1.30463331621 0)
(-0.307594906621 1.26488006496 0)
(-0.248044368645 1.21866925238 0)
(-0.184085552559 1.16565986484 0)
(-0.119191715948 1.09716259135 0)
(-0.0643381046359 0.968929489443 0)
(-0.0261228729955 0.847489376041 0)
(-0.00123646381923 0.746363373654 0)
(0.0153605305984 0.659987099046 0)
(0.0339769613846 2.31068326305 0)
(0.100355362954 3.01085197109 0)
(0.140117523225 2.81101652497 0)
(0.144484548447 2.61578818427 0)
(0.130588015572 2.44640863225 0)
(0.0988527222407 2.30000110846 0)
(0.0275436508926 2.05160849215 0)
(-0.0894848301289 1.81105639448 0)
(-0.204309098264 1.55145701954 0)
(-0.267639045672 1.32372773204 0)
(-0.281631196427 1.22834896517 0)
(-0.268919030067 1.16744635644 0)
(-0.240786700938 1.11823855168 0)
(-0.206183087897 1.06928727657 0)
(-0.168767738966 1.01890364917 0)
(-0.127965796 0.967616822331 0)
(-0.0862260613821 0.880837169092 0)
(-0.0502623376979 0.790563491163 0)
(-0.0231951759689 0.709567662443 0)
(-0.00333092015018 0.638191455234 0)
(0.0342774763666 1.98016414899 0)
(0.0926195761894 2.67326153795 0)
(0.128280100367 2.6755574738 0)
(0.143954349444 2.5829557772 0)
(0.146239646879 2.48127098855 0)
(0.136586511981 2.38905138121 0)
(0.110634478787 2.269470107 0)
(0.0655294122695 2.08649993813 0)
(-0.00971306846994 1.80034702689 0)
(-0.0937824040894 1.40095890805 0)
(-0.138372680108 1.17960635754 0)
(-0.145562209031 1.07888143499 0)
(-0.137301637013 1.0130870247 0)
(-0.121599617745 0.957150078123 0)
(-0.103572107868 0.905145275056 0)
(-0.0843818879238 0.863134616386 0)
(-0.0617788522608 0.804914595915 0)
(-0.0376474532397 0.739615624157 0)
(-0.0165521915462 0.675703579643 0)
(0.000470544819365 0.616510149446 0)
(0.0390313522922 1.71182551918 0)
(0.0928678183169 2.39674263454 0)
(0.116915145894 2.51945747148 0)
(0.130801662332 2.51047944239 0)
(0.137413581807 2.46636708728 0)
(0.13847214164 2.41862880763 0)
(0.132532019513 2.35218217775 0)
(0.114627933079 2.21457655372 0)
(0.0848440827193 2.00444052415 0)
(0.0265471523607 1.63127925061 0)
(-0.0281394468568 1.21521095169 0)
(-0.0437691135756 1.0550573629 0)
(-0.0437321643021 0.965315163318 0)
(-0.0372144649791 0.898348103841 0)
(-0.0288524927622 0.841678616849 0)
(-0.0199910928906 0.799935273101 0)
(-0.00946197345913 0.7550560613 0)
(0.00244197182071 0.704684318507 0)
(0.0135712399413 0.652109683174 0)
(0.0230635294511 0.601155868044 0)
(0.038576732962 1.52902297742 0)
(0.0849073161286 2.18458866845 0)
(0.10061155957 2.37492279663 0)
(0.11380048868 2.42667516653 0)
(0.122767677772 2.42111930961 0)
(0.128340105152 2.40369075934 0)
(0.129478204807 2.37248150805 0)
(0.121519920367 2.28107206645 0)
(0.102030404538 2.09920931249 0)
(0.0736733397888 1.82173459121 0)
(0.044411610831 1.29837992488 0)
(0.0270229425068 1.07864617277 0)
(0.023181034764 0.961740261024 0)
(0.0259294499145 0.882037851342 0)
(0.0310795915175 0.819455606662 0)
(0.0370580684505 0.774367967833 0)
(0.0435495107223 0.73312522798 0)
(0.0495475478299 0.688486902012 0)
(0.0539122621109 0.640560333942 0)
(0.0563216043525 0.593059572383 0)
(0.0355168738196 1.40746203685 0)
(0.0759730150843 2.02374707407 0)
(0.0886603120068 2.24048827334 0)
(0.102682244414 2.33449283703 0)
(0.114596093715 2.35805298429 0)
(0.124660041315 2.36356234234 0)
(0.131972768757 2.35601815938 0)
(0.133301114766 2.30385091871 0)
(0.125388863285 2.15496163258 0)
(0.109774647364 1.90285192838 0)
(0.0894050243922 1.38468382238 0)
(0.073235956344 1.12324390075 0)
(0.0676830785921 0.98122960976 0)
(0.0690010264137 0.889141246162 0)
(0.0737439152051 0.821186417785 0)
(0.0803011427998 0.772791693798 0)
(0.0867038216444 0.730797119902 0)
(0.0907872825094 0.686472336452 0)
(0.0922509809527 0.638809476001 0)
(0.0909994081419 0.591126572763 0)
(0.0331730163205 1.31653712751 0)
(0.0708300148059 1.89232781692 0)
(0.0839563018903 2.11027145676 0)
(0.101211261841 2.23070931883 0)
(0.116712800241 2.28036918889 0)
(0.129670732792 2.30439350627 0)
(0.140563601302 2.3141806632 0)
(0.148079010507 2.29148068319 0)
(0.147330580741 2.17775776967 0)
(0.136715503484 1.95033089879 0)
(0.119982428422 1.45933383975 0)
(0.10502429326 1.17503364061 0)
(0.0986295975836 1.01138353336 0)
(0.0994209326885 0.907366454943 0)
(0.104818954311 0.834939467283 0)
(0.11257767714 0.783727124434 0)
(0.119014730881 0.739031564767 0)
(0.122115612246 0.692553928248 0)
(0.122738079065 0.643372010207 0)
(0.12052022602 0.594022064277 0)
(0.0321467883101 1.24061778212 0)
(0.0694453683396 1.77402255075 0)
(0.0851894181015 1.97726782294 0)
(0.10787471206 2.11025284852 0)
(0.12818880854 2.19159937779 0)
(0.14281786158 2.23598708218 0)
(0.154610888015 2.26103290757 0)
(0.163889345172 2.2593154174 0)
(0.166746463306 2.18299478677 0)
(0.159270988386 1.98691369552 0)
(0.14436523614 1.5223865889 0)
(0.129946290258 1.22958710643 0)
(0.122553156233 1.04620749183 0)
(0.123015148925 0.930455187512 0)
(0.128776367935 0.853635193016 0)
(0.136260446964 0.799020254482 0)
(0.141659513666 0.750910447955 0)
(0.144437515251 0.702011832572 0)
(0.14556252655 0.651174269193 0)
(0.143848987401 0.600240839052 0)
(0.0316642138289 1.1725102682 0)
(0.0703422044441 1.65542542193 0)
(0.0914928589035 1.83042386174 0)
(0.121037190039 1.96974447265 0)
(0.146257964734 2.09332883714 0)
(0.162027303271 2.16750279587 0)
(0.172457403446 2.20823596869 0)
(0.180872413557 2.22038710652 0)
(0.18746730431 2.17065994287 0)
(0.191150965151 2.00334017138 0)
(0.17305211286 1.62124582195 0)
(0.148005209626 1.28460786168 0)
(0.140628014331 1.08105690589 0)
(0.140825795696 0.954334948294 0)
(0.14607738418 0.87257058748 0)
(0.152904704962 0.814385200095 0)
(0.15795199221 0.763464314209 0)
(0.161092692791 0.712797103298 0)
(0.163032349116 0.660749050617 0)
(0.162217291017 0.608876484889 0)
(0.0277579978418 1.12922600213 0)
(0.0783251191232 1.45868745048 0)
(0.117568878716 1.65770848537 0)
(0.144695291324 1.83598981736 0)
(0.162313728865 2.00500487764 0)
(0.171704221945 2.11751332947 0)
(0.174593702326 2.17671798385 0)
(0.174773077412 2.198426556 0)
(0.174071287352 2.16313571927 0)
(0.171600727249 2.01636841974 0)
(0.162376634465 1.72477557047 0)
(0.152280921716 1.33179220364 0)
(0.149148391619 1.11133337567 0)
(0.151046471468 0.976428043301 0)
(0.157014700514 0.890155055233 0)
(0.164260680641 0.829354912231 0)
(0.169764041823 0.776680265599 0)
(0.173538244081 0.724852616345 0)
(0.176400542692 0.672156864828 0)
(0.176454840309 0.62020243002 0)
(0.0234675451419 1.13143078791 0)
(0.0639505588664 1.22783863663 0)
(0.105432633816 1.42999970152 0)
(0.135854545282 1.74090290343 0)
(0.145227363224 1.94835510617 0)
(0.149369608358 2.09524246598 0)
(0.149002992419 2.17381378839 0)
(0.146673809566 2.20321762464 0)
(0.144491314024 2.17661339884 0)
(0.14229186819 2.04534993939 0)
(0.141498025566 1.77096030721 0)
(0.14420714391 1.35798895157 0)
(0.148503053259 1.13270864925 0)
(0.153907096779 0.994827107693 0)
(0.162034226946 0.906229921259 0)
(0.171045485669 0.844348997793 0)
(0.177879007896 0.790901328973 0)
(0.182695500715 0.738559973324 0)
(0.18688144159 0.685869476668 0)
(0.186674801324 0.633762609388 0)
(0.01646677608 1.20152643082 0)
(0.0396900756125 1.10978148972 0)
(0.0498392981441 1.27314924364 0)
(0.0615582489088 1.66175887423 0)
(0.0767696774325 1.8952642925 0)
(0.0884628135537 2.06725397642 0)
(0.0965455309073 2.16344212999 0)
(0.102615610946 2.20024252259 0)
(0.10846436081 2.17871486981 0)
(0.115639535483 2.05358555135 0)
(0.125331776518 1.77799689066 0)
(0.13509773131 1.36677618884 0)
(0.143395614333 1.14615583104 0)
(0.152411170171 1.00963566541 0)
(0.163291284083 0.921353610716 0)
(0.174403643585 0.859637555976 0)
(0.182859503329 0.805704962392 0)
(0.189081661577 0.753278022356 0)
(0.19327575037 0.700276118996 0)
(0.187785986159 0.644960685591 0)
(0.0389247641696 0.497415310601 0)
(0.040060633853 0.446762888267 0)
(0.042397338027 0.407260620571 0)
(0.0426766173915 0.36871813202 0)
(0.0412279677377 0.315411971884 0)
(0.0399536631968 0.241967260024 0)
(0.040845870156 0.187094366628 0)
(0.045310903338 0.159354334133 0)
(0.0527249757556 0.141841448002 0)
(0.0594338033611 0.128303419736 0)
(0.0596872124941 0.115004459014 0)
(0.0396100811414 0.100662652494 0)
(0.00450011947597 0.126070775876 0)
(-0.0111095959133 0.118998486728 0)
(-0.00767423154842 0.116902012805 0)
(-0.003007545535 0.124890537367 0)
(0.139820222991 0.535478170348 0)
(0.17160602006 0.519375904116 0)
(0.118490834886 0.514066139978 0)
(0.0558558109651 0.526256165206 0)
(0.0438146192868 0.487035354004 0)
(0.0459855742145 0.444739794194 0)
(0.0475614597648 0.412038935219 0)
(0.0469783809002 0.375155669402 0)
(0.0451232156921 0.317326336263 0)
(0.0437896206281 0.241376197434 0)
(0.044932698289 0.19109265707 0)
(0.0498040515467 0.164924496865 0)
(0.0570947917749 0.147954194515 0)
(0.0628186227626 0.134528538951 0)
(0.0614954337486 0.120537830809 0)
(0.0393531886537 0.105279341131 0)
(0.00478185957469 0.118500572343 0)
(-0.00943996283509 0.111318596619 0)
(-0.00684113987788 0.109122861879 0)
(-0.00282944438127 0.116610342619 0)
(0.176939915346 0.559684265044 0)
(0.177805397501 0.548702416399 0)
(0.101307949061 0.539234086153 0)
(0.0546940561666 0.521970556818 0)
(0.0508708046497 0.478149339971 0)
(0.0534360777392 0.44677487614 0)
(0.0538570928992 0.421151695517 0)
(0.0521873118087 0.385752822209 0)
(0.0497369705242 0.323055482389 0)
(0.0481309344881 0.245027232908 0)
(0.0493481226735 0.197996788493 0)
(0.054466816859 0.172853782191 0)
(0.061476406231 0.15621857281 0)
(0.0654284083682 0.142843214383 0)
(0.0607479874215 0.12662473243 0)
(0.0330144577536 0.112618230251 0)
(0.00125290779081 0.11323868277 0)
(-0.00696344574568 0.106128558234 0)
(-0.00542771350575 0.103890971255 0)
(-0.00242154951643 0.110970376156 0)
(0.205805733238 0.599814724721 0)
(0.165869359986 0.579612196613 0)
(0.0838636134826 0.554966644659 0)
(0.0578921944973 0.511214580008 0)
(0.0591041499991 0.472863734691 0)
(0.06130789563 0.454427416308 0)
(0.0601773852076 0.435851079726 0)
(0.0572488645982 0.401325910276 0)
(0.0540938763571 0.333217842982 0)
(0.0521450307776 0.252863848739 0)
(0.0533979346984 0.207504192007 0)
(0.0586965775093 0.182813048824 0)
(0.0652901893523 0.166282134427 0)
(0.0670052025884 0.152971289807 0)
(0.0570277912003 0.134236508543 0)
(0.0245964348329 0.119786684357 0)
(-0.00135673779857 0.111273636494 0)
(-0.00330261637511 0.104325710815 0)
(-0.00324584876353 0.102084861252 0)
(-0.00170710790281 0.108853426954 0)
(0.211744905839 0.649278286485 0)
(0.129310051531 0.610245433443 0)
(0.06753068185 0.55640553095 0)
(0.0617079414902 0.496988157299 0)
(0.0662256194555 0.471642091731 0)
(0.0669605282027 0.468340471894 0)
(0.0640730441881 0.456294804884 0)
(0.0600375767521 0.421592557099 0)
(0.0564408448739 0.347104408206 0)
(0.0544008209074 0.263622360728 0)
(0.0558550858528 0.218702460597 0)
(0.0613499947393 0.194025518607 0)
(0.0674248540527 0.177366336179 0)
(0.0671296689446 0.164167301667 0)
(0.0517350830743 0.144069949349 0)
(0.0214041147355 0.124116643496 0)
(0.00270094121548 0.113658593357 0)
(0.00110112786949 0.106767732763 0)
(-0.000517775802321 0.10452106056 0)
(-0.000747749208351 0.111063494789 0)
(0.18856104654 0.701064351373 0)
(0.0915388432156 0.634386043381 0)
(0.0610002383819 0.544265041863 0)
(0.0649275574813 0.482923451798 0)
(0.0690364364774 0.473653522462 0)
(0.067498487932 0.487696234584 0)
(0.0631055848008 0.480600706307 0)
(0.0588011253487 0.44461631196 0)
(0.055424550486 0.362544057963 0)
(0.0537490734839 0.275008942106 0)
(0.0556702842375 0.22997162635 0)
(0.0614299591833 0.20511508048 0)
(0.0670928500937 0.188171845752 0)
(0.0653395923719 0.175077522525 0)
(0.0481376647742 0.155010031007 0)
(0.022256862288 0.129811584297 0)
(0.00809497397336 0.120355101885 0)
(0.0050672053916 0.113393919661 0)