/*--------------------------------*- C++ -*----------------------------------*\
| =========                 |                                                 |
| \\      /  F ield         | OpenFOAM: The Open Source CFD Toolbox           |
|  \\    /   O peration     | Version:  2312                                  |
|   \\  /    A nd           | Website:  www.openfoam.com                      |
|    \\/     M anipulation  |                                                 |
\*---------------------------------------------------------------------------*/
FoamFile
{
    version     2.0;
    format      ascii;
    arch        "LSB;label=32;scalar=64";
    class       volScalarField;
    location    "0.14/water";
    object      rhom;
}
// * * * * * * * * * * * * * * * * * * * * * * * * * * * * * * * * * * * * * //

dimensions      [1 -3 0 0 0 0 0];

internalField   nonuniform List<scalar> 
6000
(
912.311004945
947.691375338
985.417181282
996.405464149
999.329561819
999.896282898
999.986932857
999.999053423
999.999980651
999.999999832
999.999999999
1000
1000
1000
1000
1000
1000
1000
1000
1000
693.689835222
868.414549157
945.676081434
981.685033032
994.266340378
998.478944675
999.659549744
999.940592448
999.994118961
999.999871104
999.999999554
999.999999999
1000
1000
1000
1000
1000
1000
1000
1000
693.687340405
826.032808583
914.005296636
963.448057905
986.027332619
995.372566595
998.718275226
999.71559008
999.957835078
999.99772025
999.999988796
999.999999985
1000
1000
1000
1000
1000
1000
1000
1000
693.687736225
787.740507619
875.261870487
936.20741983
971.360114367
989.019395543
996.518022252
999.113394119
999.836177302
999.984543143
999.999762095
999.999999731
1000
1000
1000
1000
1000
1000
1000
1000
700.046763672
764.139253481
835.669737021
899.352785992
946.346180504
975.953745882
991.28648729
997.537789416
999.487188203
999.936101898
999.997563991
999.999995762
999.999999997
1000
1000
1000
1000
1000
1000
1000
711.730231575
755.134145465
805.562422909
860.597447197
911.863102862
952.675362152
979.493743522
993.264202029
998.431470704
999.772677997
999.986065744
999.999901198
999.999999944
1000
1000
1000
1000
1000
1000
1000
721.642414864
755.824724046
789.540047745
830.246881074
876.03745184
921.119534696
958.421856785
983.20391993
995.300892613
999.200587148
999.935657132
999.998764181
999.999999125
1000
1000
1000
1000
1000
1000
1000
725.601506573
758.741705208
784.784418451
812.620257877
847.965923452
889.288473562
930.880982831
965.544982061
987.771439029
997.365861763
999.72466725
999.990690247
999.999975246
999.999999994
1000
1000
1000
1000
1000
1000
731.149137983
764.2732274
781.746356353
800.721336575
827.332645684
862.808681229
903.282496011
942.572517513
974.168984719
992.615006634
998.942212144
999.944919793
999.999482233
999.999999934
1000
1000
1000
1000
1000
1000
739.20058014
769.379086586
777.665096999
789.717330093
810.935531429
842.419270558
879.775540165
918.74658734
955.253822546
983.053208385
996.571226244
999.726308665
999.994292662
999.999999025
1000
1000
1000
1000
1000
1000
744.593119978
768.375403494
770.365950869
777.977920555
797.143782819
826.603089025
860.811041349
896.817764486
933.402411177
967.638792148
990.764724046
998.8508429
999.955269145
999.999754923
1000
1000
1000
1000
1000
1000
738.6033248
757.734423867
760.168704593
767.494959289
785.980057585
813.504867431
844.591297101
876.682536095
910.455764737
946.555325792
978.957802497
995.942581882
999.718129417
999.995220431
999.999999712
1000
1000
1000
1000
1000
713.299760465
738.86495257
751.469796062
761.367808699
777.999629266
801.975279013
829.534851466
858.099944565
888.062778432
921.863683823
959.329865275
988.106535727
998.571921959
999.949008359
999.999741974
999.999999999
1000
1000
1000
1000
697.841883123
729.149776113
744.540471189
756.580414201
772.205974392
792.875869424
816.670008274
841.875245924
868.036704503
897.350516672
933.698321736
971.976606916
994.422699843
999.621162375
999.994038059
999.999999132
1000
1000
1000
1000
696.257642512
727.719043282
739.559399525
752.232083614
768.929236345
789.408670004
810.23059971
831.160125543
852.930067801
876.618124057
907.161787562
947.725456754
983.820145815
998.090969827
999.940331067
999.999749039
999.999999992
1000
1000
1000
697.680121423
727.99763386
737.33967864
749.925192531
768.113164631
789.619008692
810.297907216
828.173966169
844.582482066
861.696063454
884.327692666
920.440479445
965.298863208
993.44436405
999.639846693
999.996106464
999.99999947
1000
1000
1000
695.772254258
729.929914068
738.162601836
750.514325563
769.013366932
791.394122926
812.358109682
829.305832575
841.692563307
852.516649009
867.127176966
896.013681187
942.571833321
984.240920771
998.606900569
999.973126018
999.999947456
999.999999995
1000
1000
697.679897994
733.799381755
742.047670053
754.464481377
773.369301196
796.56308844
817.706146176
833.106639728
842.233028021
847.228967317
855.127039585
877.409609249
921.684663318
971.84023646
996.339503942
999.888036971
999.999437727
999.999999868
1000
1000
695.863571381
739.5009077
747.543091879
761.921401729
782.156476707
805.84245897
826.417071927
839.418147716
843.288593226
843.356209533
846.159233369
863.813699384
905.506442776
959.211750473
992.789693731
999.669963948
999.997155421
999.999997901
999.999999999
1000
697.819661821
745.253149716
753.513299503
770.526672531
793.104664019
817.213980167
835.72159318
842.533710586
842.619804555
839.16800754
838.799264883
853.548143832
893.01859762
947.354973157
987.961998417
999.20257631
999.989377205
999.999984007
999.999999993
1000
696.720047095
749.808656566
758.997212384
777.348693436
801.339346877
825.041012677
839.932381321
842.446487236
839.936354677
832.805953795
831.797224521
845.435456547
881.227144109
934.207346462
981.006785141
998.21934293
999.964483979
999.999902599
999.999999958
1000
697.905616697
752.897694401
764.128468558
781.94158872
804.675970973
826.537891976
839.405498759
839.731617602
833.786706659
826.999367962
827.476297605
838.276947591
866.942503297
916.386299203
969.852850915
996.040099803
999.881294464
999.999422184
999.999999814
1000
697.580309185
754.810374247
768.528204228
784.599331022
804.925916106
824.84499697
834.625598414
832.257914787
826.266779336
826.175566108
827.361675354
832.046976233
850.2372557
892.556603708
951.866769104
991.1312413
999.58872341
999.996735467
999.999999728
1000
698.929317051
755.898264609
767.283302381
782.007269898
800.219307244
816.815783191
824.046966341
823.245972457
823.359602559
826.263629708
829.103195713
830.882390475
837.431501453
867.521318445
926.296532485
980.81593338
998.604226553
999.982433242
999.999996375
1000
708.260437441
755.506169451
758.69005791
768.72461597
784.969327116
801.782694203
811.862571857
817.248120646
823.523280698
829.877616217
833.364432759
832.60030834
832.102631757
846.973558301
894.650025306
961.898597355
995.743213663
999.916082026
999.999869519
1000
716.924181833
747.269792017
740.367207082
744.700533201
762.274676652
785.484847064
802.541708096
814.587996267
825.70563456
836.391300185
840.84946994
838.299001257
830.913745453
827.262447607
860.319940567
933.921547109
989.010414796
999.647279942
999.998653335
999.999999999
715.075397247
728.800757727
717.788394899
720.057713557
740.820538114
771.114490777
795.148759003
812.963001924
829.198643915
844.264482225
851.492316397
846.977766992
829.176301732
811.508907143
832.832012742
901.393228824
975.996007663
998.702205987
999.990006984
999.999999575
705.232657591
708.965374337
700.148050248
704.108498872
725.70364415
758.760246832
787.990654211
811.109859936
832.413066866
851.315631727
857.433165454
853.411328521
829.572169134
808.565037003
816.362734841
870.944903612
955.91686821
995.975589872
999.93906759
999.999916753
692.919329391
696.052620379
689.319220466
695.192086372
715.620608341
748.820176127
781.495860799
809.217199205
834.715498521
855.57526884
857.488764937
857.438219982
832.133770529
808.41619714
806.397389177
847.510078728
931.620452806
989.817836043
999.696604933
999.998497483
684.144444611
689.919282708
688.128350819
689.571919305
708.058594967
741.787209345
777.119068407
808.27129087
836.329024752
857.011599635
857.438182827
857.567769705
837.447123901
808.178520353
806.290165553
832.974725488
907.650790238
978.846223853
998.801296427
999.987098191
678.708579606
688.054449033
687.872923536
688.140528772
703.157944334
737.080708617
774.771858861
808.24508307
837.763659865
857.364160856
857.56639142
857.438175866
844.737994592
811.254854106
806.397330276
824.378810029
886.446221192
962.75013738
996.261827919
999.923897363
679.912589975
687.836081897
687.949540533
687.926762728
700.917451086
734.384504412
773.698484335
808.804323975
839.049266461
857.435434133
857.438138679
857.719387667
852.17669941
818.668207084
806.303132292
817.13543779
867.090525617
942.444054682
990.785881729
999.679990701
677.936880116
688.138657068
687.830903105
688.140093437
700.728405262
733.831371668
773.616506805
809.677862771
839.910371489
857.438089841
857.592956707
857.438135427
857.625818086
829.733984678
806.397275657
806.272822267
845.996550081
919.499754838
981.808207412
999.019813383
679.708696915
688.861461265
688.126820973
688.050710755
700.727044229
733.925968192
774.023656415
810.493946864
840.357475856
857.445167952
857.438096899
857.777940529
857.438123811
839.606282853
806.2797132
806.397251056
829.346752972
896.570776973
969.959859392
997.666291564
677.219315693
690.676515908
688.0374259
688.266963698
701.154440753
734.816015251
775.140622278
811.373944169
840.707107726
857.438048103
857.606156331
857.438096741
857.898556629
846.948090891
807.468550512
806.139381642
818.804498065
877.932644136
956.95838436
995.361027465
679.39501209
693.380516555
688.253759135
688.264193779
702.779533248
737.027933921
777.016705517
812.613453249
841.22913054
857.451265395
857.438057847
857.802082752
857.438086988
851.633275653
808.974192472
806.397199465
813.711735117
865.141471029
944.23476592
991.837627347
677.094847267
697.530669476
688.934582688
690.190592781
706.687017008
740.871246083
780.005893084
814.650654892
842.214683779
857.438009716
857.617612547
857.438059094
858.006239316
852.365046969
808.917208667
806.060049937
807.876829224
854.087603827
931.516688924
986.792838587
679.394799799
703.095330364
693.677482335
696.496445978
713.794041508
747.141786183
784.868936728
818.02318552
843.968201287
857.470797656
857.43802034
857.816312564
857.438049405
851.251340513
806.52753046
806.397147314
806.170449614
843.542009981
917.331964027
979.646285689
677.206603159
710.411409635
701.078098417
705.742661234
724.030936534
756.471788745
792.111031999
822.970680252
846.583970506
857.437973241
857.651851666
857.438020552
858.015246266
844.542014612
806.39711875
805.776764347
806.397120459
831.93589175
899.106127672
969.100260857
679.607068643
718.595304896
709.665405554
716.596717102
736.985788897
768.743653233
801.570210751
829.253905336
849.804174078
857.518613446
857.437981732
857.837831485
857.438008388
832.753238215
805.617329357
806.39709109
805.959715571
812.02580346
873.932193888
953.734130977
678.131762997
727.689501135
719.88149983
729.057178639
751.636838645
782.551052828
812.196365274
836.221180972
852.943699283
857.437935346
857.700959634
857.437978119
857.896705814
817.808862476
806.397061036
805.406150781
806.397059992
806.056549027
846.791467946
929.139256519
679.791039474
738.413512629
733.066423888
743.566012953
766.390352709
795.522540682
822.371818716
842.878844537
854.660023752
857.555778792
857.437939018
857.821480323
855.169908635
808.540334848
805.340789366
806.397029449
805.411033592
806.397027452
811.872304815
892.953931772
679.457045024
750.204377099
748.375297015
758.822634764
779.741237557
806.482323836
831.09187133
847.695921561
854.515641383
856.601898883
857.146073464
857.43792921
849.421755814
807.69208099
806.396997885
805.160039813
806.396994894
805.496258807
806.396993432
851.457521232
687.04068257
757.138886502
757.112913853
766.276867515
787.8440484
815.032097014
837.47453053
848.809230448
852.233625708
851.634347571
852.493753142
856.159445515
849.385479532
814.128807184
805.617441392
806.396961149
805.113066744
806.396958451
805.760198203
808.075912716
710.339803734
757.13142709
754.703064077
763.627316499
788.955863152
819.401208282
839.251975268
847.553552105
847.381025268
846.3411575
849.714236557
855.593927612
853.381865901
828.562144841
806.396924376
805.292411665
806.396922604
805.210587318
806.396921494
805.942203279
722.19590351
742.082624457
732.132754189
746.008882269
783.057093854
817.613479209
836.790385715
841.973910788
840.675942016
842.215342281
848.959218266
856.399673625
858.873712079
843.185557103
806.658977373
806.396883036
805.194905535
806.396883399
805.479255087
806.396884339
707.653486009
698.021730381
692.600730706
708.2029338
754.071683931
798.577896164
822.319593995
829.116804708
831.383018551
837.429614793
847.604920905
856.846811168
861.682177407
853.752270922
815.979742564
805.726590591
806.396843272
805.300421101
806.396845753
805.89270123
675.364892102
667.87230137
667.558647834
674.449033288
704.42768683
750.402673169
787.340092329
806.011252254
816.741278606
828.480617251
842.905387019
855.69674051
862.616920419
862.008414599
834.324707696
806.396802845
805.410172769
806.396807556
805.536079707
806.396811595
667.802576279
666.271645731
667.903350303
667.023501742
672.9656401
701.987782669
742.598127391
775.108643832
796.249175081
814.035447789
833.110524196
851.274847416
862.693210086
866.662689707
851.31210984
806.126387385
806.396770453
805.416641978
806.396775761
805.920471245
665.755410228
667.952793641
665.906993453
667.916696652
667.414119047
680.550356257
711.421937233
747.546375123
775.737173757
798.48624631
821.303815588
844.545997508
862.052638425
868.639104631
860.400656662
810.411899637
805.610983472
806.396742425
805.602579912
806.396747633
667.800752271
665.597913884
667.901457778
666.207490668
667.922047314
673.762468474
696.864360284
730.586228206
761.163539851
787.04821994
812.515363431
839.180365509
861.153997243
869.612924457
865.558663185
821.42244728
806.39671234
805.498475717
806.396717023
805.960639405
665.334848999
667.974110525
665.444071583
667.916096029
667.057015514
670.916739718
690.256829408
721.817942914
752.876979807
780.598532179
808.154044315
837.180645455
861.066160693
870.296513147
868.839812928
835.90782858
805.904087964
806.396688888
805.663916142
806.396693395
667.800277326
665.362987545
667.901797578
665.907668071
667.921980253
669.521790268
687.450264302
717.824560879
748.937696804
777.843639147
806.999217182
837.233032095
861.850052794
870.619896624
870.459893596
848.061292343
806.396662445
805.588198311
806.396666575
806.014729555
665.622581793
667.868077527
665.384663002
667.916619855
666.842987364
669.119150715
687.014674012
716.966028611
748.024856185
777.548897813
807.517330225
839.165973136
864.368155889
870.69440539
870.658890435
856.475384485
806.630827263
806.39664113
805.770974527
806.396644919
667.800260651
665.427774495
667.902730333
665.758609111
667.922341024
669.513441941
688.437497514
718.233257018
749.150950326
779.381049519
811.398164858
844.99797998
868.127490526
870.77314838
870.694398612
860.783553228
809.88703932
805.75719752
806.39661965
806.135170186
666.0679106
667.868842645
665.44070251
667.917443294
666.757268692
672.240145453
695.198121083
725.192686052
755.693485585
787.238097523
821.761506014
854.939124863
870.53951222
870.800473038
870.810262203
862.509557708
813.790752504
806.396594818
806.012395429
806.396598157
667.847371841
665.627560437
667.903661837
665.792460093
667.922756027
677.883914581
709.580802348
741.318110981
771.297039504
803.72931638
838.694363049
865.523536376
870.800437365
870.853320651
870.800465128
862.734525544
817.110869621
806.015355704
806.396572631
806.723080716
666.360399024
667.869663329
665.433177832
667.917909854
666.751657108
682.642184775
725.651549361
764.160940127
795.045584671
827.083241449
857.172731987
870.492089966
870.853282401
870.904948808
870.940693698
862.233057499
819.085159218
806.396547071
806.294280424
817.39465588
668.078836774
665.74396182
667.903651276
665.677823724
667.922653561
682.41412234
730.627873289
782.544584285
819.728016703
850.360334815
868.618416134
870.853233988
870.904907551
871.029491211
870.904938502
861.192781147
821.716919435
806.315573236
810.592835473
839.680178565
666.50770073
667.950641159
665.404543249
667.917038186
666.549544102
678.585145053
727.314253552
784.617227666
831.187775439
861.909431264
870.826281329
870.904856371
871.017077232
871.009092454
870.999964623
860.393644818
826.205130199
808.854628122
824.248591389
863.520979322
668.299712693
665.888410167
667.90159744
665.466536847
667.921823692
668.871485472
714.991606847
779.289626839
830.299623778
862.269572675
870.904797546
870.99528762
871.009046792
871.061808704
870.865144316
860.418784169
832.935161285
820.609675478
841.367414296
876.053878186
665.336795785
667.892718434
665.381165177
667.915299457
666.062844254
667.92353392
696.617567534
759.758426932
820.391352662
858.486593788
870.596453614
871.008992827
871.061761691
871.113522466
870.400113829
861.416042822
841.556208896
837.39090062
856.293720712
878.904483499
667.883401121
666.17564416
667.899594459
665.610534673
667.920757236
667.005766072
679.108832248
725.811277792
791.70180283
842.870495533
866.642511486
871.061707818
871.113475277
871.219708442
870.236659305
863.513226367
850.136612423
850.822909128
869.233839884
878.899040546
665.29445883
668.088133051
665.601153743
667.91396703
666.177219253
667.940179988
667.700404676
694.034684398
749.936256797
810.906323403
852.78704472
869.537790763
871.198998087
871.216206658
870.242129964
865.373984177
857.347217896
860.766889265
877.835473064
878.8936004
667.882043155
666.913465676
667.898411239
666.017808127
667.937394092
666.851915378
667.972986489
681.882709444
723.465544157
779.845339503
831.187048145
863.202677541
871.210106256
871.268333427
870.198660627
866.497530169
863.999235531
871.503534909
878.874688202
878.890181374
665.45156232
667.883058799
666.567963777
667.931096119
666.708278458
667.9719021
667.789296299
682.381481115
721.848330345
772.679880923
821.499023862
858.264133988
870.957435464
871.319899322
870.317231417
868.07514381
870.186459312
878.843711161
878.859189516
868.447201235
667.881010822
668.710283767
667.916746453
667.021688159
667.969663889
667.719910912
671.48803198
692.112774881
730.350248265
777.387480639
823.591521503
859.185723351
871.150981028
871.374965656
870.770345778
871.165632423
877.707070639
878.818490867
878.821934744
787.988999939
665.95052763
676.09797943
667.658289221
667.96476184
667.743088227
673.520606721
691.415715577
721.569664589
758.257519336
798.11299817
837.405389985
865.591508777
871.529068918
871.583656482
871.710927156
875.572754143
878.768093613
878.793265947
819.623787468
699.398084599
667.881523978
686.214128883
674.488641924
672.902358114
678.758665092
698.603235357
731.725505085
768.318931857
802.918543952
835.434000085
861.912320875
870.948473736
871.315362483
870.675767366
872.470015025
876.887392429
878.171933277
827.757639239
708.911371069
696.076161215
666.506168917
696.636278651
688.84699302
692.120434621
707.273387564
737.738577102
775.118940018
809.30611202
836.787110333
857.757121064
867.180368979
868.706319901
865.877797441
865.97471674
872.419128552
872.909148135
823.90292045
712.949401303
696.076126334
694.491927198
667.881843917
708.177028528
709.547678688
720.425886171
740.363004218
767.862390286
793.146637275
816.078219563
837.620299795
853.166777647
855.28679892
850.174770341
847.337395223
858.324622911
864.61008599
818.75847091
711.938497702
696.076091674
694.475149596
696.076105182
666.595444393
723.881861495
737.32977704
751.336027348
764.870704703
775.805147044
788.318553272
801.994446602
812.292510913
813.134413671
807.769723961
808.716225993
828.913543048
850.913855914
820.161346635
713.595274728
696.076057863
694.374650716
696.07607261
694.62702311
667.893541021
747.80495987
770.310496544
779.435849339
778.434881757
769.178906897
757.812325961
749.474749483
744.331544975
742.46136484
752.485277384
787.448797678
828.84158159
825.627832798
732.981866936
696.076022847
694.16396278
696.076041949
694.563194288
696.076046902
673.111883474
779.692177994
796.681328677
796.670454008
779.183192489
744.607485899
715.218881939
705.840718698
705.649267996
714.274092042
745.833865985
790.783046724
822.24013083
775.763033702
696.075982515
693.817637075
696.076011438
694.330466312
696.076015801
694.983150467
697.413430112
808.296393413
811.104122037
803.991254935
775.213887755
733.642574149
709.776951941
705.649131463
707.720698905
724.535578758
761.932765139
801.394688495
797.959525751
712.213912084
693.588556949
696.075977609
693.841378284
696.075982893
694.846240724
696.075986814
733.313471484
819.763744037
817.725916463
808.632602082
778.566676825
744.622435296
729.532402967
730.112589238
741.485844273
769.118734769
798.6529918
801.60968947
758.193836586
694.245051231
696.075934048
693.32164522
696.075943782
694.434129879
696.075947371
695.5348875
774.418779701
820.411155464
821.008237765
816.292266918
797.591447372
785.220614261
785.181185177
793.037009586
809.488012786
825.392512998
818.658194471
781.850322039
704.596517181
696.075876598
693.389886802
696.075893783
693.860315294
696.075900467
695.280380693
696.07591007
807.735864164
820.997238604
821.603686985
822.200174866
827.418345036
840.474921264
851.129579987
858.547140978
860.023502602
835.416961591
790.545388785
729.084931443
696.075804588
694.357593224
696.075832219
693.589798262
696.075843642
694.889377066
696.075855741
697.224289342
808.263277703
803.465121556
802.790174757
815.183011138
845.929965899
870.417583778
879.113642
880.473248247
865.639708081
815.517121698
750.310259304
706.985380817
695.649417629
696.075761682
694.173755401
696.075777676
694.449937924
696.07579196
695.881114698
715.07871101
755.078097336
704.780558685
736.591031843
778.667478242
834.254292524
869.857030381
881.293371721
881.34335055
867.548254131
810.701894052
747.487959832
706.637506343
696.075675076
695.218558513
696.075704584
694.158122486
696.075721708
695.428565585
700.637548726
754.82315718
640.722398426
618.968343909
648.380870106
682.588019989
742.092065659
819.411370098
869.431498284
880.96160469
875.644571885
835.783207223
770.891679862
717.188255123
696.2300721
696.075627884
694.567173715
696.075650247
694.840130755
696.075669941
724.775817285
801.752282373
588.404281061
594.781889122
604.293898142
613.054863088
631.883059058
685.976441029
786.608097134
859.443647923
874.815876176
865.514224103
823.01878722
749.557740751
703.940226308
695.583220533
696.075583638
694.553196427
696.075602486
701.804134976
765.489093679
842.38262078
585.608984961
591.179697398
593.939352937
595.043548413
597.935223601
611.449774279
663.33067599
771.150402897
853.023023436
866.086321758
860.786117772
804.203195696
726.528013877
696.075518753
695.024805328
696.075541981
695.787428074
725.204830871
807.000684168
873.351449912
584.216237146
590.239486818
591.629867063
591.81450282
592.270232929
596.428631436
613.990078418
671.562651794
777.417702971
854.32060744
861.463132004
856.777481993
774.672402989
705.346932415
696.075488593
695.478121687
697.660257237
756.809156548
841.189055112
889.357374703
585.44009137
590.283735797
591.139142244
591.215214855
591.26254289
593.485809178
604.406958868
634.352585666
699.749037698
795.426679912
858.548785602
866.604499242
841.399584752
738.950676321
695.842302457
696.075460025
710.293814473
783.374256553
864.900714391
890.972705098
583.828579055
591.577191613
591.69640042
591.308300062
591.294266279
592.802433886
602.443112027
626.149512446
669.027126632
736.9679869
818.670895956
867.846708509
876.284048576
798.236232952
712.263606253
702.430657387
733.875900378
805.313930716
877.225731555
890.989848605
585.28235574
594.634957467
593.821433382
592.701333865
591.716831727
593.369876254
602.644988855
624.850805915
661.176442136
712.968085207
778.072431787
848.046131238
877.994500932
853.52003996
765.621669044
735.46507569
766.311880286
827.08095815
881.905374558
887.815911415
584.041771235
598.925408034
596.924898408
595.932696959
594.248404874
596.332482766
605.375425631
626.266885488
660.654558306
707.259316368
762.795667198
825.391752688
877.927393642
878.729362813
832.973030668
792.912191388
808.687094589
850.745879202
882.132051841
876.89004528
585.282283353
603.498957021
599.978117764
599.996343273
599.231157812
602.593582482
612.86112111
633.010604952
664.488525074
708.266912295
761.186202194
819.673812042
874.507177769
893.625108388
879.669732323
851.164261581
853.98554844
873.688219444
882.114004227
856.046646178
584.169163874
607.447009605
602.943509145
603.981555342
605.366679986
611.443346744
625.181958716
647.17636055
677.55817977
717.200533848
766.019052634
822.166837494
876.073599481
905.468716456
904.732790638
893.076852553
888.015490148
889.848601353
875.671228898
850.257218951
585.439259251
610.376024108
606.313709525
608.125789301
611.86119653
621.88258724
640.922315009
667.481118916
699.869444579
737.945576795
783.470054393
836.264533287
886.927389644
911.701737322
912.131999326
910.669435874
906.292410648
897.96547832
865.160389101
850.618819668
584.895724
612.883830914
610.860854166
613.332223129
619.167124859
633.722221721
658.995430834
691.760823076
728.010723734
767.689577922
813.373154024
864.053497025
904.373738338
912.352278352
912.47489674
912.377722595
911.978286223
901.687271958
863.268681974
850.215492604
585.577337914
616.391033295
617.852615232
620.984734474
628.61842305
647.851676506
679.77845595
718.677163424
759.437513316
802.751544227
850.834842049
896.034276685
912.132738262
912.499380912
912.601537868
912.499398983
912.389224129
903.505919467
865.350014425
850.618797234
586.60809654
623.913648072
628.797782031
632.625009628
642.24462549
666.320565121
704.225790623
748.125442792
793.441844705
841.318597082
889.033409436
911.745318657
912.499361043
912.685204367
912.499384572
912.643499079
912.505766418
905.286426049
873.051148371
850.344143397
595.006588785
640.05947141
644.498766745
649.792877349
662.893671705
691.803861861
733.472695165
780.602156684
830.088698038
880.531740557
910.842904522
912.499337688
912.741733666
912.499366925
912.733772163
912.524103885
912.618688798
907.364158953
885.383025056
852.111378651
613.871407123
664.38341204
665.620359037
674.972955798
693.722613405
726.278776117
768.775197972
816.916750727
868.435963439
908.105527241
912.499310788
912.741709739
912.499345705
912.791707863
912.52408647
912.758217459
912.553833231
910.06038868
898.537342399
863.945211163
641.103047237
693.199848459
695.650773397
711.644270249
736.813334293
770.887490169
811.379264846
857.558771403
902.179273501
912.420146263
912.688953529
912.49932007
912.869841249
912.499345009
910.23294977
908.367558038
912.934013486
917.14707981
911.640225637
883.642079813
669.622090442
728.981427536
735.33586417
758.09970533
788.533505787
822.608540931
859.102931213
896.984920714
912.224582925
912.460301594
912.420154858
912.850701991
912.49931682
905.782322889
898.200931323
906.569279839
919.93877768
926.383789909
923.158468078
903.483671827
703.333409165
763.041102485
767.576216126
794.049881298
828.813706458
862.881042617
893.292171191
912.032980556
912.304995556
912.224587319
912.842784973
912.420145412
900.533391858
882.550502057
894.744818086
914.326240657
928.991850436
932.499380853
931.188570985
920.307575543
732.45265607
768.834272046
770.105595194
797.447914213
834.540395218
868.621024627
896.41961105
912.229593445
912.032976559
912.702985756
904.549456436
886.513540559
865.729057286
874.249473299
901.549244335
924.935352255
933.069888296
934.869520415
934.761934317
931.158684816
730.363084424
746.544599508
750.487644715
778.032943922
816.6758491
851.466528896
876.934267982
887.836136007
883.901461575
868.185791117
845.71328299
827.701539935
837.807485784
870.83652636
904.053302152
927.047456011
934.455326789
935.686759232
935.915906831
935.220046351
691.203967167
676.876267838
684.966877275
707.373758159
739.94112165
768.420750079
783.298406009
781.759525494
765.673734302
744.757415819
739.384896271
759.567002217
801.69266765
850.256336047
892.700380146
924.192362017
935.135859237
936.161820238
936.191377206
936.189316875
619.654979167
603.855021565
615.342861421
629.376006451
643.080359886
652.126987464
653.84153096
647.972285948
638.892464207
635.124618362
652.964714821
693.452224754
745.239979902
799.175284727
854.306337981
909.0416789
934.953026149
936.281455291
936.283089256
936.191367872
570.72311627
577.112282022
592.464687244
601.232033937
603.038782976
601.985947798
599.291615105
596.923953265
596.640142162
602.412977623
621.445802816
656.405354782
701.977866372
754.21409595
813.051766798
880.951892769
931.955282517
936.399479371
936.353637343
936.415442127
563.686008754
574.797611892
589.792927263
598.841926475
598.809542996
596.346412569
593.038484738
592.97521778
593.013780368
599.841045785
617.882683816
648.657069955
689.546724853
738.797822991
796.30426145
862.91764288
924.96802842
936.371332229
936.556205073
936.353637747
563.296477026
574.431087133
590.79421164
600.697544247
600.90401141
598.415493699
595.04275786
594.437986003
595.305263152
602.729038691
620.756045329
650.331783334
689.785493724
737.868822367
794.686718423
860.583455438
922.435218871
936.509987625
936.371339195
936.61531013
563.691424625
575.786811838
596.169919058
608.279476956
609.990746333
608.139739181
605.328708422
604.404154319
606.81283733
615.779292377
634.097298215
661.607160176
698.002123759
743.750128189
799.879551743
865.48877185
924.714822404
936.464633869
936.616065424
936.371342277
563.37159553
581.406328923
606.196315775
621.132593197
625.902858908
626.772980938
626.711731657
627.710730261
632.335620746
643.121348089
661.410469985
686.853600128
720.34357513
763.894694897
819.463378647
883.938572068
932.263707435
936.630228139
936.464641227
936.299124548
563.705665561
591.291892554
618.548121938