/*--------------------------------*- C++ -*----------------------------------*\
| =========                 |                                                 |
| \\      /  F ield         | OpenFOAM: The Open Source CFD Toolbox           |
|  \\    /   O peration     | Version:  2312                                  |
|   \\  /    A nd           | Website:  www.openfoam.com                      |
|    \\/     M anipulation  |                                                 |
\*---------------------------------------------------------------------------*/
FoamFile
{
    version     2.0;
    format      ascii;
    arch        "LSB;label=32;scalar=64";
    class       volVectorField;
    location    "0.37/water";
    object      U.gas;
}
// * * * * * * * * * * * * * * * * * * * * * * * * * * * * * * * * * * * * * //

dimensions      [0 1 -1 0 0 0 0];

internalField   nonuniform List<vector> 
750
(
(0.101096371393 0.562083941861 0)
(0.202234564372 0.479979092701 0)
(0.204317952784 0.41246308332 0)
(0.207863802016 0.366892692326 0)
(0.210462558418 0.327082421918 0)
(0.212124990061 0.29528657254 0)
(0.212984472436 0.268669902164 0)
(0.21340965448 0.246359439795 0)
(0.213623003247 0.226366554216 0)
(0.213773745083 0.208090458145 0)
(0.213908353943 0.193986769073 0)
(0.214045039067 0.184789153802 0)
(0.214281434544 0.178506015724 0)
(0.214742900326 0.173022588882 0)
(0.215451475735 0.167160473657 0)
(0.216355424176 0.160568523365 0)
(0.21752006631 0.154444884819 0)
(0.218992202345 0.151041239511 0)
(0.220340750683 0.148709305622 0)
(0.220981874416 0.146029099998 0)
(0.197566609313 1.10964985639 0)
(0.352757805827 1.01686088597 0)
(0.321461253635 0.92054710562 0)
(0.324177151406 0.84303011192 0)
(0.314222190599 0.772679142064 0)
(0.308724401357 0.711984172952 0)
(0.30128750836 0.658783063166 0)
(0.294191431156 0.612317000219 0)
(0.288590665787 0.570617327038 0)
(0.28628420042 0.532654210496 0)
(0.285195184499 0.500578853525 0)
(0.281551998552 0.476343513438 0)
(0.272556222611 0.457491446247 0)
(0.258256838563 0.441990162343 0)
(0.24378402524 0.428589384254 0)
(0.234703523103 0.416236457974 0)
(0.232736183652 0.404356165325 0)
(0.233583590784 0.394083360207 0)
(0.231314479105 0.384994053771 0)
(0.226762931437 0.375788414407 0)
(0.210314118162 1.06294358068 0)
(0.369560686618 1.04932590652 0)
(0.331384046193 1.0128930964 0)
(0.334127213849 0.968199890556 0)
(0.321903595914 0.920944622794 0)
(0.314626594394 0.873994073588 0)
(0.304036646148 0.829060460462 0)
(0.292284416512 0.787004053044 0)
(0.280670221597 0.748175278466 0)
(0.272646882239 0.712881927133 0)
(0.267881547332 0.682818255004 0)
(0.262867533132 0.655708353756 0)
(0.25645517426 0.631058995131 0)
(0.247729725413 0.609775912572 0)
(0.23391053879 0.591921334158 0)
(0.216141458815 0.576958346939 0)
(0.19956770503 0.563914195026 0)
(0.186253781919 0.550553683279 0)
(0.174407469128 0.537545498346 0)
(0.164703295275 0.525183668878 0)
(0.211336541742 1.00160662776 0)
(0.373295653226 0.996454373427 0)
(0.339223859604 0.982064974144 0)
(0.345630248528 0.962172173362 0)
(0.336108271785 0.937293202112 0)
(0.331630989047 0.910368478395 0)
(0.324279746251 0.882645470929 0)
(0.318017536258 0.855103452825 0)
(0.31564391914 0.828330332667 0)
(0.313247047807 0.803195113416 0)
(0.300012262848 0.781040309098 0)
(0.281170380117 0.760164186177 0)
(0.266251331585 0.739782215104 0)
(0.252905334598 0.720466899325 0)
(0.238911790498 0.702584451956 0)
(0.224184510754 0.686561517817 0)
(0.208888432499 0.673347996773 0)
(0.193123708958 0.661918055504 0)
(0.177903865764 0.651590376265 0)
(0.16603070687 0.640592938881 0)
(0.264837864453 0.944532977767 0)
(0.493130074569 0.927129341025 0)
(0.49254817787 0.913391872385 0)
(0.527046398938 0.902766017504 0)
(0.532897901775 0.892917453515 0)
(0.540955516704 0.882557986776 0)
(0.542217037249 0.871243383975 0)
(0.541353265205 0.858970371733 0)
(0.537783040393 0.845957986075 0)
(0.532073281961 0.832411112465 0)
(0.52380363311 0.817769811682 0)
(0.513581838683 0.80383100802 0)
(0.501977528937 0.790264607993 0)
(0.48892778136 0.776783885301 0)
(0.474294141956 0.763624710581 0)
(0.458045695713 0.751161748978 0)
(0.439604995962 0.739697443592 0)
(0.417750385781 0.729206485682 0)
(0.392466945779 0.720220957844 0)
(0.369871028703 0.708667414903 0)
(0.237409084933 0.835378750012 0)
(0.441194391961 0.825273312378 0)
(0.438908132723 0.823596962246 0)
(0.470715364217 0.828309976931 0)
(0.479048185483 0.8327512005 0)
(0.489116324191 0.836128371806 0)
(0.493294208142 0.837548475218 0)
(0.495553512499 0.836891636683 0)
(0.495556472121 0.834195757644 0)
(0.493557163572 0.829636041906 0)
(0.488989252531 0.823664264705 0)
(0.4822225958 0.816414996942 0)
(0.47372916231 0.808251389189 0)
(0.463770969626 0.799206086951 0)
(0.4523860426 0.789327974944 0)
(0.439697719588 0.778378565814 0)
(0.425668335045 0.765953182546 0)
(0.410400389306 0.754167477015 0)
(0.395023494665 0.744447856509 0)
(0.382819111277 0.732537738827 0)
(0.1217134395 0.616477307174 0)
(0.233462099371 0.695871920263 0)
(0.223681529059 0.741652438063 0)
(0.221783413661 0.772979980519 0)
(0.219048692365 0.79468527577 0)
(0.217768285515 0.809881946342 0)
(0.216888817206 0.820025144938 0)
(0.216395971361 0.826014963095 0)
(0.21554531637 0.828403687825 0)
(0.213423881628 0.828734485622 0)
(0.209307013285 0.827581778285 0)
(0.203608781347 0.823923856569 0)
(0.198824337104 0.817239615021 0)
(0.199358725571 0.807707424969 0)
(0.207398140447 0.792413067656 0)
(0.217085628691 0.77181252413 0)
(0.21266028145 0.759328786497 0)
(0.192137001312 0.749412727869 0)
(0.172285716668 0.740710252543 0)
(0.160637431336 0.731442577481 0)
(0.0790127202596 0.384586211478 0)
(0.154069228223 0.677879323636 0)
(0.145251502939 0.867493448115 0)
(0.134650172914 1.00455070052 0)
(0.122423700485 1.11258053675 0)
(0.108894830118 1.20073475773 0)
(0.0943662712453 1.273425603 0)
(0.0790551244571 1.33104302432 0)
(0.0632005519027 1.36840741251 0)
(0.0472792079103 1.36334319822 0)
(0.0319220447633 1.32254505962 0)
(0.0174485188767 1.26788518444 0)
(0.00398220344801 1.1900498064 0)
(-0.00807898367882 1.04878981593 0)
(-0.0198188398368 0.864032285194 0)
(-0.0295741553453 0.71361986786 0)
(-0.0326821410249 0.685330845494 0)
(-0.0292969245735 0.680699016124 0)
(-0.0228087473467 0.675243625143 0)
(-0.0155599777401 0.671350542025 0)
(0.0309333218833 0.274872947859 0)
(0.0602145299538 0.70738146771 0)
(0.0564747680575 1.03645424534 0)
(0.0520099640629 1.2982341359 0)
(0.0471350085788 1.51426786405 0)
(0.0420840142491 1.69653745958 0)
(0.0369231812476 1.85015429141 0)
(0.031658409223 1.97437541217 0)
(0.0262945790853 2.06009860233 0)
(0.020667501885 2.08236887445 0)
(0.0144955353967 2.04593477993 0)
(0.00775325317095 1.97114849489 0)
(0.000573068120079 1.84294105983 0)
(-0.00738730985319 1.61234577651 0)
(-0.0211084148884 1.27525580279 0)
(-0.050320703324 0.688546932162 0)
(-0.0904275629587 0.606120255033 0)
(-0.104215444042 0.594797261321 0)
(-0.0890500525739 0.59343571335 0)
(-0.0757038361987 0.595392145251 0)
(0.0107620822238 0.246295921036 0)
(0.0209930776308 0.660566844262 0)
(0.0199477695027 1.01666755093 0)
(0.0189761834693 1.3173981875 0)
(0.0180585726406 1.57287141313 0)
(0.0170991776375 1.79050759226 0)
(0.0160722331461 1.9739507048 0)
(0.014982282749 2.1229877168 0)
(0.0138102486758 2.23364105084 0)
(0.0125121044426 2.30322954615 0)
(0.0110348678333 2.32822438976 0)
(0.00931809852551 2.30289778771 0)
(0.00728199200306 2.21557063705 0)
(0.0048254009697 2.04670263098 0)
(0.00149566362113 1.74826195768 0)
(-0.00950183646609 1.13542185865 0)
(-0.0360644801775 0.642191754147 0)
(-0.0784186466588 0.573108282718 0)
(-0.0996217107221 0.561209978191 0)
(-0.0898631237838 0.558214119958 0)
(0.00496900571034 0.218061192861 0)
(0.00990990857763 0.596449470646 0)
(0.00995861645461 0.932613953399 0)
(0.0101914093623 1.22807614831 0)
(0.0105454762023 1.48559303254 0)
(0.0109740572357 1.70797360735 0)
(0.011458615272 1.89682911756 0)
(0.011991430396 2.0523582043 0)
(0.0125655146894 2.17371527357 0)
(0.0131635470628 2.25893906826 0)
(0.0137487294608 2.30507913244 0)
(0.0142616695089 2.30708513945 0)
(0.0146027023402 2.25616154331 0)
(0.0145659863292 2.13673696507 0)
(0.0136408622155 1.92604236832 0)
(0.0113519316763 1.64276806153 0)
(0.00328055515708 1.10696992867 0)
(-0.0136504706428 0.895869476393 0)
(-0.0422278840989 0.584890279909 0)
(-0.0738547066965 0.551704147247 0)
(0.0050048168238 0.18324053921 0)
(0.0100715448241 0.508012428137 0)
(0.0103401989831 0.80385049279 0)
(0.010882509614 1.06997381276 0)
(0.0116638961022 1.30593713121 0)
(0.012654919133 1.51158019292 0)
(0.0138438022036 1.68678349416 0)
(0.0152306527261 1.83122616174 0)
(0.0168231884333 1.94429717248 0)
(0.0186206802804 2.02519332 0)
(0.0206087603467 2.07253068754 0)
(0.0227432818814 2.08412564186 0)
(0.0249320491472 2.0559010103 0)
(0.0270028040303 1.98267550601 0)
(0.0287092801583 1.86148774574 0)
(0.0295012824388 1.68190983385 0)
(0.0292981777248 1.50347617303 0)
(0.0277456769617 1.26436395743 0)
(0.0219227058736 0.904867669179 0)
(0.0124422448355 0.821346176538 0)
(0.00502189907885 0.142112039847 0)
(0.0101570098473 0.40313275793 0)
(0.0105479843592 0.64828265757 0)
(0.0112626853559 0.873489002238 0)
(0.0122781909245 1.07536910024 0)
(0.0135702404527 1.25145071587 0)
(0.0151310979217 1.39995842374 0)
(0.0169700487395 1.5195932591 0)
(0.0191126116992 1.60943089469 0)
(0.0215861843527 1.66906405538 0)
(0.024377630713 1.69954781059 0)
(0.027444732449 1.70161116501 0)
(0.0307380804641 1.67782468089 0)
(0.0341805752631 1.62820743364 0)
(0.037605182898 1.55323064528 0)
(0.0408344970233 1.45875707623 0)
(0.0436290733332 1.34080197748 0)
(0.0457300351442 1.21209560748 0)
(0.0476678049583 1.11126326449 0)
(0.0495345175823 1.0324811228 0)
(0.0166810145922 0.101541256972 0)
(0.0330078625952 0.30075946336 0)
(0.0324293586177 0.496534843392 0)
(0.0321257857661 0.680012411063 0)
(0.032105148714 0.845386793474 0)
(0.0323571060414 0.988369140295 0)
(0.0328896300595 1.10567400975 0)
(0.0337434729857 1.19479797113 0)
(0.034952988767 1.25365851571 0)
(0.036481860761 1.28057191692 0)
(0.0383069168823 1.27602544779 0)
(0.0405179197339 1.25233710627 0)
(0.043291764923 1.211744089 0)
(0.0465844205027 1.16597426535 0)
(0.0501113852342 1.11472865695 0)
(0.0536584318486 1.05471308614 0)
(0.0571005493852 0.988111207282 0)
(0.060559936491 0.920673217262 0)
(0.0646227355799 0.856220142561 0)
(0.0696577344676 0.803347834341 0)
(0.0743969236272 0.0813453788778 0)
(0.146151687627 0.241956386016 0)
(0.141074589748 0.402306348193 0)
(0.136445020359 0.553533394988 0)
(0.132054912531 0.689231920059 0)
(0.127553744659 0.804409587067 0)
(0.122988411287 0.894932144187 0)
(0.118597611544 0.957206799316 0)
(0.114336369143 0.987527270848 0)
(0.109987548271 0.981151984705 0)
(0.105754272044 0.93104602305 0)
(0.102922736148 0.821521337529 0)
(0.10223175489 0.760947007638 0)
(0.103036215966 0.729180569339 0)
(0.104513949279 0.702910784348 0)
(0.10600972497 0.675432487947 0)
(0.107384589461 0.645640272545 0)
(0.109184743498 0.614864442802 0)
(0.112321517531 0.586177484539 0)
(0.11595199898 0.560909283174 0)
(0.0156715788868 0.0790929329949 0)
(0.0307340505975 0.227934342023 0)
(0.0294086112646 0.371430589527 0)
(0.0279100561753 0.504045207068 0)
(0.0262822797259 0.620673404254 0)
(0.0245704425884 0.716719855924 0)
(0.0228365298674 0.787934430621 0)
(0.0211060139787 0.83000207991 0)
(0.0194020710416 0.837694991245 0)
(0.0178240975663 0.802922490848 0)
(0.0163800626878 0.710788127778 0)
(0.0148707817097 0.523428181844 0)
(0.0129970714503 0.488677652303 0)
(0.0112628153814 0.491085199892 0)
(0.0118954826633 0.490734769901 0)
(0.0170293416958 0.488509494873 0)
(0.0264298317734 0.483962871652 0)
(0.0386389448804 0.477884392996 0)
(0.0518180351004 0.472376489884 0)
(0.0624337164379 0.475964775435 0)
(0.00930542653468 0.0847901950298 0)
(0.0181495780251 0.235319683448 0)
(0.0171553376359 0.373203344982 0)
(0.0160810194209 0.496898333256 0)
(0.0149834173096 0.603185975065 0)
(0.0138568609762 0.688255842965 0)
(0.0126597273632 0.747977797863 0)
(0.0113462033993 0.777630054122 0)
(0.00992692020608 0.771428148732 0)
(0.00833491471685 0.720719854742 0)
(0.00521062463002 0.608635589299 0)
(-0.00264984006502 0.386483305179 0)
(-0.0191525804412 0.371650555371 0)
(-0.0311714946641 0.379143786451 0)
(-0.0244373099307 0.390858725793 0)
(-0.00848155863196 0.406414096621 0)
(0.00774848771153 0.417415894266 0)
(0.024378852883 0.424193463711 0)
(0.0426610097732 0.428817102187 0)
(0.0589794345422 0.4324273476 0)
(0.0206103122287 0.0827957242192 0)
(0.0404813028009 0.228017665554 0)
(0.0389138168161 0.358832802071 0)
(0.0372773745167 0.473888134047 0)
(0.0356778772248 0.570917948279 0)
(0.0341315719528 0.646698499272 0)
(0.0326657517271 0.697274336032 0)
(0.0313128851633 0.717761441491 0)
(0.0301026652088 0.702591463404 0)
(0.0290184991471 0.64508398586 0)
(0.0278959901479 0.540270134776 0)
(0.0259022261882 0.356448335577 0)
(0.023145079367 0.302122220242 0)
(0.0201768494792 0.292306763855 0)
(0.0171393539868 0.307279948913 0)
(0.0167225432057 0.330665588779 0)
(0.0227810866011 0.353218480839 0)
(0.0349379919501 0.372677256559 0)
(0.0507017582245 0.388150316118 0)
(0.0652968998529 0.39949961825 0)
(0.0503915740406 0.0768892310157 0)
(0.0989449179937 0.209938470584 0)
(0.0951938217886 0.32913265339 0)
(0.0913830114934 0.433254330982 0)
(0.0876010622827 0.520097205701 0)
(0.0839011210994 0.586599424236 0)
(0.0803787422834 0.629007198104 0)
(0.0771294764474 0.642314161421 0)
(0.0742598407813 0.620379123955 0)
(0.0718845175834 0.553728573763 0)
(0.0702070179528 0.436299873949 0)
(0.0690547423909 0.343187597929 0)
(0.0682391232636 0.283268015744 0)
(0.0681722774097 0.27072243704 0)
(0.0693614695288 0.285425650375 0)
(0.0718520600529 0.309053347577 0)
(0.0748713390666 0.334584222007 0)
(0.0774117983757 0.358352773946 0)
(0.079056203934 0.377136137803 0)
(0.0798255335924 0.392155247518 0)
(0.0364234301091 0.0661185128133 0)
(0.0716609870024 0.181045890744 0)
(0.0692255295214 0.285057928652 0)
(0.0667354188091 0.376272177398 0)
(0.0642601162826 0.451586152229 0)
(0.0618619730903 0.507867579488 0)
(0.0596691986802 0.541810158983 0)
(0.0578058609923 0.548913190558 0)
(0.056382524868 0.5227956255 0)
(0.055448552563 0.448749975433 0)
(0.0545481079018 0.354297048784 0)
(0.0531693753364 0.301141170329 0)
(0.0509569445651 0.275147014059 0)
(0.0477780232642 0.274222553126 0)
(0.0439573406572 0.295389404419 0)
(0.039734282078 0.334710460961 0)
(0.0354639167321 0.383681886477 0)
(0.0316820415007 0.41495867914 0)
(0.028613054785 0.435525110094 0)
(0.0256990801019 0.455731778779 0)
(0.0303636008653 0.0476053981349 0)
(0.0596226724608 0.142356249209 0)
(0.0573096710093 0.233243624427 0)
(0.054881078823 0.312650044339 0)
(0.052423138086 0.376486978798 0)
(0.0499933775284 0.421984190402 0)
(0.0477087046547 0.447070988954 0)
(0.0456644266633 0.449259318242 0)
(0.043862491384 0.425037405989 0)
(0.0420641762078 0.364163875791 0)
(0.0399495491151 0.316457525378 0)
(0.0372105334353 0.287567172402 0)
(0.0338784743102 0.2844890788 0)
(0.0302873189217 0.311302778851 0)
(0.0267438131566 0.362976277729 0)
(0.0235215583641 0.430064176283 0)
(0.0205767886516 0.498072515523 0)
(0.017564431013 0.544268229664 0)
(0.0140979165567 0.56967659154 0)
(0.00893413766295 0.570311816751 0)
(0.0579729518088 0.0553509963976 0)
(0.113689021655 0.156340276565 0)
(0.108959335511 0.248254903752 0)
(0.103961298877 0.325610382805 0)
(0.0988869280065 0.385096738988 0)
(0.0938013637831 0.425873705755 0)
(0.08876977548 0.448149322003 0)
(0.0837695845019 0.452882794945 0)
(0.0785353490714 0.441375447887 0)
(0.0726268120257 0.414978084301 0)
(0.0662822475061 0.391164733226 0)
(0.0603838678975 0.387579301962 0)
(0.0549963133414 0.410448859913 0)
(0.0496127450289 0.46699336908 0)
(0.044098702454 0.553143623543 0)
(0.0384592544144 0.653859586326 0)
(0.0324986897344 0.746495527742 0)
(0.0259059480384 0.826415632028 0)
(0.0182437352295 0.875766690962 0)
(0.00604855764205 0.88315513908 0)
(0.0220331913026 0.0731688011537 0)
(0.0430124764887 0.196391761171 0)
(0.0408150761306 0.299313587404 0)
(0.0385388301932 0.378168191504 0)
(0.0363104336948 0.432974187178 0)
(0.0341755004652 0.465110529122 0)
(0.032170672491 0.479711989148 0)
(0.030290636339 0.481511128828 0)
(0.0285116657718 0.47557859575 0)
(0.0268094835972 0.468073217711 0)
(0.0251766978349 0.46644894546 0)
(0.0236107919777 0.479194257826 0)
(0.0221209966101 0.516860123551 0)
(0.020685360987 0.590856150442 0)
(0.0190666978276 0.709663749659 0)
(0.0170294691173 0.85164548434 0)
(0.0143025485005 1.01415693771 0)
(0.0105880393987 1.15506663273 0)
(0.00561026323469 1.25405406885 0)
(-0.00454368139837 1.27795043543 0)
(0.0582310772667 0.0961663472843 0)
(0.114189848539 0.246924822947 0)
(0.109480810206 0.363162245907 0)
(0.104607901879 0.441032412631 0)
(0.0998668542666 0.472774402036 0)
(0.0954195252924 0.477457841487 0)
(0.0912871531441 0.464609568495 0)
(0.08741696989 0.445649974899 0)
(0.0836975150401 0.426006109499 0)
(0.0799576391469 0.408991641733 0)
(0.0761734183008 0.398344053604 0)
(0.0729613491713 0.399500556674 0)
(0.0708945290729 0.420562179167 0)
(0.0697555408965 0.477116019925 0)
(0.0691267110399 0.612794116136 0)
(0.0672916820698 0.912173144665 0)
(0.0636366957322 1.15865513135 0)
(0.0589020029517 1.38530202455 0)
(0.0530591867672 1.5680668207 0)
(0.0437647089176 1.66207027176 0)
(0.0689337242589 0.116279292822 0)
(0.135936436696 0.285014208786 0)
(0.132467400799 0.407903377514 0)
(0.129897520056 0.484177490239 0)
(0.12811358892 0.494819576781 0)
(0.126752769417 0.472792764729 0)
(0.125594859558 0.441595256985 0)
(0.124388369787 0.40913013283 0)
(0.122446615064 0.378888931298 0)
(0.118893529268 0.352006541471 0)
(0.113708953599 0.329943346671 0)
(0.10732030396 0.316046359678 0)
(0.0996164140573 0.315884646956 0)
(0.0908771956399 0.33922207025 0)
(0.0828705680588 0.422544010385 0)
(0.0790837945985 0.672149062404 0)
(0.0803573761203 0.889917562408 0)
(0.0833937647564 1.23808139694 0)
(0.0839789588055 1.69039245222 0)
(0.0820377290477 1.92042427093 0)
(0.0613722721587 0.0973644509257 0)
(0.121271582238 0.245902462893 0)
(0.11860776091 0.358376138485 0)
(0.116560586726 0.431364436454 0)
(0.114898169151 0.455614640849 0)
(0.113116332844 0.44744474784 0)
(0.110946019471 0.424448263773 0)
(0.108330324024 0.395880228657 0)
(0.105283850446 0.367194511509 0)
(0.102018281406 0.340334169729 0)
(0.0991146629147 0.31723453399 0)
(0.0973327645857 0.301354605829 0)
(0.096621344478 0.29729763197 0)
(0.0948495895733 0.309865382446 0)
(0.089634905825 0.343642440344 0)
(0.0805109315145 0.40607154335 0)
(0.0697868049554 0.53704971804 0)
(0.0626556752216 0.885326961945 0)
(0.0626079368189 1.39258077914 0)
(0.0680563784556 1.62765186806 0)
(0.0450823318833 0.0670021959889 0)
(0.0887052665584 0.182444743739 0)
(0.0857307245648 0.278221268781 0)
(0.082708978974 0.347015045975 0)
(0.0795962052497 0.38927571263 0)
(0.0762484268646 0.407641743546 0)
(0.0725578164327 0.404300975864 0)
(0.0684608164928 0.390872854831 0)
(0.0640191672794 0.374348401703 0)
(0.0593512082722 0.358160511014 0)
(0.0545716123907 0.344812210057 0)
(0.0497630471658 0.337044721333 0)
(0.0449628659264 0.337211752981 0)
(0.0402222895234 0.343427984056 0)
(0.0355483471599 0.367630888031 0)
(0.0309674602703 0.423377265436 0)
(0.026902759264 0.533563324819 0)
(0.0245033822528 0.767441267044 0)
(0.0251533819855 1.04777800102 0)
(0.0291545924661 1.14876353423 0)
(0.0468996721689 0.0615334503657 0)
(0.091977433796 0.16901553897 0)
(0.0882564256666 0.254944195842 0)
(0.0845235226014 0.31684214541 0)
(0.0808822706089 0.358425198096 0)
(0.0772768190696 0.383586262893 0)
(0.0736650920394 0.397095741897 0)
(0.0700165812249 0.402729417704 0)
(0.0663154366045 0.404664822282 0)
(0.0625571249089 0.405900220179 0)
(0.0587525395857 0.40836223495 0)
(0.0549272078368 0.413196793435 0)
(0.0511019218061 0.420692043572 0)
(0.0472265521267 0.429091480426 0)
(0.043298477979 0.451795016087 0)
(0.0395041734701 0.500973579653 0)
(0.0361703711665 0.588887482956 0)
(0.0338826538778 0.725863910364 0)
(0.033366646022 0.869090470623 0)
(0.0338355008346 0.907001552752 0)
(0.0768267050023 0.114172300343 0)
(0.151079629968 0.227698205967 0)
(0.145939611718 0.292654619291 0)
(0.140719654412 0.335210929212 0)
(0.135222409961 0.36573305047 0)
(0.12947895858 0.38876150809 0)
(0.123667192569 0.406905601148 0)
(0.117888644712 0.422243518463 0)
(0.112279192797 0.436385567987 0)
(0.106939361118 0.450603385586 0)
(0.101818373467 0.465340027183 0)
(0.0966706764084 0.480103669489 0)
(0.0911552249173 0.494053174091 0)
(0.0853128916218 0.50974903701 0)
(0.0798485991006 0.531527655525 0)
(0.075452388429 0.570480304665 0)
(0.0721580189856 0.626361470461 0)
(0.0696953204051 0.691689426177 0)
(0.067940085422 0.751722716018 0)
(0.0669681568334 0.801373836459 0)
(0.102618640935 0.269985433516 0)
(0.207280921677 0.313247022489 0)
(0.215663557017 0.34000937789 0)
(0.227488140693 0.360712937352 0)
(0.23652394821 0.379391513297 0)
(0.238785712248 0.397391768188 0)
(0.231477878866 0.415404799378 0)
(0.216529008307 0.433839429723 0)
(0.199417312221 0.452959916191 0)
(0.186932935807 0.472748960508 0)
(0.183076229498 0.492722510987 0)
(0.183881482628 0.511903980996 0)
(0.173048748536 0.529228463672 0)
(0.143246905194 0.546671913637 0)
(0.114106122854 0.567982147428 0)
(0.10016813974 0.596700449129 0)
(0.0950966027343 0.630134123416 0)
(0.0920009555273 0.665610898003 0)
(0.0893132770359 0.700726333417 0)
(0.0874270731893 0.730229155608 0)
(0.119796396256 0.381292327498 0)
(0.238928811782 0.363919249748 0)
(0.245788295028 0.367947133833 0)
(0.257090827286 0.378926434321 0)
(0.263967826858 0.392661184035 0)
(0.267492439886 0.407709252768 0)
(0.266146572484 0.423897255379 0)
(0.260644200385 0.441205212416 0)
(0.252458541852 0.459586359781 0)
(0.243864026933 0.478684588373 0)
(0.235575998042 0.497938749993 0)
(0.226580515261 0.516630366372 0)
(0.215639930031 0.53481585394 0)
(0.200976125974 0.554315326004 0)
(0.182027032702 0.578245041874 0)
(0.163066452221 0.603646864335 0)
(0.148858326277 0.629591939495 0)
(0.137245772707 0.655066084616 0)
(0.123705437123 0.680303979222 0)
(0.112194736665 0.70267136098 0)
(0.0993336957622 0.341571573507 0)
(0.197493211771 0.373954913246 0)
(0.197232833246 0.390911853272 0)
(0.197829695413 0.403799227457 0)
(0.195537814834 0.416613607963 0)
(0.188931102085 0.430403134492 0)
(0.177801867874 0.445527056655 0)
(0.163398220038 0.462178554409 0)
(0.146317121218 0.48035710025 0)
(0.12791493214 0.500696124844 0)
(0.110943134234 0.524005857224 0)
(0.0975126036346 0.550436514875 0)
(0.0877075577765 0.577732744713 0)
(0.0802270196718 0.60214552845 0)
(0.0739375528751 0.62502488004 0)
(0.0685865101692 0.647609970814 0)
(0.0644003338781 0.668775345042 0)
(0.0620839995 0.688820920888 0)
(0.0634674465296 0.708842534242 0)
(0.0685090523922 0.724930189184 0)
(0.0822279116757 0.336254856327 0)
(0.160751821117 0.420525769775 0)
(0.153271007706 0.460963884803 0)
(0.145678200979 0.484116166738 0)
(0.138077501367 0.501447811015 0)
(0.130435427892 0.51660136303 0)
(0.122710336429 0.530003866641 0)
(0.114928009841 0.538580636109 0)
(0.107258479316 0.545870125066 0)
(0.0998477889993 0.560439689967 0)
(0.0927628398191 0.583192826611 0)
(0.0861441662108 0.611745335701 0)
(0.0800791938278 0.642692513434 0)
(0.0746033359185 0.671227892606 0)
(0.0696720818981 0.697243344913 0)
(0.0652443213159 0.719805216865 0)
(0.0612340186428 0.738291033472 0)
(0.057507504088 0.75287245961 0)
(0.0532399993154 0.764513313067 0)
(0.0490741489743 0.77167686216 0)
(0.117910731711 0.46410871845 0)
(0.230023828653 0.511578651079 0)
(0.223805317415 0.541555226609 0)
(0.216974779038 0.562567528772 0)
(0.200474366377 0.579554644303 0)
(0.176555327501 0.59532021142 0)
(0.151391621211 0.610274 0)
(0.133427654013 0.620056893601 0)
(0.122821060994 0.627244922167 0)
(0.115641612585 0.639636247912 0)
(0.109444853142 0.657472321702 0)
(0.103591715124 0.677662416365 0)
(0.0980738597709 0.699061637435 0)
(0.0930185788905 0.721074550975 0)
(0.0885669334461 0.743449584928 0)
(0.0847859663194 0.765063305045 0)
(0.0816312567099 0.784508221783 0)
(0.0790242014105 0.800600335927 0)
(0.0769562280992 0.812970429143 0)
(0.0754472289913 0.820174384984 0)
(0.176682370814 0.589393571955 0)
(0.337530961857 0.581027787924 0)
(0.338262453529 0.581905914726 0)
(0.355155599039 0.587344128025 0)
(0.358648269382 0.595964564153 0)
(0.360135295639 0.607678456616 0)
(0.354191964085 0.622537839172 0)
(0.342531940881 0.639328808602 0)
(0.325511057215 0.656733644476 0)
(0.304691791612 0.674232268818 0)
(0.281900273887 0.692094296909 0)
(0.25884521999 0.710078035117 0)
(0.236201272053 0.728091038895 0)
(0.214671457442 0.746259615166 0)
(0.195705771656 0.764586682998 0)
(0.179685327951 0.782518858923 0)
(0.165122094106 0.799378815124 0)
(0.152253654413 0.815247522037 0)
(0.144721958159 0.829523730185 0)
(0.144045456246 0.838561900344 0)
(0.185227422277 0.629960257384 0)
(0.353867042707 0.615505970767 0)
(0.355779703074 0.610060047141 0)
(0.374173340506 0.61044101521 0)
(0.376953653022 0.615567649184 0)
(0.377919882686 0.623598198175 0)
(0.372706154641 0.634351101056 0)
(0.364237451774 0.64770886079 0)
(0.352799232372 0.66338314308 0)
(0.339085798107 0.680732916941 0)
(0.32338332415 0.699085473055 0)
(0.306861078518 0.718307296402 0)
(0.290880480473 0.737970815166 0)
(0.276115843717 0.757649095804 0)
(0.262687507656 0.776026473252 0)
(0.250767218859 0.791162381621 0)
(0.240769190048 0.804023145493 0)
(0.233517466915 0.816333699284 0)
(0.229800787266 0.827407328093 0)
(0.229219990117 0.835748481023 0)
(0.132188060368 0.592441043375 0)
(0.251167580583 0.607893773403 0)
(0.239468473016 0.620784897798 0)
(0.237664680047 0.629789804915 0)
(0.231949786857 0.637094759122 0)
(0.224061220869 0.645287983415 0)
(0.209838591373 0.655862331129 0)
(0.187074374701 0.668722989171 0)
(0.15457792652 0.684553997882 0)
(0.121092478698 0.705593790918 0)
(0.0974113375077 0.732380129349 0)
(0.0830691611032 0.758897211914 0)
(0.0727812601565 0.782293133608 0)
(0.0642854952224 0.801199722683 0)
(0.0575935842727 0.814111392315 0)
(0.0550385460343 0.823985443069 0)
(0.0606279832475 0.83120327029 0)
(0.0753344530107 0.82874834817 0)
(0.0952648718506 0.832980727292 0)
(0.112903271501 0.838364409275 0)
(0.215100155457 0.171799250596 0)
(0.19673439661 0.401219571267 0)
(0.144448798454 0.515934903572 0)
(0.138593534829 0.625128850094 0)
(0.286917274823 0.692037718531 0)
(0.313197817618 0.708993489528 0)
(0.156739651584 0.70975242556 0)
(0.0115332053795 0.671069504904 0)
(-0.0570976628605 0.606038691181 0)
(-0.0721085623323 0.562702341337 0)
)
;

boundaryField
{
    emptyPatch
    {
        type            empty;
    }
    minY
    {
        type            fixedValue;
        value           uniform (0 0 0);
    }
    maxY
    {
        type            zeroGradient;
    }
    maxX
    {
        type            fixedValue;
        value           nonuniform List<vector> 0();
    }
    water_to_heater
    {
        type            fixedValue;
        value           uniform (0 0 0);
    }
    procBoundary0to1
    {
        type            processor;
        value           nonuniform List<vector> 
38
(
(-0.0793390715614 0.545232375569 0)
(-0.0172530260971 0.572977560137 0)
(0.0365003285083 0.634427827096 0)
(0.0717658994749 0.641563141231 0)
(0.118293383308 0.59512160757 0)
(0.0872506878001 0.531054312306 0)
(0.0870069760623 0.477967780754 0)
(0.081542022921 0.486956839213 0)
(0.0793479152432 0.559356437678 0)
(0.0375598272913 0.649586951947 0)
(0.0171396199601 0.716677294864 0)
(-0.00204193138885 0.772628340879 0)
(-0.0394803253374 0.869306746293 0)
(-0.0142753969139 1.04057276977 0)
(0.0266723849264 1.27896158439 0)
(0.0558239800942 1.44655290131 0)
(0.0500821726334 1.35095624393 0)
(0.0462845221822 1.09613679587 0)
(0.0639045537721 0.943146223541 0)
(0.0847001064351 0.890022863142 0)
(0.109945099832 0.827917094277 0)
(0.103119101897 0.777870934649 0)
(0.0852556845552 0.765836249199 0)
(0.0995387374152 0.797746040249 0)
(0.152223531457 0.829890896061 0)
(0.235845960447 0.841966010872 0)
(0.176895655029 0.862620935602 0)
(0.204534275848 0.175763963437 0)
(0.161008724359 0.403940894601 0)
(0.125126115885 0.504975289166 0)
(0.115669874627 0.603147668128 0)
(0.186116043132 0.673859893373 0)
(0.220587223637 0.698017050223 0)
(0.156031240943 0.704725405385 0)
(0.052992389633 0.692305991811 0)
(-0.0159250589088 0.652310114914 0)
(-0.0402160662209 0.612063332133 0)
(-0.0793390715614 0.545232375569 0)
)
;
    }
    procBoundary0to3
    {
        type            processor;
        value           nonuniform List<vector> 
20
(
(0.101270412753 0.569084806501 0)
(0.193199877614 0.622766013999 0)
(0.176271028543 0.656644272162 0)
(0.160506865036 0.67984892763 0)
(0.145188034629 0.69971027818 0)
(0.131725330718 0.721324258872 0)
(0.119700439049 0.744426121725 0)
(0.108556011105 0.76613629256 0)
(0.0983417143403 0.789843235627 0)
(0.0896620359634 0.81825535798 0)
(0.0821699463504 0.852128838167 0)
(0.0751111991109 0.884811840781 0)
(0.0681907314654 0.911171319994 0)
(0.0612623013511 0.926053958243 0)
(0.0542858269813 0.931433523346 0)
(0.0393501167997 0.923252225983 0)
(-0.0165421574691 0.863126491416 0)
(-0.101091694379 0.849860562902 0)
(-0.109574224182 0.855405095827 0)
(-0.0450041666135 0.878056792581 0)
)
;
    }
}


// ************************************************************************* //
