/*--------------------------------*- C++ -*----------------------------------*\
| =========                 |                                                 |
| \\      /  F ield         | OpenFOAM: The Open Source CFD Toolbox           |
|  \\    /   O peration     | Version:  2312                                  |
|   \\  /    A nd           | Website:  www.openfoam.com                      |
|    \\/     M anipulation  |                                                 |
\*---------------------------------------------------------------------------*/
FoamFile
{
    version     2.0;
    format      ascii;
    arch        "LSB;label=32;scalar=64";
    class       volScalarField;
    location    "0.39/water";
    object      d.gas;
}
// * * * * * * * * * * * * * * * * * * * * * * * * * * * * * * * * * * * * * //

dimensions      [0 1 0 0 0 0 0];

internalField   nonuniform List<scalar> 
1496
(
0.00499440816343
0.00499439276017
0.00499438050364
0.00499438150467
0.00499438367454
0.00499438392811
0.0049943844821
0.00499438507588
0.00499438569523
0.00499438638697
0.00499438748969
0.00499439193311
0.00499439917217
0.00499440546278
0.00499440913439
0.00499441143738
0.00499441701605
0.00499441980554
0.00499440600221
0.00499437006562
0.00499445695306
0.00499442003011
0.00499439329642
0.0049943940457
0.00499439955786
0.00499439981187
0.00499439884125
0.00499439920626
0.00499439982556
0.00499440066883
0.00499440281802
0.00499441131809
0.00499442623251
0.00499444598518
0.00499446979509
0.00499449925931
0.00499452694278
0.00499453772735
0.00499452969744
0.00499450599376
0.00499451591555
0.00499447517377
0.00499443634532
0.00499443641961
0.00499444361316
0.00499445213504
0.00499445702056
0.00499445687658
0.00499445571499
0.00499445587577
0.00499445999962
0.00499447098641
0.00499449021456
0.00499451871133
0.00499455640026
0.00499459829726
0.00499463296874
0.00499465581262
0.00499466485622
0.00499465727892
0.0049945771687
0.00499455202448
0.00499451309122
0.00499452118085
0.00499453809713
0.00499454873218
0.00499455682915
0.00499455960457
0.0049945624825
0.00499456604121
0.00499457381436
0.00499458767193
0.00499460931709
0.00499464090899
0.00499468255823
0.00499472939841
0.00499477366593
0.00499481085204
0.00499483685609
0.00499485541878
0.00499463450795
0.00499464574168
0.00499462967712
0.00499465806091
0.00499469201279
0.00499472114421
0.004994733464
0.00499474870465
0.00499475531062
0.00499476133009
0.00499476930339
0.00499478239032
0.00499480351447
0.00499483363702
0.00499487197775
0.00499491668483
0.00499496581407
0.00499501916218
0.00499507794314
0.00499514866454
0.00499476248736
0.00499483290449
0.00499483396826
0.00499487577751
0.00499492725387
0.00499496530474
0.00499500745497
0.00499502626467
0.00499504501392
0.0049950582014
0.00499507370224
0.00499508004229
0.00499509412154
0.00499511610605
0.00499514689993
0.00499518875942
0.00499524947842
0.00499533182707
0.00499543682124
0.00499556819809
0.00499509548203
0.00499523232203
0.00499522020815
0.00499524877686
0.0049952919451
0.00499534220473
0.0049953740364
0.0049954071064
0.00499542660251
0.00499544159704
0.00499544750694
0.00499545663015
0.00499547063058
0.00499548673996
0.00499551639164
0.00499556225197
0.00499563357531
0.0049957303249
0.00499585482354
0.00499601410071
0.00499596224519
0.00499608427709
0.00499598391758
0.0049959419078
0.00499593361031
0.00499592960371
0.00499592212581
0.00499592593331
0.00499591367166
0.00499592778218
0.00499592387648
0.00499593505084
0.00499592340863
0.00499592296297
0.00499593856406
0.00499597044003
0.00499602686039
0.0049961111501
0.00499623052451
0.004996400568
0.00499696346986
0.00499700313717
0.00499691718169
0.00499686057463
0.00499681355723
0.00499676497994
0.00499673260254
0.00499667697127
0.00499664482235
0.00499657950428
0.00499652792554
0.00499645980774
0.00499640531655
0.00499636744997
0.00499634895788
0.00499635294438
0.00499638575728
0.00499645108934
0.00499656172913
0.00499673890657
0.0049971187987
0.00499711981431
0.00499712045017
0.00499712103357
0.00499712623959
0.00499713559405
0.00499713371622
0.00499711212318
0.00499705765271
0.00499698381435
0.00499690234153
0.00499682840086
0.00499676626875
0.00499671668723
0.00499668357544
0.00499667249696
0.00499668929378
0.00499674184193
0.00499685339294
0.00499702971336
0.0049971366158
0.0049971367808
0.00499713682473
0.00499713684238
0.00499713682148
0.00499713668751
0.0049971363542
0.00499713573904
0.00499713482239
0.00499711659846
0.0049970738788
0.0049970252578
0.00499697962342
0.00499694207192
0.00499691464642
0.00499690414204
0.00499691930305
0.0049969793954
0.00499709012901
0.00499733698809
0.00499715142285
0.00499715156123
0.00499715157533
0.00499715153275
0.00499715146322
0.00499715136405
0.00499715121869
0.00499715100692
0.00499715068797
0.00499714447193
0.00499712830379
0.00499710660058
0.00499708365254
0.00499706298158
0.00499704813982
0.00499704840127
0.00499707820362
0.00499714798837
0.00499727978218
0.00499743304284
0.00499716753508
0.00499716765649
0.00499716768196
0.00499716767121
0.00499716763314
0.00499716756789
0.00499716747429
0.00499716734146
0.00499716720656
0.00499716287662
0.00499715462911
0.00499714336581
0.00499713105128
0.00499712022744
0.00499711567622
0.00499712577403
0.00499716159924
0.00499722591256
0.0049974170148
0.00499739012494
0.0049971848231
0.00499718492939
0.00499718493755
0.00499718489343
0.00499718480915
0.00499718467076
0.00499718445834
0.00499718412888
0.00499718362893
0.00499717912281
0.00499717291631
0.00499716518559
0.0049971580071
0.00499715437204
0.0049971590915
0.00499718372345
0.00499724050197
0.0049973573998
0.00499743745639
0.00499739240561
0.00499720292291
0.00499720303622
0.00499720307442
0.00499720306775
0.00499720304471
0.00499720300083
0.00499720294304
0.00499720293442
0.00499720069781
0.00499719725044
0.0049971913762
0.0049971850109
0.00499717982974
0.00499717903504
0.0049971904513
0.00499722612191
0.0049972862283
0.00499743772675
0.0049973958518
0.00499739569486
0.00499722175189
0.00499722185209
0.0049972218734
0.00499722185165
0.00499722180422
0.00499722170773
0.00499722151047
0.00499722117541
0.00499721738648
0.00499721471437
0.00499721018103
0.00499720499103
0.00499720087855
0.00499720258439
0.00499722202489
0.00499725961672
0.00499736096967
0.00499747384151
0.00499739800582
0.00499739830541
0.00499724145268
0.0049972415649
0.00499724163332
0.00499724170807
0.00499724180481
0.00499724192607
0.00499724207462
0.00499724148733
0.00499723990893
0.00499723732961
0.00499723260392
0.00499722687603
0.00499722213832
0.00499722625614
0.00499724619731
0.00499729837753
0.00499743662545
0.00499744357423
0.00499740115699
0.00499740159026
0.0049972614823
0.00499726160549
0.00499726170179
0.00499726182192
0.00499726197171
0.004997262148
0.00499726234559
0.00499726138401
0.00499726156297
0.00499725999482
0.00499725569213
0.0049972496316
0.00499724469576
0.00499724961194
0.00499727866235
0.0049973403774
0.00499745129209
0.00499741949524
0.00499740521368
0.00499740559453
0.00499728119368
0.00499728131347
0.00499728143044
0.00499728158867
0.00499728178657
0.00499728202083
0.00499728230011
0.00499728220329
0.00499728426942
0.00499728400747
0.00499728050621
0.00499727458681
0.00499726945624
0.00499727519029
0.00499729205052
0.0049973702445
0.00499743318544
0.00499739157228
0.00499739806236
0.00499740745386
0.00499730022476
0.00499730034664
0.00499730050316
0.00499730070341
0.00499730094866
0.00499730123625
0.00499730157819
0.00499730241372
0.00499730626319
0.00499730711577
0.00499730385604
0.00499729681141
0.00499728956843
0.00499728535894
0.00499730421007
0.00499737317778
0.00499738315529
0.00499735565236
0.00499737659837
0.00499739390192
0.00499731848886
0.00499731857129
0.0049973188092
0.00499731905262
0.00499731929897
0.00499731953367
0.00499731972316
0.00499732124906
0.00499732602392
0.00499732704344
0.00499732320559
0.00499731500205
0.00499730698595
0.00499730385474
0.00499730780824
0.00499735498447
0.00499737025631
0.00499734448944
0.00499736145396
0.00499737127357
0.00499733986333
0.00499734945724
0.00499733755141
0.00499733778705
0.004997338059
0.00499733832564
0.00499733840882
0.00499733989759
0.00499734264512
0.00499734241739
0.004997338058
0.00499733070268
0.00499732656698
0.00499732394319
0.00499733110611
0.00499737953704
0.0049974030213
0.00499737918587
0.00499739117248
0.00499740779987
0.00499736978337
0.00499739739036
0.00499736354927
0.00499735782125
0.00499735752839
0.00499735679846
0.00499735492458
0.0049973540306
0.00499735356767
0.00499735179949
0.00499734819432
0.0049973462349
0.00499735444893
0.0049973738784
0.0049973879331
0.00499743779437
0.0049975040197
0.00499749289553
0.0049975023037
0.00499752473239
0.00499739792788
0.00499745316275
0.00499740302189
0.00499738610469
0.00499737861084
0.00499737133715
0.00499736378289
0.00499735830093
0.00499735533072
0.00499735473078
0.00499735798342
0.00499736978176
0.00499740502064
0.00499744986159
0.00499749270227
0.00499758190521
0.00499769903653
0.00499769319665
0.00499769454423
0.004997713237
0.00499736679209
0.00499745949804
0.00499741199539
0.00499738844797
0.00499737191028
0.00499735790458
0.00499734920578
0.00499734627432
0.004997349537
0.0049973609946
0.00499738382353
0.00499742951856
0.00499750052648
0.004997568412
0.00499763497588
0.00499775691169
0.00499792041666
0.00499788694502
0.00499788214253
0.00499790241501
0.00499741933017
0.00499752055818
0.00499745905544
0.00499743811093
0.00499741972028
0.00499740281644
0.00499739587871
0.00499740021363
0.00499741713334
0.00499744847083
0.00499749937598
0.00499757352818
0.00499764473388
0.00499771042718
0.00499779408715
0.00499795534407
0.00499809419605
0.00499803097358
0.00499802023998
0.00499802916077
0.00499767964976
0.00499773634264
0.00499765700608
0.00499763260278
0.00499761684304
0.00499760505518
0.00499760196955
0.00499761141892
0.00499763495292
0.0049976711161
0.00499772363554
0.00499777863447
0.00499782821793
0.00499788904571
0.0049979777539
0.00499817966487
0.00499821630387
0.0049981546101
0.0049981381302
0.00499813644849
0.00499796074033
0.00499796587994
0.0049979045027
0.00499788280395
0.00499787264619
0.00499786806859
0.00499786522201
0.00499786781718
0.00499787884763
0.00499789954387
0.00499793101471
0.00499796553277
0.00499800611628
0.00499806355465
0.0049981709987
0.00499835547128
0.00499828731312
0.00499825079365
0.00499823751147
0.00499823575416
0.00499801905435
0.00499802004487
0.00499801749026
0.00499801230966
0.00499801477839
0.00499802303849
0.00499802843179
0.00499803190188
0.00499803905373
0.00499805366143
0.00499807491312
0.00499810118642
0.00499813661923
0.00499819529448
0.0049983740273
0.00499842015871
0.00499835621824
0.00499833241755
0.0049983190799
0.00499832218469
0.00499804701306
0.00499804714071
0.00499804716918
0.00499804531965
0.00499804742234
0.0049980569078
0.00499806995345
0.00499808307388
0.0049980978813
0.00499811833723
0.00499814530278
0.00499818041804
0.00499822806329
0.00499832142813
0.00499852949275
0.00499846126979
0.0049984233938
0.00499840631252
0.00499840453102
0.00499842453584
0.00499807152489
0.00499807149741
0.00499807075152
0.00499806780803
0.00499806842803
0.00499807486137
0.00499808547194
0.00499809784004
0.00499811326181
0.00499813640857
0.00499817340139
0.0049982255165
0.00499829533722
0.00499851636123
0.00499859446367
0.00499851873304
0.00499849699303
0.00499849249168
0.00499851625192
0.00499856551124
0.00499811494909
0.00499811327389
0.00499809732416
0.00499809587895
0.00499809990393
0.0049981086032
0.00499811968667
0.00499813213686
0.00499814823927
0.00499817353027
0.00499821842394
0.00499828761361
0.00499842958342
0.00499872314004
0.00499864441073
0.00499859372429
0.00499858533172
0.00499860709867
0.00499866386697
0.00499873815716
0.00499823719436
0.00499809140756
0.00499807253563
0.00499809252687
0.00499811243598
0.0049981315316
0.00499814956893
0.00499816734536
0.0049981882719
0.00499821960992
0.004998290027
0.00499841299613
0.00499873919355
0.00499880367809
0.00499870668313
0.00499868998562
0.00499870614312
0.00499876323427
0.00499884368339
0.00499892593502
0.00499837595177
0.00499798084489
0.00499795351544
0.00499802294674
0.00499807673661
0.00499812071463
0.00499815744531
0.00499819172326
0.00499823180267
0.00499830866434
0.00499844066607
0.00499867743094
0.00499895160334
0.0049988641723
0.00499882776571
0.00499883231111
0.00499888308732
0.00499896256035
0.00499904841516
0.00499913390333
0.00499864396098
0.0049979624257
0.00499794892491
0.00499807703897
0.00499816210983
0.00499822534406
0.00499828085742
0.00499834509714
0.0049984371441
0.00499855438107
0.00499869355783
0.00499905357635
0.0049991390117
0.00499902869934
0.00499900884762
0.00499904572758
0.00499911816436
0.00499919803962
0.00499927867861
0.00499936016839
0.00499931356566
0.00499851510587
0.00499842792525
0.00499856092901
0.00499863351923
0.00499868341267
0.00499874350157
0.00499880809233
0.00499886366981
0.00499893186258
0.00499916790281
0.00499946483845
0.00499934545362
0.00499927561367
0.00499928902164
0.00499934620783
0.00499941082255
0.00499947405587
0.00499953803985
0.00499960022153
0.00500005172888
0.00499930919224
0.00499918106272
0.00499928530262
0.0049993221941
0.00499934092568
0.00499936379126
0.00499937587615
0.00499938820225
0.00499952179536
0.00499980407816
0.00499976701569
0.00499966152869
0.00499965985885
0.004999705505
0.00499975293215
0.00499979007257
0.00499982126161
0.00499984996607
0.00499987452176
0.00499407554112
0.00499404619849
0.00499401755285
0.00499402318883
0.0049940457579
0.00499395289236
0.00499386440696
0.00499382667134
0.00499380973242
0.00499379853872
0.00499379037029
0.00499378658094
0.00499378653987
0.00499379402463
0.00499381013921
0.00499378857031
0.00499433386989
0.00499430808883
0.00499428287106
0.00499425964119
0.00499423852006
0.0049942129272
0.00499418496714
0.00499419068117
0.00499421282104
0.00499412147923
0.00499403279728
0.00499399869956
0.00499398896549
0.00499398460678
0.00499398259073
0.00499398304636
0.00499398487259
0.00499399319196
0.0049940092046
0.00499399045482
0.00499447807192
0.00499445688855
0.00499444064125
0.00499442895801
0.0049944147175
0.00499439283686
0.00499436391042
0.00499436630139
0.0049943909002
0.00499430107359
0.00499421026812
0.00499418225436
0.00499418523193
0.00499419360603
0.00499420092321
0.00499420598812
0.00499421006831
0.00499422385534
0.00499425614746
0.00499423543961
0.00499464600588
0.00499464170256
0.00499464470291
0.00499464581692
0.00499463604065
0.00499461134788
0.0049945754733
0.00499456699032
0.00499459330456
0.00499450933018
0.00499442341006
0.00499441241376
0.00499443916717
0.00499446958824
0.00499449105134
0.00499450157994
0.00499451069973
0.00499456374821
0.0049945931651
0.00499456181388
0.00499487951263
0.00499491264499
0.00499494549086
0.00499496306536
0.00499495656755
0.00499492390283
0.00499487611068
0.00499484448405
0.00499485790041
0.00499477640763
0.00499472225707
0.00499476270514
0.00499483538727
0.00499490045094
0.00499493975871
0.00499495304482
0.00499507813066
0.00499515902298
0.00499513404529
0.00499511527879
0.00499523585995
0.00499533070123
0.00499541555793
0.00499547636122
0.00499550499316
0.00499550581853
0.00499550698843
0.00499553249929
0.00499561052142
0.00499552754296
0.00499534988466
0.00499545969847
0.00499561620473
0.00499575025326
0.00499592162469
0.00499639758615
0.00499653322874
0.00499640910777
0.00499632588149
0.00499627777071
0.00499572399788
0.00499589749079
0.00499607845611
0.00499626133966
0.00499649553238
0.00499680144206
0.00499699486077
0.00499704194762
0.00499709982556
0.00499725303374
0.00499728664221
0.00499695900884
0.00499699449506
0.00499733074126
0.00499758478786
0.00499736424337
0.0049973453648
0.00499734510893
0.00499732893767
0.0049972768887
0.00499621820619
0.00499645814766
0.00499673922771
0.00499718414429
0.00499746333811
0.00499739152809
0.00499736870648
0.00499736863284
0.00499736864247
0.00499736900953
0.00499736960276
0.00499754020152
0.00499755545364
0.00499752183584
0.00499735840561
0.00499735799688
0.00499735775933
0.00499735772214
0.00499735780535
0.00499736039338
0.0049966255971
0.00499692715435
0.00499740374119
0.00499740509245
0.00499737308705
0.00499737307221
0.00499737306914
0.0049973730209
0.00499737299379
0.00499737305978
0.00499737332886
0.00499737373016
0.00499741347937
0.00499736353043
0.00499736356664
0.00499736356549
0.00499736351921
0.00499736341985
0.00499736327023
0.00499737587976
0.00499700427538
0.00499742599831
0.00499737634315
0.0049973763936
0.0049973761779
0.00499737595172
0.00499737572861
0.00499737547074
0.00499737513114
0.00499737472215
0.00499737424431
0.00499737364898
0.00499737266694
0.00499737185793
0.00499737133123
0.00499737100816
0.00499737081785
0.00499737074656
0.00499737165312
0.00499738001015
0.0049974002128
0.00499737981797
0.00499737977124
0.00499737951334
0.00499737935413
0.00499737919786
0.00499737899247
0.00499737873279
0.00499737841795
0.00499737806504
0.00499737768441
0.00499737730919
0.00499737698491
0.00499737670013
0.00499737646037
0.00499737626804
0.00499737614013
0.00499737610394
0.00499737774475
0.00499738535359
0.00499738313953
0.0049973832208
0.00499738299997
0.00499738291226
0.00499738281679
0.0049973826819
0.00499738251164
0.00499738229872
0.00499738205857
0.00499738179301
0.00499738151976
0.0049973812391
0.00499738097297
0.00499738075213
0.00499738057198
0.00499738043891
0.00499738035917
0.00499738033824
0.00499738163026
0.00499738906916
0.00499738635563
0.00499738629265
0.00499738630309
0.00499738629049
0.00499738622594
0.00499738612378
0.00499738597721
0.00499738580397
0.00499738559742
0.00499738537534
0.00499738514141
0.00499738491689
0.00499738471859
0.00499738456523
0.00499738446523
0.0049973844275
0.00499738445239
0.00499738452775
0.00499738538307
0.00499739215582
0.00499738983343
0.00499738967823
0.00499738965054
0.00499738961514
0.00499738955895
0.00499738946209
0.00499738933625
0.00499738917122
0.00499738899004
0.00499738879572
0.00499738860931
0.00499738844409
0.00499738831527
0.00499738822974
0.0049973881905
0.00499738819865
0.00499738824936
0.00499738802218
0.00499738858736
0.00499739418198
0.00499739252314
0.00499739266479
0.00499739274211
0.00499739277245
0.00499739274993
0.0049973926882
0.00499739258782
0.00499739246724
0.00499739233692
0.00499739221677
0.00499739211577
0.00499739204217
0.00499739199988
0.00499739198886
0.00499739201069
0.0049973920944
0.00499739189671
0.00499739149257
0.00499739161565
0.00499739578488
0.00499739562042
0.00499739570166
0.00499739579692
0.00499739586818
0.00499739590681
0.00499739590745
0.00499739588752
0.00499739586196
0.00499739584032
0.00499739583265
0.00499739584391
0.00499739587934
0.00499739594181
0.00499739604011
0.00499739610035
0.00499739604359
0.00499739536099
0.00499739436567
0.00499739394797
0.00499739656215
0.00499739856989
0.00499739878326
0.00499739896521
0.00499739912504
0.00499739926315
0.00499739937894
0.00499739948184
0.0049973995779
0.00499739967133
0.00499739976867
0.00499739987234
0.00499739998947
0.00499740015318
0.00499739999129
0.00499739965044
0.00499739878915
0.00499739743305
0.00499739582854
0.0049973948588
0.00499739590478
0.00499740196998
0.00499740228552
0.0049974025734
0.00499740284428
0.00499740310209
0.00499740334356
0.00499740356877
0.00499740377966
0.00499740397692
0.00499740416583
0.00499740438201
0.00499740451785
0.0049974043518
0.00499740327084
0.00499740172404
0.00499739976222
0.00499739740307
0.00499739512806
0.00499739360438
0.00499739334387
0.00499740606018
0.00499740644156
0.00499740681483
0.00499740718478
0.00499740755031
0.00499740790557
0.00499740824161
0.00499740855847
0.00499740886929
0.00499740919058
0.00499740892329
0.00499740783128
0.00499740564347
0.00499740286259
0.0049973997627
0.00499739668907
0.00499739373587
0.00499739113391
0.00499738923647
0.00499738823531
0.0049974108364
0.00499741121911
0.00499741168384
0.00499741216791
0.00499741263585
0.00499741311259
0.00499741357284
0.00499741400974
0.00499741392827
0.00499741291456
0.00499741024732
0.0049974067053
0.0049974025378
0.00499739828693
0.00499739462481
0.00499739163464
0.00499738869513
0.00499738589644
0.00499738406895
0.00499738335377
0.00499740765183
0.0049974146975
0.00499741748531
0.00499741807018
0.00499741845723
0.00499741892804
0.00499741914482
0.00499741836444
0.00499741564504
0.00499741185187
0.00499740748199
0.00499740319388
0.00499739969284
0.00499739747856
0.00499739605238
0.0049973950418
0.00499739340387
0.00499739125256
0.00499739044954
0.00499739139285
0.00499738496185
0.00499740138785
0.00499741452498
0.00499742226613
0.00499742687791
0.00499742981232
0.00499743018815
0.00499742790575
0.00499742397778
0.00499742015371
0.00499741758508
0.00499741729794
0.00499741878728
0.00499742244699
0.00499742785278
0.00499743107221
0.00499743044527
0.00499742877123
0.00499742956794
0.00499743220007
0.00499740692399
0.00499740864463
0.00499741400416
0.00499742182745
0.00499743372009
0.00499744699063
0.00499745699167
0.00499746117737
0.00499746199713
0.0049974635903
0.00499746702964
0.00499747360387
0.00499748407877
0.00499749696342
0.0049975061079
0.00499750823102
0.00499750612455
0.00499750443275
0.00499750635524
0.00499750977294
0.00499753716369
0.00499753800471
0.00499753299817
0.00499752373883
0.00499751708225
0.00499752305464
0.00499753819383
0.00499754996323
0.00499755836465
0.00499756764295
0.00499757991534
0.00499759534942
0.00499761108692
0.00499762307504
0.00499762769966
0.00499762644544
0.00499762241809
0.00499762019181
0.00499762231431
0.00499762604731
0.00499773362901
0.00499774350858
0.0049977456145
0.00499773832784
0.00499771873902
0.00499770489685
0.00499771361885
0.00499773126628
0.00499774703666
0.00499776222402
0.00499777205582
0.00499778147014
0.00499778799804
0.0049977907256
0.00499778818872
0.00499778168267
0.00499777428826
0.00499777039609
0.00499777148173
0.00499777456617
0.00499792161186
0.00499793434181
0.00499794159386
0.00499794557009
0.00499793580515
0.0049979118739
0.00499790612565
0.00499792577057
0.00499794243028
0.00499794888466
0.00499795481918
0.0049979561354
0.00499795822432
0.00499795681197
0.00499794964278
0.00499793899653
0.00499792982075
0.00499792568309
0.00499792657384
0.00499792903493
0.00499804384807
0.00499805888177
0.00499807093033
0.00499808357696
0.00499809540401
0.00499809032871
0.00499805635348
0.0049980434116
0.00499806083153
0.0049980815291
0.00499809149232
0.00499809847781
0.00499810440195
0.00499810537003
0.00499809863476
0.00499808667154
0.00499807833628
0.00499807617837
0.00499807802966
0.00499808018929
0.00499814435104
0.00499815676029
0.00499816979593
0.00499818809474
0.00499822235434
0.00499826886498
0.00499828613117
0.00499824556856
0.00499822461228
0.00499823109626
0.0049982380011
0.00499825193511
0.00499826527334
0.00499827018344
0.00499825746278
0.00499824486005
0.00499823964575
0.00499823895038
0.00499824061624
0.00499824183506
0.00499824483024
0.00499826158076
0.00499828444033
0.00499832006155
0.00499837464394
0.0049984185108
0.00499844978464
0.00499846257771
0.00499843106237
0.00499842116987
0.00499844110175
0.00499846515087
0.00499847131151
0.00499845284503
0.00499843082182
0.00499841814315
0.00499841280465
0.0049984099011
0.00499840975144
0.00499840929382
0.00499834009202
0.00499837057448
0.00499841245494
0.0049984717272
0.00499852675035
0.00499854397213
0.00499856662256
0.00499859271139
0.00499859539028
0.00499859572905
0.00499862348677
0.00499863351044
0.00499861293825
0.00499858803281
0.00499856987783
0.00499856205527
0.0049985580002
0.00499855467505
0.00499855378048
0.00499855289304
0.004998463782
0.00499851480478
0.00499857580423
0.00499864663095
0.00499867303831
0.00499868061845
0.00499869465927
0.00499870903033
0.00499871573073
0.004998713983
0.00499872405174
0.0049987153343
0.00499869577379
0.00499868028999
0.00499867291688
0.00499867341275
0.00499867384647
0.00499867281808
0.00499867249497
0.00499867200346
0.00499862883479
0.00499869287442
0.00499876560251
0.00499882201913
0.00499882797353
0.00499883248608
0.00499884237575
0.00499884809152
0.00499884560449
0.00499883719745
0.00499883112549
0.00499881429404
0.00499879773965
0.00499878761349
0.00499878756338
0.00499879283075
0.0049987958571
0.00499879631824
0.00499879635329
0.00499879588388
0.00499881119248
0.0049988869187
0.00499896534968
0.00499899393607
0.00499899028817
0.00499899810441
0.0049990078278
0.00499901392518
0.00499901024654
0.00499899655562
0.00499897900791
0.00499895638837
0.00499893969839
0.00499893361908
0.00499893794883
0.00499894333248
0.00499894623613
0.0049989466559
0.0049989465527
0.00499894514612
0.00499900684997
0.00499909256604
0.00499914910924
0.00499915611923
0.00499916184959
0.00499917445577
0.00499918683054
0.0049991964297
0.00499919589962
0.00499918088093
0.00499915457607
0.00499912902975
0.00499911473178
0.00499911341797
0.00499911823889
0.00499912116387
0.00499912252059
0.00499912238322
0.00499912285808
0.00499912072116
0.00499922149988
0.00499929295346
0.00499932420202
0.00499933340454
0.00499934607071
0.00499935975593
0.00499937327412
0.00499938655826
0.00499938912788
0.00499937355388
0.00499934141611
0.00499931782712
0.00499930843775
0.0049993096172
0.00499931144318
0.0049993116031
0.00499931109892
0.00499931006783
0.00499931115498
0.00499930957505
0.00499943405647
0.00499948500676
0.00499951185202
0.00499952726264
0.00499954163422
0.00499955676624
0.00499956893973
0.00499957963077
0.00499958082613
0.00499956185766
0.00499952812415
0.00499951068377
0.00499950667451
0.00499950696705
0.00499950560218
0.00499950387012
0.00499950204969
0.00499950026483
0.0049995011737
0.00499949982737
0.00499965074406
0.00499968661045
0.00499970838313
0.00499972286114
0.00499973890926
0.004999749506
0.00499976102315
0.00499976852428
0.00499976567406
0.00499974234441
0.0049997123034
0.00499970211576
0.00499970077616
0.00499969866622
0.00499969546189
0.00499969289396
0.00499969067673
0.00499968883895
0.00499968939672
0.00499968775397
0.00499989312323
0.00499990802827
0.00499991780269
0.00499992434991
0.00499993098476
0.00499993689715
0.00499994299985
0.00499995065816
0.00499995013183
0.00499993269741
0.00499991161978
0.00499990176551
0.00499989556675
0.00499988977774
0.00499988529454
0.00499988244046
0.00499988048092
0.00499987931854
0.00499987977016
0.00499987760081
)
;

boundaryField
{
    emptyPatch
    {
        type            empty;
    }
    minY
    {
        type            calculated;
        value           nonuniform List<scalar> 0();
    }
    maxY
    {
        type            calculated;
        value           uniform 0.005;
    }
    water_to_cooler
    {
        type            calculated;
        value           nonuniform List<scalar> 
38
(
0.00499378857031
0.00499399045482
0.00499423543961
0.00499456181388
0.00499511527879
0.00499627777071
0.0049972768887
0.00499736039338
0.00499737587976
0.00499738001015
0.00499738535359
0.00499738906916
0.00499739215582
0.00499739418198
0.00499739578488
0.00499739656215
0.00499739590478
0.00499739334387
0.00499738823531
0.00499738335377
0.00499739139285
0.00499743220007
0.00499750977294
0.00499762604731
0.00499777456617
0.00499792903493
0.00499808018929
0.00499824183506
0.00499840929383
0.00499855289307
0.00499867200351
0.00499879588393
0.00499894514612
0.0049991207209
0.004999309574
0.00499949982501
0.0049996877501
0.00499987759665
)
;
    }
    water_to_heater
    {
        type            calculated;
        value           nonuniform List<scalar> 
59
(
0.00499439826246
0.00499442335133
0.00499445311496
0.00499451190554
0.00499455004341
0.00499458066782
0.00499461393611
0.00499464649738
0.00499474834858
0.0049947878384
0.0049950914984
0.00499595827231
0.00499692595336
0.00499697019269
0.00499710110723
0.00499712816089
0.00499712821434
0.00499714836111
0.00499714832207
0.00499716445683
0.00499716642826
0.00499718682671
0.004997189754
0.00499720981081
0.00499721347635
0.0049972338756
0.00499723823524
0.00499725823549
0.00499726268074
0.00499728298757
0.00499728664146
0.00499730704496
0.00499730928389
0.00499733095094
0.00499733548286
0.00499736496944
0.00499736820331
0.00499740105548
0.00499734378315
0.00499737932377
0.00499740438363
0.00499744310151
0.00499767433492
0.00499795533321
0.00499799524415
0.00499802033464
0.0049980319688
0.00499805329652
0.00499806150962
0.00499808282612
0.00499811007884
0.00499823246006
0.004998346783
0.00499837944904
0.00499862099254
0.00499865767398
0.00499929901637
0.00499933879136
0.00500004707558
)
;
    }
    procBoundary0to1
    {
        type            processor;
        value           nonuniform List<scalar> 
41
(
0.00499437219498
0.00499437908672
0.00499437041851
0.00499436882163
0.00499436906518
0.0049943693975
0.0049943697877
0.0049943702298
0.00499437073588
0.00499437131043
0.00499437256113
0.00499437571629
0.00499437645386
0.00499437035656
0.00499435621892
0.00499433504379
0.00499431043261
0.00499428744274
0.00499426626318
0.00499423080808
0.00499390238962
0.00499387308382
0.00499384430114
0.0049938502191
0.0049938767991
0.00499377708515
0.00499368705791
0.00499364676314
0.00499362543837
0.00499361065853
0.00499359941223
0.00499359255052
0.00499359034455
0.00499359580268
0.00499360962797
0.00499359546089
0.00499418840939
0.00499415989542
0.00499413284185
0.00499410323788
0.00499410323788
)
;
    }
}


// ************************************************************************* //
