/*--------------------------------*- C++ -*----------------------------------*\
| =========                 |                                                 |
| \\      /  F ield         | OpenFOAM: The Open Source CFD Toolbox           |
|  \\    /   O peration     | Version:  2312                                  |
|   \\  /    A nd           | Website:  www.openfoam.com                      |
|    \\/     M anipulation  |                                                 |
\*---------------------------------------------------------------------------*/
FoamFile
{
    version     2.0;
    format      ascii;
    arch        "LSB;label=32;scalar=64";
    class       volScalarField;
    location    "0.39/water";
    object      rhom;
}
// * * * * * * * * * * * * * * * * * * * * * * * * * * * * * * * * * * * * * //

dimensions      [1 -3 0 0 0 0 0];

internalField   nonuniform List<scalar> 
1496
(
615.529355958
695.692842728
687.35453667
670.426737975
645.530763036
630.574234221
625.573115909
624.193866693
624.486511311
631.626558118
654.521037047
690.815819264
732.058862017
773.29993011
811.05434381
843.244466537
860.175980636
852.170599358
816.474922902
774.540516833
629.953020825
693.172748071
704.270311256
708.653195871
686.363785805
659.736611559
642.719292499
635.899771218
635.684605595
642.730900074
662.088772824
693.377679913
731.329756687
769.240390364
804.791791223
830.869218854
834.216557373
825.489828136
807.212810609
784.125356253
638.770661155
690.887806264
719.35278218
746.881954568
740.13525057
714.510613504
687.259241661
670.094674949
664.633935996
667.921526985
680.341404591
703.436501669
734.557293196
768.416588591
797.065210702
815.916897638
822.1820047
821.392624935
814.144538863
813.480541398
641.991168483
696.776132758
735.997171185
770.857305024
778.553527119
771.248957762
749.228246023
725.821442162
710.751648954
705.273364892
709.161063424
722.422903649
744.664921845
771.264854169
795.971472271
813.580594664
824.032263294
830.547387036
839.452860966
857.366021747
649.72238029
719.651229268
757.87834635
781.060926918
781.897991536
781.673768777
782.076176237
777.980351928
762.637686542
748.181476471
743.36856813
748.325111117
762.059812544
780.948050433
800.847079768
819.907614348
838.843956679
858.686649506
880.498117433
902.482855238
679.223796793
759.175379006
777.042469807
781.845684961
781.672479233
783.092482703
781.674041598
783.017476986
781.674257631
781.524329302
774.316950388
772.185705018
780.02102134
795.415227768
814.247061929
837.55232756
864.512772203
890.452556903
911.902540529
927.44935943
726.02093546
780.982853585
781.043755695
781.668996662
782.938116283
781.673684667
784.375610352
781.674129032
784.065438564
781.674272657
782.499588636
781.388409887
785.969256108
801.646984499
821.999828225
847.189450536
874.935886584
899.942294874
920.528296533
935.224303758
743.893283896
766.284888076
767.615896451
778.075782714
781.672601173
784.150749362
781.673931275
784.961647252
781.674131181
784.201797792
781.674258602
773.949711836
781.901126443
798.449629278
819.444908033
845.636750682
874.612869349
901.814514385
924.8942941
941.574432786
709.671603041
700.630604041
712.52375436
734.601316933
760.973145251
775.249142321
783.257376186
781.673917388
778.800860729
765.734859236
750.780214789
750.67763878
764.472592305
784.379361595
809.871138464
842.064353979
875.820472353
907.491917208
934.369837287
945.132973836
631.068786155
626.341284036
640.298174121
656.372493666
677.771351244
697.374794201
708.069822688
712.722594135
710.548618891
707.643541735
709.464596957
723.495753943
744.493274756
773.414989891
807.785616167
845.582550188
885.998221993
924.151126351
944.908008606
945.201160916
593.964954759
601.242961758
605.390646278
610.697639834
615.640334685
621.611143405
628.663857293
638.079113921
651.985752915
669.936349203
689.683210713
712.524374915
741.064522895
775.163515176
815.303151395
862.637327406
911.398923807
942.959062305
945.321590693
910.87905231
592.358449287
597.26422356
596.645791407
599.613165555
600.087078952
601.843275474
607.959856246
620.533654942
639.785535201
662.761010868
687.175140385
713.915473792
747.118867693
788.741709069
838.864250023
894.486666811
938.633035368
945.303650379
945.132951823
728.210660369
593.896769774
596.130327379
596.116935834
597.472194706
597.77644531
599.811469081
606.864898778
620.678808428
641.174434801
665.595153769
692.913234264
725.813698468
766.544148658
815.907075254
873.011124201
928.435374508
945.211575775
945.132953692
889.877568155
579.072230689
592.351515189
595.998987549
596.096921502
597.198810463
597.673082283
600.204025596
608.545317117
625.267137945
649.078680972
677.370636934
709.516704641
747.986139721
794.002855514
848.869538751
908.885783382
944.913496922
945.132952002
945.423367244
720.600455243
554.561612015
593.950974358
596.67733199
596.120682496
597.924706107
598.6795914
602.483398556
613.79572742
635.036613476
662.789947242
694.922837733
730.92338389
773.145056077
823.566584677
882.558570016
938.061974412
945.132950654
945.511332032
895.601441499
620.283819186
561.104910781
592.561792335
598.740053108
597.238267597
600.246065426
601.428504929
606.629716067
621.103639752
646.115773742
677.537584251
712.975090973
752.479249669
798.450712259
853.734939425
914.816087986
945.132945848
945.546618764
945.132947945
792.166180709
616.279604484
577.766474302
594.008527523
601.847802988
600.609583277
603.706876093
605.168592898
611.2012457
627.952834232
655.490988561
690.937608512
730.144263094
773.448994411
823.609746129
882.459871544
939.117508971
945.344330873
945.132949814
916.18240352
728.282598678
638.919079153
602.319348883
593.162575201
605.986067029
605.278501775
607.605512276
609.112684636
615.456106518
633.295215591
662.732664971
702.209160649
745.572689734
792.747171171
846.943170949
906.667925472
945.162769662
945.13294755
945.581865872
854.557055196
728.270361717
687.633057507
635.026039955
594.009093562
612.160316206
610.963822045
612.000702172
613.15235009
619.426409243
637.369319078
668.239999408
710.657527167
757.668317697
808.394959229
865.391556582
924.122504513
945.132938283
945.637676504
932.175029886
803.754621592
747.609183704
743.063549891
679.353750875
593.849402856
622.977104124
618.622621548
617.391856964
617.766569046
623.646769287
641.17285598
672.585040111
716.062484919
765.321992746
818.89845174
877.242365892
933.239616041
945.330241166
945.132945252
909.355311086
785.352137764
773.702663628
786.420386337
736.537493981
598.732112478
641.393580716
629.275481573
624.582532105
623.837400194
629.236096084
646.15348618
677.28159885
720.110783867
769.985110152
825.302963113
884.164304987
936.534490705
945.363530392
945.458970543
909.402454661
786.033491393
779.607678898
807.474709119
797.307346474
614.734474621
666.053793235
643.691332009
635.030414226
632.958234341
638.079325742
654.715050759
685.009998863
726.083745062
775.439005846
831.438839985
890.165311796
938.509388441
945.448598352
945.475734709
919.422739663
791.871900978
774.542664194
810.252905544
825.712028625
634.359135505
691.592970915
663.808777191
651.154308159
647.927047968
653.419457845
670.679405905
699.768235623
738.624531128
786.752775311
842.349133129
899.81264537
941.51467118
945.531542948
945.592000469
932.586677663
808.024029611
757.38320993
798.535020758
826.885355179
649.273551926
711.134746438
687.59547793
674.469814972
671.35129709
678.844927695
697.758659589
725.992859175
763.162105669
809.829275813
863.465711753
917.170767644
944.738467748
945.613755185
945.68139103
939.289851654
818.402124039
727.435807956
764.97555158
806.837366504
661.604257595
714.240770255
708.639735858
698.911523406
701.45987821
715.736341611
737.888413843
766.565943217
803.407579127
847.960083362
897.054392305
937.991692736
945.636487554
945.692396066
945.802637314
939.024676428
811.09182819
707.340418684
728.031918268
765.412236598
676.639520296
714.025051867
714.182791087
709.276134446
726.296398228
754.514754064
783.951411553
816.073339884
853.864259418
894.616217312
932.060901152
945.377106236
945.782673229
945.844779737
946.020748454
931.327718692
775.022376291
706.932611462
715.53281359
741.447946408
683.26612869
713.297597784
706.812727776
706.229730145
730.937361044
770.448514967
809.506364237
847.449182113
886.73741025
924.34501816
944.604128775
945.893968248
945.972483177
946.229093407
946.124920383
896.711462324
722.538342433
706.98947887
716.531544349
741.396740034
663.032621725
676.971519321
682.896676611
692.867858205
723.279767418
765.487702647
808.231979163
848.707147227
889.280150541
927.390271497
945.28595817
946.098520699
946.358074434
946.632045965
943.731833883
811.51706351
706.989425121
706.932536952
724.672131158
751.008600765
620.240173194
633.475148527
654.694933114
669.848851431
696.634209476
737.541704237
785.917133536
833.597621655
878.992085819
921.229985227
945.07783392
946.459616623
946.782307247
946.663269324
913.579082784
726.38800206
706.932490154
714.411666894
745.036850208
774.671566857
598.695669974
621.350726281
643.371944552
656.06159265
672.784807313
702.816275512
747.359882643
798.926648327
851.273886372
902.559853548
942.456987941
946.846812895
946.756227288
946.038868327
825.725124868
710.202754365
709.149866477
735.360556658
773.993593189
804.168041085
598.529240523
623.501295925
645.594678111
657.733906844
672.138289997
698.000962143
737.205526386
785.697993458
838.494519732
893.094929522
940.743777276
946.838938395
946.846823861
919.640922241
739.014569647
710.362759713
725.262325815
765.09563399
802.40997371
825.705412459
604.910155137
636.808036935
661.834769968
673.541935375
685.62247364
708.18587905
744.220258364
790.259883263
841.795589571
895.835224604
942.454568565
946.873725436
945.696262003
829.980129532
724.785074389
721.320710608
754.975306377
795.383544964
822.320205458
832.960503449
625.477381525
662.31690829
697.270689135
712.525108674
725.832060488
744.707453815
774.123381245
813.893364566
861.579416916
913.01435233
946.873708012
946.864154253
911.834118151
749.401472322
726.010298152
748.755470508
788.530184138
817.627186499
831.752368931
833.088079491
654.708420917
686.638996127
744.539227758
771.46139637
790.073083711
808.271019978
832.77874396
866.188957534
906.675720012
941.943560366
946.871711025
944.255433702
819.024460311
746.671071919
745.748379271
783.097547735
813.901669106
829.427859193
835.123106396
833.089623807
678.138600946
711.118469716
795.808006076
837.741072015
862.883653337
882.759700834
906.286351874
928.917518203
945.429731764
947.19976189
946.88932932
913.145953379
772.0228523
751.453010101
779.684931377
812.306003501
829.247996061
836.16431589
837.089336039
830.383207531
695.327190043
737.963468462
838.115521962
886.874267474
914.685150441
936.556761245
946.132003349
946.961997443
947.199727123
947.487316573
945.3041969
844.363016549
771.450523682
783.845102511
815.648304459
832.726824632
840.204046964
842.991624465
840.420860218
828.982127337
707.738767771
755.579292729
854.369399511
893.754634552
919.942687147
941.83437305
946.961922049
947.199671517
947.487272162
947.77681829
879.142519832
778.483494858
781.553017542
815.138218016
838.553995692
848.845464926
853.174115396
854.397627705
849.041789941
833.67796685
836.012541088
876.186106313
873.052639319
844.329433576
905.950604952
986.972353682
999.689125174
999.997430501
999.997452927
999.997430501
999.9974434
999.997426627
999.997442123
999.978345648
940.826544674
805.42273297
754.730236934
765.115201993
794.671674624
837.312159454
878.571283856
906.120506396
894.319744505
856.362388364
910.207464632
986.59888815
999.659093493
999.997451598
999.997436945
999.997448496
999.997430501
999.99744937
999.997424026
999.748256522
938.770761321
804.984968273
786.600714619
809.322680118
846.063131325
882.750429221
909.951964481
921.355862923
907.32265135
867.574576269
913.630758251
985.822767218
999.599134621
999.997436945
999.997455937
999.997436945
999.9974561
999.997430501
999.978751887
997.019365597
932.339125611
805.645490877
831.929508415
862.127802846
892.488277267
914.290901362
926.540072497
928.064937143
917.775760509
884.344501295
917.326356416
983.718874809
999.428802161
999.997369245
999.997436944
999.997462063
999.9974305
999.996093341
999.452540106
973.470037419
912.050105745
820.582114843
882.200656962
906.090332412
922.18251833
930.677680461
934.687280081
934.583016314
929.837943244
904.444072194
915.44482662
977.84072729
999.045800977
999.99609646
999.997460803
999.997430499
999.997463459
999.884393337
986.228305768
904.386157598
897.44147223
880.326211842
920.098228564
931.195053306
937.409375374
940.729957755
940.877428638
940.827963967
932.057703082
898.432227861
873.991137139
947.424474241
996.524585317
999.959065305
999.993455567
999.989610856
999.317113183
958.529782202
824.194332281
806.459503416
874.152003457
919.601593792
937.016482574
942.928170075
944.76098511
944.783441812
941.047602876
912.747977989
847.101721141
782.362268371
730.094099665
766.780823979
902.779965141
993.118238368
999.228228323
983.331066413
811.947721707
674.213865291
621.550289045
645.589459701
724.475897903
921.961029396
944.174355884
944.862585705
944.863807225
919.942106147
807.228080889
685.250487834
619.793150032
593.683335679
580.105522989
585.442713957
643.165532986
862.799392268
945.873053902
750.978757809
575.044392372
548.658170087
544.949866244
555.236729884
601.758111997
929.854254246
944.554894103
944.091077407
871.182273483
683.946054895
575.448856119
545.611799027
539.097639274
538.529414448
538.221577686
538.839772434
546.071486838
645.019029092
715.804557455
571.081088621
538.816316061
538.297406426
538.232625517
547.722396414
615.306594496
929.855423422
944.793091628
840.334101056
620.130059558
543.741069202
538.297451467
537.751978347
538.29745204
537.767178883
538.297452216
537.85878693
538.297452564
549.796577742
561.639736982
540.098544238
538.297403097
538.216530566
539.593780679
563.199838519
658.121841419
929.856382862
858.351777962
608.362004959
538.674167034
538.297450573
537.763234644
538.297450966
537.750090564
538.29745099
537.775170871
538.29745111
537.946857267
538.297451289
538.611920555
538.297400765
538.245171074
540.736300201
553.288003274
596.04663903
676.663271009
929.857559228
640.344105112
538.689394406
538.297449386
537.83492081
538.297449701
537.796380243
538.297449602
537.828298565
538.297449547
537.959252785
538.297449659
538.173592638
538.297449945
539.610144251
543.894265749
554.799109012
581.423820167
631.14313405
696.724429222
915.384392857
545.826660961
538.297448087
537.930055919
538.297448459
537.915574448
538.297448283
537.9674046
538.297448117
538.044955588
538.29744812
538.201984972
539.766871198
543.426141621
550.282713647
561.831862265
581.693233973
615.820484099
661.236517752
728.986156244
897.812686646
538.414787343
538.081335945
538.297447217
538.065705054
538.297447074
538.057439669
538.297446838
538.173193625
538.297446746
540.164780921
543.581567434
549.754841614
558.972533792
572.181087687
590.493405504
615.384409104
647.662443533
689.938176712
769.017875101
887.646391398
539.714340237
538.297445965
538.202275075
538.297445963
538.211201333
538.297445701
538.841030931
541.02912573
544.371565571
550.194894884
558.042818277
568.777215858
583.033167829
601.583998003
624.507061901
649.689264303
676.745864682
719.894206264
806.455539958
891.935638089
546.285460553
540.575062502
539.546268141
539.406527306
539.964867754
542.059055755
545.983144151
551.471426511
558.722914615
567.857580143
579.337226789
593.866300163
612.453835941
635.25487986
660.100484883
683.769575181
708.63406846
752.983484332
840.665436167
909.732314448
558.873729329
549.741438016
547.195577503
546.871549137
548.230165973
553.053382202
559.873474317
568.177482459
578.274348049
590.487844186
605.513337976
624.1193856
646.680344968
672.053728263
697.58276432
721.499157803
747.029496163
790.659920621
872.616013394
934.839849148
576.626693996
565.155905664
561.452083303
560.882691083
562.515588271
568.800614671
577.674682509
588.462049376
601.611334971
617.722267445
637.406327115
660.724841963
686.710278755
714.07602257
741.16750575
766.341539438
792.274993841
831.877695232
902.53300858
960.037755804
600.936933586
586.196118224
580.84597973
579.77236042
581.030805791
587.869314185
598.820479817
612.721343943
630.011702323
651.301480226
676.475907737
704.658045413
734.686597783
765.019970373
793.658894905
818.73930063
842.110654609
873.919927052
930.614676227
980.334945191
636.582464024
616.30604008
607.659464672
605.266233906
605.688855087
612.590581683
626.105653845
644.160725118
666.321863309
692.691706527
723.090546456
756.50232251
790.728344029
823.214145333
851.421233203
873.557714283
891.748346991
914.976577511
957.190066011
993.141502355
689.632306851
662.91634378
648.948581175
643.397875235
642.522300587
648.907981857
665.268068804
687.326909688
713.180861731
743.220517113
777.340521632
813.870486076
848.925099213
878.431118454
900.687318747
917.021098295
931.502521269
950.370978329
980.161819363
998.7660629
759.0328827
730.404160734
712.187130873
702.536799883
699.349846898
703.710617576
721.364793321
745.696257058
772.91070116
803.366751811
836.508717631
869.540661757
897.959162621
917.134085807
924.905259123
930.270394669
943.77916205
967.287670221
992.15875694
999.898075603
820.877305226
806.175068162
792.626780989
784.145503539
779.599302547
780.410176218
795.876411437
819.041342724
843.415963721
868.74065677
893.461936056
914.217976508
927.526564809
930.301189656
927.118494451
929.392360876
943.222454479
969.32726704
994.242818517
999.98802682
835.691457719
840.397038619
844.879346711
855.94402799
867.272161793
871.687625096
881.420781029
898.107082326
913.324860512
926.624539848
936.620717146
941.156607447
939.840544029
931.256490599
927.159541122
928.273107087
942.187078221
969.172101073
994.345447222
999.991480405
826.376570845
836.578496491
844.809916012
862.235595672
896.637293689
930.100027923
944.133015353
948.143322545
950.063960158
950.972755819
951.202711573
950.588458164
944.723760346
932.316299517
927.200574041
928.854332887
943.125168756
968.482670682
993.555860793
999.991518782
793.567617237
812.037729774
823.199273613
840.818117891
882.765213981
928.790463496
951.532099552
951.738748299
951.532098085
951.771836892
951.48324781
951.441996804
949.122486192
937.805653922
931.505612061
935.284841695
949.029537314
969.418191913
991.603715378
999.991482818
764.869832947
782.500952185
791.734112336
801.080153108
837.141839635
884.282361312
929.730534377
951.591189844
951.997903129
951.532092633
951.958934188
951.483242129
951.520545176
945.643326305
944.54534937
951.743147378
962.619301595
972.713157337
988.24421246
999.991520873
763.267421157
779.069792696
787.425722775
792.321309344
797.584809341
794.784549572
835.405392955
916.195085682
951.240212744
951.942224238
951.483236745
951.861082964
945.749448181
947.459762766
960.367188074
972.476611705
976.309535672
975.304680538
982.450587895
999.901935777
772.367072009
787.577720656
795.955117905
796.254004298
773.388561782
729.793574277
745.32929405
816.346731493
905.44648362
943.664896053
941.778756397
926.839902702
923.454499456
946.182328092
974.321536575
984.762275376
983.82221613
975.929858355
973.703494764
999.203211813
796.110756355
809.366079481
814.491098944
800.77036082
745.964839285
712.847974346
719.991816128
747.719857299
823.804125375
893.638947846
896.455166025
881.678639257
903.051273064
949.739429673
982.939576975
989.498311356
987.500558519
975.577685529
965.397031149
997.589638817
821.479495487
827.440199272
823.492549066
791.3352405
717.493888002
711.900568179
714.904292253
731.005200204
778.238192083
838.238326859
848.03731311
854.480092347
903.174261717
958.925174022
988.723304638
992.034810868
989.596205794
974.153934881
960.943625734
995.90580493
831.90034591
831.570805641
817.912215577
758.832836377
711.748440378
712.654693711
712.722566722
727.710711959
764.988669851
812.267365947
821.87576445
850.724325543
915.396109693
972.454335862
993.376355347
994.090972634
991.123633986
972.286671532
959.271704672
994.439122491
833.035801467
828.254209806
794.937581867
721.48253194
712.654646055
711.766262767
712.654652908
725.516865527
758.452194734
799.519830351
810.496253739
857.812305924
937.573507605
986.485247713
996.120955893
995.780427619
992.120133812
968.766727853
955.683693929
991.902253166
830.990240016
813.881071256
762.869917705
712.654588624
711.782709916
712.524774006
712.199754016
722.801981576
752.273231884
787.677349613
807.649529334
878.637215257
962.583754735
994.724061734
997.069483686
996.523049468
992.611729121
964.037182512
946.640669775
985.97395686
822.203262059
793.478227312
744.915426542
712.183439543
712.524716647
711.71521123
712.461185303
719.808426584
745.995624691
773.987369189
811.414618514
909.143015077
982.164202834
997.144554381
997.311196878
996.737623889
992.934777215
962.959638487
941.648015471
977.258995866
811.461168034
782.70827703
742.150973224
712.524651074
712.035694775
712.246630627
711.970210651
717.594229626
739.918932941
762.134752161
831.106180313
943.608917975
993.024768462
997.384277748
997.387009876
996.853709411
993.156080761
963.724601986
941.764339289
970.396215678
809.460670364
783.647273533
747.375079192
716.182411787
712.246566187
711.854854911
712.246580375
717.398492734
736.899771039
764.24831098
868.050007543
971.458455577
996.866845712
997.388124158
997.387009387
996.905400132
993.190367044
964.420719913
944.092228406
964.343832671
815.957366164
795.826957368
768.130376596
733.787596905
712.236975259
712.160743986
712.153490075
718.83457489
740.031669948
791.802286435
927.702170436
991.983085537
997.38812371
997.388123694
997.389702283
997.296506596
993.218530959
962.26081235
949.538276242
959.890200137
)
;

boundaryField
{
    emptyPatch
    {
        type            empty;
    }
    minY
    {
        type            calculated;
        value           nonuniform List<scalar> 0();
    }
    maxY
    {
        type            calculated;
        value           nonuniform List<scalar> 
40
(
707.738762573
755.579163479
854.369293591
893.754564051
919.942636937
941.834337927
946.961891505
947.199642267
947.487244799
947.776795227
879.142491823
778.483447494
781.552951326
815.138160289
838.553951248
848.845429638
853.174086001
854.397602674
849.041767994
833.677946527
815.957346998
795.826939097
768.130358106
733.787577388
712.236956022
712.160725858
712.153474175
718.834561193
740.031657206
791.80227316
927.702164499
991.983084812
997.388123461
997.388123433
997.389702013
997.296506309
993.218530232
962.260808271
949.538270812
959.89019575
)
;
    }
    water_to_cooler
    {
        type            calculated;
        value           nonuniform List<scalar> 
38
(
805.422732978
804.984968275
805.645490878
820.582114843
880.326211843
919.601593799
921.961029401
929.854254249
929.855423424
929.856382863
929.857559229
915.384392857
897.812686646
887.646391398
891.935638088
909.732314448
934.839849149
960.037755807
980.334945198
993.141502365
998.766062905
999.898075605
999.98802682
999.991480406
999.991518783
999.99148282
999.991520876
999.901935812
999.203212142
997.589639881
995.905806634
994.439124068
991.902252931
985.973948671
977.258963589
970.39614248
964.343712667
959.89007102
)
;
    }
    water_to_heater
    {
        type            calculated;
        value           nonuniform List<scalar> 
59
(
615.382008423
615.382006654
629.798306873
638.610301092
641.826387155
641.826384274
649.553904883
649.553901441
679.057140892
679.057136037
725.866278122
743.742569676
709.508763835
709.508755298
630.909248254
630.909239716
593.838071374
593.838066035
592.243289988
593.784204347
592.238816698
592.238808027
593.838048193
593.838039125
592.448062742
592.448055241
593.894550702
593.048171356
593.894547144
593.89454482
593.732763263
593.732761423
598.60375866
598.603755011
614.586726181
634.197023095
649.102985324
649.102975116
661.429351232
661.429338169
676.464674962
676.464660945
683.091562474
662.855786348
620.075107506
620.075101546
598.552477305
598.552482834
598.380605128
598.38062279
604.7528878
625.325122232
654.559611219
654.559644065
677.993259992
677.993294118
695.184692684
695.184710421
707.596932014
)
;
    }
    procBoundary0to1
    {
        type            processor;
        value           nonuniform List<scalar> 
41
(
607.500451306
695.175256048
666.623436584
643.058585083
626.870180641
623.241755989
623.397968756
623.220130627
623.399537033
629.245433618
653.434352453
692.468946321
735.424975142
776.040579659
813.629498375
847.731378247
875.370785811
879.524412613
852.305605687
779.945757584
791.363859671
836.24101035
846.257833127
825.294433344
900.258210194
987.643862151
999.734985699
999.997447802
999.997430502
999.9974434
999.997423607
999.997440353
999.997424325
999.996663277
952.083456734
804.760607608
742.165807351
744.110315394
756.238380877
788.994177463
788.994177463
)
;
    }
}


// ************************************************************************* //
