/*--------------------------------*- C++ -*----------------------------------*\
| =========                 |                                                 |
| \\      /  F ield         | OpenFOAM: The Open Source CFD Toolbox           |
|  \\    /   O peration     | Version:  2312                                  |
|   \\  /    A nd           | Website:  www.openfoam.com                      |
|    \\/     M anipulation  |                                                 |
\*---------------------------------------------------------------------------*/
FoamFile
{
    version     2.0;
    format      ascii;
    arch        "LSB;label=32;scalar=64";
    class       volScalarField;
    location    "0.205/water";
    object      epsilon.gas;
}
// * * * * * * * * * * * * * * * * * * * * * * * * * * * * * * * * * * * * * //

dimensions      [0 2 -3 0 0 0 0];

internalField   nonuniform List<scalar> 
1496
(
2446.53955161
785.527466357
298.651406371
124.732434712
53.0091793556
22.5313951751
9.8383885755
4.63173617786
2.46365823727
1.61919789242
1.62213038521
2.44351117481
2.9245053914
5.9228243833
11.5524360005
16.9499014138
21.4057662092
24.2427026342
25.5315289818
23.1440113754
1722.11832022
650.099273014
265.242629729
110.145193312
44.0469819463
17.1217693211
7.00825182024
3.27232994921
1.83451894927
1.37360252006
1.6099196415
2.25494121723
3.61537577385
9.37489361168
16.0062291726
21.0052550136
24.1616451056
25.9380794258
25.8211739851
21.8828903165
1812.74998435
773.420635041
322.344709245
123.263928459
42.3048491856
14.3768032181
5.61154165744
2.6852046955
1.59272618746
1.28278994026
1.56454174591
2.40273878577
4.80464351792
11.7540775608
18.8135151061
23.0465973007
25.3981929816
25.9497680215
25.0149404275
19.8884586589
3064.14567218
1237.98358014
441.39413418
139.08701266
41.4030048534
13.6530902258
5.59502515604
2.81066258243
1.68114263374
1.31968340078
1.58234325208
2.57857938578
5.21577445721
11.7200503834
18.8843187781
22.9298428607
24.4224916314
24.3880614856
22.5250024492
17.0232344273
6179.64219336
1916.11309248
509.977992001
139.442250807
42.4161399464
15.9912938206
7.27457019172
3.70920180848
2.08776918589
1.43659510961
1.51177020807
2.38245277304
4.61424519634
9.73667339433
16.7085496909
20.6749000881
21.9338927082
21.2267145642
18.8357951789
12.79301643
9139.96358927
2184.3248564
532.965770888
146.606298637
48.4952347158
20.7289535294
10.4247059146
5.43754355062
2.86299612437
1.66876665297
1.37068529381
1.88961252993
3.50800201226
7.16044670034
13.2807660769
17.5521470685
18.5071919587
17.5068624918
14.6271571472
8.05611439959
10325.0612254
2330.34529252
579.220230046
163.548206281
58.4669797442
27.3003662258
14.6436905368
7.8079066548
4.00315679974
2.07876824057
1.31888460246
1.39853477838
2.39938669753
4.8799766784
9.71125228817
14.2003203341
15.1213538848
13.6896105469
10.2616966636
4.40355156495
10679.4474707
2440.39807152
630.11500632
184.170961911
69.219503842
34.721066997
19.9761715844
10.9423611211
5.41549174598
2.65122099273
1.40988471726
1.0836524848
1.54196702084
3.12409475609
6.65450682574
11.1176775584
11.9361463558
10.2804257491
6.22918468924
2.17195217405
10764.7260815
2505.87924299
670.035547557
204.653499319
79.7207902421
42.2414005298
25.8947534608
15.0654068774
7.21872632605
3.32672709463
1.61159275888
0.959824751199
1.00003580103
1.87335977364
4.25825825722
8.29653348475
9.11157265439
7.15591971727
3.39306749908
0.993307442871
10707.1003547
2536.17276136
700.634865362
222.560856516
90.1479455708
49.2813958724
31.9534934054
19.823590061
9.6739264414
4.10317735517
1.87014740022
0.963302630684
0.721676847181
1.08177981812
2.50766941103
5.76095699001
6.6675553392
4.44419277346
1.71090132958
0.466680427924
10504.1676875
2525.97019351
714.589362541
233.31857829
97.6647819319
55.1496872523
37.1971542727
24.4391816121
12.836974734
5.00915835683
2.14725048808
1.03166862415
0.616364490001
0.65399128827
1.36328165834
3.52151122138
4.61312799819
2.50975437244
0.82913586176
0.260536670376
10231.7605662
2482.50705714
711.629152875
236.820689846
101.98217432
59.4909936548
41.552201375
28.6899306947
16.2750271165
6.03035199029
2.43715063801
1.12275175934
0.601643155523
0.465909655732
0.728643993892
1.85381966564
2.88226362003
1.3389689251
0.43379333815
0.181838754616
9983.88867103
2423.04744455
697.693716552
234.884654898
103.434429504
61.9989625698
44.5824251405
32.1487054147
19.4713380323
7.15069664691
2.75081652026
1.21758038091
0.624328115355
0.40883001754
0.445607353275
0.920685758294
1.61493378898
0.722415108864
0.274771926085
0.149203306714
9771.23913251
2358.99508718
674.306045824
227.111210314
101.5968001
62.3339795305
45.7833274474
33.9203959355
21.7204421858
8.43994193514
3.09444087085
1.31160614241
0.657133341839
0.409485478353
0.353864334102
0.505939782784
0.863269221041
0.433657966435
0.214539445181
0.139016704066
9669.54353935
2298.02156343
642.966293128
213.744570743
96.5180249635
60.5752257497
45.3196774543
34.1055447679
22.4270909695
9.30776001176
3.45928733592
1.40767019042
0.691478537462
0.429968881105
0.346292288184
0.36078218863
0.502564603123
0.310810450757
0.196365923538
0.140397326027
9777.94578556
2258.53310656
614.923382447
199.414728485
89.4792189046
57.3015335961
43.6054462051
33.0206817912
21.7483369426
9.29099112453
3.58818425726
1.48703145236
0.729787516192
0.457562550258
0.368511984878
0.33442160035
0.364290667243
0.268654421245
0.199640785561
0.149758212087
10221.987328
2271.14488632
591.943849831
186.106435882
82.8973239554
53.4939846158
41.0547968931
30.8231110532
19.2847981342
8.34884695455
3.39362061926
1.4755810379
0.750849730979
0.48481495708
0.39773137039
0.354724841094
0.33159783296
0.268194840801
0.21660527286
0.166260298448
11140.7392864
2358.2761995
581.102945674
175.449982018
77.4944686931
50.0224663675
37.8976490938
27.0234311856
15.0992219357
6.82508069135
2.97640580105
1.38735645338
0.749778329853
0.506718807274
0.426314919318
0.38701984584
0.345845300921
0.291180498253
0.244213218227
0.190887167244
12627.4311168
2567.96082195
606.420856759
176.962156626
76.7917650876
47.2595614519
32.5298221474
20.8447382761
11.0414053917
5.27713249099
2.49611336387
1.26383064423
0.737108526286
0.527273901395
0.45494357255
0.419472419123
0.379977910875
0.329040326655
0.281511890442
0.22512082652
14304.0604012
2974.37316904
724.353357581
212.612994033
88.7883867289
47.9108153933
26.098490612
14.9510118105
7.98982656281
4.06841819541
2.09042901641
1.15268564196
0.729196493644
0.553388519877
0.486433526037
0.449788542106
0.418336153915
0.37436550936
0.327660297451
0.268900803052
14678.2384552
3411.80281309
963.400603259
310.910484013
124.497954241
57.2415655799
25.0466544979
12.4402488123
6.46260234996
3.40380701403
1.85460662265
1.09483042316
0.742056366803
0.591930218532
0.523115990952
0.477983860886
0.450445933998
0.41956878782
0.379924202738
0.321087452872
12328.7312301
3499.48723613
1160.13243076
422.269517076
174.182986046
77.0164806841
31.1898335847
13.5389939252
6.46148512249
3.31328037503
1.82351090501
1.11338700341
0.787808461648
0.644025959426
0.566429622882
0.512973112445
0.479923618653
0.462326479148
0.433228781714
0.378527372951
8358.7750273
2956.29545229
1138.2348834
468.315792924
208.596213133
96.2904465722
40.1751484385
16.7818604551
7.50965484943
3.66462296927
1.97374729012
1.20986074501
0.865971845236
0.70539055585
0.617978420983
0.557966819007
0.516229138609
0.49775492051
0.484134083507
0.431820563652
5747.06112644
2209.22427193
934.857413274
426.138379623
207.511015226
102.712495716
45.8139134069
19.7036327022
8.75527193924
4.18679621779
2.22474410056
1.35770722264
0.96006116411
0.774845002567
0.679025010794
0.612405192566
0.56042101757
0.529728233372
0.521860239136
0.472391068024
4824.71219879
1730.68445661
720.690510872
345.735864055
180.611082705
95.3696165568
45.5117415259
20.6254036676
9.43853259327
4.58207425949
2.46111572445
1.5033855354
1.05600546516
0.853100265934
0.75046232953
0.674809223688
0.607744259503
0.558554562845
0.537524660549
0.487833539649
4596.37372389
1485.19525549
574.613604893
269.288506724
145.209773253
79.9679437891
40.4968816433
19.3932397809
9.27374831311
4.67145173287
2.58709527099
1.60954119397
1.1469427595
0.939905652238
0.833187495577
0.744584268916
0.653860396815
0.574388399144
0.520524410618
0.464099342905
4699.73617176
1381.67392155
486.662177822
211.842279676
112.700392323
63.2069533098
33.4419117244
16.8182925087
8.44765818017
4.4680310641
2.5884232862
1.67056979418
1.23220522525
1.03764798144
0.930131807444
0.821773499774
0.693687645358
0.569323043113
0.466847546706
0.404758071645
5136.89393335
1394.05600362
442.864041044
173.666472727
87.8994173686
49.1136349415
26.6717103396
13.9749115136
7.3764404519
4.11583911406
2.51360655685
1.70448467072
1.32196603239
1.15468710506
1.04641583544
0.902683109116
0.710133874128
0.524539782302
0.391720485347
0.331495007974
5722.35195065
1471.64970408
430.560332393
154.017511177
72.9826311917
39.7360430082
21.6894585058
11.670948278
6.42231031969
3.76511116816
2.42399529515
1.74215046253
1.43491169611
1.30206060552
1.17769999669
0.952320433606
0.658645917677
0.443928768156
0.321124358027
0.266934089076
5968.42318016
1544.55930497
445.771516404
153.277876278
68.1868298576
35.3489039366
18.9028040958
10.2243440701
5.75526207592
3.50605333953
2.36945040903
1.8151259485
1.58419276948
1.46314366749
1.24711868418
0.8695462282
0.543060352445
0.37016699792
0.27027778559
0.221235482931
5606.44995427
1560.68811597
471.710533351
163.951918905
70.3908844436
34.8885596298
18.1092179573
9.67821462612
5.46917642056
3.40257678444
2.3889447556
1.92409324439
1.7126616886
1.48806873858
1.10403243835
0.705863607029
0.446947698786
0.318654565349
0.239818532916
0.194909632664
5327.6838481
1597.53815747
507.380926483
180.700536039
77.1569276245
37.6748304354
19.2887277995
10.1326911303
5.65903232349
3.48711644351
2.44109054786
1.94341873411
1.62399987642
1.28027339028
0.893124413638
0.57080302194
0.380587914563
0.286747225286
0.225382406656
0.183673141423
5507.93231827
1710.61370992
562.555532468
204.567060164
87.7337804903
43.1067040709
22.3057963468
11.583038513
6.25866561376
3.65577604805
2.38847771884
1.77287978901
1.38857607164
1.04476030453
0.71854163701
0.475504410145
0.340400887544
0.272194633313
0.223879728098
0.182895416905
5442.40525994
1728.82610693
580.567475101
216.771869486
94.6031783932
47.4693342372
25.3808007502
13.7045819223
7.25713880544
3.96797062692
2.32408767631
1.58623054003
1.17525097399
0.857206738349
0.594550263491
0.418399206042
0.324356307041
0.273690645301
0.233568653474
0.188907261956
4612.54580759
1461.74770249
509.905441263
196.099942963
87.3964604126
45.4973430966
26.0078399131
15.3999238968
9.02158395711
4.83090549274
2.41663427477
1.47800714086
1.02716665802
0.732064251297
0.523363463424
0.396599234535
0.330790498256
0.291231729294
0.251991185613
0.198173372682
4102.47167795
1305.49680457
448.929616651
163.922812706
71.9330750092
39.4183624027
24.9559430195
16.754643618
10.939983046
5.94102132362
2.66474928946
1.45894838665
0.949392779729
0.669197941845
0.499984489264
0.406460891612
0.358367898641
0.324784607639
0.276931612886
0.207871753895
4069.2630789
1294.877357
441.008053962
148.934276524
58.241832977
32.3729571943
23.1579465688
17.7828151243
12.5251299589
6.55843360206
2.87408707166
1.48998278949
0.932267798285
0.6606244017
0.516271192119
0.443601347901
0.405998351627
0.370135411966
0.304435349645
0.215450129067
0.546629135449
0.639834155313
0.650940966572
0.519637749992
0.246950046164
0.100620292602
0.0143746908653
0.0327283919798
0.11697898526
0.179036722332
0.232998054453
0.284590070715
0.33383593269
0.402364146198
0.571597004293
1.08004445079
6.35164832153
1.08262251938
0.420343577655
0.358715860472
0.456888765252
0.584491162307
0.612645170289
0.503617042493
0.242537636362
0.100558662425
0.015226529912
0.0317830095812
0.11949947156
0.181720320608
0.235368677894
0.28710165782
0.336687775264
0.404513922395
0.572762144442
1.09337034533
5.17081572701
0.818061762803
0.320605924621
0.281670106898
0.36740867994
0.51538051976
0.561509666057
0.479614130644
0.239619177073
0.103102338158
0.0166125426027
0.0281384177031
0.119812536513
0.184358364051
0.237700416358
0.289472225358
0.339236694608
0.405945771301
0.572105448373
1.10414757863
3.8398112914
0.592909112365
0.249027547909
0.223389890682
0.288344903579
0.43301809477
0.499299348231
0.44850791784
0.23506492684
0.105376685176
0.0168356881068
0.023247266548
0.115762529583
0.18713532851
0.240189157883
0.291843182236
0.341548020281
0.406584555016
0.568925297694
1.10793232165
2.55473685637
0.415790896164
0.195726989196
0.177832823315
0.227439853732
0.347682936592
0.433039112827
0.410648027325
0.226188379372
0.103664911494
0.0155014378628
0.0201086002729
0.108893271608
0.190258688597
0.243042403479
0.294346640126
0.343686846571
0.406451395049
0.562891244197
1.10089413026
1.53680168588
0.29332333723
0.159299900224
0.148736139927
0.186279488858
0.273709220793
0.371210109323
0.371758049323
0.21315324528
0.095360495811
0.0146881916686
0.0194279408372
0.106828567232
0.193958415785
0.246262293407
0.296938430322
0.345577992216
0.405531853682
0.554099529752
1.0817941617
0.872525306073
0.218509137475
0.136410462428
0.129006181376
0.156834638331
0.220121941526
0.323089956832
0.33961464107
0.196736251569
0.0830058314723
0.0136224660906
0.0200255723324
0.111499206054
0.198247027157
0.2496703137
0.299447667662
0.347043208926
0.403709343383
0.542835663907
1.05184372597
0.497506840134
0.174083276489
0.120585485007
0.114261616896
0.136276460195
0.188797400684
0.295347475076
0.313895410574
0.176146900539
0.0663877687248
0.0125667156949
0.0223178682643
0.124721360141
0.202929221468
0.253094464057
0.301715864113
0.347917111558
0.400847538336
0.529340172286
1.01323679677
0.30472158599
0.146161020861
0.108179745091
0.10208425085
0.121033072675
0.177406359539
0.282650987086
0.29119144879
0.153719724727
0.0465062021883
0.0128621384086
0.0307773579205
0.144450749264
0.207591676385
0.256422068408
0.303644385328
0.348094003808
0.396884738072
0.513941216038
0.968187596811
0.209466114185
0.126827132548
0.0979397154107
0.0917891672787
0.1109017559
0.183128709024
0.283311644418
0.265577974372
0.134377796073
0.0285928483647
0.0122447927942
0.054263689772
0.158840138994
0.212073653398
0.259583190475
0.305176237387
0.347494593005
0.391754141168
0.496911276743
0.918735777069
0.161449293063
0.113019075797
0.0895461873778
0.0835088541738
0.11712575645
0.204889098534
0.289177499903
0.233589304641
0.116691322888
0.0165342670594
0.0129527076068
0.0886824548499
0.166127605566
0.216436462235
0.262568131773
0.306298934785
0.346043534486
0.385320095769
0.478349733182
0.866445616258
0.134152241757
0.103213791243
0.0836570957154
0.0861757461407
0.132148411089
0.243753318681
0.295949072192
0.201613467811
0.0888783321391
0.0108949489016
0.0195959841002
0.111002169879
0.171433806444
0.220703370822
0.265428200665
0.307039518916
0.343663196664
0.377389311713
0.458224339652
0.812312972758
0.120556935638
0.096390096828
0.080238558568
0.0976929543496
0.155734477312
0.282816407079
0.296352861494
0.17279872912
0.061410218967
0.00958443836814
0.0350522201729
0.121251382653
0.176530261222
0.225003274934
0.268258813061
0.307436292339
0.340244946481
0.367748249186
0.436569287838
0.757171015824
0.115017148467
0.0930338406499
0.0817095654707
0.117816166351
0.207473894177
0.316905203405
0.282577017571
0.152219358935
0.0363402585357
0.00810311917964
0.053899064191
0.128055024883
0.181843670893
0.229498913151
0.271100496326
0.307434863022
0.335562347115
0.356211270406
0.41383671554
0.70287994686
0.114189584823
0.0936240813468
0.0947427734957
0.147978056528
0.300962077532
0.353124612153
0.254470405796
0.130380846198
0.0178218956948
0.00945964332809
0.069538696156
0.134380664674
0.187366801234
0.234022673452
0.273751686487
0.30671942474
0.329198717533
0.342798667537
0.39130657356
0.653374754107
0.117049288887
0.0974617502148
0.115582040595
0.18831337031
0.377676152002
0.379885287061
0.229471224677
0.0983714526112
0.0108863824069
0.0156661939679
0.0807632641382
0.140229078826
0.192540911385
0.238137963843
0.275746889024
0.304731111416
0.320794832319
0.32830373997
0.371508780674
0.614474652459
0.12472667306
0.111168639108
0.145527341562
0.252050485671
0.447934019765
0.39180575057
0.215149865438
0.0687361337893
0.00673717115243
0.0273593170956
0.0886245257284
0.145126371302
0.196863918904
0.241111705032
0.276428906307
0.300835562345
0.310604247316
0.314879496105
0.358201288726
0.592662161897
0.137692128172
0.132781670721
0.186932459935
0.386194984316
0.523324384333
0.402429143949
0.204559229928
0.0464469246337
0.00655190307011
0.0391201910639
0.0939869587166
0.148923729819
0.199867689085
0.242649340591
0.275529545425
0.295065194292
0.300337332359
0.306180762897
0.355854700601
0.593950314985
0.159952589661
0.163345101921
0.239366387416
0.514929051217
0.623716164604
0.433256283149
0.201474209912
0.0452129238995
0.00847598444439
0.0460717052576
0.097099698734
0.150997936081
0.200858264534
0.242633174593
0.273080229794
0.288893051366
0.293940828161
0.307175956192
0.369644701989
0.624197473866
0.191948199721
0.202660807727
0.327707828595
0.606046869651
0.726718880083
0.484134242268
0.229875189296
0.0576829080703
0.00921463643531
0.0488420118616
0.0976105103729
0.150427353184
0.19990266972
0.241235318979
0.270239614261
0.285819005212
0.296405638966
0.322663439541
0.404998601469
0.690617036078
0.231761467876
0.245871872609
0.451667635622
0.684799881881
0.830905649479
0.565262854234
0.282577441273
0.0835079236358
0.0113006735826
0.0473487049378
0.0949938321976
0.14718904577
0.197032312105
0.23847797015
0.267632189802
0.286069552988
0.305541016012
0.34864088979
0.459237863961
0.795733623002
0.281284214461
0.304508043511
0.502367578211
0.76596044207
0.937142622855
0.683829318334
0.382436259073
0.141286198097
0.0264092425046
0.041152139372
0.0898633942963
0.141606884009
0.192152973043
0.234359702158
0.264717892643
0.28713294536
0.316103565643
0.377651754948
0.5245106118
0.936613722804
0.335179599815
0.361600579659
0.537681777039
0.83154669362
1.02301359927
0.810978348656
0.519551292459
0.260150044745
0.0932018234626
0.0239576514256
0.0816838501189
0.134036514678
0.185471471562
0.229044186341
0.261352146229
0.288294538474
0.326567139347
0.406789094616
0.595985287975
1.10971348793
0.382200695932
0.401803553872
0.560052417614
0.848535878739
1.03559082443
0.89061691806
0.669382101949
0.486150552608
0.22036403791
0.0300899466991
0.0571281503975
0.124828043086
0.176860542036
0.222126258577
0.257203600453
0.289080973667
0.336077772743
0.434387271956
0.670224676358
1.31222238978
0.416564414486
0.424538651579
0.55375013643
0.793332428267
0.949837544428
0.911545207066
0.869367098799
0.873281514367
0.572588162513
0.119245049824
0.0259763872851
0.112315851705
0.165561367589
0.213042585657
0.251966888588
0.28896337556
0.343575756917
0.458231782396
0.742259931297
1.53798949629
0.430893867954
0.427450754955
0.524986599189
0.701337710881
0.83786430241
0.916324030879
1.14268689645
1.48619685119
1.12803865667
0.387775369842
0.0237578462672
0.0908571856135
0.152259788014
0.203147040113
0.246545097486
0.288044831296
0.348347881208
0.475923598421
0.804798924836
1.77062272908
0.415080426774
0.402832996226
0.497398066675
0.629229536429
0.760385464924
0.917858484548
1.41511210804
2.12231550399
1.81310552597
0.876533412274
0.0834057625784
0.0470223514297
0.142216883869
0.194947734514
0.242327419203
0.28712484563
0.350681773945
0.486374486696
0.850790817189
1.98169571309
0.37304424715
0.361532390653
0.418320711443
0.527900377002
0.616615831492
0.848642427935
1.56632317374
2.72174883559
2.6481529303
1.30715982301
0.351275278529
0.028614644999
0.120212268825
0.190487485745
0.240458568443
0.287280914341
0.351904798232
0.490807328493
0.877297666091
2.14032170965
0.317535256913
0.318776648486
0.339958017726
0.366833531963
0.387479320018
0.63515774978
1.60223446761
3.20212224007
3.52178010771
1.8077709395
0.608554249968
0.0441375093491
0.0440779330531
0.18548141822
0.241005014825
0.289018871517
0.353351885852
0.491602585551
0.885782257396
2.22543183752
0.259005350851
0.273503972099
0.286190631211
0.276978057426
0.240469812426
0.44458222543
1.52535666571
3.34730467835
3.96099195758
2.24110069711
0.728464320356
0.10195786563
0.0311537812475
0.14000238663
0.241807389058
0.291080770844
0.355110994454
0.491179730658
0.880926718346
2.23422287555
0.209562836368
0.224186348743
0.233592368885
0.214740371481
0.160601079297
0.295541897234
1.27726979244
3.14661571831
4.05993809227
2.57274204838
0.851323971944
0.158813041373
0.035153370893
0.0749326158129
0.237516620015
0.29155024756
0.353555564726
0.487749704956
0.867237920089
2.17671882528
0.176273563555
0.181372734584
0.183647016852
0.163167855939
0.11405704115
0.191858932776
0.943687435491
2.720322795
3.95664735803
2.80650399978
0.952905746197
0.199791909336
0.0351900922167
0.0494345482332
0.221924789068
0.290406463439
0.34776598439
0.472624406308
0.844786724037
2.07230914912
0.158068330463
0.150689440347
0.143822211177
0.123029159102
0.0852327319928
0.126607254849
0.682801093135
2.20670174009
3.72312274246
2.96107277492
1.03985992527
0.225240316817
0.0385176971488
0.0434516592958
0.203414478042
0.286077999347
0.337950761145
0.444265635139
0.812180626814
1.93641016304
0.150192935618
0.130033389834
0.114891547077
0.0937730245638
0.0691482768356
0.102309252193
0.417919360641
1.67531815141
3.37391735398
3.03845854486
1.13178921625
0.263621471609
0.0434450410268
0.0420678140764
0.187553082133
0.276739112716
0.321666517527
0.404267825347
0.766556259283
1.77165954321
0.147085015146
0.115952670642
0.0943319348876
0.0732555125184
0.061138904012
0.0832828459071
0.224126013003
1.19252177292
2.89896291238
3.05979816477
1.23614825034
0.327047621132
0.0532359582528
0.0416683778023
0.167837455486
0.261589722249
0.298689160318
0.347318796361
0.698676535988
1.56142220868
0.14477506439
0.105696643617
0.0792348952748
0.0593068330216
0.0570787572019
0.069550944184
0.135386886032
0.827092074952
2.3245180854
2.95465065717
1.34020442091
0.401565092784
0.0687949811593
0.0420854178995
0.139164847196
0.239704619563
0.268595167292
0.300989411952
0.594630391155
1.27296529737
0.141439873612
0.0965472001867
0.0676890920794
0.0507196137914
0.0539843833451
0.0659558652123
0.116593548843
0.597788963811
1.6677682641
2.73258087065
1.41910082243
0.480220721106
0.0932845998536
0.0448537631645
0.109348931033
0.210767805789
0.229815324007
0.267635799021
0.45363280782
0.871276550363
0.136940653528
0.0866819441257
0.0572347807674
0.0523811278727
0.0500205282288
0.0622057119628
0.0868740066025
0.25716103096
1.26916655313
2.42524657543
1.41713270377
0.528414318495
0.126205608726
0.05153230692
0.0697654952633
0.168181735115
0.189545150865
0.209108965137
0.280428266232
0.358208037718
)
;

boundaryField
{
    emptyPatch
    {
        type            empty;
    }
    minY
    {
        type            fixedValue;
        value           nonuniform List<scalar> 0();
    }
    maxY
    {
        type            inletOutlet;
        inletValue      uniform 0.0001;
        value           nonuniform List<scalar> 
40
(
4069.2630789
1294.877357
441.008053962
148.934276524
58.241832977
32.3729571943
23.1579465688
17.7828151243
12.5251299589
6.55843360206
2.87408707166
1.48998278949
0.932267798285
0.6606244017
0.516271192119
0.443601347901
0.405998351627
0.370135411966
0.304435349645
0.215450129067
0.136940653528
0.0866819441257
0.0572347807674
0.0523811278727
0.0500205282288
0.0622057119628
0.0868740066025
0.25716103096
1.26916655313
2.42524657543
1.41713270377
0.528414318495
0.126205608726
0.05153230692
0.0001
0.168181735115
0.189545150865
0.0001
0.0001
0.358208037718
)
;
    }
    maxX
    {
        type            epsilonWallFunction;
        blending        stepwise;
        value           nonuniform List<scalar> 
38
(
15.0410349156
15.1400797422
15.2143902534
15.2464230866
15.2218093079
15.136143101
14.9941173983
14.804172634
14.5748955983
14.3146113261
14.0299462942
13.7261673691
13.410034387
13.0954018452
12.8081887648
12.5861086409
12.4719223099
12.5023605267
12.7023701552
13.0940125387
13.7085579643
14.5597519263
15.6199698992
16.8561042764
18.203069288
19.5377489882
20.6990224857
21.5515084032
22.0303262518
22.1505306897
21.9732971019
21.6096442238
21.1195157471
20.4866404425
19.5993859749
18.2517579965
16.1783355837
13.3233815273
)
;
    }
    water_to_heater
    {
        type            epsilonWallFunction;
        blending        stepwise;
        value           nonuniform List<scalar> 
59
(
7230.49675505
7230.49675505
5471.5141538
7011.5710336
13036.8974304
13036.8974304
26115.5685764
26115.5685764
39845.3578231
39845.3578231
47551.5043417
50768.7244008
51642.366108
51642.366108
51368.0448766
51368.0448766
50201.0296059
50201.0296059
48698.9242141
47337.2837126
46224.4167269
46224.4167269
45620.9206568
45620.9206568
45718.0558269
45718.0558269
47085.3347246
50312.8736485
55978.893529
55978.893529
63794.8614597
63794.8614597
65960.1404119
65960.1404119
55143.9434726
36336.0455383
23854.9925184
23854.9925184
18526.8065936
18526.8065936
16172.7454548
16172.7454548
15364.942047
15787.702019
16766.6511744
16766.6511744
16945.4151381
16945.4151381
16127.5768131
16127.5768131
16244.2683408
17859.3987906
18991.4745587
18991.4745587
17320.2123239
17320.2123239
16150.9625934
16150.9625934
16088.6275828
)
;
    }
    procBoundary0to1
    {
        type            processor;
        value           nonuniform List<scalar> 
41
(
3847.9911867
1178.04417959
438.028051419
177.136546719
75.7056237339
33.4007726736
15.1488462516
7.21053171768
3.70137826444
2.15608074099
1.66667266152
2.08501475076
3.22177203657
3.80678627132
6.91371306427
12.0772176125
17.2411181687
21.5470111579
24.0937724492
23.7023852784
0.628376639911
0.685304947525
0.681693800868
0.534598615382
0.254439624454
0.10457717332
0.0142977269169
0.0321624425099
0.113389905899
0.17622472567
0.230491980093
0.281871380419
0.330680249664
0.399641229878
0.569256441576
1.06690638999
7.30941680277
1.38055451727
0.550971426395
0.456183347572
0.456183347572
)
;
    }
}


// ************************************************************************* //
