/*--------------------------------*- C++ -*----------------------------------*\
| =========                 |                                                 |
| \\      /  F ield         | OpenFOAM: The Open Source CFD Toolbox           |
|  \\    /   O peration     | Version:  2312                                  |
|   \\  /    A nd           | Website:  www.openfoam.com                      |
|    \\/     M anipulation  |                                                 |
\*---------------------------------------------------------------------------*/
FoamFile
{
    version     2.0;
    format      ascii;
    arch        "LSB;label=32;scalar=64";
    class       volScalarField;
    location    "0.04/water";
    object      Ct2;
}
// * * * * * * * * * * * * * * * * * * * * * * * * * * * * * * * * * * * * * //

dimensions      [0 0 0 0 0 0 0];

internalField   nonuniform List<scalar> 
1496
(
1
1
1
1
1
1
1
1
1
1
1
1.00000010586
1.29879046244
1.42514376839
1.45687576664
1.47807311551
1.51000430325
1.57207726389
1.68474149572
1.86549407424
1
1
1
1
1
1
1
1
1
1
1
1.00000003122
1.28579518697
1.42480100959
1.45816542851
1.47966757395
1.51093155622
1.57221961267
1.68436064225
1.8644292363
1
1
1
1
1
1
1
1
1
1
1
1.00000000167
1.25380394617
1.42307444793
1.45844246106
1.48032106059
1.51080439661
1.57105653268
1.68138624499
1.8593701399
1
1
1
1
1
1
1
1
1
1
1
1.00000000001
1.19968859902
1.42011370269
1.45821278841
1.48044719627
1.51000806548
1.56797975193
1.67549601806
1.85057242199
1
1
1
1
1
1
1
1
1
1
1
1
1.13880328169
1.41681388062
1.45775404206
1.48040600135
1.50866253275
1.56391647394
1.6682213649
1.83989276723
1
1
1
1
1
1
1
1
1
1
1
1
1.09222008736
1.41394504086
1.45742608312
1.48039394189
1.50723924383
1.55979731892
1.66075050047
1.82855308916
1
1
1
1
1
1
1
1
1
1
1
1
1.06675863726
1.41194497659
1.45744669916
1.48053729473
1.50602138378
1.5560848379
1.65381803466
1.81777064565
1
1
1
1
1
1
1
1
1
1
1
1
1.05923987266
1.41108914024
1.45799908637
1.48097370717
1.50523344895
1.55304857716
1.64793041534
1.80864976735
1
1
1
1
1
1
1
1
1
1
1
1
1.06251008148
1.41133051329
1.45931422955
1.48182044131
1.50502789238
1.5509005897
1.64338618852
1.80155899594
1
1
1
1
1
1
1
1
1
1
1
1
1.07841651353
1.41280263988
1.46141358858
1.48319817765
1.50528078086
1.54983572949
1.64029073005
1.79638695033
1
1
1
1
1
1
1
1
1
1
1
1
1.10052160083
1.41477781329
1.46393214182
1.4851097674
1.50632183207
1.54972410194
1.63861349661
1.79301334539
1
1
1
1
1
1
1
1
1
1
1
1
1.09952082952
1.41518321358
1.46622103931
1.48734673822
1.50805823103
1.55029409726
1.63817453722
1.79132600557
1
1
1
1
1
1
1
1
1
1
1
1
1.09008556414
1.41444733124
1.46783018275
1.48959107145
1.51006846986
1.55168414229
1.63856358052
1.79105260952
1
1
1
1
1
1
1
1
1
1
1
1
1.07248529829
1.41265846103
1.4686331788
1.49163640397
1.51210539991
1.55340261209
1.63990797418
1.79198973342
1
1
1
1
1
1
1
1
1
1
1
1
1.0512686672
1.40995888818
1.46852165026
1.49348050209
1.51418808498
1.55535677206
1.6419710753
1.79450917026
1
1
1
1
1
1
1
1
1
1
1
1
1.03299521039
1.40677779027
1.46801054743
1.49527524678
1.51649259406
1.55784775437
1.6449826297
1.79862720682
1
1
1
1
1
1
1
1
1
1
1
1
1.02331106459
1.40431195479
1.46770491202
1.497223912
1.51923318881
1.56128150069
1.64958305718
1.80497898958
1
1
1
1
1
1
1
1
1
1
1
1
1.02151396475
1.40369696254
1.46824227234
1.49955071771
1.52259996212
1.56602240533
1.65637892712
1.81427606599
1
1
1
1
1
1
1
1
1
1
1
1
1.02522667565
1.40474288889
1.4705081285
1.50251486303
1.52675636791
1.57232639749
1.66573816632
1.82693670671
1
1
1
1
1
1
1
1
1
1
1
1
1.04501269637
1.40896305045
1.47520633166
1.50629921167
1.53184893995
1.58035197282
1.67781606504
1.84304391637
1
1
1
1
1
1
1
1
1
1
1
1
1.0964243915
1.41608501823
1.48171193655
1.51088084699
1.53795115318
1.59008056989
1.69226395621
1.86168578244
1
1
1
1
1
1
1
1
1
1
1
1.00000000142
1.17637738513
1.4251950309
1.48866867511
1.51600280223
1.54485889021
1.60084993199
1.70746250388
1.8804002429
1
1
1
1
1
1
1
1
1
1
1
1.00000014943
1.26006011401
1.43575556725
1.49529399722
1.52125374836
1.55189222326
1.61115892056
1.72113725925
1.89682981609
1
1
1
1
1
1
1
1
1
1
1
1.00000677251
1.32770250477
1.44750955414
1.50128754478
1.52618118836
1.55819126318
1.61977428678
1.73225848655
1.91025937922
1
1
1
1
1
1
1
1
1
1
1
1.00016483731
1.36990677417
1.45909350547
1.50675467503
1.53059139802
1.56329098256
1.62628337457
1.74048589914
1.91998566705
1
1
1
1
1
1
1
1
1
1
1
1.00145889156
1.38763679352
1.46679170814
1.51186238625
1.53458934692
1.56684576967
1.62986566065
1.74422800634
1.92391280244
1
1
1
1
1
1
1
1
1
1
1
1.00231919126
1.390082461
1.46833826931
1.51489767986
1.53730373686
1.5681045962
1.63019752837
1.74373130264
1.92261726487
1
1
1
1
1
1
1
1
1
1
1
1.00073485834
1.38112959617
1.46452800846
1.51504563552
1.5378191724
1.56760788382
1.62725656186
1.73731077313
1.91299095269
1
1
1
1
1
1
1
1
1
1
1
1.00000330081
1.32525086707
1.44991003312
1.51319697301
1.53740545214
1.56485068977
1.61927183906
1.72352288904
1.89405416271
1
1
1
1
1
1
1
1
1
1
1
1.00000000003
1.16579688021
1.42891913801
1.50739083598
1.53602651403
1.56074910516
1.60934645291
1.70671290972
1.87109449797
1
1
1
1
1
1
1
1
1
1
1
1
1.03546234482
1.4120618127
1.49800496697
1.53423430935
1.55769234542
1.60094609568
1.69122480474
1.84907461878
1
1
1
1
1
1
1
1
1
1
1
1
1.00481724285
1.39880492498
1.48736200493
1.53290972467
1.55631751641
1.59527691606
1.6792049365
1.83080572334
1
1
1
1
1
1
1
1
1
1
1
1
1.0007370973
1.38285699076
1.47711508891
1.53229250646
1.55608095448
1.59209653178
1.67077970657
1.81686316973
1
1
1
1
1
1
1
1
1
1
1
1
1.00012712797
1.36108106777
1.46753520923
1.5321361124
1.55645245517
1.5907593764
1.66512118674
1.80652930641
1
1
1
1
1
1
1
1
1
1
1
1
1.00001672686
1.32888168289
1.45767637218
1.53178059202
1.55776383566
1.59059987958
1.66164775474
1.79929958684
1
1
1
1
1
1
1
1
1
1
1
1
1.00000133339
1.28348044538
1.44768206164
1.53054917246
1.55915938675
1.59099461924
1.66008327332
1.7947652359
1
1
1
1
1
1
1
1
1
1
1
1
1.00000001923
1.20694550238
1.43509039213
1.52813873851
1.56228024413
1.59453983805
1.66205211661
1.79551091725
4.02460940345
4.12506440272
4.43011503961
5.39324500614
7.35669757997
8.76158146586
8.972110624
8.9734993676
8.97349742451
8.97349773402
8.97365933033
8.97391585211
8.97394261232
8.97395972384
8.97397184079
8.97398250969
2.17810598625
2.7538668146
3.53264950003
3.94136838549
4.03702407846
4.1360211386
4.43243484028
5.37215444945
7.3132841707
8.74613303339
8.9718542925
8.97349941675
8.97349742566
8.97349787739
8.97366605813
8.97391753075
8.97394421818
8.9739612701
8.97397334858
8.97398399546
2.17505459414
2.74509127989
3.52640085324
3.94894454326
4.048560072
4.14607754472
4.4323562749
5.34156135179
7.25497198932
8.72550670471
8.97142496257
8.97350084277
8.97349866824
8.97349919768
8.97367347484
8.97391939183
8.97394594907
8.9739628996
8.97397490202
8.97398552067
2.16532796729
2.72594785753
3.51028062939
3.95408032026
4.05964512566
4.15562118839
4.43012248763
5.30206466354
7.18120376337
8.69850089533
8.97071342627
8.9735038533
8.97350135071
8.97350189138
8.97368169803
8.9739214653
8.97394782584
8.97396463391
8.97397654327
8.97398709841
2.15055027314
2.69939111482
3.4855799582
3.95711395819
4.07046716645
4.16480977995
4.42500046006
5.25499758529
7.09333289429
8.66450344013
8.96958608816
8.97350839241
8.97350543185
8.97350593049
8.97369070784
8.97392374352
8.97394984251
8.97396646891
8.97397826177
8.97398872217
2.13294165302
2.66787836295
3.45424799421
3.9566928074
4.08093702293
4.17369928122
4.41845121153
5.20373079219
6.99552445065
8.62386459565
8.96790035136
8.97351416255
8.97351064561
8.9735110699
8.97370034884
8.97392618268
8.97395196741
8.97396838014
8.97398003651
8.97399038012
2.11381408094
2.63341627581
3.41798773127
3.95467840926
4.09101801253
4.18250583508
4.4124100569
5.15285839097
6.8938255724
8.57749993861
8.96551371638
8.97352074252
8.97351661102
8.97351695296
8.97371040107
8.97392872246
8.97395415799
8.97397033566
8.97398184252
8.97399205531
2.09518150082
2.59901782801
3.37945677212
3.95061782247
4.1010115884
4.19173715722
4.40829328838
5.10619689435
6.79319480943
8.52726564624
8.96230632087
8.97352737197
8.97352295596
8.97352322567
8.97372064758
8.97393130333
8.9739563722
8.97397230413
8.97398365609
8.97399373162
2.07943708938
2.56887980943
3.34296448582
3.94552069147
4.11152003512
4.20203430418
4.40674791328
5.06506922715
6.69763041858
8.47507170988
8.95848893484
8.97353285246
8.9735294004
8.97352961577
8.97373091914
8.97393387908
8.97395857727
8.97397426119
8.97398545888
8.97399539655
2.06739470248
2.54539061243
3.31237906306
3.94144880355
4.12311180184
4.21375931827
4.40709958439
5.02987698912
6.6094070141
8.42259370332
8.95426599433
8.97353655252
8.97353577916
8.97353595646
8.97374110565
8.97393642059
8.97396075234
8.97397619128
8.97398723913
8.97399704208
2.05847825451
2.52789659284
3.2883194392
3.93955069232
4.13603971912
4.22689606048
4.41005680737
5.00096692478
6.53010822336
8.37169055342
8.94978837547
8.97353833925
8.97354202061
8.97354216841
8.97375114438
8.97393891299
8.97396288652
8.97397808616
8.97398899047
8.9739986639
2.05207421643
2.5147775796
3.26980524369
3.93980404733
4.15015831863
4.24116835475
4.4160327975
4.97819427927
6.46101572245
8.32392115907
8.94519941307
8.97353826313
8.97354809992
8.97354821624
8.97376099599
8.97394134865
8.97396497405
8.97397994141
8.97399070937
8.97400025957
2.04798760904
2.50524145294
3.25616485625
3.94256222622
4.16518109712
4.25637912548
4.42437152811
4.96204472291
6.40254467353
8.27975867731
8.94056803697
8.97353507411
8.973553986
8.97355405847
8.97377061968
8.97394371936
8.97396700897
8.97398175259
8.97399239232
8.97400182669
2.04618591886
2.49924540633
3.2472740147
3.94763775453
4.18108212493
4.27270588522
4.43513420204
4.95285886295
6.3534425421
8.23850274293
8.93586011547
8.97352320714
8.973559594
8.97355960301
8.97377995369
8.97394600975
8.97396898059
8.97398351201
8.97399403356
8.97400336138
2.04626895217
2.49697099707
3.24323978219
3.95495534604
4.19826295237
4.29064328114
4.44871250282
4.94942907458
6.31121658768
8.19902797385
8.93098167362
8.97350130741
8.97356475422
8.9735646785
8.97378890525
8.97394819334
8.97397087091
8.97398520693
8.97399562387
8.9740048576
2.0486388456
2.49787198273
3.24355846153
3.96519191438
4.21733427486
4.31067549692
4.46531078513
4.94947729648
6.27404097171
8.16065108325
8.92585608189
8.97346953355
8.97356920635
8.97356902966
8.97379735235
8.97395023252
8.97397265475
8.97398681977
8.97399715075
8.97400630737
2.0539497755
2.50348398834
3.24973986764
3.97940889035
4.23872949779
4.33296155546
4.48485153456
4.95285243678
6.24216419901
8.12354378187
8.920472222
8.97342737426
8.97357262002
8.97357233905
8.97380515723
8.97395208276
8.97397430277
8.9739883304
8.97399860026
8.97400770221
2.06252593319
2.51485755308
3.26385164757
3.99855489839
4.26246990996
4.35728746711
4.5071547727
4.9619240352
6.21705885108
8.08860716886
8.91487580139
8.97337473058
8.97357464529
8.97357427745
8.97381219063
8.97395370108
8.97397578745
8.97398972049
8.97399996021
8.97400903526
2.07512916778
2.53264393452
3.28668755336
4.02318313568
4.28826836765
4.38330914161
4.53212517715
4.97677083616
6.19983900759
8.05670018705
8.90909110723
8.97331253841
8.97357499315
8.97357458047
8.97381836371
8.97395505762
8.97397709105
8.97399097929
8.97400122428
8.97401030413
2.09232951686
2.55765060566
3.31914837203
4.05332129337
4.31581793282
4.41079409174
4.55968797944
4.99685233403
6.19015794231
8.02779095124
8.90302952085
8.97324262841
8.97357353046
8.97357313636
8.97382365989
8.97395614797
8.9739782138
8.97399210939
8.97400239612
8.97401151336
2.11401120129
2.58926412246
3.36024251395
4.08821847503
4.3448631429
4.43955916044
4.58947032551
5.02104267982
6.18590815073
8.00090000905
8.89644897118
8.97316754639
8.97357035894
8.97357005671
8.97382815501
8.97395700189
8.97397917958
8.97399313054
8.97400349183
8.97401267587
2.13850325206
2.6247117571
3.40598357338
4.12540350266
4.37485171049
4.46916302288
4.62051896744
5.04728770962
6.18415242596
7.97468174318
8.88895213887
8.97309043522
8.97356584573
8.97356570141
8.97383201568
8.97395768487
8.97398003653
8.97399407989
8.97400453986
8.97401381249
2.16278642558
2.66022041717
3.45076837525
4.16214958853
4.4048187701
4.49870632551
4.65140970041
5.07329843589
6.18231216356
7.94778039456
8.87997749577
8.97301590971
8.97356058734
8.97356064468
8.97383547523
8.97395829171
8.97398085237
8.97399500835
8.97400557811
8.97401494969
2.18456752486
2.69281632466
3.49031118153
4.19700751363
4.43345538469
4.52708158716
4.68079760129
5.09734002857
6.17818668546
7.91847582955
8.86880120233
8.97294697209
8.97355532787
8.97355560096
8.97383879881
8.97395893487
8.97398170621
8.97399597444
8.97400664932
8.9740161162
2.20284233599
2.71999300711
3.52165686942
4.22538213489
4.45934014244
4.55353819024
4.70787067062
5.11808922955
6.16930864943
7.88406084517
8.85464929062
8.97285970236
8.97355087067
8.97355134207
8.97384225161
8.97395973142
8.97398267922
8.97399703734
8.9740077959
8.97401733945
2.21569506414
2.73728439461
3.53965178965
4.24223521174
4.48182938321
4.57787563895
4.73221332437
5.1339637125
6.15267572564
7.84083689015
8.83688815839
8.97268666783
8.97354800212
8.97354862001
8.97384607464
8.97396079025
8.97398384556
8.97399825009
8.97400905499
8.97401864225
2.22013699445
2.74111756273
3.54156291347
4.24741680605
4.50106678428
4.60016735228
4.7533761343
5.14283812242
6.12528632039
7.78507325095
8.81506702932
8.97234760963
8.9735474109
8.97354808451
8.97385046291
8.973962199
8.9739852631
8.97399965284
8.97401045361
8.97402003967
2.21724185271
2.73291464033
3.52666740253
4.24529254742
4.51691374685
4.62030550697
4.77084510682
5.14448711324
6.08549285722
7.71449320098
8.78867410874
8.97176970597
8.97354957688
8.97355017787
8.97385553829
8.97396400914
8.97398696341
8.97400126573
8.97401200378
8.97402153601
2.20169107505
2.70335210157
3.48422167517
4.23131406375
4.52868034449
4.63783259894
4.7842793572
5.14136949452
6.03411492215
7.62930043341
8.75745676023
8.97079678038
8.97355463922
8.97355501649
8.97386131818
8.97396622114
8.97398894215
8.97400308242
8.97401369827
8.97402312235
2.17389791884
2.65725683508
3.42159577828
4.20117429113
4.53567373826
4.65259404683
4.79420907717
5.13109769155
5.97471025114
7.53215573226
8.72039042646
8.96918740649
8.97356229985
8.97356230909
8.97386769496
8.97396877629
8.97399115441
8.97400506741
8.97401550937
8.97402477628
2.14116714075
2.60463818155
3.34862013921
4.15810579882
4.53813595282
4.66518386627
4.80198109631
5.11691708266
5.91171345543
7.42705071419
8.67685220536
8.96664352719
8.973571616
8.97357138086
8.97387444737
8.97397156337
8.97399351992
8.97400716031
8.97401739262
8.97402646506
2.10952528627
2.55315940818
3.27398563427
4.1078657576
4.53762905504
4.67679742263
4.80906081216
5.10261507741
5.84890723735
7.31827306631
8.62731624946
8.96292517014
8.97358031277
8.97358132307
8.97388128968
8.9739744418
8.97399593953
8.97400928807
8.97401929659
8.97402815442
2.08260714035
2.50841371394
3.20601852928
4.05702784485
4.53646272074
4.68862421074
4.81643404452
5.08947533356
5.78880172434
7.21071744299
8.57382475515
8.95819466089
8.97358603195
8.97359120053
8.97388793618
8.97397727075
8.97399831484
8.97401137878
8.97402117271
8.97402981459
2.06136021559
2.47242632853
3.14931754726
4.01119619076
4.53591842936
4.70129629856
4.82430201115
5.07732069749
5.73310873077
7.10956922427
8.51987740603
8.95289167302
8.97358725186
8.97360008539
8.9738941044
8.97397990859
8.97400054512
8.9740133558
8.97402296513
8.97403141863
2.04494238556
2.44414488426
3.10383893651
3.97292568677
4.53708181707
4.71433983536
4.83206607897
5.06584807883
5.6837509687
7.02048614222
8.46985362233
8.94755622269
8.97358412061
8.97360765575
8.97389972851
8.9739823122
8.97400259995
8.97401519471
8.97402465102
8.97403294994
2.03283789091
2.42264843978
3.0685411742
3.9425927642
4.54070522995
4.72771851704
4.83985838301
5.05702758268
5.64368020677
6.94605347763
8.42571088573
8.94271367955
8.97357557532
8.97361099795
8.97390389053
8.9739840614
8.97400419495
8.9740166923
8.97402608672
8.9740343105
2.02421786174
2.40593376996
3.03959840561
3.91664837645
4.54399575347
4.73837126401
4.84621847525
5.05258524571
5.6131834966
6.89075573374
8.39190016913
8.93840468296
8.97357590675
8.97362426569
8.97391133486
8.97398732432
8.97400684796
8.97401896104
8.97402806454
8.97403604092
2.02356694385
2.40105620301
3.02396682957
3.90189999588
4.55779298026
4.76270413614
4.86484918718
5.05724042313
5.59153095215
6.83695757287
8.35489118616
8.93477992445
8.97348628931
8.97355250713
8.97389114427
8.97397774378
8.97400059978
8.97401475271
8.9740253814
8.97403456233
)
;

boundaryField
{
    emptyPatch
    {
        type            empty;
    }
    minY
    {
        type            calculated;
        value           nonuniform List<scalar> 0();
    }
    maxY
    {
        type            calculated;
        value           nonuniform List<scalar> 
40
(
1
1
1
1
1
1
1
1
1
1
1
1
1.00000001923
1.20694551618
1.43509042352
1.52813877805
1.56228028717
1.59453988438
1.6620521692
1.79551098202
2.02356702987
2.40105632557
3.02396701546
3.90190027574
4.55779333343
4.76270451335
4.86484957685
5.05724083548
5.59153142673
6.83695819473
8.35489199202
8.93478080222
8.97348717273
8.9735533915
8.97389202918
8.97397862679
8.97400147779
8.97401562524
8.97402624889
8.97403543346
)
;
    }
    water_to_cooler
    {
        type            calculated;
        value           nonuniform List<scalar> 
38
(
8.97400491737
8.97400642845
8.97400794235
8.9740094518
8.97401094962
8.97401242931
8.97401388592
8.97401531645
8.97401671962
8.97401809536
8.97401944437
8.97402076774
8.97402206688
8.97402334359
8.97402460042
8.97402584102
8.97402707043
8.97402829522
8.97402952335
8.97403076365
8.97403202493
8.97403331493
8.9740346391
8.97403599959
8.9740373945
8.97403881761
8.97404025852
8.97404170365
8.97404313783
8.97404454654
8.97404591815
8.97404724547
8.97404852621
8.97404976334
8.97405096519
8.974052142
8.9740533044
8.97405447031
)
;
    }
    water_to_heater
    {
        type            calculated;
        value           uniform 1;
    }
    procBoundary0to1
    {
        type            processor;
        value           nonuniform List<scalar> 
41
(
1
1
1
1
1
1
1
1
1
1
1
1.00000017194
1.30254971731
1.4246703485
1.45467531889
1.47535532474
1.5070441697
1.56978469278
1.68300275927
1.86401114932
4.010997737
4.11276818692
4.42406466317
5.40318701551
7.38591695797
8.77292077462
8.97226761408
8.97350024649
8.97349824812
8.97349837415
8.97365305972
8.9739143098
8.97394110168
8.97395824561
8.97397037479
8.97398109035
2.17720903522
2.75457075824
3.53275086923
3.93118777707
3.93118777707
)
;
    }
}


// ************************************************************************* //
