/*--------------------------------*- C++ -*----------------------------------*\
| =========                 |                                                 |
| \\      /  F ield         | OpenFOAM: The Open Source CFD Toolbox           |
|  \\    /   O peration     | Version:  2312                                  |
|   \\  /    A nd           | Website:  www.openfoam.com                      |
|    \\/     M anipulation  |                                                 |
\*---------------------------------------------------------------------------*/
FoamFile
{
    version     2.0;
    format      ascii;
    arch        "LSB;label=32;scalar=64";
    class       volScalarField;
    location    "2.5/fluidRegion";
    object      p;
}
// * * * * * * * * * * * * * * * * * * * * * * * * * * * * * * * * * * * * * //

dimensions      [1 -1 -2 0 0 0 0];

internalField   nonuniform List<scalar> 
40
(
139485
138456
137426
136396
135367
134337
133307
132278
131248
130218
128831
127084
125337
123590
121842
120094
118344
116591
114836
113078
111317
109552
107783
106009
104232
102450
100664
98872.8
97077.3
95277.4
93854.5
92809.6
91762.5
90713
89661.2
88607.1
87550.6
86491.7
85430.5
84366.8
)
;

boundaryField
{
    inlet
    {
        type            calculated;
        value           uniform 140000;
    }
    outlet
    {
        type            calculated;
        value           uniform 83833.8;
    }
    fixedWalls
    {
        type            empty;
    }
}


// ************************************************************************* //
