/*--------------------------------*- C++ -*----------------------------------*\
| =========                 |                                                 |
| \\      /  F ield         | OpenFOAM: The Open Source CFD Toolbox           |
|  \\    /   O peration     | Version:  2312                                  |
|   \\  /    A nd           | Website:  www.openfoam.com                      |
|    \\/     M anipulation  |                                                 |
\*---------------------------------------------------------------------------*/
FoamFile
{
    version     2.0;
    format      ascii;
    arch        "LSB;label=32;scalar=64";
    class       volScalarField;
    location    "0.5/fluidRegion";
    object      p;
}
// * * * * * * * * * * * * * * * * * * * * * * * * * * * * * * * * * * * * * //

dimensions      [1 -1 -2 0 0 0 0];

internalField   nonuniform List<scalar> 
40
(
139483
138450
137416
136383
135349
134316
133282
132249
131215
130182
128788
127032
125275
123515
121751
119984
118212
116436
114656
112871
111082
109289
107491
105689
103882
102071
100255
98435.5
96611.1
94782.5
93332.8
92263
91190.7
90116.1
89039.1
87960.2
86879.6
85797.6
84714.7
83631.1
)
;

boundaryField
{
    inlet
    {
        type            calculated;
        value           uniform 140000;
    }
    outlet
    {
        type            calculated;
        value           uniform 83089.1;
    }
    fixedWalls
    {
        type            empty;
    }
}


// ************************************************************************* //
