/*--------------------------------*- C++ -*----------------------------------*\
| =========                 |                                                 |
| \\      /  F ield         | OpenFOAM: The Open Source CFD Toolbox           |
|  \\    /   O peration     | Version:  2312                                  |
|   \\  /    A nd           | Website:  www.openfoam.com                      |
|    \\/     M anipulation  |                                                 |
\*---------------------------------------------------------------------------*/
FoamFile
{
    version     2.0;
    format      ascii;
    arch        "LSB;label=32;scalar=64";
    class       volScalarField;
    location    "0.19/water";
    object      Ct2;
}
// * * * * * * * * * * * * * * * * * * * * * * * * * * * * * * * * * * * * * //

dimensions      [0 0 0 0 0 0 0];

internalField   nonuniform List<scalar> 
750
(
1
1
1
1
1
1
1
1
1
1
1
1
1
1.00001638678
1.06837817764
1.12151925842
1.1095480324
1.00367745782
1.00000000003
1
1
1
1
1
1
1
1
1
1
1
1
1
1
1
1.00000002402
1.00172579608
1.04368245276
1.08970920739
1.08957422084
1
1
1
1
1
1
1
1
1
1
1
1
1.00027135271
1.00000002254
1
1
1.00000000026
1.00075026198
1.08962583204
1.00000000003
1
1
1
1
1
1
1
1
1
1.34369819422
1
1
1.43141485918
1.35396520552
1.00510172939
1.00000126234
1.00001321381
1.01133515405
1
1
1
1
1
1
1
1.00000000215
1.000066194
1.02424397701
1.3315257928
1.88942509792
1.42589595461
1.43314345826
1.59410170223
1.59389922339
1.44336018456
1.38851905139
1.4004619329
1.17013085233
1
1
1
1
1
1.00010793398
1.26945284258
1.40706677929
1.45389551715
1.5481910989
1.801082472
2.90598155556
2.90442180106
1.59450411658
1.59403863044
1.59485341374
1.59403418498
1.59499543668
1.59378606838
1
1
1
1
1
1
1
1.05034333575
1.36521379153
1.42339185665
1.50860227329
1.69579018279
2.41588529569
1.77504882019
1.40825634329
1.5941899953
1.59396430781
1.59504449743
1.43239786888
1
1
1
1
1
1
1
1
1
1
1.00048253694
1.27684778175
1.4035506727
1.43693692837
1.37295255117
1
1.43166711806
1.57873374639
1.02492223513
1
1
1
1
1
1
1
1
1
1
1
1
1.00000000064
1.00848784956
1.08412238775
1.03125066252
1
1
1
1
1
1
1
1
1
1
1
1
1
1
1
1
1
1
1.0000000001
1.00000491276
1
1
1
1
1
1
1
1
1
1
1
1
1
1
1
1
1
1
1
1.00000000001
1
1
1
1
1
1
1
1
1
1
1
1
1
1
1
1
1
1
1
1.00003185611
1
1
1
1
1
1
1
1
1
1
1
1
1
1
1
1
1
1
1.00000060412
1.17358879438
1
1
1
1
1
1
1
1
1
1
1
1
1
1
1
1.00000015018
1.00009665071
1.00251883242
1.07577690479
1.36836522495
1
1
1
1
1
1
1
1
1
1
1
1
1
1.00000000006
1.00000004812
1.00027896375
1.0196017872
1.0663225052
1.20119394699
1.36843674492
1
1
1
1
1
1
1
1
1
1
1
1
1
1
1.00000000156
1.00010031925
1.01642851329
1.06119714812
1.17630886561
1.36852291815
1
1
1
1
1
1
1
1
1
1
1
1
1
1
1
1.00000367831
1.0071682941
1.05124706592
1.14916154683
1.36861885828
1
1
1
1
1
1
1
1
1
1
1
1
1
1
1
1.00000927812
1.01450291212
1.09306629457
1.18534618351
1.36871327698
1
1
1
1
1
1
1
1
1
1
1
1
1
1
1.00000000044
1.00050518554
1.08001939419
1.25152579285
1.32142954607
1.36879280725
1
1
1
1
1
1
1
1
1
1
1
1
1
1
1.00000193354
1.03020684673
1.28359535874
1.38812163888
1.41571995427
1.39801282151
1
1
1
1
1
1
1
1
1
1
1
1
1
1
1.00017217964
1.17115469557
1.3991740736
1.43068035771
1.62041549119
1.52834730196
1
1
1
1
1
1
1
1
1
1
1
1
1
1
1.00000554592
1.13908657339
1.412399882
1.55669226151
1.8201131004
3.28849143181
1
1
1
1
1
1
1
1
1
1
1
1
1
1
1
1.00000001146
1.27746102409
1.59232230408
3.42908749995
3.69889983252
1
1
1
1
1
1
1
1
1
1
1
1
1
1
1
1
1
1.14040643005
2.90751144317
3.69877750896
1
1
1
1
1
1
1
1
1
1
1
1
1
1
1
1
1
1
1
1.62182687087
1
1
1
1
1
1
1
1
1
1
1
1
1
1
1
1
1
1
1
1
1
1
1
1
1
1
1.00000058495
1.00000063128
1.00000000013
1
1
1
1
1
1
1
1
1
1
1
1
1
1
1
1
1.0000002412
1.0000006279
1
1
1
1
1
1
1
1
1
1
1
1
1
1
1
1
1
1
1
1
1
1
1
1
1
1
1
1
1
1
1
1
1
1
1
1
1
1
1
1
1
1
1
1
1
1
1
1
1
1
1
1
1
1
1
1
1
1
1
1.00000000001
1
1
1
1
1
1
1
1
1
1
1
1
1
1
1
1
1
1
1
1.00000000001
1
1
1
1
1
1
1
1
1
1
1
1
1
1
1
1
1
1
1
1
1
1
1
1
1
1
1
1
1
1
1
1
1
1
1
1
1
1
1
1
1
1
1
1
1
1
1
1
1
1
1
1
1
1.0000009443
1.00000001934
1
1
1
1
1
1
1
1
1
1
1
1
1
1
1
1
1
1
1.37654136914
1.45039200237
1.43394920217
1.40425726213
1.39055533749
1
1
1
1
1
1
1
1
1
1
1
1
1
1
1
1.34570708
1.5619489726
1.56160600593
1.56222364719
1.41056647217
1
1
1
1
1
1
1
1
1
1
1
1
1
1
1
1
1.35763836823
1.40398376552
1.26627563262
1
1
1
1
1
1
1
1
1
1
1
1
1
1
1
1
)
;

boundaryField
{
    emptyPatch
    {
        type            empty;
    }
    minY
    {
        type            calculated;
        value           nonuniform List<scalar> 0();
    }
    maxY
    {
        type            calculated;
        value           nonuniform List<scalar> 
20
(
1
1.35763857925
1.40398399484
1.26627572432
1
1
1
1
1
1
1
1
1
1
1
1
1
1
1
1
)
;
    }
    maxX
    {
        type            calculated;
        value           nonuniform List<scalar> 
37
(
1
1
1
1.42626472081
2.90508547003
1.77557252848
1.37351707303
1.03131885743
1.00000492645
1.00000000001
1.00003196291
1.17410410885
1.36933464512
1.36938735539
1.36944003286
1.36949231736
1.36954203116
1.36958471352
1.39877180204
1.52899538439
3.2895251363
3.70006698168
3.70007166784
1.62233490528
1
1
1
1
1
1
1
1
1
1
1
1
1
)
;
    }
    water_to_heater
    {
        type            calculated;
        value           nonuniform List<scalar> 0();
    }
    procBoundary2to1
    {
        type            processor;
        value           nonuniform List<scalar> 
20
(
1
1
1
1.0178615974
1.12154181612
1.12144736102
1.00001553737
1
1
1
1
1
1
1
1
1
1
1
1
1
)
;
    }
    procBoundary2to3
    {
        type            processor;
        value           nonuniform List<scalar> 
39
(
1
1
1
1
1.19115064242
1.59418578065
1
1
1
1
1
1
1
1
1
1
1
1
1
1
1.00000028967
1
1
1
1
1
1
1
1
1
1
1
1
1
1
1
1
1
1
)
;
    }
}


// ************************************************************************* //
