/*--------------------------------*- C++ -*----------------------------------*\
| =========                 |                                                 |
| \\      /  F ield         | OpenFOAM: The Open Source CFD Toolbox           |
|  \\    /   O peration     | Version:  2312                                  |
|   \\  /    A nd           | Website:  www.openfoam.com                      |
|    \\/     M anipulation  |                                                 |
\*---------------------------------------------------------------------------*/
FoamFile
{
    version     2.0;
    format      ascii;
    arch        "LSB;label=32;scalar=64";
    class       volScalarField;
    location    "0.94/water";
    object      alpha.gas_0;
}
// * * * * * * * * * * * * * * * * * * * * * * * * * * * * * * * * * * * * * //

dimensions      [0 0 0 0 0 0 0];

internalField   nonuniform List<scalar> 
1503
(
0.167558710084
0.100988778951
0.0284833161092
0.00718876639038
0.00138988005431
0.000225797806828
3.01936491238e-05
2.43443092751e-06
5.05600118419e-08
4.10391366528e-10
1.81596133397e-12
6.54701462819e-15
1e-15
1e-15
1e-15
1e-15
1e-15
1e-15
1e-15
1e-15
0.607329007735
0.251200494071
0.103809772133
0.0354141300442
0.0114235709809
0.00315887248891
0.000744277263817
0.000137397951766
1.43775420813e-05
3.09800737394e-07
8.267301211e-10
1.18095570466e-12
2.18875433524e-15
1e-15
1e-15
1e-15
1e-15
1e-15
1e-15
1e-15
0.613295062352
0.336819834769
0.164333794086
0.069764155662
0.027133516081
0.00931074994416
0.00271569440305
0.000637788162491
9.8131650262e-05
5.36034823666e-06
1.87911307077e-08
2.18366921675e-11
2.33291633128e-14
1e-15
1e-15
1e-15
1e-15
1e-15
1e-15
1e-15
0.613294019074
0.417619238405
0.241421349285
0.122055865712
0.0547608607157
0.0213755709619
0.0070680004545
0.00190095519213
0.000364594685157
3.45114687924e-05
4.90984331228e-07
5.11415378587e-10
3.67108944861e-13
1.1875270639e-15
1e-15
1e-15
1e-15
1e-15
1e-15
1e-15
0.600122433831
0.467514580216
0.322139335401
0.194675407986
0.102537433385
0.0458075741672
0.0168966233196
0.00496916506573
0.00107685249698
0.000136312953721
5.20120975321e-06
8.1944142203e-09
5.38851957498e-12
3.85821520885e-15
1e-15
1e-15
1e-15
1e-15
1e-15
1e-15
0.576115172907
0.485724302929
0.382889394023
0.271735176608
0.169529316807
0.0896910717818
0.0385833996703
0.0128110269078
0.00306456175892
0.000457304686648
2.8946988956e-05
1.89575592299e-07
1.07887291992e-10
4.44966037492e-14
1.00993535965e-15
1e-15
1e-15
1e-15
1e-15
1e-15
0.553888382031
0.483217292157
0.414616912754
0.33228283598
0.239982486538
0.149919400757
0.0773185390176
0.0307779321597
0.0086208877677
0.00149513284709
0.000124856584918
2.41863754663e-06
1.39499158595e-09
4.34880155814e-13
1.10799070756e-15
1.00048185302e-15
1.00000262804e-15
1e-15
1e-15
1e-15
0.541246820982
0.475798797139
0.425065414988
0.368513824966
0.295372593584
0.21053243608
0.128017032448
0.0622545498397
0.0217155046721
0.00465234682548
0.000491271818826
1.66764138742e-05
2.14078558497e-08
4.26654629645e-12
1.65230850828e-15
1.00251687334e-15
1.00174869905e-15
1.00106951e-15
1.00047765121e-15
1e-15
0.526710420961
0.467254887113
0.434604191029
0.394460671442
0.3357880456
0.260614577966
0.17940173138
0.104195641683
0.0458269837731
0.0127709359337
0.00178197423275
8.98784691139e-05
6.64804414461e-07
2.88015850157e-11
3.58399941818e-15
1.00282767972e-15
1.00186308583e-15
1.00138285294e-15
1.00093921029e-15
1.00023650388e-15
0.513681061182
0.467481945412
0.448937220562
0.419016406639
0.368031073884
0.300066011646
0.225341746833
0.150340120995
0.0812514863292
0.0297498187986
0.00573848426328
0.000434841806541
8.26052395099e-06
2.6146447213e-10
3.20608737409e-14
1.00651055791e-15
1.00056065641e-15
1.00049840553e-15
1.00042857927e-15
1.00031585582e-15
0.521221954999
0.483663207729
0.47028496172
0.44420014207
0.396959195284
0.334709995197
0.26712537877
0.197102952679
0.125664478215
0.0592854891744
0.0161632889542
0.00191728971134
7.1699878854e-05
3.0824061234e-07
2.68773957633e-12
1.31450497606e-15
1.00038070818e-15
1.00035605002e-15
1.00033138519e-15
1.00030981845e-15
0.572331658206
0.517867788011
0.492048510913
0.466588365111
0.425540941512
0.370006310886
0.308116699028
0.243740710937
0.175478424896
0.10284330693
0.0394521662646
0.00744835857473
0.000516136865672
8.67320696057e-06
9.35895265712e-10
7.35550938473e-14
1.00620239226e-15
1.00038025178e-15
1.00035587169e-15
1.0003313158e-15
0.596364543689
0.534568506984
0.5024849946
0.480025642656
0.447704174358
0.401155976745
0.345641300063
0.286222159057
0.223983279863
0.155192667622
0.0805167109291
0.0237433729024
0.00290431864617
0.000105013128101
5.23385837981e-07
1.5090004123e-11
4.26971159029e-15
1.00037829239e-15
1.00037653005e-15
1.00035430732e-15
0.600063339476
0.535415314406
0.510203657313
0.48717294898
0.456193762191
0.414589131403
0.367696042946
0.316302566757
0.263455367523
0.205984181728
0.134691310371
0.0580385256646
0.0117657922664
0.000795549519052
1.21684919476e-05
2.8392878932e-09
5.40384676212e-13
1.17728424391e-15
1.00036148084e-15
1.00036576651e-15
0.596579015665
0.533315874067
0.514992821413
0.490668261605
0.456619505377
0.413923012033
0.368847077894
0.328640320288
0.288715669126
0.246449926589
0.188932948767
0.107437080467
0.0330995401554
0.00379417464516
0.000111738153797
4.33407347705e-07
2.92263094777e-11
1.38261649724e-14
1.00411430318e-15
1.00035600984e-15
0.60044571876
0.526428385022
0.514028078779
0.489807950892
0.4535529511
0.408333329214
0.364056389771
0.327125903127
0.299913340226
0.27333526858
0.231440092264
0.157065484409
0.0659201713376
0.0117098116131
0.000583194937777
5.52964556925e-06
7.49742169986e-10
3.18963222775e-13
1.14439321067e-15
1.00864088672e-15
0.596579015665
0.514934247718
0.505559589919
0.481023666455
0.441524641984
0.393548004577
0.350522340816
0.320406267474
0.303509040582
0.288622364148
0.258059559479
0.193391136957
0.0995425481538
0.0247146117921
0.00187825030595
2.94246425384e-05
3.3784546592e-08
5.45412693625e-12
2.86305474304e-15
1.01623604302e-15
0.599917435864
0.500044307806
0.484842013831
0.457120543444
0.416000671894
0.368333562216
0.329897383797
0.310394964881
0.304341618799
0.29704037469
0.273105113232
0.215697066147
0.125341896711
0.0390789228299
0.00409407806338
9.17227337013e-05
2.56791787509e-07
7.11225999307e-11
1.80112795929e-14
1.02411677713e-15
0.596381620116
0.485467178928
0.461555284567
0.426228524321
0.383956271973
0.340791937782
0.312386917582
0.30607070201
0.305907372566
0.303742036718
0.284388422749
0.232287812222
0.145069393281
0.0525953547819
0.00702646407872
0.000211878387355
9.89812257922e-07
3.96605412164e-10
8.41930648364e-14
1.02812529523e-15
0.596839669378
0.474560278032
0.446225804693
0.407309669927
0.365594383771
0.328498380971
0.308992855416
0.307319437874
0.31146512672
0.313141087061
0.298935733292
0.252571061097
0.167792511807
0.0689515489666
0.0115283995549
0.000481842237876
3.58141509633e-06
7.58463485673e-10
6.54481176337e-14
1.01592567275e-15
0.593587757318
0.465502001288
0.440296691337
0.405753946935
0.365498596785
0.330109256439
0.313538187137
0.316332362699
0.32496805375
0.330036811224
0.321120815332
0.284140409406
0.206166157351
0.0990048426919
0.0216807824255
0.00137673773373
1.76658809427e-05
3.70441610347e-09
8.08425630445e-14
1.03075578485e-15
0.573196163145
0.459624397289
0.442264279325
0.414228064137
0.377233983108
0.344453551537
0.331852127229
0.336837497774
0.34492209734
0.346798831257
0.340913566916
0.323294633731
0.268991198348
0.160232953978
0.0488297565841
0.00497160531425
0.000117528490164
3.55362848651e-07
3.99728775396e-12
2.27362117149e-15
0.551846836085
0.469018095859
0.464656094429
0.448836424129
0.41411465296
0.379240141262
0.363757022396
0.361594634376
0.358867104583
0.348762158753
0.342165820814
0.341619236957
0.32878721565
0.247270312259
0.109139654955
0.0184282598803
0.000816337616081
7.20489496452e-06
1.1520121353e-09
3.18154887257e-14
0.551659888611
0.512860559921
0.523584638929
0.513083977906
0.472663615784
0.426373065853
0.397727846868
0.380291850373
0.360786451783
0.343822216257
0.33720265003
0.340730962101
0.340589254953
0.314330832574
0.196617329151
0.0547074611149
0.00446476112943
8.29171378131e-05
1.56758334513e-07
6.50550637218e-13
0.577432732957
0.577074209556
0.590142903153
0.57779806897
0.532095615536
0.47306876541
0.427029091849
0.392592282979
0.358784682494
0.329782289551
0.320802316486
0.33128754173
0.340213720976
0.338585642138
0.266016296794
0.113255082999
0.0165911280499
0.000609435234724
4.2239646491e-06
7.22726599837e-11
0.624880617079
0.617152236704
0.623585451383
0.614803170315
0.576288658484
0.512373956115
0.451372047912
0.400552406409
0.353124551943
0.310623189367
0.298955716749
0.312644419651
0.33376677408
0.338268885402
0.297541684284
0.169341347402
0.0405323620016
0.00267555997114
3.66299527909e-05
1.00856701317e-08
0.651827913554
0.626876966079
0.628014819415
0.626475315987
0.599330586487
0.538075692828
0.468080045658
0.403498392262
0.344266784781
0.296564213808
0.293676639521
0.295671123774
0.316409866609
0.330562904905
0.30533674975
0.207180755418
0.070818190839
0.00754857442961
0.000172771705793
4.73298859291e-07
0.651831871003
0.628299064961
0.628114512386
0.627947315318
0.605419349759
0.547552087428
0.473735331763
0.401642213436
0.332248766993
0.293709802348
0.29374530654
0.293507177408
0.296821126497
0.313910017708
0.303832813056
0.233276074816
0.101318300605
0.0155511500154
0.000542928928357
3.29167709815e-06
0.65558966163
0.627644289613
0.628003285139
0.627738575551
0.606292647671
0.548369662021
0.472580274537
0.392734496347
0.316547889163
0.29374530654
0.293286399811
0.29374530654
0.293360262874
0.295447335911
0.302496194639
0.256411211649
0.132231302926
0.0268432480355
0.00135089737963
1.30383938873e-05
0.652084009921
0.624075162337
0.627738575551
0.627605996813
0.604259938393
0.543889086674
0.463413523539
0.375599612397
0.301616863197
0.293450010626
0.29374530654
0.29284743167
0.29374530654
0.293274677438
0.306470578677
0.283040684756
0.167244503884
0.042828796124
0.00302286843749
4.26179496729e-05
0.65714788033
0.616790721731
0.627605996813
0.624854362246
0.594403030682
0.528561522208
0.442553278157
0.352040531204
0.29416505572
0.29374530654
0.292876363713
0.29374530654
0.292526940787
0.29374530654
0.320485900597
0.314112213841
0.207298541543
0.0661308792385
0.006540706769
0.000132699523328
0.652498873473
0.606917014626
0.620813547429
0.612992341844
0.57496374844
0.503192511331
0.413503704189
0.325486463291
0.29374530654
0.293153020965
0.29374530654
0.292327318156
0.29374530654
0.292467341459
0.336810855534
0.339602972191
0.246999493131
0.0973165051556
0.0132755393421
0.000385986180648
0.656950927799
0.593782972195
0.604417982137
0.591846266468
0.54755000797
0.471107501994
0.381081724996
0.302958554199
0.293431625528
0.29374530654
0.292429120577
0.29374530654
0.291874751737
0.29374530654
0.351025099646
0.357531391923
0.279538481694
0.131058785668
0.023803698726
0.000990123245014
0.652290947624
0.578407822967
0.585759667047
0.566208965878
0.514536113897
0.434469582115
0.347505059036
0.293819968202
0.29374530654
0.292717093359
0.29374530654
0.291866264241
0.29374530654
0.30538929065
0.357999673373
0.357685917744
0.300349271425
0.160423089718
0.037295045052
0.00220204728538
0.656487252653
0.562023274334
0.565990762519
0.537450833503
0.477030203887
0.395197505496
0.314781579522
0.29374530654
0.29296208559
0.29374530654
0.292003291473
0.29374530654
0.291727119454
0.330972652037
0.357685917744
0.357916108476
0.310667657974
0.183280500951
0.0529487256985
0.00434240939823
0.652084009921
0.545756802665
0.541960724164
0.503855162977
0.436718091675
0.357569648703
0.295049692832
0.293273683177
0.29374530654
0.29216074932
0.29374530654
0.29172169309
0.29374530654
0.351965831034
0.357995843802
0.357685917744
0.31705067133
0.205079692519
0.0718391575801
0.00785197706888
0.655237259023
0.527182796564
0.510767060242
0.465418641265
0.397823261795
0.327155608263
0.293537298122
0.29374530654
0.292306373016
0.29374530654
0.29172169309
0.29374530654
0.315137057213
0.357766135618
0.357685917744
0.357011065808
0.32592514281
0.233817796672
0.0967368465807
0.0133384486005
0.651570525925
0.503923370589
0.47224743512
0.423948557388
0.364133469527
0.308093435548
0.29374530654
0.292480030144
0.29374530654
0.291727119454
0.29374530654
0.291843287718
0.334994940283
0.352371734798
0.353407276469
0.353930951604
0.342673955799
0.272621416048
0.129477112857
0.0218955314961
1e-15
1e-15
1e-15
1e-15
1e-15
1e-15
1e-15
1e-15
1e-15
1e-15
1e-15
1e-15
1e-15
1e-15
1e-15
1e-15
1e-15
1e-15
1e-15
1e-15
1e-15
1e-15
1e-15
1e-15
1e-15
1e-15
1e-15
1e-15
1e-15
1e-15
1e-15
1e-15
1e-15
1e-15
1e-15
1e-15
1e-15
1e-15
1e-15
1e-15
1e-15
1e-15
1e-15
1e-15
1e-15
1e-15
1e-15
1e-15
1e-15
1e-15
1e-15
1e-15
1e-15
1e-15
1e-15
1e-15
1e-15
1e-15
1e-15
1e-15
1e-15
1e-15
1e-15
1e-15
1e-15
1e-15
1e-15
1e-15
1e-15
1e-15
1e-15
1e-15
1e-15
1e-15
1e-15
1e-15
1e-15
1e-15
1e-15
1e-15
1e-15
1e-15
1e-15
1e-15
1e-15
1e-15
1e-15
1e-15
1e-15
1e-15
1e-15
1e-15
1e-15
1e-15
1e-15
1e-15
1.00189300808e-15
1e-15
1e-15
1e-15
1e-15
1e-15
1e-15
1e-15
1e-15
1e-15
1e-15
1e-15
1e-15
1e-15
1e-15
1e-15
1e-15
1e-15
1e-15
1e-15
1.00398050433e-15
1e-15
1e-15
1.03180135478e-15
1e-15
1e-15
1e-15
1e-15
1e-15
1e-15
1e-15
1e-15
1e-15
1.0000360137e-15
1.00001336917e-15
1e-15
1e-15
1e-15
1.00285499171e-15
1.0073025383e-15
1.00396588064e-15
1e-15
1e-15
1.0788373053e-15
1e-15
1e-15
1.00002372944e-15
1.00000905144e-15
1.00006036054e-15
1.00020181003e-15
1.00042918934e-15
1.00084548222e-15
1.00132199961e-15
1.00162892382e-15
1.00138330501e-15
1.00036020985e-15
1e-15
1e-15
1.00860388906e-15
1.00860879787e-15
1.00171568626e-15
1e-15
1e-15
1.11890692199e-15
1.00004943944e-15
1.00062727297e-15
1.00077095981e-15
1.00091463915e-15
1.00109920195e-15
1.00140854326e-15
1.00190159572e-15
1.00281642352e-15
1.00359954064e-15
1.00378189125e-15
1.0027546322e-15
1.00124578284e-15
1e-15
1.00205738514e-15
1.00907675333e-15
1.0085380197e-15
1e-15
1e-15
1e-15
1.15434561252e-15
1.00026668053e-15
1.00035955744e-15
1.00064103598e-15
1.00091634053e-15
1.00129036333e-15
1.00185513074e-15
1.00286402021e-15
1.00434516887e-15
1.00532178398e-15
1.00544028659e-15
1.00363022469e-15
1.00148210899e-15
1e-15
1.00722623513e-15
1.0090765345e-15
1.00734370846e-15
1e-15
1e-15
1e-15
1.18470462782e-15
1.00028824949e-15
1.00030981845e-15
1.0004242403e-15
1.00090529343e-15
1.00147551996e-15
1.00231963918e-15
1.00387115162e-15
1.00538030092e-15
1.00608492032e-15
1.00600919863e-15
1.00430612049e-15
1.00164380604e-15
1.00031535974e-15
1.00845466848e-15
1.00897055258e-15
1.00555269835e-15
1e-15
1e-15
1e-15
1.21135940559e-15
1.00030981845e-15
1.00033138741e-15
1.0005943026e-15
1.00127878745e-15
1.00208850645e-15
1.00320875257e-15
1.0049043879e-15
1.0058969672e-15
1.0062467948e-15
1.00598052263e-15
1.00455163236e-15
1.00195532406e-15
1.00216321594e-15
1.00866867392e-15
1.00838331986e-15
1.00302475568e-15
1e-15
1.01109221444e-15
1e-15
1.23558323787e-15
1.00033063564e-15
1.00035592383e-15
1.00150281415e-15
1.00231394654e-15
1.00323143579e-15
1.00442875955e-15
1.00571367413e-15
1.00624314105e-15
1.00638153509e-15
1.00599050961e-15
1.00470129527e-15
1.00255952594e-15
1.0061608551e-15
1.00867034115e-15
1.00733780277e-15
1e-15
1e-15
1.01968865205e-15
1e-15
1.25817706463e-15
1.0003500473e-15
1.00201631107e-15
1.00331192871e-15
1.00398508092e-15
1.00479643032e-15
1.00576937518e-15
1.00646733436e-15
1.00672743164e-15
1.00667472532e-15
1.00615942482e-15
1.00497143538e-15
1.00338998178e-15
1.00814656868e-15
1.00866150424e-15
1.00628596395e-15
1e-15
1e-15
1.02046614819e-15
1e-15
1.2787606433e-15
1.0019513216e-15
1.00563142086e-15
1.00593791552e-15
1.00621281888e-15
1.00667577773e-15
1.00717699655e-15
1.00736491048e-15
1.00725436593e-15
1.00718448944e-15
1.00656323752e-15
1.00547738101e-15
1.00445625547e-15
1.00861455909e-15
1.00847165017e-15
1.00513179069e-15
1e-15
1e-15
1.02060479881e-15
1e-15
1.29719020899e-15
1.00905460525e-15
1.00945928419e-15
1.00890718091e-15
1.00855116421e-15
1.00843416982e-15
1.00830907662e-15
1.00821907072e-15
1.01135147919e-15
1.00762306062e-15
1.00703596125e-15
1.00616115691e-15
1.00576749363e-15
1.00878230385e-15
1.00806210142e-15
1.00315390849e-15
1e-15
1e-15
1.02068979233e-15
1e-15
1.31419547638e-15
1.01368185637e-15
1.01230269034e-15
1.01096752792e-15
1.00998522184e-15
1.00934238973e-15
1.00918212648e-15
1.01561393874e-15
1.02263484207e-15
1.00791151941e-15
1.00726761837e-15
1.00665414914e-15
1.00719742531e-15
1.00878352473e-15
1.00732608018e-15
1e-15
1e-15
1e-15
1.02069221826e-15
1e-15
1.33072087066e-15
1.01504917995e-15
1.01303674605e-15
1.01138124221e-15
1.01014282575e-15
1.00932535881e-15
1.00953995151e-15
1.02615072452e-15
1.02739606667e-15
1.00915933225e-15
1.00720256321e-15
1.00675484901e-15
1.00838928031e-15
1.00878184748e-15
1.00637764103e-15
1e-15
1e-15
1e-15
1.02062956127e-15
1e-15
1.34723053542e-15
1.01439729451e-15
1.01223092329e-15
1.01053078617e-15
1.0091756184e-15
1.00818020264e-15
1.00848648814e-15
1.02819575172e-15
1.02819111519e-15
1.01907106813e-15
1.00643458771e-15
1.00652666861e-15
1.00848368142e-15
1.0084873341e-15
1.00459799726e-15
1e-15
1e-15
1.00002779405e-15
1.02045759537e-15
1e-15
1.36370831704e-15
1.0108621627e-15
1.00890854476e-15
1.0075004505e-15
1.00628381598e-15
1.00520059401e-15
1.0126708559e-15
1.02815070125e-15
1.02808813004e-15
1.02630138028e-15
1.0056742876e-15
1.00574538696e-15
1.00829218368e-15
1.00777639431e-15
1.00084198878e-15
1e-15
1e-15
1e-15
1.02017343845e-15
1e-15
1.38006213281e-15
1.00461874962e-15
1.0036299248e-15
1.00293618101e-15
1.0022836133e-15
1.00411706571e-15
1.02342699129e-15
1.02775163173e-15
1.02771358366e-15
1.02643954567e-15
1.00529222311e-15
1.0051727327e-15
1.00750568567e-15
1.00640838789e-15
1e-15
1e-15
1e-15
1e-15
1.01979168498e-15
1e-15
1.39634231796e-15
1.00003779385e-15
1.00000682333e-15
1e-15
1e-15
1.00311923089e-15
1.02670388645e-15
1.02710295446e-15
1.02719104571e-15
1.026777915e-15
1.0126217129e-15
1.00514563814e-15
1.00680627381e-15
1.0047471176e-15
1e-15
1e-15
1e-15
1e-15
1.01936387065e-15
1e-15
1.41258871339e-15
1e-15
1e-15
1e-15
1e-15
1.00820342605e-15
1.026202288e-15
1.02636241894e-15
1.02659653872e-15
1.02674244106e-15
1.023105018e-15
1.00514425287e-15
1.00700711178e-15
1.00319831396e-15
1e-15
1e-15
1e-15
1e-15
1.0189458771e-15
1e-15
1.42865588123e-15
1.00024086735e-15
1e-15
1e-15
1e-15
1.01990225851e-15
1.02534172806e-15
1.02569122695e-15
1.02603856641e-15
1.02634523375e-15
1.02505307338e-15
1.00652991206e-15
1.00900501671e-15
1.0018379584e-15
1e-15
1e-15
1e-15
1e-15
1.01879392191e-15
1e-15
1.4442459896e-15
1.33869520616e-15
1e-15
1e-15
1e-15
1.02372509379e-15
1.02468764023e-15
1.02524269695e-15
1.02567404773e-15
1.02604785376e-15
1.02601984885e-15
1.01719833843e-15
1.01216620585e-15
1.00082895924e-15
1e-15
1e-15
1e-15
1e-15
1.01886562753e-15
1e-15
1.45930343758e-15
2.25249398382e-14
1e-15
1e-15
1.00305084551e-15
1.02376493682e-15
1.0246082869e-15
1.02709936155e-15
1.0275493625e-15
1.02609579914e-15
1.02629296465e-15
1.0250484498e-15
1.01478890929e-15
1.00067481689e-15
1e-15
1e-15
1e-15
1.00198051466e-15
1.01920861513e-15
1e-15
1.47422952046e-15
8.16908238539e-13
1e-15
1e-15
1.01565807319e-15
1.02417168136e-15
1.02879749354e-15
1.02928729094e-15
1.02891444977e-15
1.02892289274e-15
1.02641612821e-15
1.02583453248e-15
1.01556273094e-15
1.00087816982e-15
1e-15
1e-15
1e-15
1.00592733306e-15
1.01994994097e-15
1e-15
1.48968807432e-15
1.89786106277e-11
1e-15
1e-15
1.02266342924e-15
1.02633372374e-15
1.02945863982e-15
1.02891444977e-15
1.02942209865e-15
1.02891444977e-15
1.02708254654e-15
1.02594791798e-15
1.01575684435e-15
1.00105708679e-15
1e-15
1e-15
1e-15
1.00867230753e-15
1.02091653519e-15
1.00213787017e-15
1.50631664464e-15
3.38705107741e-10
1e-15
1e-15
1.02213147182e-15
1.02927482127e-15
1.02891444977e-15
1.02965570183e-15
1.02891444977e-15
1.02926817699e-15
1.02814034997e-15
1.0261618203e-15
1.01573813053e-15
1.00069965103e-15
1e-15
1e-15
1e-15
1.01096426366e-15
1.0219060796e-15
1.01226516342e-15
1.52435674985e-15
1.46890032357e-08
1e-15
1e-15
1.0147925274e-15
1.02891108941e-15
1.02976378364e-15
1.02891444977e-15
1.02953258008e-15
1.02891444977e-15
1.02901490355e-15
1.02652194725e-15
1.01510263375e-15
1.00067790027e-15
1e-15
1e-15
1.00147003584e-15
1.01277972178e-15
1.02292865409e-15
1.01588589819e-15
1.54339190519e-15
1.74366895391e-07
1e-15
1e-15
1.00607646295e-15
1.02949470686e-15
1.02891444977e-15
1.02969123583e-15
1.02891444977e-15
1.02926714444e-15
1.02891444977e-15
1.02700022038e-15
1.01315724232e-15
1.00148099979e-15
1e-15
1e-15
1.00580920568e-15
1.01400478985e-15
1.02395687897e-15
1.01781080628e-15
1.562721954e-15
1.05978569402e-06
1e-15
1e-15
1.00333836566e-15
1.02891444977e-15
1.02977466748e-15
1.02891444977e-15
1.02952367078e-15
1.02891444977e-15
1.02900947154e-15
1.02712981168e-15
1.0100950014e-15
1.00278903509e-15
1.00024992703e-15
1.00336375445e-15
1.00702723021e-15
1.01459522366e-15
1.02497707388e-15
1.01882676028e-15
1.58154438495e-15
4.58390218678e-06
1e-15
1e-15
1.00136499155e-15
1.02950229102e-15
1.02891444977e-15
1.02971384867e-15
1.02891444977e-15
1.02921610774e-15
1.02891444977e-15
1.02568990784e-15
1.00742433387e-15
1.00393449649e-15
1.00415501052e-15
1.00545215585e-15
1.00763396034e-15
1.01453683416e-15
1.02590032077e-15
1.01894751834e-15
1.59949149651e-15
1.60585930701e-05
1e-15
1e-15
1e-15
1.02891444977e-15
1.02976302698e-15
1.02891444977e-15
1.02944352983e-15
1.02891444977e-15
1.02894342344e-15
1.02069915886e-15
1.00588196955e-15
1.0045780084e-15
1.00502377781e-15
1.00598629636e-15
1.00791514391e-15
1.01376333511e-15
1.02660176253e-15
1.01842114341e-15
1.61669240958e-15
4.72040424944e-05
1e-15
1e-15
1e-15
1.02929533771e-15
1.02891444977e-15
1.02955806825e-15
1.02891444977e-15
1.02907129006e-15
1.02881803436e-15
1.0136422967e-15
1.00504157416e-15
1.00468374628e-15
1.00507824988e-15
1.00602441559e-15
1.00786001953e-15
1.01257495241e-15
1.02711147729e-15
1.01714081876e-15
1.63345588812e-15
0.000118584282988
1e-15
1e-15
1e-15
1.02891444977e-15
1.02947578903e-15
1.02891444977e-15
1.0292492024e-15
1.02891444977e-15
1.02435154692e-15
1.0079999506e-15
1.0044033905e-15
1.00436563899e-15
1.00472083645e-15
1.00562257145e-15
1.00738793481e-15
1.01141691681e-15
1.0274514887e-15
1.01567954324e-15
1.64974406504e-15
0.000264525021461
1e-15
1e-15
1e-15
1.02535833958e-15
1.02891444977e-15
1.02923957413e-15
1.02891444977e-15
1.0284780534e-15
1.01500652033e-15
1.00483304321e-15
1.00358317302e-15
1.00354517925e-15
1.00387451459e-15
1.00472559485e-15
1.00646796455e-15
1.01026541638e-15
1.02764210322e-15
1.01557682689e-15
1.66535463861e-15
0.000577676976798
3.60166340759e-08
1e-15
)
;

boundaryField
{
    emptyPatch
    {
        type            empty;
    }
    minY
    {
        type            fixedValue;
        value           uniform 1e-15;
    }
    maxY
    {
        type            inletOutlet;
        phi             phi.gas;
        inletValue      nonuniform List<scalar> 0();
        value           nonuniform List<scalar> 0();
    }
    maxX
    {
        type            zeroGradient;
    }
    water_to_heater
    {
        type            zeroGradient;
    }
    procBoundary2to3
    {
        type            processor;
        value           nonuniform List<scalar> 
41
(
0.652210967569
0.477294133059
0.440370739769
0.393706163129
0.344927578699
0.303583381415
0.293020527781
0.29374530654
0.291957914849
0.301776072432
0.300839400812
0.307229834121
0.322541106845
0.329816150865
0.338124351329
0.353823268316
0.366026793802
0.312099008185
0.169643108283
0.0359597090192
1e-15
1.00663876844e-15
1.02903952497e-15
1.02891444977e-15
1.02899425861e-15
1.02144721956e-15
1.00707420348e-15
1.00304632312e-15
1.00248820339e-15
1.00243715286e-15
1.00274603434e-15
1.00350388106e-15
1.00515342994e-15
1.00887766977e-15
1.02775441765e-15
1.01588307288e-15
1.68034580991e-15
0.00135544829024
1.20132750408e-06
1e-15
1e-15
)
;
    }
}


// ************************************************************************* //
