/*--------------------------------*- C++ -*----------------------------------*\
| =========                 |                                                 |
| \\      /  F ield         | OpenFOAM: The Open Source CFD Toolbox           |
|  \\    /   O peration     | Version:  2312                                  |
|   \\  /    A nd           | Website:  www.openfoam.com                      |
|    \\/     M anipulation  |                                                 |
\*---------------------------------------------------------------------------*/
FoamFile
{
    version     2.0;
    format      ascii;
    arch        "LSB;label=32;scalar=64";
    class       volScalarField;
    location    "0.13/water";
    object      T.gas;
}
// * * * * * * * * * * * * * * * * * * * * * * * * * * * * * * * * * * * * * //

dimensions      [0 0 0 1 0 0 0];

internalField   nonuniform List<scalar> 
750
(
787.987412505
754.423676857
721.312326214
688.973399003
657.667613969
627.552820173
598.6876457
571.092777382
544.786942346
519.805086354
496.205238283
474.055194563
453.418435517
434.356548396
416.928716467
401.185749193
387.162682894
374.875261039
364.30243953
355.411201932
787.360545441
753.623575695
720.32144832
687.761992276
656.216557946
625.902684149
596.93969465
569.352502061
543.111926105
518.184627774
494.577714092
472.327750185
451.489521526
432.138906402
414.371778571
398.291037507
383.995887497
371.585447952
361.180816726
352.790983803
787.969266728
753.734116668
719.826264423
686.613502135
654.397962457
623.419947789
593.831258448
565.674263918
538.87429646
513.417536556
489.367397727
466.772984825
445.620852672
425.946785516
407.859617392
391.47870113
376.920460237
364.288911889
353.845894037
345.887930033
788.027448492
754.082685355
720.545753853
687.705864772
655.793406323
625.001472243
595.425803129
567.031506321
539.868430648
514.051126131
489.672473087
466.803786527
445.493378579
425.736929044
407.526755168
390.920749649
376.015965619
362.871073456
351.68241886
343.225867806
787.680281278
753.901423685
720.542790364
687.910184803
656.247739927
625.731695215
596.447517702
568.423132322
541.687370426
516.267611606
492.216690666
469.605979426
448.49483009
428.921435749
410.878061912
394.365631796
379.436417972
366.127537743
354.571482727
345.482582555
787.465369415
753.670413677
720.260376862
687.542549586
655.775326888
625.166108509
595.848612202
567.89393768
541.341140256
516.216418814
492.553582267
470.402894836
449.814097116
430.818738681
413.418856054
397.59743773
383.338318155
370.640905494
359.579728217
350.567164142
786.02887552
752.35793598
719.025777287
686.318217327
654.472752414
623.686847431
594.105199321
565.828929868
538.936510809
513.485295391
489.529457637
467.158800004
446.516813104
427.770646903
411.044048597
396.363641821
383.575657442
372.492327269
363.012454221
355.040142049
785.65183335
751.286430818
717.10269804
683.396903315
650.452877709
618.50174758
587.717313875
558.229106531
530.131396554
503.494933875
478.385219503
454.889229224
433.147334211
413.377711016
395.875576097
380.92435965
368.648644199
358.986185049
351.610414761
345.953088117
786.401992563
751.596886194
716.988138927
682.847528458
649.433411906
616.976532056
585.667102812
555.656835418
527.063429735
499.980708168
474.490055493
450.669183182
428.59710266
408.356489952
389.925663907
373.030826759
358.184018027
346.45025471
338.147552051
333.20051166
786.081510114
752.201411902
718.574087938
685.505573802
653.242881679
621.992436494
591.910721941
563.088143481
535.58985656
509.471960259
484.780897502
461.556620975
439.823176429
419.580701093
400.817900864
383.619360232
368.218920218
355.061353168
344.73241617
337.775873446
785.807492739
754.067567771
722.787897974
692.075301206
662.076732535
632.952294104
604.823802089
577.809955384
551.990421818
527.440440405
504.200776204
482.306013979
461.764158112
442.577038758
424.739996657
408.256353211
393.134875767
379.486826238
367.578418001
357.871844306
781.170007163
751.252647721
721.511891276
692.165751057
663.43518594
635.503004361
608.514243813
582.585509411
557.812288687
534.280354694
512.106673169
491.42451667
472.354903345
454.968400588
439.212587211
424.97429817
412.083613536
400.309100211
389.378125988
379.082090878
779.587698273
749.586801532
719.552044741
689.601637952
659.888311684
630.570106378
601.781528677
573.604314872
546.027907813
518.916535869
492.187569774
466.430369151
443.217265357
424.475782947
411.496256437
402.854322778
395.867418498
389.060268211
381.910372572
783.685538809
751.30433268
718.932852641
686.698336156
654.758503008
623.294388094
592.504876726
562.60809776
533.820836386
506.298894946
480.021931554
454.71736093
430.097806733
407.072410423
387.502979868
372.963944582
364.248769552
359.487788053
356.063938429
783.16340496
751.222000879
719.306672911
687.555707259
656.127569956
625.176458713
594.843689825
565.268601879
536.593526586
508.947536991
482.41381236
457.081256275
433.308404124
411.860477447
393.38037
378.109537941
366.163829625
357.456739332
351.522377806
780.690298287
750.958491005
721.304605634
691.864225074
662.811712623
634.32407722
606.554605478
579.62822611
553.648807634
528.719658921
504.963742519
482.50247331
461.400927038
441.672021974
423.3140493
406.349855832
390.896649426
377.344346652
366.39412203
778.67874651
750.035707495
721.450890449
693.058945596
665.046860213
637.595894072
610.850531605
584.914584449
559.8557128
535.712396483
512.504510299
490.261777477
469.070580293
449.083583126
430.473342365
413.449503647
398.314060839
385.344834686
374.569261105
769.484612483
742.160083659
714.698676131
686.998902499
658.987112421
630.638327945
602.035627065
573.473659258
545.547201534
518.960110972
494.072206924
470.756672272
448.794566071
428.484939008
410.833510241
397.041693402
387.024228494
379.325514652
372.551237591
773.951700784
746.09802455
718.074367858
689.818365109
661.319568959
632.642976786
603.9380783
575.461511541
547.592170955
520.795841791
495.479770303
471.738371659
449.068449457
426.437579503
404.155779716
384.823616976
371.897953272
364.879200456
360.195622732
768.636392878
740.770702889
712.669048831
684.225723305
655.433014952
626.502538205
597.947991803
570.356329863
544.071178573
519.272032706
495.980180883
474.019493131
453.207226514
433.448097334
414.786428185
397.522304453
382.152994197
369.324302278
359.675896848
767.238982309
739.071091689
710.754493544
682.408586929
654.301911554
626.72402007
600.005117301
574.681303437
550.498818702
527.209034117
504.756533305
483.238625238
462.645773574
443.063834896
424.554360207
407.281321182
391.437595317
377.317685213
365.555602382
764.608308208
735.612736059
706.310650534
676.782747171
647.318965214
618.366971323
590.320780608
563.43711662
537.896167269
513.802984625
491.183050894
470.045378432
450.443091065
432.475183689
416.187715412
401.545953044
388.501185334
377.007459568
367.13418166
755.429155476
726.854843007
697.76261369
667.972175896
637.702415958
607.404173838
577.663577509
549.105897384
522.218403278
497.116498326
473.379775222
450.235951859
427.972328073
409.802005078
397.847158637
389.465525198
382.176563253
375.181235137
368.379063621
361.780954645
752.757266891
724.248423182
695.350192256
665.892619224
636.196393704
606.7600202
578.018524347
550.099476411
522.812139427
496.279529704
471.335148154
448.360936022
427.053345664
407.097458998
389.324252779
377.384596362
370.295473069
364.93376543
359.982301523
355.040928669
757.254489983
727.361098685
696.836758429
665.457620738
633.342846791
601.119529934
569.725710906
539.783847032
511.651943235
485.6583186
461.941196966
440.447955756
421.018283758
403.467247019
387.811770899
374.35339804
363.418042539
355.10375052
348.980451839
344.374819153
756.749586742
725.713559852
694.115444308
662.322068449
631.037696167
600.777783114
571.898536704
544.671072557
519.160642879
495.341279083
473.279495802
453.182042898
435.211882781
419.217743201
404.681950452
391.062161929
378.322870269
366.864117302
357.211129915
349.644696642
749.958253106
717.48126534
684.490648106
651.292675196
618.822876564
587.837137438
558.904829027
532.390417981
508.201802174
485.980146587
465.473153211
446.715611393
429.929102084
415.389502139
403.06101257
392.120252244
381.725129471
371.851431446
362.740792055
354.68852688
733.066214865
701.703865986
671.452334381
641.558388986
612.219337907
583.432176283
555.481620432
528.821030312
503.55536484
478.913033777
454.060903637
432.118317837
417.85346128
407.99599414
398.873305229
389.819519201
380.953993688
372.360427597
364.207428575
356.631076968
730.342384236
699.253697754
669.494555456
640.241760527
611.829264303
584.40291308
558.114574032
532.735411526
507.982692962
484.090381051
461.324457048
439.190611355
417.189037524
398.271138635
386.21190761
378.164672837
371.157041639
364.402331363
357.85908849
351.590200805
742.358896258
708.810243552
675.913691499
643.179421821
610.381079994
577.548877911
545.346565303
514.548599827
486.054464394
461.053304719
439.868098663
421.67316498
405.4646894
390.891970101
378.161289733
367.462563345
358.719604183
351.492179873
345.368945597
340.164005711
741.668866389
706.539067454
671.853495308
637.70260506
604.614414695
573.02919665
543.573643693
516.842939766
493.218719106
472.856402387
455.40605354
439.803168598
424.963022599
410.553508561
396.658885001
383.449684937
371.331974391
360.629121257
351.518734822
344.10563017
736.698101699
701.099617448
666.040819905
631.138985604
597.121756275
564.769310825
535.253556494
509.374738383
486.861642788
467.032086385
449.679406946
434.868234075
421.813400895
409.356256459
397.276597387
385.683053919
374.769392029
364.729544894
355.795735
348.196522444
721.011607847
690.133095359
660.96690661
632.077638692
603.880728144
576.111701699
549.092253014
523.275280979
498.331096027
472.717721657
446.191215166
426.459882981
414.31027555
404.143747867
394.197799937
384.510081894
375.174504064
366.379032921
358.277659605
351.086387567
721.328009394
691.070896452
662.309138138
633.885243778
606.392431379
579.915909749
554.763535191
530.802891316
507.582713342
484.690086114
462.187831878
439.651651992
416.28169952
396.455231938
384.461868663
376.116121429
368.483556479
361.18461454
354.336156558
348.041337836
735.593118968
701.096443463
667.476630998
634.232563437
601.401515888
568.635750979
535.776597109
503.420986057
473.678675302
449.094640224
429.444249937
412.552307064
397.145365413
383.177954731
371.051249465
361.050202543
352.917515419
346.175771948
340.451589237
335.588942873
734.858728802
698.650681602
662.813519885
627.211546868
592.543289989
559.249095044
528.471281674
501.346739732
478.077570788
458.058544964
440.550785668
424.932645077
410.765967323
397.635776109
385.118655807
373.251253038
362.493643022
353.123935378
345.200616648
338.81019075
731.728078617
696.319673917
662.138944854
627.999454577
594.196851267
561.151337642
529.709576885
501.011959057
476.259062639
455.616307799
438.472951616
424.215649071
412.34325616
402.052602264
392.60450729
383.542469785
374.702408103
366.218012655
358.213467918
351.004203751
716.122567099
685.879043483
657.63879919
629.64028688
602.462956016
576.249741533
551.64091243
528.262434987
503.484714101
473.077252701
445.662215067
432.019911474
423.76745891
415.75238642
407.209623533
398.243015643
389.064073601
379.91802619
371.07819376
362.817390892
)
;

boundaryField
{
    emptyPatch
    {
        type            empty;
    }
    minY
    {
        type            fixedValue;
        value           nonuniform List<scalar> 0();
    }
    maxY
    {
        type            inletOutlet;
        inletValue      uniform 373;
        value           nonuniform List<scalar> 
20
(
716.12255061
685.87903391
657.638793668
629.640283828
602.46295438
576.24974069
551.640912008
528.262434776
503.484713986
473.077252628
445.662215033
432.019911466
423.767458908
415.75238642
407.209623533
398.243015643
389.064073601
379.91802619
371.07819376
362.817390892
)
;
    }
    maxX
    {
        type            fixedValue;
        value           nonuniform List<scalar> 0();
    }
    water_to_heater
    {
        type            copiedFixedValue;
        sourceFieldName T.liquid;
        value           nonuniform List<scalar> 
61
(
798.122598551
798.112440272
798.073991968
798.051169848
798.095411825
798.093103637
798.071422012
797.97356678
797.96033466
797.966861983
797.877419978
797.926337257
797.908944872
798.017955059
797.991806339
797.945637037
797.914067646
797.850172528
797.612053621
797.538479873
797.476416992
797.60902295
797.581923108
797.48837097
797.363970834
797.36117687
797.276876764
797.3172279
797.05409357
797.18038976
797.054382991
797.118286691
797.091720868
797.163780734
797.120146175
797.050324755
796.951717004
796.865710393
796.88841535
796.9638018
796.958115153
797.074587785
797.032992967
797.098984458
797.137755723
797.173505726
797.121578194
797.128254225
797.122667013
797.166688883
797.179148674
797.258569906
797.326734015
797.370285128
797.308108572
797.306591836
797.301611002
797.305313639
797.316099722
796.899563979
796.963028069
)
;
    }
    procBoundary3to0
    {
        type            processor;
        value           nonuniform List<scalar> 
20
(
788.650139433
755.23555971
722.255620506
690.054549015
658.819652131
628.561059178
599.320125572
571.223262526
544.403286426
518.981345786
495.057773955
472.711933829
452.003231898
432.974386316
415.650468713
400.039533467
386.135294296
373.920156571
363.357870966
354.419296625
)
;
    }
    procBoundary3to1
    {
        type            processor;
        value           uniform 317.854822822;
    }
    procBoundary3to2
    {
        type            processor;
        value           nonuniform List<scalar> 
39
(
318.463701237
316.737671923
314.417998272
313.780939311
315.494749929
319.061227097
320.200222414
317.972747342
316.914627533
319.877276105
374.379979275
327.91351422
374.379979275
352.493969272
347.212501919
358.302696202
365.914501339
366.003432838
355.829273606
353.063458775
356.843420845
359.119888119
359.119888119
327.615970616
327.098665587
323.30303237
319.801373679
318.754687246
319.845220063
319.450991254
315.127352633
313.482111042
314.847963108
317.448482425
317.13138588
312.05735126
311.003336956
315.479391392
320.158631293
)
;
    }
}


// ************************************************************************* //
