/*--------------------------------*- C++ -*----------------------------------*\
| =========                 |                                                 |
| \\      /  F ield         | OpenFOAM: The Open Source CFD Toolbox           |
|  \\    /   O peration     | Version:  2312                                  |
|   \\  /    A nd           | Website:  www.openfoam.com                      |
|    \\/     M anipulation  |                                                 |
\*---------------------------------------------------------------------------*/
FoamFile
{
    version     2.0;
    format      ascii;
    arch        "LSB;label=32;scalar=64";
    class       volScalarField;
    location    "0.485/water";
    object      nut.gas;
}
// * * * * * * * * * * * * * * * * * * * * * * * * * * * * * * * * * * * * * //

dimensions      [0 2 -1 0 0 0 0];

internalField   nonuniform List<scalar> 
1497
(
3.19200600314e-06
2.71902736815e-06
2.24494511413e-06
1.81906305399e-06
1.45826048759e-06
1.15520927894e-06
8.76835597601e-07
5.93301136154e-07
3.2921110134e-07
1.51139773257e-07
6.84184262067e-08
3.86008088745e-08
2.99760271266e-08
5.05670587474e-06
4.98808098358e-06
4.55192889495e-06
4.17562345175e-06
3.95518387344e-06
3.77781213657e-06
3.5223914693e-06
3.15249494295e-06
2.70776067454e-06
2.2538697926e-06
1.84301976221e-06
1.49481908347e-06
1.20234837277e-06
9.31700478819e-07
6.48431638773e-07
3.72727067933e-07
1.75794817364e-07
7.90256924682e-08
4.2637845809e-08
3.13021637354e-08
5.12511042855e-06
4.98509209126e-06
4.36868002731e-06
3.91917121292e-06
3.70366939129e-06
3.55579517921e-06
3.3372968807e-06
3.00688644246e-06
2.6026084366e-06
2.18871747373e-06
1.81188135291e-06
1.49187157996e-06
1.22047019589e-06
9.62161839401e-07
6.81193137298e-07
3.99343438838e-07
1.92304149292e-07
8.73590636155e-08
4.6541784602e-08
3.30235219515e-08
5.33351813878e-06
5.00895221352e-06
4.15190525294e-06
3.61455575043e-06
3.39574040162e-06
3.26030478078e-06
3.06635224811e-06
2.77730261553e-06
2.4285742345e-06
2.07131577809e-06
1.74501675321e-06
1.46595881819e-06
1.22239763065e-06
9.77035157395e-07
6.97241488061e-07
4.12713712853e-07
2.02824389565e-07
9.47274841596e-08
5.11369051245e-08
3.56002098052e-08
5.59093651153e-06
5.09498405981e-06
4.01469497693e-06
3.30833436096e-06
3.04546773645e-06
2.9094918127e-06
2.74097582792e-06
2.5025616374e-06
2.22152162206e-06
1.93417771138e-06
1.67044043316e-06
1.43942769814e-06
1.2242264039e-06
9.86790909868e-07
7.04189228919e-07
4.19619306889e-07
2.12305565535e-07
1.03961697187e-07
5.78640074253e-08
3.97636141333e-08
5.85236155824e-06
5.13353221264e-06
4.00172687451e-06
3.11303597045e-06
2.70629671978e-06
2.54200899417e-06
2.40812594443e-06
2.23464711404e-06
2.03044319115e-06
1.82017982932e-06
1.6224757962e-06
1.43696292528e-06
1.24116052172e-06
1.0001363648e-06
7.10549810978e-07
4.28935927149e-07
2.27241100808e-07
1.1867693252e-07
6.86424922876e-08
4.66729873666e-08
5.93511362111e-06
5.04895372708e-06
3.93862276208e-06
3.02525446042e-06
2.51121836907e-06
2.27399441319e-06
2.14738501337e-06
2.03303637588e-06
1.90594097552e-06
1.7707551488e-06
1.6310804541e-06
1.47613439276e-06
1.27952528357e-06
1.02226633168e-06
7.2618611604e-07
4.50603190071e-07
2.54291122124e-07
1.42881442431e-07
8.62377645511e-08
5.80539163244e-08
5.70452141599e-06
4.76592131215e-06
3.7616535141e-06
2.94988231098e-06
2.43866790084e-06
2.16068062185e-06
2.02393081091e-06
1.94949278908e-06
1.88726122425e-06
1.81273472967e-06
1.7087264985e-06
1.55464014362e-06
1.33526002038e-06
1.05969425671e-06
7.62442357492e-07
4.93660540011e-07
2.99702144167e-07
1.81868723697e-07
1.14420013341e-07
7.58538799801e-08
5.30481607007e-06
4.44006250911e-06
3.58865069054e-06
2.91265780766e-06
2.4615913023e-06
2.19071387823e-06
2.05509601865e-06
2.00656783101e-06
1.98660659301e-06
1.94207607454e-06
1.8368188712e-06
1.6559983427e-06
1.40952597919e-06
1.12286430724e-06
8.28160727633e-07
5.65034421334e-07
3.7104284639e-07
2.41944891507e-07
1.56917229828e-07
1.02057841293e-07
5.02615951277e-06
4.30851503256e-06
3.5883429437e-06
3.01451086972e-06
2.61120415703e-06
2.35244468337e-06
2.21683151296e-06
2.17561707162e-06
2.16682606256e-06
2.11967649027e-06
1.99090055516e-06
1.77833090966e-06
1.50872819761e-06
1.21352418339e-06
9.25015802084e-07
6.71690392213e-07
4.74513299222e-07
3.27091329051e-07
2.16362906264e-07
1.37932004428e-07
5.0784394651e-06
4.4864954214e-06
3.83059088582e-06
3.2798805026e-06
2.87485105328e-06
2.59768833905e-06
2.43843351991e-06
2.38180632559e-06
2.36742128019e-06
2.31231261229e-06
2.1590204111e-06
1.91230348531e-06
1.61900624396e-06
1.3213424133e-06
1.04922264926e-06
8.10722038504e-07
6.05201659665e-07
4.34354735023e-07
2.9083504675e-07
1.81765075405e-07
5.41163927252e-06
4.85949340693e-06
4.1805420163e-06
3.58308025722e-06
3.13035579645e-06
2.81036012428e-06
2.61721660771e-06
2.54125012251e-06
2.52443741641e-06
2.46814853405e-06
2.29400662175e-06
2.02197635902e-06
1.71971707174e-06
1.43348981703e-06
1.17945899361e-06
9.49640335851e-07
7.39549281818e-07
5.44924734527e-07
3.67482325129e-07
2.25243320289e-07
5.7237534272e-06
5.1117752909e-06
4.35448575808e-06
3.70215425748e-06
3.22353780907e-06
2.88681321143e-06
2.67708366247e-06
2.58942401883e-06
2.57245977528e-06
2.51975737284e-06
2.34666547655e-06
2.07836362419e-06
1.79028038376e-06
1.52155364862e-06
1.28080813962e-06
1.05743585905e-06
8.41721799436e-07
6.2774589619e-07
4.22736558324e-07
2.53445130624e-07
5.58395625193e-06
5.10662328032e-06
4.34278637705e-06
3.64679625984e-06
3.13897326397e-06
2.80380468994e-06
2.61086393603e-06
2.53733236136e-06
2.52601536171e-06
2.47609127146e-06
2.31559142763e-06
2.07388192175e-06
1.81216197643e-06
1.56338814892e-06
1.33239788513e-06
1.11109563481e-06
8.89039894951e-07
6.60871740623e-07
4.38082866327e-07
2.54884027897e-07
5.44285033022e-06
5.26027486019e-06
4.27276753097e-06
3.41588681659e-06
2.88689739723e-06
2.60332793593e-06
2.47466895274e-06
2.44235647605e-06
2.43835408343e-06
2.38231878876e-06
2.23089273504e-06
2.01341564391e-06
1.77927962472e-06
1.54992491091e-06
1.32888054508e-06
1.10942848571e-06
8.81625762663e-07
6.43446106641e-07
4.13113543128e-07
2.31301688819e-07
5.50648456157e-06
5.1774391708e-06
3.90931268916e-06
3.02729775498e-06
2.59396673506e-06
2.40596375882e-06
2.33369712627e-06
2.32190233736e-06
2.31002206466e-06
2.24074854879e-06
2.09569671571e-06
1.90371294884e-06
1.69826266203e-06
1.49110923781e-06
1.28257379501e-06
1.06545170552e-06
8.32712363766e-07
5.88602802218e-07
3.60421429582e-07
1.93446914094e-07
5.86573546731e-06
5.40111648213e-06
3.95318403464e-06
2.93532951284e-06
2.44964226913e-06
2.27651987412e-06
2.20956533827e-06
2.17644101306e-06
2.13907229262e-06
2.05826912556e-06
1.92727084367e-06
1.76867193312e-06
1.59534803083e-06
1.41161348606e-06
1.21432910443e-06
9.97234497187e-07
7.58886697301e-07
5.11224485144e-07
2.94955835843e-07
1.52606778731e-07
6.28217680778e-06
5.89690889248e-06
4.44631735868e-06
3.24596987506e-06
2.53433460709e-06
2.21939805151e-06
2.096814564e-06
2.02378342798e-06
1.95697911151e-06
1.87540058174e-06
1.77047516385e-06
1.64650017985e-06
1.50270658874e-06
1.33625133878e-06
1.1424668543e-06
9.18995533158e-07
6.70123580882e-07
4.23184511242e-07
2.29834882675e-07
1.16701161967e-07
6.55960308869e-06
6.19681133771e-06
4.95444374514e-06
3.69735436991e-06
2.71997992072e-06
2.20198505229e-06
1.97335730297e-06
1.85894260956e-06
1.78608509153e-06
1.72300615341e-06
1.6515030381e-06
1.55979393897e-06
1.43671235833e-06
1.27533661417e-06
1.07299740369e-06
8.31856034645e-07
5.71120719559e-07
3.36695542018e-07
1.7451700448e-07
8.93457657802e-08
6.53544626931e-06
6.1689133697e-06
5.16372805597e-06
3.99652658835e-06
2.94541940677e-06
2.2327153358e-06
1.87261542138e-06
1.70423184341e-06
1.63248303396e-06
1.60298395158e-06
1.57254285181e-06
1.50935543176e-06
1.39457464619e-06
1.22250865347e-06
9.96300193988e-07
7.33172837963e-07
4.72773231901e-07
2.62843719923e-07
1.33120006892e-07
7.03746251787e-08
6.17689159663e-06
5.82519682496e-06
5.01626129435e-06
4.02951810939e-06
3.0343339124e-06
2.25915566061e-06
1.81748231893e-06
1.6015588832e-06
1.52484948872e-06
1.52505153941e-06
1.5303246128e-06
1.48237969913e-06
1.35717238586e-06
1.15857370325e-06
9.05968343717e-07
6.34125186926e-07
3.87627894181e-07
2.0632590843e-07
1.05068946594e-07
5.73154168035e-08
5.71542353514e-06
5.30988686671e-06
4.64009198418e-06
3.8237919236e-06
2.94351964544e-06
2.21524295551e-06
1.76372754701e-06
1.54115150879e-06
1.47612882851e-06
1.49817489e-06
1.51547371457e-06
1.45589398882e-06
1.30349509568e-06
1.07950976763e-06
8.14819825835e-07
5.47712434745e-07
3.20036204131e-07
1.66338069782e-07
8.65689944449e-08
4.83147008126e-08
5.28556190333e-06
4.82978665191e-06
4.20731150937e-06
3.50976213279e-06
2.7459363176e-06
2.10354227027e-06
1.70177762928e-06
1.51612192607e-06
1.48174825557e-06
1.51371154179e-06
1.51252324373e-06
1.41679732032e-06
1.23389630889e-06
9.97165007241e-07
7.34060550276e-07
4.77447100208e-07
2.6905373252e-07
1.39502066838e-07
7.53611913428e-08
4.3564984837e-08
5.03436548586e-06
4.5267682287e-06
3.87468096189e-06
3.21344010345e-06
2.53439480711e-06
1.98954236038e-06
1.66718321894e-06
1.53919248523e-06
1.53444810141e-06
1.55508418769e-06
1.50816685455e-06
1.36301000437e-06
1.1558712321e-06
9.20329464985e-07
6.67408014978e-07
4.24032162759e-07
2.35163167674e-07
1.24990342818e-07
7.02963678692e-08
4.1879055581e-08
5.04980079634e-06
4.5069284604e-06
3.76246193859e-06
3.0483097579e-06
2.40102987659e-06
1.93892852118e-06
1.6928544831e-06
1.61189193673e-06
1.61471549391e-06
1.60028962808e-06
1.49352445891e-06
1.30048289072e-06
1.08121464284e-06
8.58699673287e-07
6.21157277467e-07
3.89705335653e-07
2.16300445532e-07
1.18904902825e-07
6.98615497935e-08
4.25420790984e-08
5.41089481574e-06
4.82621183704e-06
3.90588318499e-06
3.03041687149e-06
2.36239121063e-06
1.95515783568e-06
1.75865415703e-06
1.69780085651e-06
1.69030977727e-06
1.63788122389e-06
1.48127256296e-06
1.25303135754e-06
1.02594467388e-06
8.16298189425e-07
5.92884274171e-07
3.72482012194e-07
2.10379690505e-07
1.20137148403e-07
7.31269195407e-08
4.53138594085e-08
6.24814781552e-06
5.46002349421e-06
4.18202111444e-06
3.07022674785e-06
2.35084102831e-06
1.96950299823e-06
1.7998822948e-06
1.7538346121e-06
1.74965481459e-06
1.68675791936e-06
1.49831236064e-06
1.23250968633e-06
9.8902365613e-07
7.89177278285e-07
5.83320729202e-07
3.73973338817e-07
2.16714980647e-07
1.27541821206e-07
7.96084479146e-08
5.01382230329e-08
6.91800588064e-06
5.87546495284e-06
4.32952595328e-06
3.08399242801e-06
2.3055072011e-06
1.92065964321e-06
1.78097504995e-06
1.77001126111e-06
1.79303010796e-06
1.74400700651e-06
1.52826736292e-06
1.2227290252e-06
9.66071996716e-07
7.81576082117e-07
5.94806955068e-07
3.91884209769e-07
2.33112901219e-07
1.40097252411e-07
8.88683102949e-08
5.68935082398e-08
7.64352388728e-06
6.52630563415e-06
4.69928782551e-06
3.16607563251e-06
2.22869026991e-06
1.80814191882e-06
1.70584619253e-06
1.74141120116e-06
1.78979104447e-06
1.75503877282e-06
1.53291588055e-06
1.21336039558e-06
9.60973093105e-07
7.91366382763e-07
6.17363670583e-07
4.18433633785e-07
2.56079596457e-07
1.56280397159e-07
1.0014377747e-07
6.52306613587e-08
8.33467002791e-06
7.15159011886e-06
5.15485760475e-06
3.34870003903e-06
2.18702195311e-06
1.68419121023e-06
1.60597895656e-06
1.67910885819e-06
1.73675997823e-06
1.70547345918e-06
1.51187525546e-06
1.21420279345e-06
9.68362065912e-07
8.01871432648e-07
6.33098485841e-07
4.42472337092e-07
2.80130210913e-07
1.73509088561e-07
1.12276369898e-07
7.47069540912e-08
8.82837238811e-06
7.611040071e-06
5.55256259502e-06
3.58319227256e-06
2.20706613805e-06
1.5932479282e-06
1.52393345828e-06
1.62567429123e-06
1.6828042014e-06
1.64097050858e-06
1.46601380642e-06
1.20531480794e-06
9.7283084633e-07
7.99234923661e-07
6.30370968066e-07
4.55851717185e-07
3.00801359437e-07
1.89001758972e-07
1.24116545762e-07
8.50781228757e-08
9.21996844933e-06
7.93194242251e-06
5.80942874949e-06
3.75636612952e-06
2.24232536493e-06
1.54580847625e-06
1.492145241e-06
1.60899159904e-06
1.64499192813e-06
1.5761972364e-06
1.4031450779e-06
1.16970578617e-06
9.55215805827e-07
7.73835513518e-07
6.06215562228e-07
4.53894988984e-07
3.15322102939e-07
2.03125400029e-07
1.35267122649e-07
9.64885438694e-08
9.29915372966e-06
7.97726627804e-06
5.85321074117e-06
3.79510932819e-06
2.23979903098e-06
1.53644364445e-06
1.5179987782e-06
1.62551891655e-06
1.6141604155e-06
1.50739679801e-06
1.32944252745e-06
1.11565721063e-06
9.11087152226e-07
7.29120039942e-07
5.73002649893e-07
4.41581358135e-07
3.18821189778e-07
2.14352819952e-07
1.47181718899e-07
1.0955301562e-07
9.50822412392e-06
8.0865553814e-06
5.8245898204e-06
3.73318727376e-06
2.20525783179e-06
1.55474224738e-06
1.56024146308e-06
1.64435426655e-06
1.59208248166e-06
1.44603737237e-06
1.25292194376e-06
1.04460013296e-06
8.48814589197e-07
6.79328868518e-07
5.44177153496e-07
4.29321023227e-07
3.1826156482e-07
2.21427637323e-07
1.58655277769e-07
1.25031596593e-07
9.92661549797e-06
8.12600774981e-06
5.61131881166e-06
3.55326319264e-06
2.14907245609e-06
1.57368110001e-06
1.5728708166e-06
1.63948403825e-06
1.57432810287e-06
1.40093878777e-06
1.1855429882e-06
9.75135691071e-07
7.92654356446e-07
6.43419643166e-07
5.26376107587e-07
4.22001397494e-07
3.17449333636e-07
2.23680377624e-07
1.71125835195e-07
1.45945037828e-07
9.31149085356e-06
7.36314606619e-06
5.06346229389e-06
3.24309172499e-06
2.05640119351e-06
1.58735544041e-06
1.57744889762e-06
1.62539657301e-06
1.55556439119e-06
1.36512537594e-06
1.13081720315e-06
9.22471177713e-07
7.55884492773e-07
6.24073553165e-07
5.17813458772e-07
4.16710009172e-07
3.08603960374e-07
2.21514453802e-07
1.90270417694e-07
1.74339452454e-07
8.18165123243e-06
6.3887110715e-06
4.40953075606e-06
2.84540866582e-06
1.93391985614e-06
1.62730356965e-06
1.62982747983e-06
1.64113122238e-06
1.54081574113e-06
1.32516638701e-06
1.07977134379e-06
8.80258382909e-07
7.26826042773e-07
6.06084348202e-07
5.01939636651e-07
3.94096159524e-07
2.88957370347e-07
2.26672802117e-07
2.17697081869e-07
2.09316921331e-07
7.08372789781e-06
5.35074502815e-06
3.59817948492e-06
2.39133845868e-06
1.843443485e-06
1.73326093234e-06
1.7512544217e-06
1.69712259572e-06
1.52352115932e-06
1.26026547482e-06
1.01177238379e-06
8.24166067572e-07
6.76295615802e-07
5.59145390846e-07
4.5582804845e-07
3.56338089056e-07
2.76329121562e-07
2.44311268513e-07
2.52986115107e-07
2.48173170018e-07
3.07384733951e-08
3.89747320351e-08
5.72108536021e-08
8.58046915406e-08
1.17931774351e-07
1.43252948809e-07
1.57807131196e-07
1.63475638341e-07
1.6098628714e-07
1.51745591286e-07
1.40137610403e-07
1.28832903512e-07
1.18394728151e-07
1.08637037302e-07
1.03791527917e-07
1.54485655318e-07
4.10677378215e-07
4.45484715861e-06
6.2086927457e-06
6.91486560758e-06
3.06043515485e-08
3.72360014831e-08
5.26953280565e-08
7.69925187249e-08
1.04584266378e-07
1.2699093858e-07
1.39701903378e-07
1.43989444327e-07
1.41908807393e-07
1.35336435619e-07
1.26758529151e-07
1.17576760323e-07
1.08454073621e-07
9.92547702177e-08
1.04624405134e-07
1.5323605371e-07
8.43864480876e-07
4.43198939079e-06
6.685056125e-06
7.79475140973e-06
3.09528963331e-08
3.60504199621e-08
4.89069619708e-08
6.9047221423e-08
9.17007653232e-08
1.10149119274e-07
1.20583985907e-07
1.23945802768e-07
1.22415279208e-07
1.17658969182e-07
1.11199640928e-07
1.04072889719e-07
9.67204218456e-08
8.7964078009e-08
1.08090677431e-07
1.85739216332e-07
2.03133659242e-06
4.41595985426e-06
7.20082676778e-06
8.86357700985e-06
3.20066079328e-08
3.54465240496e-08
4.55955989665e-08
6.15156885358e-08
7.91903359029e-08
9.35690417327e-08
1.01884787232e-07
1.04753001978e-07
1.03719640428e-07
1.00030424856e-07
9.48291543271e-08
8.9268678015e-08
8.36588614667e-08
8.30788254386e-08
1.02526963642e-07
4.08787563073e-07
1.78842137255e-06
4.45658471703e-06
7.83540844553e-06
1.03295138308e-05
3.41737359763e-08
3.56024317197e-08
4.27577947979e-08
5.43674034714e-08
6.73417131928e-08
7.81107478333e-08
8.47338435711e-08
8.740533998e-08
8.70021785267e-08
8.43774850948e-08
8.03646736126e-08
7.58210117012e-08
7.13978309643e-08
8.06242957956e-08
1.36305429669e-07
8.73626493019e-07
1.61779083059e-06
4.51058685234e-06
8.54342221939e-06
1.22915743069e-05
3.81462576762e-08
3.6914900644e-08
4.07579366068e-08
4.81283804224e-08
5.68056255128e-08
6.44677184999e-08
6.97056305508e-08
7.23172803479e-08
7.26777608136e-08
7.12688434191e-08
6.84036449086e-08
6.41284871215e-08
6.33115499467e-08
6.99229700775e-08
3.6493670313e-07
7.471759059e-07
1.54003003581e-06
4.56387473591e-06
9.2302704796e-06
1.4732082326e-05
4.48124345877e-08
3.99308198463e-08
4.01720121773e-08
4.36288292979e-08
4.85901393012e-08
5.35436594544e-08
5.74503461069e-08
5.98814594237e-08
6.08168130931e-08
6.03324348501e-08
5.82990248855e-08
5.4728292253e-08
5.51539782526e-08
7.3589208197e-08
4.91303419867e-07
6.88549022846e-07
1.49430041225e-06
4.46517250609e-06
9.58952548831e-06
1.71392261291e-05
5.51595138538e-08
4.52123086712e-08
4.14450078056e-08
4.13572702529e-08
4.32827750235e-08
4.60007875165e-08
4.86399463919e-08
5.06597090615e-08
5.17355082368e-08
5.15810037031e-08
4.98963123927e-08
4.69987902496e-08
4.74487764252e-08
7.09758037679e-08
4.57885965757e-07
6.79173891067e-07
1.46319231192e-06
4.22087287283e-06
9.39109167762e-06
1.88507882915e-05
7.00701404563e-08
5.30893158194e-08
4.46590624707e-08
4.12121736161e-08
4.06362558862e-08
4.15753502825e-08
4.3099762331e-08
4.4527093549e-08
4.52454143469e-08
4.47273870033e-08
4.28445491366e-08
4.03137142277e-08
4.0655503673e-08
4.7929345448e-08
3.77181663241e-07
6.96655822586e-07
1.42927317596e-06
3.83145102293e-06
8.21090853716e-06
1.90194001477e-05
8.97786297749e-08
6.33428000682e-08
4.94218025028e-08
4.26372723664e-08
3.99053612251e-08
3.9401099984e-08
3.99396724123e-08
4.05739231937e-08
4.03995564608e-08
3.89105477525e-08
3.65702466131e-08
3.47378729679e-08
3.58679223718e-08
4.28718931747e-08
1.53418119981e-07
7.48075391621e-07
1.41565597814e-06
3.40197706358e-06
5.91957005714e-06
1.70359093448e-05
1.1267748882e-07
7.46589953325e-08
5.46930906502e-08
4.47020028346e-08
4.01432938609e-08
3.84714819362e-08
3.80724350936e-08
3.7609439334e-08
3.59826628714e-08
3.31978578243e-08
3.07041237021e-08
3.05502412122e-08
3.47801365539e-08
4.52269732249e-08
7.62190063361e-08
5.32545858543e-07
1.35984951673e-06
2.83996142526e-06
3.34776422935e-06
1.18033940185e-05
1.33685020671e-07
8.4029535029e-08
5.86377499685e-08
4.61395562784e-08
4.03045883726e-08
3.77659246611e-08
3.63506372171e-08
3.43068511336e-08
3.0717679316e-08
2.6895084781e-08
2.55151476098e-08
2.9205544754e-08
4.01889465314e-08
5.80277166792e-08
8.149839397e-08
1.47581536373e-07
4.02853627168e-07
8.6348125791e-07
1.26201317195e-06
4.73905786393e-06
1.44772607278e-07
8.74716045102e-08
5.92477419428e-08
4.57721725387e-08
3.94789638989e-08
3.63175104103e-08
3.35003385699e-08
2.9147073746e-08
2.35896319518e-08
2.06684029797e-08
2.4420214435e-08
3.82763475251e-08
6.25492650923e-08
9.09052770019e-08
1.13367669151e-07
1.35553597539e-07
2.08884539259e-07
4.34170841113e-07
4.3142950828e-07
1.47594127135e-06
1.40839974804e-07
8.32032301811e-08
5.59607328581e-08
4.33177091296e-08
3.72726908953e-08
3.33057330953e-08
2.82023953056e-08
2.13259118377e-08
1.62352951956e-08
2.01692644174e-08
3.8803934994e-08
6.96316281625e-08
1.02269777107e-07
1.25978849795e-07
1.35741648689e-07
1.48631351586e-07
2.1492417195e-07
3.83019798273e-07
2.1949919239e-07
8.19620905741e-07
1.24577105602e-07
7.33962684219e-08
5.01035196339e-08
3.93999948221e-08
3.36149179174e-08
2.78371993089e-08
1.97102155116e-08
1.29110531153e-08
1.73506408587e-08
3.84843752622e-08
6.94325761929e-08
1.01080104969e-07
1.20058521427e-07
1.28845776266e-07
1.3046658318e-07
1.30889534256e-07
1.60263027575e-07
1.93303860226e-07
2.15757509277e-07
6.56659828197e-07
1.02874914354e-07
6.1729623183e-08
4.34787536986e-08
3.46859106005e-08
2.80692771383e-08
1.93599837478e-08
1.06820140931e-08
1.09648430039e-08
3.24578276419e-08
6.15299813221e-08
8.77376493977e-08
1.0488276125e-07
1.15682392081e-07
1.17264913782e-07
1.11052666574e-07
1.00368143311e-07
1.00075517252e-07
2.02287064711e-07
3.12292647404e-07
5.92954185226e-07
8.17180087162e-08
5.09082893842e-08
3.70812587393e-08
2.88997250716e-08
2.00195384053e-08
9.94266113709e-09
7.75899912606e-09
2.67319471114e-08
5.21189536745e-08
7.19055906134e-08
8.89597280588e-08
1.00929044205e-07
1.05504112595e-07
1.01217892515e-07
8.99973433545e-08
7.6953751066e-08
1.05656817041e-07
2.42360381589e-07
3.29116353388e-07
5.76227396217e-07
6.44212865256e-08
4.19106836837e-08
3.06618676591e-08
2.15894227531e-08
1.11189602056e-08
5.46139024765e-09
1.27848753553e-08
4.04263808544e-08
5.90979567775e-08
7.47211551346e-08
8.66377611846e-08
9.2876179709e-08
9.22053064648e-08
8.35054688865e-08
7.06546277865e-08
6.65783731376e-08
1.39657515797e-07
2.81758706067e-07
3.53679980259e-07
5.8324500983e-07
5.14794293196e-08
3.41976618294e-08
2.38743809508e-08
1.36999342936e-08
5.24602495072e-09
7.12449730879e-09
2.82997469712e-08
4.62962082246e-08
6.1957884976e-08
7.38801268905e-08
8.090982107e-08
8.25405303366e-08
7.79897889442e-08
6.74672222292e-08
5.79421331303e-08
7.96441619648e-08
1.84558180196e-07
3.40786952988e-07
3.93697608326e-07
6.16795861216e-07
4.16537035598e-08
2.74475707325e-08
1.73512694882e-08
7.39959312719e-09
4.25196719734e-09
1.14449770389e-08
2.97991212144e-08
4.71827266306e-08
6.11252711672e-08
6.98584732986e-08
7.33686030702e-08
7.17389947625e-08
6.47806406408e-08
5.48929191061e-08
5.5610210318e-08
1.22261192406e-07
2.55228514448e-07
4.07715683088e-07
4.49122994203e-07
6.8999936661e-07
3.41454817711e-08
2.19889228069e-08
1.17782016187e-08
4.56711670252e-09
5.71856061867e-09
1.57605012749e-08
3.01723565988e-08
4.56683933641e-08
5.75557426178e-08
6.40497849442e-08
6.51433024611e-08
6.12194030848e-08
5.32884930353e-08
4.5990621704e-08
7.00191313229e-08
1.79252304003e-07
3.33074443619e-07
4.79924208917e-07
5.21126187728e-07
8.33753378653e-07
2.93159510246e-08
1.7734897615e-08
8.01179091889e-09
3.9457054318e-09
5.99947242429e-09
1.39621970591e-08
2.68014726953e-08
4.04165532153e-08
5.09422478636e-08
5.63130513214e-08
5.61457017066e-08
5.13111558117e-08
4.42037904048e-08
4.15238602381e-08
1.12842752022e-07
2.49865217561e-07
4.08693626932e-07
5.53237368441e-07
6.08819069963e-07
1.10011111385e-06
2.65578012941e-08
1.47317300418e-08
6.28194150935e-09
3.90706023249e-09
5.66145307151e-09
1.16620045197e-08
2.13381840818e-08
3.24736593455e-08
4.16640760759e-08
4.6516524608e-08
4.61662858971e-08
4.20139583032e-08
3.82398878381e-08
4.99354860705e-08
1.69328652008e-07
3.16586967788e-07
4.73405984805e-07
6.25651287338e-07
7.14815270852e-07
1.55887125004e-06
2.52137299212e-08
1.32770000667e-08
6.07000731304e-09
4.31318157873e-09
5.52622788528e-09
9.47490925934e-09
1.60509924165e-08
2.4293565136e-08
3.17152339732e-08
3.60990952472e-08
3.64920085479e-08
3.49435755766e-08
3.74116257278e-08
8.38488266128e-08
2.22600948812e-07
3.73822326526e-07
5.25551181078e-07
6.92028814462e-07
8.39634583931e-07
2.36670413063e-06
2.533714722e-08
1.34673020892e-08
6.9509485886e-09
5.14901155008e-09
5.82770876968e-09
8.33824100813e-09
1.26044589647e-08
1.81742453178e-08
2.35885023393e-08
2.74606912822e-08
2.94182308174e-08
3.21365935283e-08
4.88606477342e-08
1.38598273489e-07
2.80548955989e-07
4.24364935981e-07
5.62830767494e-07
7.40161894528e-07
9.67710870298e-07
3.62664882354e-06
2.70975136727e-08
1.51447425838e-08
8.58516250122e-09
6.32762015869e-09
6.46084174444e-09
8.06684463724e-09
1.08075046948e-08
1.44586400188e-08
1.83573715172e-08
2.19882654012e-08
2.624772278e-08
3.72145951141e-08
7.94231812685e-08
2.03434798918e-07
3.421948379e-07
4.66571289111e-07
5.83203993869e-07
7.56197750262e-07
1.1954420628e-06
5.06379146921e-06
3.04733282486e-08
1.79113751247e-08
1.07714961684e-08
7.77930749864e-09
7.32828382192e-09
8.25899778017e-09
1.00556947401e-08
1.2519846958e-08
1.55936961582e-08
1.97767766423e-08
2.80148688041e-08
5.27577737323e-08
1.29495091885e-07
2.73114716986e-07
3.98036506848e-07
4.93684078321e-07
5.85960061309e-07
7.38212208413e-07
1.44633794015e-06
5.55396533747e-06
3.52384654554e-08
2.13520666656e-08
1.32952698939e-08
9.40933669728e-09
8.31149607424e-09
8.57070283674e-09
9.58536453401e-09
1.12323656148e-08
1.39639830831e-08
1.93801222493e-08
3.35934105489e-08
8.00003577321e-08
1.91484544614e-07
3.35892315188e-07
4.33612654335e-07
4.99902159195e-07
5.73924749401e-07
7.13121514676e-07
1.53723849612e-06
4.72793181405e-06
4.1159980665e-08
2.5187244252e-08
1.58373804427e-08
1.11920572643e-08
9.38263896606e-09
8.813619708e-09
8.87632329447e-09
9.56099963334e-09
1.17117408862e-08
1.81938430361e-08
4.0136231876e-08
1.1608490361e-07
2.53452650881e-07
3.79473017614e-07
4.3999252217e-07
4.87358458345e-07
5.52804486508e-07
8.048438058e-07
1.72164280803e-06
4.39479661183e-06
4.80474657622e-08
2.92608776124e-08
1.82612809763e-08
1.30348650176e-08
1.05556883979e-08
9.07941956954e-09
8.04755102474e-09
7.58087682123e-09
8.71596614856e-09
1.52557779921e-08
4.55998326513e-08
1.57651974463e-07
3.05962329207e-07
3.96470725217e-07
4.23963845331e-07
4.67668764547e-07
5.31679953963e-07
8.0933372469e-07
1.69797709563e-06
4.32621936203e-06
5.58842056963e-08
3.36036806403e-08
2.06971390972e-08
1.4929942077e-08
1.17913986955e-08
9.47214004168e-09
7.45442757673e-09
5.98323245893e-09
6.10231979479e-09
1.2310804194e-08
5.42068496509e-08
2.04764047228e-07
3.41209789582e-07
3.87400432577e-07
3.99916070704e-07
4.48733874101e-07
5.13405423427e-07
7.00645221645e-07
1.47138115887e-06
4.3532928135e-06
6.50405940065e-08
3.85320693552e-08
2.34835041891e-08
1.69496186528e-08
1.30883446055e-08
1.00418900294e-08
7.28216077552e-09
5.1117070237e-09
4.52908210126e-09
1.05320939274e-08
7.14763612578e-08
2.47254633938e-07
3.52913225145e-07
3.68980238234e-07
3.79814695179e-07
4.31645897629e-07
4.95523177218e-07
5.67697152921e-07
1.16198082163e-06
4.40513743257e-06
7.55720352695e-08
4.50242273849e-08
2.69497272004e-08
1.92506661828e-08
1.45893706113e-08
1.0902124279e-08
7.58303831389e-09
4.9261834448e-09
3.83089850597e-09
1.00690862946e-08
1.0383831429e-07
3.67018135351e-07
4.75191997919e-07
3.53349212519e-07
3.66906662474e-07
4.16390257278e-07
4.76320232504e-07
5.33459951062e-07
9.61772010088e-07
4.19197439925e-06
8.88133585748e-08
5.31596360862e-08
3.14558419946e-08
2.20228172156e-08
1.65105282217e-08
1.22073267771e-08
8.36564007031e-09
5.31757903122e-09
3.57934318108e-09
1.09829468847e-08
1.66892830676e-07
4.54756448946e-07
5.9209717703e-07
3.42355400293e-07
3.58674699052e-07
4.04970518152e-07
4.59552391428e-07
5.08017892872e-07
8.21284347136e-07
3.6301362849e-06
1.06718053491e-07
6.29281823405e-08
3.68596674536e-08
2.54542265386e-08
1.90311259403e-08
1.40587780019e-08
9.6250996738e-09
6.23901840609e-09
3.51884902877e-09
1.62215951366e-08
2.21265921812e-07
1.18059046106e-06
1.53670837455e-06
3.37302706603e-07
3.55784909239e-07
4.01136485706e-07
4.51521880371e-07
4.94630039503e-07
6.2936312194e-07
3.18917811077e-06
1.29435051811e-07
7.45105700779e-08
4.34544220465e-08
2.97679816833e-08
2.2247098671e-08
1.64396319715e-08
1.13751121713e-08
7.70766288216e-09
3.68038552159e-09
2.20325068802e-08
4.87317776713e-07
1.9690965954e-06
2.50805691406e-06
3.41028928408e-07
3.62374513789e-07
4.0842388845e-07
4.55323041746e-07
4.95210624781e-07
5.69706389031e-07
2.90095595991e-06
1.54171206443e-07
8.72323778589e-08
5.15392363094e-08
3.5283748347e-08
2.61757589083e-08
1.92630068155e-08
1.37381893727e-08
9.81291577387e-09
4.32262622642e-09
2.74011102548e-08
8.67579538406e-07
2.07390105405e-06
2.7336776242e-06
3.6269734558e-07
3.83314301665e-07
4.29076733393e-07
4.7054717401e-07
5.10362821768e-07
5.72056000833e-07
2.68021068908e-06
1.760424971e-07
1.00235788768e-07
6.1187470103e-08
4.18308593954e-08
)
;

boundaryField
{
    emptyPatch
    {
        type            empty;
    }
    minY
    {
        type            calculated;
        value           nonuniform List<scalar> 0();
    }
    maxY
    {
        type            calculated;
        value           nonuniform List<scalar> 0();
    }
    maxX
    {
        type            nutkWallFunction;
        blending        stepwise;
        value           uniform 0;
    }
    water_to_heater
    {
        type            nutkWallFunction;
        blending        stepwise;
        value           uniform 0;
    }
    procBoundary1to0
    {
        type            processor;
        value           nonuniform List<scalar> 
41
(
5.58818224718e-06
4.04168220996e-06
2.7497709646e-06
2.07351920568e-06
1.9000800364e-06
1.93767377405e-06
1.92408265534e-06
1.76100105923e-06
1.4752910156e-06
1.15834009229e-06
9.10601827908e-07
7.23868468665e-07
5.87336914161e-07
4.87738435722e-07
4.02730467646e-07
3.27805005493e-07
2.78954785085e-07
2.75469879977e-07
2.99571837272e-07
2.87139265997e-07
3.08107406317e-08
2.25867662983e-08
1.70982825733e-08
1.26269213075e-08
5.80703159329e-09
6.16255412919e-08
1.00748658629e-06
2.21570786098e-06
2.97193038636e-06
4.35274642064e-07
4.19910691828e-07
4.59626807233e-07
4.88593075888e-07
5.32942437553e-07
5.82569681258e-07
2.47586124231e-06
1.91649095133e-07
1.13011450568e-07
7.1714091309e-08
3.08107406317e-08
4.92007942112e-08
)
;
    }
    procBoundary1to3
    {
        type            processor;
        value           nonuniform List<scalar> 
41
(
3.1153235639e-06
2.6256392947e-06
2.15168195729e-06
1.7303415046e-06
1.37334056295e-06
1.07154751905e-06
7.92635053178e-07
5.1385766985e-07
2.69712591784e-07
1.19958803187e-07
5.61432801636e-08
3.43964815879e-08
2.88755906983e-08
5.31791169544e-06
5.2164611823e-06
4.7668188298e-06
4.38111374209e-06
4.12969620688e-06
3.90556632572e-06
3.60148187765e-06
3.60148187765e-06
3.12306637613e-08
4.12584308641e-08
6.27144426381e-08
9.61525208557e-08
1.32139215748e-07
1.58870591481e-07
1.74060198646e-07
1.80711587201e-07
1.7924908301e-07
1.67497739373e-07
1.51469419239e-07
1.3712705861e-07
1.25089869083e-07
1.13569601985e-07
1.08279466132e-07
1.66486830718e-07
4.09192089316e-07
4.36702868572e-06
5.75172166423e-06
6.16689312163e-06
)
;
    }
}

