/*--------------------------------*- C++ -*----------------------------------*\
| =========                 |                                                 |
| \\      /  F ield         | OpenFOAM: The Open Source CFD Toolbox           |
|  \\    /   O peration     | Version:  2312                                  |
|   \\  /    A nd           | Website:  www.openfoam.com                      |
|    \\/     M anipulation  |                                                 |
\*---------------------------------------------------------------------------*/
FoamFile
{
    version     2.0;
    format      ascii;
    arch        "LSB;label=32;scalar=64";
    class       volScalarField;
    location    "0.69/water";
    object      epsilon.gas;
}
// * * * * * * * * * * * * * * * * * * * * * * * * * * * * * * * * * * * * * //

dimensions      [0 2 -3 0 0 0 0];

internalField   nonuniform List<scalar> 
1503
(
16.8322599111
2.67801036598
0.499164663899
0.116759732957
0.0369976150573
0.00728037281228
0.00195135621371
0.00089980999517
0.000604272920946
0.000498349075847
0.000453977996678
0.00043337916864
0.000422999386687
0.000417325252853
0.000413967271802
0.000411847043304
0.000410452731137
0.00040952187148
0.000408907100722
0.000408519971164
540.079553945
104.379440422
17.7977145055
3.72133312456
0.687874346018
0.188329544133
0.04174970249
0.0077039939148
0.00195641929786
0.000882545183561
0.0005960803014
0.000494430149213
0.000451821646282
0.000432032341374
0.000422001764212
0.000416428290189
0.000413046487615
0.000410859302047
0.000409407725274
0.000408463848984
772.321367642
180.54935957
40.4925670976
8.76347423464
2.04821369205
0.456114947405
0.12477940685
0.0283914319652
0.00595575420464
0.00178732818313
0.000881358549511
0.000609306505244
0.000505055249529
0.000459116455691
0.000437058532722
0.000425632964257
0.000419186938166
0.000415224560454
0.000412637580091
0.000410926241806
990.332697764
245.982945494
61.3026125166
14.9694805824
4.1355388195
0.889527543545
0.230094751154
0.0649562244033
0.0147196882902
0.00356728680142
0.00135495741401
0.000782142486502
0.000582154855196
0.000497623592453
0.000457907076749
0.000437912419991
0.000427135619331
0.000420840776027
0.000416868948687
0.000414251635605
1078.97835371
284.101606933
75.963357846
20.4934629504
5.27799528924
1.60143279224
0.341554208697
0.103369156618
0.029820030439
0.00681354552341
0.00209523434263
0.0010209374664
0.000682928048943
0.000547056012061
0.000484358772093
0.000453115005427
0.00043662166706
0.000427327805021
0.000421680441467
0.00041803310491
1062.11767826
296.563399369
84.8002884628
24.7263322335
7.10202935535
1.88091439406
0.57347946555
0.129966205704
0.0469220020612
0.0124844862759
0.00326247013451
0.00134407996389
0.000808517938804
0.000606742872761
0.00051589145989
0.000470910725242
0.000447328163668
0.000434293280821
0.000426611027589
0.000421784460145
1011.79992895
292.923846565
88.1447523346
27.3883193489
8.54145290286
2.54530267452
0.671242016435
0.194525212574
0.0529913881956
0.0201364912505
0.00512017366966
0.00178365708166
0.000961727089401
0.000676161209285
0.000551867722795
0.000490911084295
0.000459022021165
0.000441541210835
0.000431449208773
0.000425278574668
984.19467315
287.035810803
88.8715674117
28.9138129752
9.56203241019
3.07909381023
0.912696898158
0.251747164119
0.0675158538406
0.0243217248532
0.0078564563377
0.00239263486956
0.00114785534801
0.00075507127258
0.000591563615178
0.000512603552042
0.000471422506739
0.000448924292311
0.000436094666331
0.000428449079508
950.369469414
280.442380287
88.7775551411
29.8095727038
10.2184452998
3.45631325911
1.11694469493
0.330129697704
0.110656764023
0.0282542142178
0.0109179908342
0.00329001674445
0.00138522760639
0.000846056201753
0.000635067778985
0.000535751238549
0.000484364010376
0.00045641885947
0.000440623339222
0.000431378205402
907.216057181
274.645883473
88.8984801488
30.3496019485
10.5542186897
3.6645072912
1.26546231143
0.429248544827
0.136409232881
0.0493952992832
0.0135957280482
0.00474943663517
0.00174870560907
0.000963953443268
0.000685958013378
0.000561454703259
0.00049840392679
0.000464368065397
0.000445275072915
0.000434265760859
895.97532564
278.242239458
90.8937610153
30.8638613895
10.6863049454
3.77471677473
1.38669456336
0.52823469321
0.20317949669
0.0853283284997
0.0233978724083
0.00785252610156
0.00251654793814
0.00115249144455
0.000753353286763
0.000592247419132
0.000514452360215
0.000473287786327
0.000450431398484
0.000437408674226
980.056339553
302.308105863
96.2953113467
31.6997298844
10.8854652857
3.94858742615
1.53679053739
0.643459896747
0.284981682085
0.128262656144
0.0560274020364
0.013620432037
0.00435563406472
0.00151231663507
0.000854779550232
0.000632601098615
0.000534143479112
0.000483983673052
0.000456582758127
0.000441134903733
1215.58938832
348.866070071
104.551652747
33.4329694143
11.546675395
4.31822744089
1.75508893415
0.785765353925
0.382465810336
0.200854916485
0.0940809224408
0.0280158493761
0.00801852370251
0.00231422175774
0.0010278825178
0.000690229898954
0.000559836168251
0.000497421352693
0.000464207409172
0.000445709317198
1398.16068131
383.638817603
112.855512407
36.0025637187
12.5532386974
4.79712058681
2.01047384359
0.934607839101
0.486558145136
0.281840994083
0.163960130539
0.0723366762581
0.0124673362529
0.00401994352162
0.00134857004996
0.000776868458091
0.000594449142441
0.000514585881308
0.00047368163001
0.000451283673254
1436.45459693
397.841448127
117.773783294
37.8011064443
13.3217543397
5.18720849027
2.23308908536
1.07139920382
0.582534931304
0.360257628309
0.243233618527
0.120395592188
0.0294415902662
0.00609325272974
0.0019660155352
0.000911325305491
0.000641755461239
0.00053658339986
0.000485345163937
0.000457952511616
1440.13075166
402.125050859
119.880693315
38.7925379476
13.8135860079
5.45619786613
2.39696667457
1.18226646697
0.663782840418
0.431133489392
0.316129347244
0.19696528152
0.0610607267958
0.00796448407535
0.00293182637263
0.0011193618371
0.000706887960325
0.00056494658574
0.000499680441776
0.00046587416505
1437.74059678
403.02886732
121.004072039
39.4105696809
14.1193867217
5.6255005558
2.51071928875
1.26911052433
0.733219777914
0.490968020103
0.379583630192
0.268062094885
0.110843195031
0.0160235687375
0.00375675230951
0.00144062779566
0.000799059238113
0.000602174859979
0.000517481436929
0.000475361429171
1444.52447759
405.446495815
121.987993235
39.7910831726
14.2834279292
5.72199980136
2.58695547165
1.33723047042
0.793534213918
0.544983890714
0.436416442189
0.329281012057
0.168554485413
0.0349420625582
0.00412460914653
0.00191938432997
0.000934735257266
0.000652105081406
0.000539908418048
0.000486894431306
1485.70123379
414.062495565
123.830932285
40.2716869622
14.4557431148
5.81189852435
2.65312085497
1.39574502929
0.845969666232
0.598030569745
0.490027862997
0.385698487563
0.223364211961
0.0572350936932
0.00590190797344
0.00275999305689
0.00114930757987
0.000720965278535
0.000568578113559
0.000501090746572
1539.40722676
427.554538838
127.051809066
41.182172898
14.7792319943
5.95018518207
2.72831726556
1.44449898258
0.892446648877
0.654277216377
0.547103861904
0.445355523422
0.27940699685
0.0947285615463
0.0131114224294
0.00449725531645
0.00151601377782
0.000819238692652
0.000605744391348
0.000518668502982
1602.30738728
442.514772912
131.146800028
42.5642552372
15.3110574984
6.15763505358
2.80619815312
1.48467829769
0.939907534628
0.711093302648
0.604667629669
0.514444993084
0.347077571134
0.149076303465
0.032650280654
0.00806344083723
0.00219989675748
0.00096618381855
0.00065473390552
0.000540452438901
1646.79706812
453.162194076
134.727725976
44.1442077697
15.988200974
6.39810800247
2.87432076991
1.5166278702
0.976572161514
0.748672317798
0.64601980109
0.571401391673
0.43962601959
0.229347409665
0.0766281157509
0.0146027621427
0.00364093630269
0.00120288178628
0.000721158018377
0.000567546231408
1670.32486795
457.98001674
138.209535642
46.0882459607
16.7656549046
6.5853739402
2.87759945998
1.50429662073
0.973267182563
0.749133490915
0.652687605114
0.600090651267
0.513651882897
0.334875278857
0.120025171866
0.024253248527
0.00665556505515
0.00161154929519
0.000814224506954
0.000601582472075
1598.8691344
454.44487917
142.148094796
48.4050149906
17.4042071998
6.54993135722
2.76322914369
1.44343180285
0.937451190909
0.715928563468
0.621585061777
0.587305921801
0.530853809997
0.418882264382
0.20908302795
0.0529577668287
0.0105707715868
0.00235184327892
0.000948738682777
0.000644925118913
1503.07400248
454.408463203
147.809156622
50.5286912369
17.5326244223
6.29808766601
2.66081457617
1.39349117996
0.889783512437
0.663994299248
0.568335505521
0.541870895904
0.513122455785
0.433793817518
0.288552540206
0.0862352880828
0.0119990745488
0.00364532103202
0.00114947089144
0.000700944690077
1513.57250416
472.473929042
155.482006405
52.3268392607
17.5320011608
6.30665525783
2.67081747239
1.3771303081
0.851008572833
0.615915466324
0.517116354161
0.486765238434
0.474585540415
0.423038985726
0.322435836963
0.144673005197
0.0207546948039
0.00508230840071
0.00145635961057
0.000774707383544
1607.98880453
505.66041841
164.491666777
54.503044247
18.3104636897
6.63700994559
2.80524172554
1.41114969553
0.839759957058
0.591341809427
0.484924706559
0.441105466875
0.431610521753
0.402677795936
0.329375013825
0.195137071532
0.0407283797376
0.0053098711664
0.00191895184228
0.000874051305032
1801.72357047
553.394747936
175.298928177
57.4468228111
19.6789717419
7.2440522895
3.04716183151
1.496562898
0.863259129149
0.595455850011
0.475106860833
0.414796384176
0.397765338103
0.383977015363
0.335824259764
0.23646371245
0.0686312102943
0.00612763648713
0.0025474466748
0.00101223280832
2022.71067422
609.412407234
188.783878987
61.1260205388
21.1125973399
7.95251241765
3.36474205686
1.62706018415
0.919887128316
0.623615247525
0.483810874612
0.409057817441
0.381330244145
0.375447668992
0.351078902281
0.277039405574
0.11248203309
0.0114447580648
0.00325253352906
0.00121396930726
2227.44320958
665.801227989
202.510210572
64.5886580713
22.2813307989
8.52798298011
3.66031950929
1.77093831775
0.996733804693
0.666280856647
0.505532272995
0.419658883225
0.382788356907
0.381555649892
0.378390810003
0.322977722885
0.164839873778
0.026197172229
0.00386472688867
0.00151893169697
2458.1248527
726.003645518
215.576275874
67.107031604
22.9386448198
8.89345445034
3.8836325844
1.90203555724
1.07907254426
0.714347977597
0.533788554607
0.440215187851
0.397752478935
0.400611839127
0.415706062925
0.368176066947
0.224623645186
0.0451429262713
0.00448393496255
0.00197299408647
2783.35508441
799.313397007
227.523970537
67.9917140879
22.9954979952
9.05718566301
4.03881721739
2.01662730617
1.15823084951
0.761401254444
0.56470393336
0.466416717281
0.421249964672
0.427854047578
0.457297563884
0.414463740929
0.287026673883
0.084591297065
0.00643546597209
0.00258417549988
3280.55041005
891.856889261
237.200076215
67.4830162093
22.7495618506
9.13701095321
4.15974075199
2.11727203116
1.22813008828
0.803092985631
0.595407557717
0.495657507964
0.449863727062
0.459797460002
0.497386107449
0.456125970059
0.339195856764
0.135111795504
0.0130308505218
0.00321016534446
3947.76378968
1010.92628784
251.906506496
68.7235417764
23.0533972496
9.3490365736
4.30358032978
2.21817476076
1.28906127473
0.838485183641
0.62501249213
0.526992024322
0.482272782478
0.494831086874
0.533333047018
0.494231409348
0.378086528023
0.187817459111
0.0274716406294
0.00365305997409
4699.68102786
1141.52840711
274.647283728
73.4709155118
24.3589583191
9.80887434834
4.50934166517
2.33073260558
1.34330883599
0.869372826639
0.654141515315
0.560534669813
0.518632646122
0.532961649904
0.565881120433
0.530730301642
0.416419468738
0.238656088777
0.0443338849342
0.00417686951264
5348.73719315
1259.04034344
302.23483995
80.9295732556
26.4777922524
10.4885045512
4.7819801432
2.45342342596
1.391203769
0.896850223453
0.683173848505
0.595879752839
0.558512673847
0.572780566584
0.595062299501
0.569857261542
0.464006420178
0.292689140237
0.0748425679349
0.0055987714509
5661.8344407
1322.55056101
323.27859591
88.0604688541
28.7518823143
11.2604968849
5.09192060721
2.56901494817
1.42814155699
0.919822113297
0.711002304361
0.630948812657
0.59860729465
0.608969592086
0.622960472781
0.617266398796
0.529787535759
0.358508173244
0.118171321995
0.00935917579018
5604.29211499
1319.44543604
330.503790158
92.6948323485
30.65740109
12.0001009719
5.3849469845
2.65071365749
1.4459290154
0.934851795262
0.734880090932
0.662528422288
0.633648246975
0.636133721861
0.653367481398
0.678665367993
0.620157860782
0.444787336923
0.173513252253
0.0184384263544
0.00040830968187
0.000408235591087
0.000408264175009
0.000408380244582
0.000408585364716
0.000408898270126
0.000409364939726
0.000410087484016
0.000411294437251
0.000413503812213
0.000417895367079
0.000427172158154
0.000447686263722
0.000495483253497
0.000618051586493
0.00100278983234
0.00279539686356
0.0181961906242
0.239690163683
4.15354716363
0.000407914471651
0.000407675397258
0.000407673806049
0.000407873715671
0.000408282793284
0.000408966378951
0.000410095489089
0.000412060692905
0.00041571461071
0.000422869608497
0.000437337428062
0.00046730098187
0.000531692588685
0.000681572302316
0.0010932745877
0.00262162443774
0.0112989809008
0.0801525437054
0.7545251006
7.24396307374
0.000409876668939
0.000409355532096
0.000409248422394
0.000409499665994
0.000410142022003
0.000411342201313
0.000413514798877
0.000417556105744
0.000425290148713
0.000440324323039
0.000469841012451
0.000528990124396
0.00065391049103
0.000949219134242
0.00180850740291
0.00524853662941
0.0245684191345
0.158446756092
1.24013573249
8.20250516097
0.000412598365237
0.000411709320115
0.0004114337226
0.000411713221866
0.000412645314147
0.000414573312051
0.000418277919694
0.000425329077105
0.00043871720854
0.000464070521075
0.000512373797437
0.000607169072735
0.000807192737354
0.00129274953209
0.00278011658622
0.00898919111147
0.0427073095542
0.263061717888
1.68552687716
8.20006535324
0.00041571178978
0.000414414390882
0.000413952195675
0.00041429121284
0.000415643358109
0.000418602289578
0.000424405095072
0.000435382535024
0.000455765116261
0.000493328074218
0.000563331969056
0.000699492320768
0.000989728170207
0.00171727512678
0.00405259640281
0.0140610030492
0.0673573229364
0.394053547846
2.03064889529
7.89729802741
0.000418745189173
0.000417038884498
0.00041642524012
0.000416921434391
0.000418899514221
0.000423258094476
0.000431737804496
0.000447457490959
0.00047591903582
0.000527201463043
0.000621479812848
0.000804871804688
0.00120263873608
0.00223597193763
0.00570302669868
0.0208837073456
0.10122998163
0.539731666004
2.25630593881
7.54486739501
0.00042148933707
0.000419403116873
0.000418717332212
0.000419519814663
0.000422376385454
0.000428521406081
0.000440213618999
0.000461364055837
0.000498792846131
0.000565122882839
0.00068628220898
0.000923587270104
0.00145016216904
0.0028724399043
0.00785529923597
0.0301124406389
0.145775070473
0.680222601528
2.37579559966
7.20532591904
0.000423891712627
0.000421475265176
0.000420825381019
0.000422111945484
0.000426114365267
0.0004344143713
0.000449788182047
0.000476948652218
0.00052412414097
0.000606821476186
0.000757796713866
0.00105715348197
0.00173994530048
0.00366344131432
0.0106900510351
0.0425632416017
0.199487025077
0.798398835863
2.41936155251
6.88843827796
0.000426026796136
0.000423333055494
0.000422834429767
0.000424787017421
0.000430191438686
0.000440976938662
0.000460435936835
0.000494114060022
0.000551791025944
0.000652309635535
0.000836632353279
0.00120836704204
0.00208373122808
0.00466226563463
0.0144490163733
0.0589837713883
0.258012761752
0.886291780768
2.41492889445
6.59261386823
0.000428066468913
0.000425125088382
0.000424875961553
0.000427658525509
0.000434692598089
0.00044825036272
0.000472147543378
0.000512821638152
0.000581805095241
0.000701861815317
0.000923947127634
0.00138148598838
0.00249840538535
0.00594234303993
0.0194269577471
0.0796835900401
0.315741470249
0.944644442281
2.38194000091
6.31537212255
0.000430240288426
0.000427030146395
0.000427091382045
0.000430835440514
0.000439691627656
0.000456270370469
0.000484930866924
0.000533092995357
0.00061430906222
0.000756018097179
0.00102151349534
0.00158258614296
0.00300751694233
0.00760093751826
0.0259477114852
0.104244523105
0.367771359715
0.978815251723
2.33240170614
6.05469065679
0.000432774951271
0.000429209037577
0.000429597110681
0.000434400105301
0.00044524093208
0.000465066642314
0.000498816034148
0.000555017041839
0.000649588548041
0.000815622505066
0.00113186699251
0.00182014427514
0.0036433605558
0.00976190091542
0.0343151978591
0.131502974704
0.411162086312
0.995068322546
2.27351005548
5.80895349769
0.000435829231314
0.000431764133872
0.000432463013062
0.000438400962368
0.00045137492626
0.000474673376205
0.000513870138062
0.000578768753571
0.000688103523534
0.000881900535931
0.00125854976837
0.00210589209674
0.00444956022072
0.0125754503008
0.0447349440173
0.159816810311
0.445084696066
0.998716715012
2.2095950288
5.57672286207
0.000439472580396
0.000434736793176
0.000435721732086
0.000442869372397
0.000458131284616
0.000485152621277
0.00053022168569
0.000604637668528
0.00073053417875
0.000956567876849
0.00140644512344
0.00245594291566
0.00548381425444
0.0162124066334
0.0572255555203
0.187477319085
0.470208238235
0.993696022832
2.14325836859
5.35652461613
0.000443735799383
0.000438152622744
0.000439408818187
0.000447855284265
0.000465582502199
0.000496621864542
0.000548085337811
0.000633054731929
0.000777826521183
0.00104195161184
0.00158217961201
0.00289209807153
0.00681989099046
0.0208492283726
0.0715577937699
0.213078854933
0.487901240736
0.9827542947
2.07602018395
5.14669304449
0.000448696312826
0.000442081996764
0.000443606294982
0.000453459039181
0.000473858847236
0.000509269734587
0.000567772314751
0.000664602856413
0.000831221392461
0.00114110357433
0.00179455346256
0.00344309583322
0.00854728573572
0.0266397920164
0.0872531383647
0.235715770509
0.499633333933
0.967760472736
2.00871248364
4.94533120969
0.00045453278508
0.000446671319027
0.000448458850124
0.000459837371303
0.000483146540559
0.000523347441648
0.000589676472615
0.000700002521959
0.000892258523606
0.00125789441269
0.00205495142492
0.00414541568522
0.0107667878833
0.0336747668884
0.103650571283
0.254986426685
0.506672732943
0.949961933525
1.9417421276
4.7504141517
0.00046152147855
0.000452129108124
0.00045415352714
0.000467178303307
0.000493658177433
0.000539134687234
0.000614236478496
0.00074007502294
0.000962761216779
0.00139709420586
0.00237768945245
0.00504319439378
0.0135810663914
0.0419399416322
0.120022568719
0.270872419346
0.510005138982
0.930175459161
1.87528116285
4.56001956152
0.000469991129944
0.000458680175077
0.000460874173103
0.000475654889371
0.000505585042557
0.000556890560703
0.000641886975856
0.000785700962824
0.00104482775773
0.00156447575899
0.00278029299098
0.00618701223089
0.0170811858821
0.051292667324
0.135701568041
0.283585479503
0.510365754446
0.908931398552
1.80940919237
4.37262632806
0.000480264313653
0.00046651131117
0.000468751212697
0.000485377592166
0.00051905215199
0.000576812959322
0.00067302715806
0.000837811279827
0.00114088396003
0.00176702487375
0.00328381046544
0.00763185695657
0.0213321290602
0.0614717254028
0.150176999884
0.29344544326
0.508307426773
0.886584731379
1.74421336638
4.18738844915
0.000492620399166
0.000475737840109
0.000477834868355
0.000496374903693
0.000534108401749
0.000599042674153
0.000708048673832
0.000897463819982
0.00125387478923
0.00201339050828
0.00391341043644
0.00943517817077
0.0263617207251
0.0721407810627
0.1631397482
0.300807744504
0.504265599623
0.863396720847
1.67984297064
4.00428467103
0.000507337374313
0.000486428240687
0.000488124058109
0.000508633691901
0.000550783097766
0.000623743349282
0.000747455478266
0.000966045156912
0.00138765864891
0.00231469952637
0.00469952763553
0.0116558711531
0.0321561169549
0.0829488664035
0.17447350386
0.306027855337
0.498603986758
0.839586071418
1.61651610649
3.82407585853
0.000524813067673
0.000498696756143
0.000499659075489
0.000522202330377
0.000569205380995
0.00065124677583
0.000792058658385
0.00104557786021
0.00154759160103
0.00268573322037
0.00567949170625
0.0143537581635
0.0386611304055
0.0935841803518
0.18420885113
0.309441897728
0.491636992724
0.815350128654
1.55448513777
3.64807100144
0.00054567437845
0.000512802271505
0.000512622565661
0.000537297527738
0.000589720752507
0.000682189781216
0.000843163394507
0.00113903924843
0.00174118481711
0.00314623646618
0.00689891897021
0.0175873391906
0.0457854629049
0.103804032896
0.192462193309
0.311350528179
0.483633019107
0.790862670774
1.49397987092
3.47778181898
0.000570816219669
0.000529171141856
0.00052736266232
0.000554328196179
0.000612918314752
0.000717555983362
0.000902658573353
0.00125059171647
0.00197868660357
0.00372196679115
0.00841167764131
0.0214071682914
0.0534032995164
0.113438520433
0.199379974173
0.312005231434
0.474809057235
0.766261479963
1.43515515712
3.31458984736
0.000601445421385
0.000548349659324
0.000544324879564
0.000573820250093
0.00063955576369
0.000758614563881
0.000973006310392
0.00138572057851
0.00227353321148
0.00444515421022
0.0102775242366
0.0258445212067
0.061358485447
0.12237794979
0.205101595741
0.311602469296
0.465328116621
0.741639775275
1.37806426012
3.15952886724
0.000639138609793
0.000570943054616
0.000563963168734
0.000596318018762
0.000670462365626
0.000806843171413
0.00105723032778
0.00155139313505
0.00264275890146
0.00535432379552
0.0125574969926
0.03089892662
0.0694748891752
0.130557123834
0.209744564054
0.310289168172
0.455306063466
0.717049480144
1.32266351723
3.01321444928
0.000686207341966
0.000597683671813
0.000586744641972
0.000622369258406
0.000706526211564
0.000863948062876
0.00115903610966
0.00175640785084
0.00310755972809
0.00649377569307
0.0153081527213
0.0365305190319
0.0775742374023
0.137944385608
0.213406428434
0.308176870228
0.444826567736
0.692514895532
1.26883691871
2.87587845362
0.000746541863721
0.000629673352666
0.000613285318271
0.000652633585791
0.000748812066101
0.000932042388841
0.00128315507951
0.00201207728657
0.00369420741332
0.00791315973048
0.0185760019223
0.0426615470302
0.0854966374514
0.144535785492
0.216173581928
0.305357469223
0.433957559042
0.668049324284
1.21642250705
2.74742963625
0.000826247486651
0.00066862158428
0.000644536216869
0.000688064126418
0.000798778726604
0.00101397413665
0.00143593933344
0.00233330588391
0.00443536665986
0.00966724184699
0.0223927830295
0.0491863924681
0.0931157068852
0.150350186002
0.218127828588
0.301913536111
0.422762071223
0.643666568321
1.16522695287
2.6274727313
0.000934257768716
0.000716998326613
0.000681927655754
0.000730086122127
0.00085853612743
0.00111376283183
0.00162618382154
0.00273999973203
0.00537155948207
0.011815096948
0.0267710063717
0.0559847373538
0.100342310198
0.155421306537
0.219346180297
0.297920124257
0.411300144585
0.619383599666
1.11502668099
2.51526170546
0.00108482305699
0.000778314125632
0.000727449111897
0.000780711053995
0.000931074261881
0.00123707323511
0.00186606550994
0.00325849580504
0.00655195991364
0.0144168307706
0.0316983108089
0.06293128122
0.107116276955
0.159785866249
0.219894452715
0.293439539299
0.399623052919
0.595215540562
1.06556396862
2.40961500253
0.00129992981146
0.000857302101655
0.00078358925323
0.000842520940221
0.00102038473535
0.00139160860747
0.00217194219936
0.00392233577427
0.00803307302799
0.0175255212207
0.0371299329999
0.069898702768
0.113391124939
0.163470977139
0.219819251501
0.288514217612
0.387765121593
0.571168351327
1.01655152944
2.30886025871
0.00160570361165
0.000959487111754
0.000853043218693
0.000918490924678
0.00113143395194
0.00158731324544
0.00256466823953
0.0047715587598
0.00987388425858
0.0211739317059
0.0429817428704
0.0767564587537
0.119120271463
0.166486471286
0.219144472678
0.283164043286
0.37573989745
0.547236218249
0.967695896459
2.21087956901
0.00202809866644
0.00109132677985
0.000938423174935
0.00101174485782
0.00127003667626
0.00183634426514
0.00306916828747
0.00585007935979
0.0121273588429
0.0253596836805
0.0491295434361
0.0833718569166
0.124252272967
0.168826661247
0.217876344469
0.277392073376
0.363545293499
0.523408663544
0.918740353547
2.11328287755
0.00261050914079
0.00126317819806
0.0010425559162
0.00112556744714
0.00144287592328
0.00215300305286
0.00371346478135
0.00720182259034
0.0148306218338
0.0300362705743
0.0554197014489
0.0896180551835
0.128736958335
0.170480913271
0.216015673176
0.271197163684
0.35117643319
0.4996855911
0.869515123903
2.01366648755
0.00345557998233
0.00149371418602
0.0011693929392
0.00126394023223
0.00165799646836
0.00255403468471
0.00452789693061
0.00886722864342
0.0179976983668
0.0351157821562
0.061689535405
0.0953865097857
0.132536398904
0.171445995924
0.213570202333
0.264586412987
0.338639022987
0.476092336274
0.819977698014
1.9099428881
0.00472150181115
0.00181247715746
0.00132473984045
)
;

boundaryField
{
    emptyPatch
    {
        type            empty;
    }
    minY
    {
        type            fixedValue;
        value           uniform 4.5592e-05;
    }
    maxY
    {
        type            inletOutlet;
        inletValue      nonuniform List<scalar> 0();
        value           nonuniform List<scalar> 0();
    }
    maxX
    {
        type            epsilonWallFunction;
        blending        stepwise;
        value           nonuniform List<scalar> 
37
(
11.7074881715
29.7389615268
43.3775238635
51.5152495572
55.5735449026
57.2081073249
57.4632568545
56.909684939
55.868877504
54.537031847
53.0383489662
51.4521555209
49.8285651755
48.1979974287
46.5773111157
44.9742397859
43.3909781654
41.8272160149
40.2825785633
38.7582651545
37.2576866348
35.7860847336
34.3494094158
32.9529758045
31.6004516433
30.2934849974
29.0319178223
27.8142612804
26.6380687494
25.5000036013
24.3956414709
23.3192395276
22.2637824271
21.2215159335
20.1849250164
19.1478162243
18.1058632495
)
;
    }
    water_to_heater
    {
        type            epsilonWallFunction;
        blending        stepwise;
        value           nonuniform List<scalar> 
61
(
21.4055364144
1078.05351422
1078.05351422
1824.51619002
1824.51619002
2491.71291965
2491.71291965
2854.87631881
2907.77232326
2808.29774734
2808.29774734
2715.489741
2715.489741
2609.7015392
2609.7015392
2511.47637115
2541.74685785
2853.69754284
2853.69754284
3509.20666796
3509.20666796
3927.51970567
3927.51970567
4033.45521015
4050.02894405
4022.06738627
4022.06738627
4032.60686708
4032.60686708
4114.45256352
4114.45256352
4257.58738549
4404.6608282
4497.66454472
4497.66454472
4487.47749957
4487.47749957
4317.97493216
4317.97493216
4232.96881202
4449.22849928
4904.36005432
4904.36005432
5589.59238179
5589.59238179
6347.25601254
6347.25601254
7084.34884517
7910.70973316
9018.17848328
9018.17848328
10579.4427769
10579.4427769
12545.6559068
12545.6559068
14539.914207
16016.0780655
16458.0343139
16458.0343139
16212.1353615
16212.1353615
)
;
    }
    procBoundary2to3
    {
        type            processor;
        value           nonuniform List<scalar> 
41
(
5420.28879135
1290.43411905
332.964834262
96.6354330436
32.5690137081
12.8008224029
5.64689460879
2.68694505746
1.44058752696
0.939772057637
0.752617808228
0.688755465778
0.66132174507
0.657350136212
0.693911434601
0.760898835459
0.737108657543
0.546978498618
0.241652695343
0.0374404395655
0.00143228452192
0.00192562114419
0.00305924067861
0.0055446920723
0.0108805027164
0.0216161549534
0.040480802887
0.0677871198631
0.100594809178
0.135630584133
0.171731571271
0.210560204802
0.257583195794
0.325965548842
0.452715438792
0.77027318521
1.79994673862
0.00657844171206
0.00226743006783
0.00143228452192
0.0015168919644
)
;
    }
}


// ************************************************************************* //
