/*--------------------------------*- C++ -*----------------------------------*\
| =========                 |                                                 |
| \\      /  F ield         | OpenFOAM: The Open Source CFD Toolbox           |
|  \\    /   O peration     | Version:  2312                                  |
|   \\  /    A nd           | Website:  www.openfoam.com                      |
|    \\/     M anipulation  |                                                 |
\*---------------------------------------------------------------------------*/
FoamFile
{
    version     2.0;
    format      ascii;
    arch        "LSB;label=32;scalar=64";
    class       volScalarField;
    location    "0.69/water";
    object      k.gas;
}
// * * * * * * * * * * * * * * * * * * * * * * * * * * * * * * * * * * * * * //

dimensions      [0 2 -2 0 0 0 0];

internalField   nonuniform List<scalar> 
1503
(
0.034824447081
0.00820724118496
0.00222451878289
0.000875374878068
0.000977314863411
0.0011789441269
0.00124824002196
0.00126646280524
0.00127139754341
0.00127071255613
0.00126705466454
0.00126192196754
0.00125651040288
0.0012515428876
0.00124736448772
0.00124406201104
0.00124157509582
0.00123977918616
0.00123853885565
0.00123773673847
0.474894908465
0.149030732659
0.0412560152717
0.0134063583883
0.00367654394576
0.00165965629419
0.00116934758468
0.00122372738697
0.0012724312891
0.00128178344717
0.00128044261003
0.00127587248628
0.00126977178126
0.00126313979583
0.00125671306802
0.00125098626563
0.00124621679746
0.00124247032704
0.00123969063824
0.00123776686659
0.674533349096
0.253457094605
0.0909742159592
0.0308354108696
0.0108898568007
0.00350424806079
0.00155694676703
0.00117196331577
0.00124735152768
0.00128511900196
0.00129021735947
0.00128830729118
0.00128365481915
0.00127745610681
0.00127052284949
0.00126355559763
0.00125712204389
0.00125160200479
0.00124718154738
0.00124389651283
0.830380214004
0.331127274958
0.131412184386
0.0501193540081
0.0210818114898
0.00665430046927
0.00244847646797
0.00128748829816
0.00120467066132
0.00127723798105
0.00129438927404
0.00129581830987
0.00129337176661
0.00128866939552
0.0012824989539
0.00127552543541
0.00126841304708
0.00126176040832
0.0012560141606
0.00125143617188
0.909229111904
0.380965729813
0.160386319172
0.066925880413
0.0261257888973
0.0116797750703
0.00352598754134
0.00155272469306
0.00117508255166
0.00125643796616
0.00129454570291
0.00129998287073
0.00129990971192
0.00129704748542
0.00129220406679
0.00128596598845
0.00127895188414
0.00127182895332
0.00126521736416
0.0012595940734
0.920492443734
0.404807305032
0.179643153824
0.0798516989517
0.0343285333503
0.0133180172123
0.00575036239251
0.00178219298281
0.00113247423409
0.00121235816988
0.00129075156837
0.00130239011768
0.00130428057374
0.00130310946298
0.00129960754392
0.0012943168822
0.00128777731095
0.00128062512672
0.0012735469602
0.00126716788221
0.899632420524
0.408507430557
0.189167793865
0.0885573943977
0.0407906472182
0.0175977773921
0.00654619833474
0.00255577448316
0.000987644530955
0.00108370266418
0.0012746707029
0.00130421944823
0.00130730571997
0.00130735961943
0.00130494462127
0.00130052674188
0.00129457367452
0.00128764666368
0.00128041436295
0.00127356586914
0.88011046277
0.403926367847
0.192418239124
0.093869637171
0.0454848709285
0.0210258883242
0.00872930213911
0.00321283346802
0.00110093298278
0.000802176905638
0.00120212456203
0.00130436887971
0.00130935511754
0.00130985832874
0.00130819410537
0.00130451562278
0.00129918881954
0.00129267410609
0.00128556074525
0.00127854770774
0.857207584733
0.398246907053
0.193952190389
0.0974036379121
0.0487476989854
0.0235590468311
0.0105984003309
0.00412572539356
0.00165032987659
0.000622392089252
0.000979151296301
0.00129228410945
0.00131106373517
0.001310793494
0.00130946347365
0.00130640696416
0.00130174995696
0.0012958188813
0.00128909269623
0.00128219745198
0.834738893371
0.396383104218
0.196880183667
0.100335469248
0.0508998403265
0.0252321215232
0.0120513005138
0.00528932779546
0.00190601979771
0.000782349074879
0.000657959043892
0.00122371776361
0.00131341534048
0.00131114379867
0.00130943562386
0.00130683772577
0.00130287923334
0.00129764960628
0.00129147508851
0.0012848771008
0.83930070884
0.406670599238
0.203334117146
0.10316935602
0.0522378847245
0.0263505237371
0.0132628877951
0.00641891433972
0.00270523706864
0.00107916820769
0.000534305155533
0.00101322117168
0.0013133609184
0.00131342008859
0.00130968551979
0.00130711595708
0.00130370364845
0.001299109283
0.00129345927676
0.00128715203874
0.904040970182
0.435491887258
0.213171688321
0.105643476841
0.0532878920542
0.0275188460203
0.014537504884
0.00763149118158
0.00366461630484
0.00144214707589
0.000714427527625
0.000674888687059
0.00126595867446
0.00132122634764
0.00131261335713
0.00130899495124
0.00130563391575
0.00130131568273
0.00129588812731
0.00128961878617
1.03755046887
0.472042778262
0.221415846401
0.108123274111
0.0550939915327
0.0292359295139
0.016065760606
0.00898685236922
0.00478784687812
0.00215577763779
0.000849899879114
0.000542803345518
0.000995425624221
0.00132745552812
0.00132070424679
0.00131396487877
0.0013097973778
0.0013051280146
0.00129937831413
0.00129268301942
1.12451399146
0.495706640426
0.229532936754
0.111948706439
0.0575888868291
0.0311891121189
0.0176674489525
0.0103268364695
0.00594598319637
0.00298901950919
0.00123878654492
0.000728406046197
0.000566643563349
0.00123489648835
0.00133418564667
0.00132263850162
0.0013165553824
0.00131081316972
0.00130410714732
0.00129643853319
1.14694553688
0.507257227555
0.234968976889
0.114727674601
0.0594451122482
0.0327188391569
0.019014443845
0.0115151637249
0.00699249962228
0.00379703283547
0.00168597853828
0.000813980958528
0.000553852850185
0.000825636862791
0.00133348725056
0.00133479610497
0.00132559248956
0.00131813316119
0.00130990117463
0.0013007577134
1.14967175374
0.510578405945
0.237260998452
0.116243922298
0.0606074652065
0.0337581190882
0.0200092145291
0.0124752271371
0.00786686420804
0.00450092705278
0.00208146477711
0.0010469315115
0.000623912636085
0.000466899342203
0.00121545382464
0.00134856957975
0.00133644347504
0.00132672210279
0.00131651486184
0.00130549981023
1.14562194402
0.510444175141
0.238248146001
0.117108187079
0.0612852542475
0.0344107159984
0.0207280684953
0.0132424867202
0.00859094338142
0.00506518619019
0.00239919162976
0.00122031590265
0.000763084747287
0.000481934897423
0.000875740295807
0.0013537956457
0.00134867613017
0.00133630355937
0.00132380637544
0.00131064179313
1.14606578486
0.51067286501
0.238771604685
0.117520301529
0.0616363954661
0.0348330171629
0.0212757473533
0.0138763193396
0.00919386084942
0.00551795670472
0.00265456606418
0.00134616254423
0.000894315364739
0.000588425792761
0.000559171882636
0.00132843840136
0.00136183413675
0.00134665779616
0.00133171180846
0.00131625746648
1.16220443979
0.515592430397
0.240221206729
0.118131234837
0.0620967572055
0.035312443992
0.0218207007874
0.0144528990631
0.00969418146125
0.00590650046039
0.00289145899146
0.00146239758556
0.000993757523375
0.000592641657815
0.000447556991461
0.00126683616019
0.0013755012756
0.00135745206732
0.00134009939729
0.00132239481384
1.18763021854
0.524963003647
0.243557794943
0.119678243063
0.0631042978336
0.0360857476433
0.022472212446
0.0149716245116
0.0101180686202
0.00630136184383
0.00317988962025
0.0016152045447
0.00109650417491
0.000684259154019
0.000468701041271
0.00118867142397
0.00139034296504
0.00136829946641
0.00134865142131
0.00132893075308
1.21578469778
0.53515392531
0.247949306863
0.122266864042
0.0648705968272
0.0372471326617
0.0231788303072
0.0154260757723
0.0105347640145
0.0067372095826
0.00356602229186
0.00183241915476
0.00122935496926
0.000828290650558
0.000577105154284
0.00109469551741
0.00141057769457
0.00137941216385
0.00135692625821
0.00133550586113
1.23326022828
0.54078428539
0.251700299654
0.125674738397
0.0673903197587
0.0386895482496
0.0238683148333
0.0158107297986
0.0108689397028
0.00712224821361
0.00402139770061
0.00206801911187
0.00140737602124
0.00102780876345
0.000784906119464
0.000921603007915
0.0014378906606
0.00139228087112
0.00136464319635
0.00134165436163
1.23383961127
0.54139217131
0.256630544434
0.130815190247
0.0706870640256
0.040109572915
0.0242583290722
0.0158739038456
0.0109141423741
0.00737296457098
0.00442749748121
0.00228593622447
0.00154941506518
0.00125823490118
0.000824021793901
0.000694095627486
0.00142717449443
0.00141030459119
0.00137212797399
0.00134711426395
1.20297140229
0.545249904353
0.266750576892
0.138361431567
0.0741194954004
0.04080442506
0.0239960471462
0.0155492375216
0.0107811385014
0.0074951504419
0.00471014035313
0.00244451499122
0.00159588823324
0.00141887016271
0.00108851829072
0.000784576343759
0.00116216286049
0.0014345294048
0.00138040516279
0.00135200674462
1.18265588804
0.56290436331
0.283144999449
0.146714986922
0.0763558524922
0.040542325895
0.0236099711727
0.0152704544355
0.0106397447844
0.00754143590959
0.00489939329402
0.00254800685734
0.00158805270814
0.00143715989336
0.00127190096029
0.000802607325978
0.000672501584912
0.0014218738039
0.0013906682391
0.00135668689254
1.21836073511
0.596036941373
0.302120071533
0.15411500084
0.0778216284037
0.040938191272
0.0237050271279
0.0152376256643
0.0106111471006
0.00762302658913
0.00508786372592
0.00264290744272
0.00155379573795
0.00140521847873
0.00132101578515
0.00099472999042
0.000611220288274
0.00118731258438
0.00140105592961
0.00136153226749
1.29725612442
0.638488047097
0.320136609718
0.160734194347
0.0807039634519
0.042347695332
0.0243986520913
0.0155449178878
0.010787805388
0.00785136747565
0.00535996867964
0.00278111912409
0.00152623921408
0.00136231318665
0.00130678982814
0.00110533098948
0.000684272761292
0.000719861774479
0.00139354164947
0.00136681790275
1.41425012231
0.684199435345
0.336097149906
0.166890634615
0.0844023496939
0.0445389148038
0.0255608999276
0.0161527001307
0.011183944564
0.0082446251571
0.00573421565987
0.00300275397721
0.00153706048495
0.00133159346689
0.00130013124017
0.0011700079124
0.000740466092143
0.000473426001056
0.00131324912908
0.0013724534182
1.53935449042
0.732763995814
0.352852420926
0.172944926093
0.087576708589
0.0467769301379
0.0269621447585
0.0169766876471
0.0117606935475
0.0087508575908
0.00617762886475
0.00331799847119
0.00160977821976
0.00132918311081
0.00132375239007
0.00123323408122
0.000871872123845
0.000488357759021
0.0011013450099
0.00137694661408
1.65603342201
0.781223173285
0.369180754214
0.177957999834
0.0897330505491
0.0483947601507
0.028184988412
0.0178325741612
0.0124260084182
0.00928571502429
0.00662331771839
0.00369372984248
0.00174836901903
0.00136283614144
0.00137913819878
0.00131453625812
0.000999477013989
0.000610313541591
0.000794356811259
0.00137505667001
1.78130529771
0.830335914258
0.383543731573
0.180859830305
0.090498132154
0.0492749574916
0.029073025558
0.0186015006477
0.0130953500245
0.00979687157813
0.00701254507536
0.00403332414578
0.00192646431588
0.00142664626352
0.00145511490367
0.00140035358205
0.00113175961396
0.000617748579343
0.000532620971353
0.00134964123682
1.94181389624
0.883504623598
0.394045147513
0.180350642246
0.0897830047619
0.0495168968808
0.0296754533565
0.019276782956
0.0137152672316
0.0102425640523
0.00732881750176
0.00429479037614
0.00208562437686
0.00150361261982
0.00153597588778
0.00148796192831
0.00125903020419
0.00077101262194
0.000432597050355
0.00125482139648
2.15809447321
0.939564558847
0.398387919306
0.176860386588
0.0883242886094
0.0495103288582
0.0301439649103
0.0198726789348
0.0142445310283
0.0105919518353
0.00755362730657
0.00446721564425
0.00220515137619
0.00157792248216
0.00160912904224
0.00156215023323
0.00135492479921
0.000921048221864
0.000493177293931
0.00103655363794
2.41916733922
1.0032079797
0.404836016803
0.175213553093
0.0878134463221
0.0498150582189
0.0306747725644
0.0204466155275
0.0146778236856
0.0108382892026
0.00768857498623
0.00456539835276
0.0022922684738
0.0016467665405
0.00166951787522
0.00162489058346
0.00141896351636
0.00104265762475
0.000604469888508
0.000750717362369
2.67861832314
1.06561966576
0.418059374189
0.178330782914
0.0891114068899
0.0506875495692
0.0313839569367
0.0210346290635
0.0150205629879
0.0109958971492
0.00775226385456
0.0046205399186
0.00236887140023
0.00171540882627
0.00172098195318
0.00168208335008
0.00147843412603
0.00113954916319
0.000614229065261
0.000539469897333
2.87521097883
1.11468728222
0.435285320649
0.185245990246
0.0919305132616
0.0520706240862
0.032286013959
0.021617171679
0.0152718126024
0.0110748196097
0.00776307342763
0.00465897691008
0.00245269958151
0.00178668187719
0.00176607121435
0.0017420725804
0.00155248300118
0.00123422963895
0.000714155707401
0.00045036807355
2.95086195788
1.13569204789
0.448447276947
0.19246365212
0.0952351881934
0.0537140950361
0.0332927527853
0.0221111095595
0.0154064125035
0.0110715117707
0.00772896850565
0.00469063792587
0.00254520830837
0.00185483520259
0.00181006970022
0.00181377448412
0.00165412566347
0.00134709463076
0.000837891208105
0.000455093110188
2.92422948442
1.12656305692
0.451507070175
0.19715590608
0.0981237611664
0.0553676442827
0.0342356266229
0.0224038553224
0.0153838611462
0.0109689561559
0.00764675710138
0.00471194747252
0.00263452202183
0.0019120398586
0.00185948111571
0.00190345942139
0.00178747773623
0.00148967160977
0.000971281692346
0.00052946800086
0.00123729247913
0.00123713029469
0.00123718084857
0.00123740780147
0.00123780134131
0.00123836731488
0.00123911905485
0.00124006880105
0.00124121617143
0.00124253166565
0.00124393460951
0.00124526811466
0.0012462799669
0.0012466267182
0.00124592800388
0.00124398640174
0.00124305423646
0.00129216852187
0.00262445436165
0.023297424019
0.00123660456147
0.0012360780815
0.00123603998641
0.00123639091815
0.00123707895469
0.00123807584752
0.00123935586527
0.00124087630939
0.00124255942548
0.00124427783306
0.00124584749681
0.00124702991195
0.00124753326734
0.00124697653054
0.00124480193788
0.00124126908493
0.00126063625217
0.00172104433007
0.00713900414672
0.0433726272627
0.00124174362405
0.00124061221805
0.0012402896477
0.00124059246551
0.00124139338852
0.00124258967457
0.00124407395576
0.0012457125938
0.00124733397175
0.00124872766125
0.00124964976036
0.00124981719991
0.00124885377182
0.00124613645235
0.00124077236544
0.00123705822579
0.00133317270459
0.00268851603069
0.0129890128183
0.0557837904875
0.00124820705255
0.00124631182636
0.00124551509804
0.00124555299572
0.00124621052659
0.00124729369809
0.00124860443018
0.0012499270458
0.00125102762296
0.00125165909402
0.00125155485613
0.00125038132396
0.00124760656326
0.0012422919881
0.00123397981312
0.00124212536658
0.00154244923361
0.00444397154334
0.0194729264618
0.0625587733659
0.00125535737915
0.00125265075686
0.00125125783509
0.00125085701774
0.001251153176
0.00125186688502
0.00125272304207
0.00125344828177
0.00125377454967
0.00125343476107
0.00125212836876
0.0012494273749
0.00124459768365
0.00123656505176
0.0012277961853
0.00127677449704
0.00199231550959
0.00699122259907
0.0253022648265
0.0658025057676
0.00126207939344
0.0012586083634
0.00125658253544
0.00125565017586
0.00125545429979
0.00125564789428
0.00125589978754
0.00125589993706
0.00125535866882
0.00125398438553
0.00125141983837
0.00124711591752
0.00124017787713
0.00123000667052
0.00122737814809
0.00137152160638
0.00278154049114
0.010049136617
0.0297490809443
0.067086415468
0.00126784410136
0.00126372304622
0.00126109734056
0.00125960978703
0.00125886468643
0.00125846962635
0.00125805721294
0.00125729370845
0.00125586913064
0.00125345644551
0.00124962620875
0.00124371616364
0.00123484280411
0.00122419348338
0.00124073646562
0.00156665646579
0.00395324795974
0.0131572141236
0.0327495546043
0.0672855726743
0.00127244345849
0.00126782917277
0.00126468036693
0.00126265712001
0.00126135040788
0.00126034536239
0.00125925513486
0.00125772971863
0.00125543637496
0.00125200466175
0.00124693257723
0.00123949915088
0.00122919672616
0.0012214002443
0.00127948863615
0.00190657317971
0.00545630958004
0.0159179806706
0.0346048984117
0.0668525295989
0.00127594380614
0.00127099281881
0.00126740320823
0.00126487379007
0.00126300703863
0.00126138668456
0.00125961971571
0.00125734424417
0.0012542026726
0.00124977978133
0.00124351975715
0.00123476021294
0.00122402244159
0.0012248985157
0.00135934189063
0.00242755053677
0.00715380224818
0.0181349062028
0.0356560758033
0.0660346488031
0.00127862616088
0.00127343501686
0.00126944708331
0.00126641712066
0.00126397921401
0.00126173179767
0.00125928467944
0.00125626643244
0.00125229438779
0.00124691538503
0.00123956250781
0.00122983769665
0.00122037354078
0.0012393241545
0.00149972833422
0.00314269039902
0.00887503058601
0.0197957731232
0.0361638059534
0.0649806404276
0.00128089868334
0.00127544823246
0.00127102724919
0.00126745434971
0.00126440570501
0.00126150238945
0.00125836049114
0.00125459940353
0.00124981361858
0.0012435286709
0.00123524079058
0.0012251489365
0.00121970841269
0.0012710706761
0.00172183989904
0.00403250460232
0.010475107606
0.0209843597376
0.0363051668104
0.0637842868056
0.00128316034054
0.00127729256497
0.00127231586073
0.0012681064776
0.00126437991929
0.00126077779971
0.00125691998082
0.00125241534204
0.00124684097306
0.00123973013739
0.00123075968082
0.00122124208607
0.00122406859149
0.00132860457919
0.00204467598986
0.00504734072133
0.0118684878678
0.0218061955907
0.0361982103917
0.0625057540067
0.00128565454808
0.00127910467235
0.00127338875274
0.00126842002973
0.00126393808157
0.00125959423544
0.00125500509415
0.00124976729752
0.00124345073829
0.0012356420942
0.00122637726968
0.00121886593956
0.00123630361934
0.00142253313693
0.00247990686596
0.00612075383175
0.0130288991839
0.0223535693903
0.0359222711502
0.0611834572679
0.00128841322572
0.0012808831337
0.00127423450857
0.00126838839906
0.00126308606614
0.00125797325263
0.00125265476192
0.00124671501688
0.00123973408883
0.001231420913
0.0012224365941
0.00121905883666
0.00126032909762
0.00156513954138
0.00302744049962
0.00718695840045
0.013969551649
0.0226976171289
0.0355310336144
0.0598410591323
0.00129134614657
0.00128257174716
0.00127482856313
0.0012680158755
0.00126185361269
0.00125596672102
0.00124994110623
0.00124335286052
0.00123581980243
0.00122727467702
0.00121939722309
0.00122325729767
0.0013013679012
0.00176904989174
0.00367362577807
0.00819451498235
0.0147210684324
0.022890877593
0.0350609139967
0.0584918760281
0.00129439609658
0.0012841744978
0.00127521844732
0.00126738110133
0.00126034138387
0.00125369083403
0.00124699244642
0.001239823351
0.00123188069
0.00122346921981
0.0012178651898
0.0012334222346
0.00136606292248
0.00204494025913
0.00439303191234
0.00911199911007
0.0153165749276
0.022971567057
0.0345365950169
0.0571420602472
0.00129762784085
0.00128581212604
0.00127555815609
0.00126665638766
0.00125872953115
0.00125132637627
0.00124398680814
0.00123630549328
0.00122811990081
0.00122032183433
0.00121862528266
0.00125217070809
0.00146228270142
0.00239875051141
0.0051532968552
0.00992627372312
0.0157849125818
0.022967126854
0.0339747307008
0.0557932497082
0.00130120178004
0.00128769011919
0.00127607317022
0.00126607095745
0.00125723963686
0.00124907990835
0.00124111333
0.00123297836174
0.00122474116117
0.00121819054879
0.00122268427829
0.00128288274731
0.00159844705134
0.00282940084155
0.00592132896333
0.010636921875
0.0161490865412
0.0228969793601
0.0333864742508
0.0544449278889
0.0013052677967
0.00129000577896
0.00127697707014
0.00126583395525
0.00125606292921
0.00124711780031
0.00123851403557
0.00122997387756
0.00122191859734
0.00121747558529
0.00123133498149
0.00132973586985
0.00178237038983
0.00332806377256
0.00666877409567
0.0112504549975
0.0164269951403
0.0227747634839
0.0327792597615
0.0530964468676
0.00130983648533
0.00129283940272
0.00127837583568
0.00126604829488
0.00125528390716
0.00124550183013
0.00123623447167
0.00122734629972
0.00121979128111
0.00121865347125
0.00124624646692
0.00139762634721
0.00201990991636
0.00387947707998
0.00737527622857
0.0117762499494
0.0166327311787
0.0226101681752
0.0321580871764
0.0517485036367
0.00131470125254
0.00129608532912
0.0012802079531
0.00126666144388
0.00125484466252
0.00124416948567
0.00123422176958
0.00122508978909
0.00121850468246
0.0012223556851
0.00126957683062
0.00149197841208
0.00231388848588
0.00446488246175
0.00802918756877
0.0122244259905
0.0167777582011
0.0224103723964
0.0315264382449
0.0504038388853
0.00131949989935
0.00129948688644
0.00128227457657
0.00126750230814
0.00125459266002
0.00124299249087
0.00123239194905
0.00122321304833
0.00121829643552
0.00122948180477
0.0013040962042
0.00161848526801
0.00266364178025
0.00506547534971
0.00862631539557
0.0126049532923
0.016871736949
0.0221810652702
0.0308868818571
0.0490670622607
0.00132392621624
0.0013027911894
0.00128437331135
0.00126840928299
0.00125440525529
0.00124189461878
0.00123073702359
0.00122183480746
0.00121958954027
0.00124131756184
0.00135330107626
0.00178280147625
0.00306519132614
0.00566515130456
0.00916766374845
0.0129272140228
0.016922954256
0.0219270399195
0.0302414114767
0.0477437638013
0.00132791454763
0.00130591184401
0.00128644484812
0.00126936202492
0.00125430345677
0.00124094389815
0.00122939442833
0.00122123566059
0.00122304705192
0.00125963116854
0.00142148620365
0.00199011527569
0.00351177442383
0.00625183542708
0.00965704148939
0.0131996092091
0.0169384234596
0.0216524195717
0.029591577008
0.0464393222677
0.00133160813679
0.00130894245932
0.00128859484618
0.001270495522
0.00125445206008
0.0012403380736
0.00122862174807
0.00122183432599
0.00122957936596
0.00128674588204
0.00151371333566
0.00224449684723
0.00399449289319
0.00681742985948
0.0100991348805
0.0134292029071
0.0169238363549
0.0213606632862
0.0289385123798
0.0451579059123
0.00133520081092
0.00131203249915
0.00129097921454
0.00127198662261
0.00125504816577
0.00124029962638
0.00122870626514
0.00122412780027
0.00124034591221
0.00132560430533
0.00163559927813
0.00254806069678
0.00450306216953
0.00735695958514
0.0104983337233
0.0136215693455
0.0168835728527
0.0210545331726
0.0282829617316
0.0439019957732
0.0013387990441
0.0013152511161
0.00129367237744
0.00127392876476
0.0012562075571
0.00124098053719
0.00122989761201
0.00122866960866
0.00125680538562
0.0013798294842
0.00179288033903
0.00290022114797
0.00502674665748
0.00786759413359
0.0108583063757
0.0137809395558
0.0168208847412
0.0207361537038
0.0276253644686
0.0426724457752
0.0013424954796
0.00131861255494
0.00129667215293
0.00127632626187
0.00125795677169
0.00124246126537
0.0012324263168
0.00123612999278
0.00128083694275
0.00145376280495
0.00199080540362
0.00329742703274
0.00555543336615
0.0083479528507
0.0111820923436
0.0139105710082
0.0167382223169
0.0204071823687
0.0269659885783
0.0414688211689
0.00134657694311
0.00132226060999
0.00130005280912
0.00127921783986
0.00126033425755
0.00124484052064
0.00123659987179
0.00124742745907
0.00131491435592
0.00155244327651
0.0022335034277
0.00373358353536
0.00608058952972
0.00879773290934
0.0114723855985
0.0140131498613
0.016637573931
0.0200690211133
0.0263050618814
0.0402896767788
0.00135173787185
0.00132666390452
0.00130413756529
0.00128282414697
0.00126351545843
0.00124834749318
0.00124292340681
0.00126389234741
0.00136229319448
0.00168148893423
0.00252347368977
0.00420100713841
0.00659579267592
0.00921746836541
0.0117317291119
0.0140910452526
0.0165206822911
0.0197229657917
0.0256428461468
0.0391325548562
0.00135906579164
0.00133264177493
0.00130954207645
0.0012876024813
0.0012678711932
0.00125340802481
0.00125219632283
0.00128742722099
0.00142716196537
0.00184682908729
0.00286124755471
0.00469148322237
0.00709666906797
0.00960821723654
0.0119624873261
0.0141463416336
0.0163890779108
0.0193702296316
0.0249796355474
0.037993706268
0.00136942591227
0.00134114108994
0.0013170280594
0.00129415264189
0.00127391166432
0.00126062916734
0.00126556174369
0.001320639067
0.00151468338021
0.00205420205739
0.00324515153761
0.00519698445514
0.00758030793211
0.00997110628579
0.0121666219828
0.0141806964561
0.0162439627644
0.0190118385412
0.0243156913163
0.0368677441477
0.00138170602836
0.00135284764134
0.00132720762019
0.0013029931935
0.00128212949397
0.00127071662065
0.00128452098431
0.00136692072034
0.00163081211795
0.00230833353379
0.00367109572638
0.00570986537386
0.0080444260399
0.0103068412814
0.0123454256625
0.0141951660431
0.0160860589704
0.0186484704385
0.0236511606075
0.0357475507302
0.00139049832763
0.00136783917257
0.00134020767414
0.00131429527888
0.00129281931963
0.00128439232246
0.00131095526217
0.00143044715154
0.00178177509295
0.0026118536399
0.00413247449856
0.00622271867547
0.00848666978749
0.0106154083261
0.0124994176158
0.0141901685687
0.0159155633117
0.0182803529584
0.0229860428985
0.0346246948971
0.00138417018551
0.00138539723504
0.00135544459544
0.00132771787976
0.0013059941189
0.00130240305712
0.00134719370002
0.00151603527046
0.00197321177663
0.00296428503935
0.00462044081438
0.00672829677009
0.00890437834149
0.0108961518225
0.0126285334279
0.0141656805421
0.0157322958137
0.0179073182728
0.0223202576037
0.0334903736312
0.00134811953159
0.00140420147189
0.00137180676255
0.00134256308553
0.0013215409121
0.00132570145901
0.0013961377271
0.00162884783062
0.00220920253274
0.00336162760283
0.00512476640059
0.00721979364847
0.0092948703358
0.0111482058198
0.0127325522481
0.0141216062596
0.0155360006084
0.0175290080766
0.0216537927556
0.0323365614372
0.00127680977902
0.00142301401895
0.00138832436365
0.00135827414714
0.00133961066479
0.00135576705826
0.00146138428104
0.00177399143737
0.00249155976742
0.0037968604953
0.00563512778906
0.00769138300548
0.00965595642104
0.0113709877116
0.0128115036292
0.014058102224
0.0153266143028
0.0171450383258
0.0209865704691
0.031156664471
0.00117889218234
0.00144175513846
0.00140471794192
)
;

boundaryField
{
    emptyPatch
    {
        type            empty;
    }
    minY
    {
        type            fixedValue;
        value           uniform 0.000138;
    }
    maxY
    {
        type            inletOutlet;
        inletValue      nonuniform List<scalar> 0();
        value           nonuniform List<scalar> 0();
    }
    maxX
    {
        type            kqRWallFunction;
        value           nonuniform List<scalar> 
37
(
0.023297424019
0.0433726272627
0.0557837904875
0.0625587733659
0.0658025057676
0.067086415468
0.0672855726743
0.0668525295989
0.0660346488031
0.0649806404276
0.0637842868056
0.0625057540067
0.0611834572679
0.0598410591323
0.0584918760281
0.0571420602472
0.0557932497082
0.0544449278889
0.0530964468676
0.0517485036367
0.0504038388853
0.0490670622607
0.0477437638013
0.0464393222677
0.0451579059123
0.0439019957732
0.0426724457752
0.0414688211689
0.0402896767788
0.0391325548562
0.037993706268
0.0368677441477
0.0357475507302
0.0346246948971
0.0334903736312
0.0323365614372
0.031156664471
)
;
    }
    water_to_heater
    {
        type            kqRWallFunction;
        value           nonuniform List<scalar> 
61
(
0.034824447081
0.474894908465
0.474894908465
0.674533349096
0.674533349096
0.830380214004
0.830380214004
0.909229111904
0.920492443734
0.899632420524
0.899632420524
0.88011046277
0.88011046277
0.857207584733
0.857207584733
0.834738893371
0.83930070884
0.904040970182
0.904040970182
1.03755046887
1.03755046887
1.12451399146
1.12451399146
1.14694553688
1.14967175374
1.14562194402
1.14562194402
1.14606578486
1.14606578486
1.16220443979
1.16220443979
1.18763021854
1.21578469778
1.23326022828
1.23326022828
1.23383961127
1.23383961127
1.20297140229
1.20297140229
1.18265588804
1.21836073511
1.29725612442
1.29725612442
1.41425012231
1.41425012231
1.53935449042
1.53935449042
1.65603342201
1.78130529771
1.94181389624
1.94181389624
2.15809447321
2.15809447321
2.41916733922
2.41916733922
2.67861832314
2.87521097883
2.95086195788
2.95086195788
2.92422948442
2.92422948442
)
;
    }
    procBoundary2to3
    {
        type            processor;
        value           nonuniform List<scalar> 
41
(
2.84623726547
1.10285352885
0.450371039301
0.200857656155
0.101051728595
0.0572348749119
0.0350570689574
0.0224498018028
0.0151869879126
0.0107645944671
0.00752102874725
0.00472246538596
0.00271221186551
0.0019627507977
0.00192390755698
0.00201648325459
0.00194669967545
0.00164776476184
0.00111890490773
0.000655846126023
0.00137483933553
0.00136094765213
0.00139484894588
0.00154719815354
0.001956035183
0.00281953771177
0.00426104758478
0.00614220255089
0.00813854443322
0.0099862021888
0.0115644134977
0.0128658605079
0.0139758772809
0.015104966847
0.0167566977439
0.0203220590601
0.0299504852401
0.00107099064766
0.00146188424677
0.00137483933553
0.0014212674811
)
;
    }
}


// ************************************************************************* //
