/*--------------------------------*- C++ -*----------------------------------*\
| =========                 |                                                 |
| \\      /  F ield         | OpenFOAM: The Open Source CFD Toolbox           |
|  \\    /   O peration     | Version:  2312                                  |
|   \\  /    A nd           | Website:  www.openfoam.com                      |
|    \\/     M anipulation  |                                                 |
\*---------------------------------------------------------------------------*/
FoamFile
{
    version     2.0;
    format      ascii;
    arch        "LSB;label=32;scalar=64";
    class       volScalarField;
    location    "0.835/heater";
    object      T;
}
// * * * * * * * * * * * * * * * * * * * * * * * * * * * * * * * * * * * * * //

dimensions      [0 0 0 1 0 0 0];

internalField   nonuniform List<scalar> 
150
(
791.214637343
791.118905809
790.915823839
790.583633569
790.111987715
791.162926548
791.068023012
790.866634651
790.536134724
790.050415448
791.127937094
791.033935969
790.834289963
790.506036348
790.020557641
791.111224215
791.018038572
790.819807111
790.492854033
790.008752097
791.111418027
791.018817125
790.821499475
790.494760139
790.008734555
791.127894315
791.035260805
790.837845108
790.510467715
790.021025647
791.158879192
791.065337398
790.86637891
790.537739701
790.04692128
791.199260326
791.104678793
790.904332488
790.576276415
790.0924881
791.237780061
791.142561368
790.942192033
790.618565029
790.152807371
791.271671827
791.176846937
790.978484523
790.663104486
790.228800261
791.300672379
791.207555209
791.013427974
790.709168152
790.322498658
791.31905381
791.226910432
791.03534501
790.736078755
790.360384746
791.327603504
791.235220301
791.044107624
790.746689227
790.373980455
791.328677007
791.233804753
791.039357562
790.73978807
790.366593144
791.334059679
791.234666298
791.033479663
790.728449008
790.353117722
791.364258654
791.262211213
791.057274043
790.749587783
790.372310507
791.415338031
791.311439582
791.103920734
790.7942883
790.412892675
791.478958175
791.372752445
791.16132545
790.846398232
790.45178425
791.545654375
791.436134877
791.218110361
790.890270988
790.454171241
791.605315859
791.492507091
791.268316679
790.93119872
790.467861566
791.657515876
791.541714854
791.312019007
790.969057595
790.493408223
791.704182854
791.586064838
791.351625538
791.003950632
790.525822841
791.735986522
791.616027786
791.377020945
791.023928469
790.547878121
791.737236314
791.616330512
791.374217983
791.016321663
790.544260089
791.693237863
791.57190577
791.32769929
790.965432383
790.501473865
791.595702052
791.474108121
791.228405341
790.861871156
790.40195582
791.444789
791.322941227
791.076153099
790.706167041
790.241805295
791.25063605
791.1283498
790.880560946
790.508555598
790.041295214
791.045427556
790.921994102
790.671879669
790.295583557
789.821352432
790.909016995
790.78460078
790.532257554
790.150251258
789.66095973
)
;

boundaryField
{
    emptyPatch
    {
        type            empty;
    }
    minY
    {
        type            zeroGradient;
    }
    maxY
    {
        type            zeroGradient;
    }
    minX
    {
        type            zeroGradient;
    }
    heater_to_water
    {
        type            compressible::turbulentTemperatureTwoPhaseRadCoupledMixed;
        refValue        nonuniform List<scalar> 
60
(
535.699832276
456.47587841
456.477229682
356.847823168
330.982786435
321.519470871
321.519629638
317.449039587
317.449100721
316.386031687
316.38601466
317.786972463
322.764508152
331.370281318
331.369850956
344.030136406
344.029349742
360.789903017
360.788620188
397.481089028
496.886094727
529.998693292
529.998080553
539.282812984
539.28262035
541.047182302
541.047369086
541.988500953
543.687436991
548.443866446
548.443555233
546.57984974
546.579096088
533.492121521
533.491398635
523.298537297
467.833419338
410.505075389
410.504817377
386.152529823
386.152045522
350.700646205
350.700191309
331.171603063
324.596444246
324.887412963
324.887508579
334.065882585
334.06645394
367.67449201
367.676526102
417.590526448
428.162572034
429.137189674
429.14249089
430.089348735
430.095164109
429.489846153
429.49411748
424.338536896
)
;
        refGradient     uniform 0;
        valueFraction   nonuniform List<scalar> 
60
(
0.000597104563995
0.000632387449755
0.000632381958286
0.000735610562432
0.000742413770011
0.000718178607667
0.000718173075998
0.000700395628371
0.000700393039682
0.000695495509901
0.000695496275463
0.000703522663522
0.000727206788625
0.000745446687746
0.00074545723851
0.00074384569255
0.000743859282898
0.000730155576174
0.000730171236203
0.000692137775219
0.0006128989268
0.000603854688075
0.000603856303142
0.000603062734163
0.000603063221467
0.000603608082484
0.000603607613048
0.000603474357556
0.000603846884594
0.00060378977097
0.000603790529892
0.000605500427346
0.00060550228427
0.000607623547104
0.000607625434965
0.000608526524827
0.000635667407032
0.000678108594215
0.00067811018988
0.000701014308553
0.000701018289753
0.000741202720391
0.000741209492042
0.000740737479193
0.000727893779386
0.000732893845782
0.000732890909495
0.000746567830473
0.000746554899419
0.000724054930158
0.00072403280339
0.000673131798753
0.000667952795521
0.000668949241886
0.000668921545029
0.00066820343625
0.000668173313776
0.000668877994511
0.00066885574621
0.000672280100123
)
;
        source          uniform 0;
        value           nonuniform List<scalar> 
60
(
789.959056844
789.899980251
789.840580591
789.732857738
789.681774234
789.686102787
789.674208574
789.679686126
789.679561399
789.681136423
789.693416222
789.690600234
789.709072662
789.706964587
789.752519753
789.762676308
789.822776173
789.841127554
789.916536976
789.958266366
790.14231011
790.164959213
790.20249186
790.208297751
790.221830164
790.222758458
790.215343999
790.215945171
790.203331649
790.206217621
790.225349971
790.223807825
790.264461076
790.255991889
790.294920393
790.288486222
790.249033802
790.196466554
790.210953359
790.185179321
790.21143453
790.168909569
790.201873538
790.187615585
790.210844762
790.208728212
790.205195022
790.20567852
790.162586367
790.197190248
790.096591649
790.151707535
790.000177792
790.000468969
789.800048487
789.800940345
789.581033041
789.580374665
789.41996417
789.415264837
)
;
        kappaMethod     solidThermo;
        Tnbr            T.liquid;
        region          solid;
        otherPhase      gas;
    }
    procBoundary1to0
    {
        type            processor;
        value           nonuniform List<scalar> 5(791.275212191 791.178434428 790.9735648 790.641601392 790.193575592);
    }
}


// ************************************************************************* //
