/*--------------------------------*- C++ -*----------------------------------*\
| =========                 |                                                 |
| \\      /  F ield         | OpenFOAM: The Open Source CFD Toolbox           |
|  \\    /   O peration     | Version:  2312                                  |
|   \\  /    A nd           | Website:  www.openfoam.com                      |
|    \\/     M anipulation  |                                                 |
\*---------------------------------------------------------------------------*/
FoamFile
{
    version     2.0;
    format      ascii;
    arch        "LSB;label=32;scalar=64";
    class       volScalarField;
    location    "0.1/water";
    object      Ct2;
}
// * * * * * * * * * * * * * * * * * * * * * * * * * * * * * * * * * * * * * //

dimensions      [0 0 0 0 0 0 0];

internalField   nonuniform List<scalar> 
1497
(
1
1
1
1
1
1
1
1
1
1
1
1
1
1
1
1
1
1
1
1
1
1
1
1
1
1
1
1
1
1
1
1
1
1
1
1
1
1
1
1
1
1
1
1
1
1
1
1
1
1
1
1
1.00000000078
1
1
1
1
1
1
1
1
1
1
1
1
1
1
1
1
1
1
1
1.00000031403
1
1
1
1
1
1
1
1
1
1
1
1
1
1
1
1
1
1
1
1.00000017961
1
1
1
1
1
1
1
1
1
1
1
1
1
1
1
1
1
1
1
1
1
1
1
1
1
1
1
1
1
1
1
1
1
1
1
1
1
1
1
1
1
1
1
1
1
1
1
1
1
1
1
1
1
1
1
1
1
1
1
1
1
1
1
1
1
1
1
1
1
1
1
1
1
1
1
1
1
1
1
1
1
1
1
1
1
1
1
1
1
1
1
1
1
1
1
1
1
1
1
1
1
1
1
1
1
1
1
1
1
1
1
1
1
1
1
1
1
1
1
1
1
1
1
1
1
1
1
1
1
1
1
1
1
1
1
1
1
1
1
1
1
1
1
1
1
1
1
1
1
1
1
1
1
1
1
1
1
1
1
1
1
1
1
1
1
1
1
1
1
1
1
1
1
1
1
1
1
1
1
1
1
1
1
1
1
1
1
1
1
1
1
1
1
1
1
1
1
1
1
1
1
1
1
1
1
1
1
1
1
1
1
1
1
1
1
1
1
1
1
1
1
1
1
1
1
1
1
1
1
1
1
1
1
1
1
1
1
1
1
1
1
1
1
1
1
1
1
1
1
1
1
1
1
1
1
1
1
1
1
1
1
1
1
1
1
1
1
1
1
1
1
1
1
1
1
1
1
1
1
1
1
1
1
1
1
1
1
1
1
1
1
1
1
1
1
1
1
1
1
1
1
1
1
1
1
1
1
1
1
1
1
1
1
1
1
1
1
1
1
1
1
1
1
1
1
1
1
1
1
1
1
1
1
1
1
1
1
1
1
1
1
1
1
1
1
1
1
1
1
1
1
1
1
1
1
1
1
1
1
1
1
1
1
1
1
1
1
1
1
1
1
1
1
1
1
1
1
1
1
1
1
1
1
1
1
1
1
1
1
1
1
1
1
1
1
1
1
1
1
1
1
1
1
1
1
1
1
1
1
1
1
1
1
1
1
1
1
1
1
1
1
1
1
1
1
1
1
1
1
1
1
1
1
1
1
1
1
1
1
1
1
1
1
1
1
1
1
1
1
1
1
1
1
1
1
1
1
1
1
1
1
1
1
1
1
1
1
1
1
1
1
1
1
1
1
1
1
1
1
1
1
1
1
1
1
1
1
1
1
1
1
1
1
1
1
1
1
1
1
1
1
1
1
1
1
1
1
1
1
1
1
1
1
1
1
1
1
1
1
1
1
1
1
1
1
1
1
1
1
1
1
1
1
1
1
1
1
1
1
1
1
1
1
1
1
1
1
1
1
1
1
1
1
1
1
1
1
1
1
1
1
1
1
1
1
1
1
1
1
1
1
1
1
1
1
1
1
1
1
1
1
1
1
1
1
1
1
1
1
1
1
1
1
1
1
1
1
1
1
1
1
1
1
1
1
1
1
1
1
1
1
1
1
1
1
1
1
1
1
1
1
1
1
1
1
1
1
1
1
1
1
1
1
1
1
1
1
1
1
1
1
1
1
1
1
1
1
1
1
1
1
1
1
1
1
1
1
1
1
1
1.18837966684
1.46177031403
1.76519917028
2.31550261933
2.92003739487
3.55755294467
4.55870461703
6.21253676125
7.88669404913
8.72706100556
8.941299719
8.96862123465
8.97328712507
8.97365639843
8.97372272752
8.97376698293
8.97379579112
8.97382440741
8.9738563505
8.97388704396
1.28524047496
1.44790315702
1.68721829481
2.18141271901
2.77271842386
3.37448381643
4.23470556404
5.73825717408
7.53657437485
8.61024523125
8.92388909071
8.96788516854
8.97328263758
8.97365360456
8.97371989792
8.97376563193
8.97379522795
8.97382405744
8.97385622684
8.97388785016
1.32092637251
1.43833509704
1.62775130685
2.06075900215
2.63786725026
3.22132089025
3.97139987422
5.29744052143
7.1371941583
8.45179812074
8.89540836716
8.9666250494
8.97326210896
8.97365076837
8.9737174617
8.97376474679
8.97379514712
8.97382410378
8.97385625097
8.97388858567
1.32870604334
1.43035843465
1.57604402995
1.94499010817
2.50041080309
3.07762054664
3.74899245399
4.89512928586
6.6930610679
8.23769637195
8.85111255514
8.96383801005
8.97321439982
8.9736485519
8.97371630536
8.97376508278
8.97379619881
8.97382511539
8.97385688795
8.97388950354
1.31408003874
1.42131704516
1.52652552868
1.82525076301
2.34448850516
2.92368038157
3.54426412774
4.52230724714
6.20246036363
7.9460171394
8.78039174433
8.95790463951
8.97311914052
8.97364733712
8.97371704878
8.97376715882
8.97379882949
8.97382750028
8.97385849424
8.97389082384
1.23839317985
1.4108617442
1.48034193444
1.70094722737
2.15925698322
2.74068714926
3.33691664719
4.1689543826
5.66652764808
7.54727799035
8.66313849495
8.94567074694
8.97290446002
8.973647518
8.97372012992
8.97377129507
8.9738032991
8.9738315124
8.97386134242
8.97389275047
1.05565994983
1.39543683022
1.44353033238
1.58592329738
1.95114199417
2.5164813823
3.11310258399
3.83384880891
5.10653414065
7.01900035765
8.46773704949
8.92085559027
8.97238219889
8.97364943928
8.97372589627
8.97377766355
8.97380971352
8.97383726292
8.97386561139
8.97389547792
1.00000865688
1.34383497369
1.41987540132
1.50086190254
1.7536681721
2.25899097247
2.86776363327
3.52332644002
4.57045523725
6.37796820309
8.1564150597
8.871986369
8.97107010849
8.97365341234
8.97373460157
8.97378629393
8.97381803071
8.97384471639
8.9738713613
8.97389917063
1
1.15787000585
1.40407891003
1.45249295353
1.6075666275
2.00674931753
2.60890661973
3.24372183789
4.11068660159
5.70278506159
7.7117032127
8.7819425812
8.96794622989
8.97365950799
8.97374632077
8.97379704857
8.97382805631
8.97385368431
8.97387850566
8.97390391943
1
1.00449827339
1.38095750155
1.4296087591
1.524151505
1.80931184184
2.36182784129
2.99963582787
3.75340748475
5.10035529748
7.17410736182
8.63719926144
8.96151353456
8.97366683777
8.97376087397
8.97380959966
8.97383943757
8.97386382713
8.97388679747
8.97390968977
1
1.00000008619
1.32610137625
1.41896929827
1.48581221822
1.68799201624
2.1615614379
2.79877955027
3.49609779679
4.64110369448
6.64060816806
8.44818246889
8.9509687705
8.97367274362
8.97377786366
8.97382352484
8.97385176179
8.97387474136
8.97389588998
8.97391632222
1
1
1.23121485292
1.41374232988
1.47209984849
1.63049710621
2.0324627708
2.65407216969
3.32578586735
4.3373239446
6.21285734428
8.25999669451
8.93906753596
8.97367801479
8.97379639156
8.97383826013
8.97386456529
8.97388599659
8.9739053822
8.97392354107
1
1
1.14389715705
1.41189545349
1.47077232996
1.61493525865
1.97634912288
2.57763186832
3.23350854708
4.17084490807
5.95134571499
8.13492700801
8.93273078333
8.97369717589
8.97381505625
8.97385298042
8.97387721853
8.97389706257
8.9739147987
8.97393095343
1
1
1.10385231185
1.4127263725
1.47841682672
1.62219489803
1.97364783975
2.56500525255
3.21002215022
4.1184169534
5.86838584018
8.10762273893
8.93392893142
8.97373307525
8.97383293649
8.97386701012
8.97388916884
8.97390745603
8.97392369154
8.97393814697
1
1
1.10502551079
1.41723814573
1.49966181726
1.65912584352
2.01833970811
2.60328523338
3.23603919541
4.14415564873
5.9203122219
8.16875510155
8.94429916974
8.97378361089
8.97384929265
8.97387981233
8.97390000276
8.97391683121
8.97393173537
8.9739447857
1
1
1.15281447903
1.42693620567
1.53361279967
1.72698134729
2.12712529214
2.71261680929
3.33254102584
4.28024959579
6.16882526984
8.34892090632
8.95952468651
8.97381482497
8.97386353824
8.97389094732
8.97390938784
8.97392492782
8.97393870104
8.97395062489
1
1
1.25231855106
1.44459681494
1.58183617541
1.82331312249
2.28395665539
2.86710686396
3.48605047316
4.5348539497
6.6039459968
8.57934344917
8.96942737949
8.97383089829
8.9738752537
8.97390010499
8.97391709992
8.97393158271
8.97394445568
8.97395551885
1
1
1.34664438357
1.47401382075
1.64892734271
1.9555938464
2.47752372834
3.04277774435
3.68363367359
4.90532524985
7.1631896298
8.77854348423
8.97294559896
8.97384323388
8.97388422449
8.97390712745
8.97392303553
8.9739367357
8.97394896259
8.97395942107
1
1.00000023779
1.39474632749
1.51862390368
1.74159450757
2.13346711659
2.6953008574
3.23070418701
3.93599369708
5.41854332878
7.77567387822
8.90272852706
8.97368381458
8.97385176088
8.97389043033
8.9739120076
8.97392721102
8.97394042434
8.97395226933
8.97396236832
1
1.00134152407
1.41678897001
1.58160630905
1.86989779117
2.35837137011
2.91582350372
3.43084691219
4.2685704773
6.09228338396
8.32394935719
8.95634544905
8.97376412259
8.97385663995
8.97389405052
8.97391489494
8.97392976574
8.97394278274
8.97395449971
8.97396446585
1
1.08717001562
1.4476939669
1.667221753
2.04609557196
2.61147200503
3.12012796327
3.65282212877
4.71461016076
6.88226133117
8.69600191136
8.97109127719
8.97376853754
8.9738584031
8.97389548734
8.97391610666
8.9739309668
8.97394404058
8.97395584744
8.97396587393
1
1.32286013671
1.49947525078
1.78182518174
2.27399214649
2.85305843209
3.30410843164
3.91495999213
5.29431339411
7.64816919365
8.87765456955
8.97349245775
8.97376913073
8.97385787421
8.97389532921
8.97391609875
8.97393118658
8.97394450442
8.97395655965
8.9739667894
1.00000000395
1.40237912311
1.56594900459
1.9315795673
2.52777271493
3.04915751814
3.47583512359
4.2334961888
5.97062339348
8.22308737644
8.94235897214
8.97372781841
8.97376763107
8.97385602409
8.97389425589
8.97391539696
8.97393085036
8.97394451762
8.97395690691
8.97396742057
1.0047341435
1.42558055823
1.63741665111
2.11034725152
2.75071654513
3.19432286507
3.64346271593
4.59863969189
6.62295505339
8.55297655161
8.96123947619
8.97373673337
8.97376551979
8.97385380916
8.97389293237
8.97391451672
8.97393037354
8.97394441239
8.97395714787
8.97396796152
1.11396985584
1.44326515206
1.70313688912
2.27919965616
2.90101810484
3.29889387796
3.80191695421
4.95394203307
7.11243620176
8.70458455336
8.96659630855
8.97373086543
8.97376405178
8.97385202683
8.97389191181
8.97391388674
8.97393010036
8.97394446252
8.97395749429
8.97396856833
1.18931458756
1.44967105903
1.74315224385
2.3824927553
2.97930655031
3.3688427938
3.9282308757
5.21729662542
7.38159773106
8.75861903834
8.96786388337
8.97372882178
8.97376403185
8.97385119358
8.97389155372
8.97391378543
8.97393025367
8.97394484498
8.97395808327
8.97396934109
1.19191451043
1.44918736336
1.74883208326
2.40971916361
3.00414851193
3.40368829018
3.99784735686
5.33960742245
7.46726510851
8.7673708139
8.9678161636
8.97373075313
8.97376570475
8.97385148385
8.97389198448
8.97391431184
8.97393091352
8.97394562461
8.97395896656
8.97397031786
1.15923165889
1.4420923045
1.73362649056
2.39937144124
3.00246075412
3.41005616503
4.01155164854
5.35373253677
7.46599273646
8.76074666775
8.96688307489
8.97373301512
8.97376887168
8.97385279352
8.9738931385
8.97391541641
8.97393204167
8.97394677333
8.97396012545
8.9739714862
1.08752927946
1.42947626601
1.68513833212
2.33828430586
2.97574331138
3.40116841233
3.99662808189
5.30904105862
7.39427420527
8.72910489019
8.96447306081
8.97373092432
8.97377315756
8.9738548922
8.97389485673
8.97391697374
8.97393353757
8.97394821315
8.97396150267
8.9739728061
1.03139329709
1.4187041619
1.62410905932
2.22972565401
2.91265303113
3.36632095722
3.93788117527
5.17013142006
7.22153592952
8.66948365041
8.96055596653
8.9737184639
8.97377818965
8.97385753641
8.97389696419
8.97391884217
8.97393528553
8.97394985258
8.97396302982
8.97397422941
1.00821661066
1.41113382832
1.57414362469
2.11353089004
2.82820615879
3.31144141315
3.85118369934
4.9835850116
6.99587075175
8.59007045704
8.95497129791
8.9736866858
8.97378362268
8.97386049976
8.97389929668
8.97392088832
8.97393717618
8.97395160471
8.97396464145
8.97397570991
1.00163222056
1.40499012943
1.53813059331
2.01009374679
2.73804125246
3.25269187438
3.76667529441
4.80355163553
6.75872556145
8.49457275036
8.94725877729
8.97362376087
8.97378914945
8.97386358526
8.97390171228
8.97392299781
8.97393911623
8.97395339552
8.97396628182
8.97397720819
1.00025942959
1.39894460965
1.51207041089
1.92224772218
2.64814046916
3.19625018091
3.69241800577
4.64211721924
6.52123684317
8.38314272542
8.93693914533
8.97351633743
8.97379455137
8.97386665173
8.97390410815
8.9739250873
8.97394103743
8.97395517079
8.97396791007
8.97397869549
1.00003885318
1.39246939775
1.49292503219
1.84984211003
2.56099408351
3.14218520895
3.62687290256
4.49853801108
6.28906362082
8.25765592604
8.92372980803
8.97335128533
8.97379970739
8.97386961785
8.97390642308
8.97392710599
8.97394289752
8.97395689658
8.97396950063
8.97398015385
1.00000671495
1.38567253043
1.47888254305
1.79246053792
2.47879127328
3.0905818677
3.56944273865
4.37451154116
6.07244240529
8.1240898425
8.90781139397
8.97312116249
8.97380455845
8.97387244147
8.97390862435
8.97392902616
8.97394467292
8.97395855381
8.97397103926
8.97398157419
1.00000152659
1.37900872268
1.46865941509
1.74822189838
2.40424106074
3.04279550313
3.52047462978
4.27168204724
5.88171876176
7.99176039754
8.89014593042
8.97283584199
8.97380907335
8.97387509824
8.97391069311
8.97393083202
8.97394635036
8.97396013184
8.97397251821
8.97398295013
1.00000047161
1.37295182068
1.46126470924
1.71453540985
2.33900317716
3.0006994828
3.47969541248
4.18859036475
5.7212819938
7.86958490104
8.87233699265
8.97252584102
8.97381322655
8.97387756697
8.97391261392
8.97393251151
8.97394792024
8.97396162395
8.97397393503
8.97398428465
1.00000019202
1.36777259591
1.45595630384
1.68909559633
)
;

boundaryField
{
    emptyPatch
    {
        type            empty;
    }
    minY
    {
        type            calculated;
        value           nonuniform List<scalar> 0();
    }
    maxY
    {
        type            calculated;
        value           nonuniform List<scalar> 0();
    }
    maxX
    {
        type            calculated;
        value           nonuniform List<scalar> 
37
(
8.97394807525
8.97395135714
8.97395483102
8.97395847634
8.97396224316
8.97396605882
8.9739698363
8.9739734838
8.97397691519
8.97398006001
8.973982871
8.973985325
8.97398742402
8.97398919439
8.97399067829
8.97399192588
8.97399298971
8.9739939203
8.97399476358
8.97399555973
8.97399634256
8.97399713875
8.97399796693
8.97399883685
8.97399974933
8.97400069751
8.97400166978
8.97400265319
8.97400363617
8.97400460992
8.97400556863
8.97400650931
8.97400743124
8.97400833522
8.97400922298
8.97401009675
8.97401095927
)
;
    }
    water_to_heater
    {
        type            calculated;
        value           uniform 1;
    }
    procBoundary1to0
    {
        type            processor;
        value           nonuniform List<scalar> 
41
(
1
1
1
1
1
1
1
1
1
1
1
1
1
1
1
1
1
1
1
1
2.28382516624
2.96489672095
3.44657811026
4.12207766841
5.58903173736
7.76219745135
8.85584153542
8.97222636208
8.97381698393
8.97387981979
8.97391436701
8.97393404974
8.97394937149
8.9739630228
8.97397528593
8.97398555713
1.00000009522
1.36344022403
1.45219544637
2.28382516624
1.67019634587
)
;
    }
    procBoundary1to3
    {
        type            processor;
        value           nonuniform List<scalar> 
41
(
1
1
1
1
1
1
1
1
1
1
1
1
1
1
1
1
1
1
1
1
1
1.02205130042
1.46931966829
1.86862030535
2.46319737849
3.08521432753
3.78819385027
4.95154177082
6.69586124054
8.1790203582
8.81159232229
8.95086113653
8.96933183129
8.97329558852
8.97365825451
8.9737248416
8.97376787483
8.97379606157
8.97382451923
8.97385616279
8.97388593326
)
;
    }
}


// ************************************************************************* //
