/*--------------------------------*- C++ -*----------------------------------*\
| =========                 |                                                 |
| \\      /  F ield         | OpenFOAM: The Open Source CFD Toolbox           |
|  \\    /   O peration     | Version:  2312                                  |
|   \\  /    A nd           | Website:  www.openfoam.com                      |
|    \\/     M anipulation  |                                                 |
\*---------------------------------------------------------------------------*/
FoamFile
{
    version     2.0;
    format      ascii;
    arch        "LSB;label=32;scalar=64";
    class       volScalarField;
    location    "0.285/water";
    object      d.gas;
}
// * * * * * * * * * * * * * * * * * * * * * * * * * * * * * * * * * * * * * //

dimensions      [0 1 0 0 0 0 0];

internalField   nonuniform List<scalar> 
1496
(
0.00499306543953
0.00499306557862
0.00499306232932
0.00499305596215
0.00499305534175
0.00499305969584
0.00499306548509
0.0049930701212
0.004993074785
0.00499309127742
0.00499312353692
0.00499315197433
0.00499316768817
0.00499318639003
0.00499320415951
0.00499322518978
0.00499324712802
0.00499327131173
0.00499329764773
0.00499333015001
0.00499310143076
0.00499310129349
0.00499307950834
0.00499306983497
0.00499307143565
0.00499307802021
0.00499308529703
0.00499309201068
0.00499310521987
0.00499313830158
0.00499317617492
0.00499319702862
0.00499322030224
0.00499324244588
0.00499326848543
0.00499329538999
0.00499332489472
0.00499335670765
0.00499339066611
0.00499344787845
0.00499315334675
0.00499313654993
0.00499309122367
0.00499308199283
0.00499308710902
0.00499309598698
0.00499310491235
0.00499311640047
0.00499314619705
0.00499319180463
0.00499322254419
0.00499325125346
0.00499327826403
0.00499330992735
0.00499334223091
0.00499337709298
0.00499341420107
0.00499345298192
0.0049935141063
0.00499356492083
0.00499320862261
0.0049931774764
0.00499311568625
0.0049931089282
0.00499311725986
0.00499312772451
0.00499313931386
0.00499316397205
0.00499321258441
0.00499325616676
0.00499329010729
0.0049933202455
0.00499335676442
0.00499339385584
0.0049934336423
0.00499347587608
0.00499351961327
0.00499358416822
0.00499364309268
0.00499368716571
0.00499326568178
0.00499323574059
0.00499317272294
0.00499316804627
0.00499317792421
0.0049931899814
0.00499321290009
0.00499326138575
0.0049933119675
0.00499334961885
0.00499338025419
0.00499341932907
0.00499345888865
0.00499350210246
0.00499354795759
0.00499359548611
0.00499366424831
0.00499372797665
0.00499377913519
0.0049938200499
0.00499332359779
0.00499331887637
0.00499323367402
0.00499323397126
0.00499325487789
0.00499328685898
0.00499334069861
0.00499339377231
0.00499343392874
0.00499346377238
0.00499350415991
0.00499354455554
0.00499358958029
0.00499363785972
0.00499368934558
0.00499376329264
0.00499382809442
0.00499388126621
0.00499392495686
0.00499397450335
0.00499337878079
0.00499344378815
0.00499334452543
0.00499334855869
0.00499339560591
0.00499345639648
0.00499350537967
0.00499354460158
0.00499357259259
0.00499361338799
0.00499365424542
0.00499370045925
0.00499375428632
0.004993813502
0.00499389370678
0.00499395276807
0.00499400394491
0.00499405076264
0.00499410180359
0.00499415696952
0.00499343043147
0.00499355835152
0.00499349015545
0.00499351117592
0.00499357453022
0.00499362327827
0.00499366745779
0.00499370002648
0.00499374460947
0.0049937901239
0.00499384280877
0.00499391631153
0.00499398669429
0.00499406252484
0.00499411389716
0.00499416341972
0.00499421358751
0.00499426534741
0.00499431866535
0.00499437433373
0.00499350937242
0.00499369873354
0.00499365813497
0.00499367950096
0.00499374395576
0.00499381387795
0.00499387218561
0.00499393329095
0.00499400305832
0.00499407799856
0.00499417864661
0.00499424665236
0.00499430391355
0.00499434699251
0.00499439490242
0.00499444402196
0.00499449205382
0.00499453916963
0.00499458561406
0.00499463130658
0.0049943072688
0.00499455504662
0.00499447187404
0.00499444003555
0.00499445975131
0.00499450049408
0.00499454577344
0.00499460157172
0.00499464823362
0.00499469479284
0.00499471309128
0.00499472765972
0.00499474359123
0.00499476984436
0.00499479888462
0.00499482706811
0.00499485417259
0.00499487994726
0.00499490396121
0.00499492596528
0.00499624574182
0.00499643675
0.00499629719267
0.00499618691356
0.00499609680886
0.00499601444601
0.00499592013153
0.0049958026193
0.00499568043577
0.00499556913213
0.00499548242601
0.00499541936059
0.00499537610683
0.00499534322156
0.00499531785403
0.00499529761703
0.00499528069393
0.00499526660412
0.00499525419493
0.00499524198343
0.00499677136992
0.0049967732511
0.00499677399881
0.004996771099
0.00499676183743
0.00499674105364
0.00499669734703
0.00499662179575
0.00499650497615
0.00499636511051
0.00499623001898
0.00499610941167
0.00499600412872
0.00499591190865
0.00499583027238
0.00499575922707
0.00499569655973
0.00499564167316
0.00499559348075
0.00499554916758
0.00499679190805
0.00499679205673
0.00499679200393
0.00499679210983
0.00499679223152
0.00499679228954
0.00499679223848
0.00499679200356
0.00499677699317
0.0049967238877
0.00499663717815
0.00499653215308
0.0049964222589
0.00499631436114
0.00499621150541
0.00499611674351
0.00499603000345
0.00499595129376
0.00499588144562
0.00499581791503
0.00499680385294
0.00499680388231
0.00499680385422
0.00499680384108
0.00499680386981
0.00499680393595
0.00499680403691
0.00499680416005
0.00499680420471
0.0049967937789
0.00499676154784
0.00499670421511
0.00499662838192
0.00499654087339
0.00499644737685
0.00499635446188
0.00499626553662
0.00499618168033
0.00499610568044
0.00499603614385
0.00499681564187
0.00499681564924
0.00499681564408
0.00499681564888
0.00499681567891
0.00499681572234
0.00499681577685
0.00499681583367
0.00499681586888
0.00499681308139
0.00499679991445
0.00499676936242
0.00499672137185
0.00499665934971
0.00499658572141
0.00499650634555
0.00499642654075
0.00499634862075
0.00499627635889
0.00499620836964
0.0049968277134
0.00499682770942
0.00499682769297
0.00499682769767
0.00499682773456
0.00499682778865
0.00499682785633
0.00499682794057
0.0049968280466
0.00499682711916
0.00499682047633
0.00499680248001
0.00499677074356
0.00499672627328
0.00499667050841
0.004996606945
0.00499654007896
0.00499647277025
0.00499640925217
0.00499634701683
0.00499683987645
0.00499683985024
0.00499683980495
0.00499683978795
0.0049968398078
0.00499683984724
0.0049968399
0.00499683996989
0.00499684007468
0.00499683906016
0.00499683475181
0.00499682254641
0.00499679990702
0.00499676704883
0.00499672544131
0.00499667667117
0.00499662334838
0.00499656888727
0.00499651601926
0.00499646141911
0.0049968527673
0.00499685270871
0.00499685261242
0.00499685252432
0.0049968524418
0.00499685235296
0.00499685225
0.00499685212135
0.00499685193675
0.00499685059881
0.00499684791599
0.00499683944303
0.00499682307708
0.00499679888511
0.0049967683438
0.0049967325452
0.00499669231823
0.00499665116045
0.00499660820166
0.00499656127014
0.00499686748101
0.00499686739243
0.00499686724121
0.00499686705559
0.0049968668405
0.00499686660188
0.00499686633401
0.00499686601862
0.00499686517804
0.00499686362952
0.00499686159061
0.00499685561323
0.00499684368538
0.00499682619475
0.00499680544532
0.00499678297977
0.00499675678142
0.00499672914836
0.00499669523734
0.00499665670026
0.00499688554983
0.00499688541133
0.00499688514523
0.00499688477811
0.00499688423013
0.00499688346755
0.00499688300058
0.00499688225516
0.00499688093032
0.00499688011197
0.00499687831027
0.00499687369874
0.00499686517999
0.00499685468912
0.00499684557116
0.00499683780723
0.00499682601383
0.00499681100373
0.00499678607633
0.00499675770626
0.00499691151638
0.00499691121121
0.00499691054434
0.00499690917912
0.00499690836717
0.00499690783913
0.00499690805007
0.00499690882932
0.00499690843226
0.00499690802379
0.00499690679697
0.00499690392839
0.00499689993605
0.00499689781615
0.00499690232849
0.00499690777266
0.00499690958189
0.00499690492804
0.00499688821851
0.0049968706114
0.00499695549976
0.0049969553687
0.00499695504503
0.00499694974602
0.00499695094254
0.004996952574
0.0049969521037
0.00499695223284
0.00499695235994
0.00499695231114
0.00499695193162
0.00499695141701
0.00499695347372
0.00499696230147
0.00499698066842
0.00499699677246
0.00499701112704
0.00499701279454
0.00499700495507
0.00499699932164
0.00499701760145
0.00499701766873
0.00499699825062
0.00499698654235
0.00499698817321
0.00499699278449
0.00499699689416
0.00499700025557
0.00499700286019
0.00499700503985
0.00499700728488
0.00499701219156
0.00499702412746
0.0049970507103
0.00499708007472
0.00499710652515
0.00499712997754
0.00499713591168
0.00499713850952
0.00499714680342
0.004997102537
0.00499708109611
0.00499703627401
0.00499702007341
0.00499702423188
0.0049970328638
0.00499704111837
0.00499704858329
0.00499705533481
0.0049970619042
0.00499707120227
0.0049970893995
0.00499712467374
0.00499716320695
0.0049971952578
0.00499723228912
0.0049972600265
0.00499727184702
0.00499728796505
0.00499731251726
0.00499729725327
0.00499713526343
0.00499708412471
0.00499706450611
0.00499706856896
0.00499708046107
0.00499709270888
0.00499710445886
0.004997116745
0.00499713227552
0.00499715990921
0.00499720441963
0.004997246944
0.00499728053585
0.00499731829514
0.00499736429864
0.00499739656543
0.00499741856506
0.00499744983467
0.00499748386415
0.00499752774837
0.0049972485809
0.00499715357148
0.00499712284221
0.00499712444341
0.00499713914606
0.00499715594341
0.0049971736194
0.0049971960822
0.00499723276799
0.00499728401908
0.00499732683788
0.00499736138028
0.004997395748
0.00499744208311
0.00499749874566
0.00499753856094
0.00499757351563
0.00499761645697
0.00499765561787
0.00499762820011
0.00499737746272
0.00499723350314
0.00499719077708
0.00499718745824
0.00499720347509
0.00499722551168
0.00499725307959
0.00499729355459
0.00499734848196
0.00499739303194
0.00499742905186
0.00499746433038
0.00499750754865
0.0049975670716
0.00499763232847
0.0049976836836
0.00499772850648
0.00499777345693
0.00499781972891
0.00499761248808
0.00499744615241
0.00499728140277
0.00499723476953
0.00499723000013
0.0049972487265
0.00499727967627
0.00499732146265
0.00499737904777
0.00499743397311
0.00499747571465
0.00499751453588
0.00499756062181
0.00499761245208
0.00499768053571
0.00499776343236
0.00499782102535
0.00499786318998
0.00499791246615
0.00499797109131
0.00499750939603
0.00499745598465
0.00499730780147
0.00499726119959
0.00499725653181
0.00499727766592
0.00499731752862
0.00499737296099
0.00499744051695
0.00499749730441
0.00499754082297
0.00499759110587
0.00499764335048
0.00499770541591
0.0049977952487
0.00499788319126
0.00499793002464
0.00499797451129
0.00499803729006
0.00499810329129
0.00499742558492
0.00499748091198
0.0049973660496
0.00499732061532
0.00499731308794
0.0049973318233
0.00499737306733
0.00499743469024
0.00499750438724
0.00499755592151
0.00499760858377
0.00499766188476
0.00499772457537
0.00499779981018
0.00499790180723
0.00499798005398
0.00499802007633
0.0049980779002
0.00499814385241
0.00499821529597
0.00499740025957
0.00499749624927
0.00499738227653
0.00499734637727
0.00499734841141
0.0049973751081
0.00499742309126
0.00499749533943
0.0049975644366
0.00499762171326
0.0049976747951
0.00499773841715
0.00499780821457
0.00499790509606
0.00499801668978
0.00499806347412
0.00499810920849
0.0049981695538
0.0049982363689
0.00499831674231
0.00499734079029
0.0049974883551
0.00499739337979
0.00499737044693
0.00499738825309
0.00499742933303
0.00499749411069
0.00499757741802
0.00499764894651
0.00499770310679
0.00499776817364
0.00499783655776
0.00499792788545
0.00499805504011
0.00499811368772
0.00499815149013
0.00499820760332
0.00499827025261
0.00499834091122
0.00499843409885
0.00499741727364
0.0049976038389
0.00499754026237
0.00499752762654
0.00499755527003
0.00499760242423
0.00499767337524
0.00499775038598
0.00499780015731
0.00499785815932
0.00499792033452
0.00499801157331
0.00499814263047
0.00499820358767
0.00499823354566
0.0049982875509
0.00499835218025
0.00499841985696
0.00499849540069
0.00499859509691
0.0049977247729
0.00499793417514
0.00499790965264
0.00499789641969
0.00499790977625
0.0049979370501
0.00499798478776
0.00499803343271
0.00499808321338
0.00499814872039
0.00499825071317
0.00499837142837
0.00499842014704
0.00499843789994
0.00499847813465
0.00499853459905
0.0049985978045
0.00499866369602
0.00499873505831
0.00499882322344
0.00499840090483
0.00499864141647
0.00499864448789
0.00499861981688
0.00499860948674
0.00499861737039
0.00499865772596
0.00499872121457
0.00499880378104
0.00499889471938
0.00499895169127
0.00499894024166
0.00499891067092
0.00499890277253
0.00499891998142
0.00499894890231
0.00499898406709
0.00499902406053
0.00499907046192
0.00499912368623
0.00499956051761
0.00499980752158
0.00499981030172
0.00499981064661
0.0049998258766
0.00499985199468
0.00499988333433
0.00499989565398
0.00499987221308
0.00499980859144
0.004999720941
0.00499964136695
0.00499958119069
0.00499953954148
0.00499950788658
0.0049994863889
0.00499947398611
0.00499946939824
0.00499947424019
0.00499948517288
0.00499997568329
0.00500010033712
0.00500005215243
0.00500003799842
0.00500003650039
0.00500003406004
0.00500002523973
0.00500001056258
0.00499999215825
0.0049999723362
0.00499995387011
0.00499993882272
0.00499992869282
0.00499992180087
0.00499991408271
0.00499990324053
0.00499988895038
0.00499987442578
0.00499986089373
0.00499984886943
0.00499332185064
0.00499332735961
0.00499333825475
0.00499336103833
0.00499339411728
0.00499340820527
0.00499339897446
0.00499339871759
0.00499339652592
0.00499339497261
0.00499339628651
0.00499339792254
0.00499340062077
0.00499340102257
0.00499340698904
0.00499341267845
0.00499337895286
0.00499339468051
0.00499340173127
0.00499341304111
0.00499342229138
0.00499343182706
0.0049934472327
0.00499346895188
0.00499349331504
0.00499350387201
0.00499350634275
0.00499351425424
0.00499351470431
0.00499351359141
0.00499351412772
0.00499351676401
0.00499351850235
0.00499351875302
0.00499352203519
0.0049935275168
0.00499348095415
0.00499349521076
0.00499351107698
0.00499352701694
0.00499353995329
0.00499355151584
0.00499356782548
0.00499358857231
0.00499361064656
0.00499362691047
0.00499364743843
0.00499366955027
0.00499366495792
0.00499366069322
0.00499366023724
0.00499365971216
0.00499365906461
0.00499365842704
0.00499366041017
0.00499366553026
0.00499359363276
0.0049936128498
0.00499363727068
0.00499365990802
0.00499367767044
0.00499369274899
0.00499371101462
0.00499373437662
0.00499376175622
0.00499379130582
0.00499384151513
0.00499385185447
0.0049938446086
0.00499383924994
0.00499383549532
0.00499383214154
0.00499382899833
0.00499382771889
0.00499382955515
0.00499383443521
0.00499371774
0.0049937510108
0.00499378117244
0.00499380961789
0.00499383370781
0.0049938537488
0.0049938779753
0.00499390985158
0.0049939470881
0.00499399176205
0.00499405113215
0.00499405745283
0.00499404954923
0.00499404390582
0.00499403940762
0.00499403228597
0.00499402800264
0.00499402569957
0.00499402754883
0.00499403170187
0.00499386324441
0.00499390111232
0.00499393835622
0.00499397193024
0.00499400049497
0.00499402661564
0.00499405768554
0.00499410006727
0.00499414991966
0.00499421475037
0.00499428529765
0.0049942698671
0.00499426479537
0.00499425995483
0.00499425491236
0.00499424738053
0.00499424395505
0.0049942401513
0.00499424200951
0.00499424522773
0.0049940244584
0.0049940723343
0.00499410936665
0.00499414605929
0.00499417899854
0.00499420830062
0.00499424737081
0.00499430310644
0.00499437090085
0.00499445739777
0.00499449210438
0.0049944832991
0.00499447909868
0.00499447484202
0.00499446827017
0.00499446280084
0.00499445953875
0.00499445506395
0.00499445714179
0.00499445958265
0.00499421351407
0.0049942587141
0.00499429769789
0.00499433272013
0.00499436294682
0.00499439350667
0.0049944366386
0.00499450068342
0.00499457934688
0.00499464396849
0.00499465659333
0.00499465930214
0.00499466409411
0.00499466691906
0.00499466339279
0.00499466163381
0.00499465842611
0.00499465382936
0.00499465600011
0.00499465822767
0.00499442700347
0.00499446832911
0.00499450036049
0.00499453137015
0.00499455784927
0.00499458404457
0.00499462881915
0.00499469701849
0.00499477295188
0.00499481757846
0.00499482258097
0.00499482739905
0.00499483267663
0.00499483633561
0.00499483558004
0.00499483586699
0.00499483269781
0.00499482858209
0.00499483093648
0.00499483358788
0.00499467148517
0.00499470091031
0.00499472482041
0.00499474568144
0.00499476242332
0.00499478221652
0.00499481953021
0.0049948779578
0.00499493597449
0.00499496257685
0.00499497149202
0.00499497633219
0.00499498119881
0.00499498576834
0.00499498766224
0.0049949884718
0.00499498517907
0.00499498144174
0.00499498385714
0.00499498696114
0.00499494323373
0.00499495433458
0.00499496341144
0.00499497055572
0.00499497600994
0.00499498435644
0.00499500587619
0.00499504343358
0.004995082085
0.00499509825846
0.0049951027326
0.0049951057506
0.00499511010591
0.00499511444798
0.00499511968096
0.00499511991258
0.0049951164954
0.00499511269121
0.00499511476659
0.00499511810768
0.00499522981676
0.00499521821365
0.00499520859868
0.00499520036844
0.00499519132257
0.00499518528793
0.00499518252498
0.00499518832934
0.00499519960076
0.0049951997774
0.00499520109973
0.00499520427477
0.00499520951505
0.00499521458855
0.0049952205711
0.00499522120499
0.00499521849604
0.0049952151744
0.004995217407
0.00499522134023
0.0049955091196
0.00499547609522
0.00499544898596
0.00499542350328
0.00499540073683
0.00499538188907
0.00499535474415
0.00499532539552
0.00499530456671
0.00499528620965
0.0049952764549
0.00499528531362
0.00499529171102
0.00499529639024
0.0049953005572
0.00499530125776
0.0049952995408
0.00499529707035
0.00499529978515
0.00499530443412
0.00499575903234
0.00499570969651
0.00499566936842
0.00499563333947
0.00499559946623
0.00499557074504
0.00499553187157
0.00499547967502
0.00499543452993
0.00499540336463
0.00499538054504
0.00499538614978
0.00499538514907
0.00499538543001
0.0049953861039
0.00499538651086
0.00499538456244
0.00499538196812
0.00499538442606
0.00499538921206
0.00499596989656
0.00499591175515
0.00499586356173
0.00499581996889
0.00499577953108
0.00499574201893
0.00499569873496
0.00499563447939
0.00499557274028
0.00499552520273
0.00499548279138
0.00499547652787
0.00499547599073
0.0049954766205
0.00499547768959
0.00499547719175
0.00499547509572
0.00499547235947
0.00499547453882
0.00499547935239
0.00499614261393
0.0049960817703
0.0049960308217
0.00499598413806
0.00499593876197
0.00499589594635
0.00499585047876
0.00499578347806
0.00499571153189
0.00499565278882
0.00499560271268
0.0049955752555
0.00499557691353
0.00499557718317
0.00499557649117
0.0049955752413
0.00499557252656
0.00499556947225
0.0049955714708
0.00499557653236
0.00499628569553
0.00499622747686
0.00499617673271
0.00499612983517
0.00499608452832
0.00499603753042
0.00499598935334
0.00499592564458
0.00499585124928
0.00499578797367
0.00499573933922
0.00499570608509
0.00499569869171
0.00499569422972
0.00499569201086
0.00499568837
0.00499568386367
0.00499567977532
0.00499568109497
0.00499568613255
0.00499640661198
0.00499635391234
0.00499630659397
0.00499626118021
0.00499621527499
0.00499616751436
0.00499611663711
0.00499605483409
0.0049959810717
0.00499591364035
0.00499586565257
0.00499584247056
0.00499582521542
0.00499581872545
0.00499581354152
0.00499580844967
0.00499580273922
0.00499579819175
0.00499579918237
0.00499580378246
0.00499651423168
0.00499646936549
0.00499642588589
0.00499638342868
0.00499634025557
0.0049962914428
0.00499623848972
0.00499617702292
0.00499610441802
0.00499603513491
0.00499598573201
0.00499598864767
0.00499595731608
0.00499594830229
0.00499594113437
0.00499593507309
0.00499592879548
0.00499592449885
0.00499592593531
0.00499593024308
0.00499661859128
0.0049965821241
0.0049965448407
0.00499650539337
0.00499646178007
0.00499641308023
0.00499635863119
0.00499629646495
0.00499622453068
0.00499615398715
0.00499610903273
0.00499614061151
0.00499609677525
0.00499608716659
0.00499607908317
0.00499607355812
0.00499606812701
0.00499606559945
0.00499606807579
0.00499607263721
0.00499672963481
0.004996703035
0.00499667135005
0.00499663504299
0.00499659350256
0.00499654448746
0.00499648852167
0.00499642367079
0.00499635173332
0.00499628162537
0.00499628678899
0.00499632399272
0.00499627891745
0.00499626420906
0.00499625475958
0.00499624891778
0.00499624458849
0.00499624414528
0.00499624771051
0.00499625213016
0.00499685417151
0.00499683880743
0.00499681377032
0.00499678082764
0.00499674035633
0.00499669328547
0.0049966391711
0.00499657788386
0.00499651530363
0.00499647250491
0.00499658677111
0.00499654012549
0.00499651640289
0.0049964969771
0.00499648608114
0.00499647891834
0.00499647497185
0.00499647485793
0.00499647837908
0.00499648178704
0.00499699685419
0.00499699103942
0.00499697055016
0.00499694143101
0.00499690534698
0.00499686217273
0.00499681203572
0.00499676065032
0.00499671351103
0.0049968153478
0.00499685756968
0.0049968011176
0.00499677753117
0.00499675990327
0.00499675070276
0.00499674524749
0.00499674318945
0.0049967438165
0.00499674746195
0.00499675025569
0.00499715879035
0.00499715830965
0.00499714462986
0.0049971231534
0.0049970941672
0.00499705948423
0.00499702753614
0.00499699931004
0.0049970663499
0.00499720433026
0.0049971428677
0.00499712020757
0.00499709122822
0.00499707148781
0.00499705883819
0.00499705209823
0.00499704874997
0.00499704830536
0.00499705060017
0.00499705270829
0.00499733163955
0.00499733763056
0.00499733483731
0.00499732254892
0.00499730408494
0.00499729017829
0.00499728844371
0.00499734795496
0.00499754646621
0.00499749408535
0.00499746257653
0.00499743553024
0.00499740700362
0.00499739032052
0.0049973784921
0.00499737194309
0.00499736818682
0.00499736746438
0.00499736900903
0.00499737118544
0.00499750943329
0.00499752746828
0.00499753339483
0.00499753040693
0.00499752801198
0.00499754977066
0.00499760665041
0.00499785561724
0.00499783883504
0.00499780310467
0.00499777670034
0.00499774707148
0.00499772228156
0.00499770764255
0.00499769775803
0.00499769150145
0.00499768783541
0.00499768651349
0.00499768695896
0.00499768978787
0.00499769094468
0.00499771842672
0.00499773483004
0.00499774844434
0.00499778556361
0.00499784180247
0.00499805647812
0.0049981407383
0.0049980887947
0.00499807657664
0.00499805412308
0.00499803056089
0.00499801517775
0.00499800836403
0.00499800299202
0.0049979992964
0.00499799713491
0.00499799634484
0.00499799588828
0.00499799876902
0.00499786679479
0.00499790497583
0.00499793954881
0.00499799214689
0.00499807370005
0.00499826069546
0.00499846288975
0.00499840254073
0.00499839581747
0.00499838534987
0.00499835876684
0.00499834014315
0.00499833036583
0.00499832571911
0.00499832058945
0.00499831581821
0.00499831199115
0.00499830938128
0.0049983070225
0.00499830823624
0.00499802790395
0.00499808222939
0.00499814721995
0.00499825431231
0.00499841990793
0.004998724034
0.00499869190854
0.00499867796184
0.00499868390124
0.00499869305595
0.0049986813051
0.00499866816865
0.00499865856469
0.0049986492032
0.00499863982132
0.00499863084176
0.00499862281264
0.00499861776164
0.00499861430968
0.004998610397
0.00499817169302
0.00499825106774
0.00499837163771
0.00499853364039
0.00499882909257
0.00499888410119
0.00499885629613
0.00499886472638
0.00499888364893
0.00499890641544
0.00499892198061
0.00499892344838
0.00499891746876
0.00499890981475
0.00499890106916
0.00499889075301
0.00499887998451
0.00499887277048
0.00499887708642
0.00499887029976
0.0049983018028
0.00499842509737
0.00499858814422
0.00499882958887
0.00499901826576
0.00499898251196
0.00499897954553
0.00499898745649
0.00499900044908
0.00499901589194
0.00499903494729
0.00499904814222
0.00499905159628
0.00499904725285
0.00499903725831
0.00499902433223
0.00499901158747
0.00499900372488
0.00499899973902
0.0049990028188
0.00499842463541
0.00499858147596
0.00499877789134
0.00499903105725
0.00499905019509
0.00499903784705
0.00499903864633
0.00499904224839
0.00499904604977
0.00499905169206
0.00499905751334
0.00499906229281
0.00499906321016
0.00499905901531
0.00499905100166
0.00499904091929
0.00499903200777
0.00499902628725
0.00499901624103
0.00499902129723
0.00499856835966
0.0049987398626
0.00499895469604
0.00499908248985
0.00499907254224
0.00499907046825
0.00499906972359
0.00499906730553
0.00499906616214
0.00499906432382
0.0049990637803
0.00499906284996
0.00499906152734
0.00499905756091
0.00499905027345
0.00499904092694
0.00499903662783
0.00499902797883
0.00499901810508
0.00499902216344
0.0049987311967
0.00499889143105
0.00499904167774
0.00499909282757
0.00499909324661
0.00499908981401
0.00499908638781
0.00499908456738
0.00499908152815
0.00499908047766
0.00499907869838
0.00499907759661
0.00499907500657
0.00499907001655
0.00499906141953
0.00499905340601
0.00499905378281
0.00499904054064
0.00499903259916
0.00499903404189
0.0049989306888
0.00499904001655
0.00499911318472
0.00499912958638
0.00499912346716
0.00499911527994
0.00499911004059
0.00499910470372
0.00499910097308
0.00499909915755
0.00499909887481
0.0049990976708
0.00499909490853
0.00499908973864
0.00499908451343
0.00499909308498
0.00499910358382
0.00499909034569
0.00499908643115
0.00499908562346
0.00499918067528
0.00499923099517
0.00499925621074
0.00499925491802
0.00499923049245
0.0049991993081
0.0049991817559
0.00499917219968
0.00499916509949
0.0049991619458
0.00499916085921
0.00499916123881
0.00499916339642
0.0049991706861
0.00499919598
0.00499923467891
0.00499924852571
0.00499923898836
0.00499924063726
0.00499923965819
0.00499949639106
0.00499950241233
0.00499950474681
0.00499950761372
0.00499948259033
0.00499943298264
0.00499938649673
0.00499936086371
0.0049993490773
0.00499934535442
0.00499934849071
0.00499935923557
0.0049993817348
0.00499942650965
0.00499948600353
0.0049995276492
0.00499952618211
0.00499952152539
0.00499952502909
0.00499952401675
0.00499983824607
0.00499982756651
0.00499982330684
0.00499983066173
0.00499982992946
0.00499982004609
0.00499980097184
0.00499978728501
0.00499977965213
0.00499977502437
0.00499977341079
0.0049997778968
0.00499979452275
0.00499982256945
0.00499984069603
0.00499984055478
0.00499983672343
0.00499983941727
0.00499984695121
0.00499984520784
)
;

boundaryField
{
    emptyPatch
    {
        type            empty;
    }
    minY
    {
        type            calculated;
        value           nonuniform List<scalar> 0();
    }
    maxY
    {
        type            calculated;
        value           uniform 0.005;
    }
    water_to_cooler
    {
        type            calculated;
        value           nonuniform List<scalar> 
38
(
0.00499341267845
0.0049935275168
0.00499366553026
0.00499383443521
0.00499403170187
0.00499424522773
0.00499445958265
0.00499465822767
0.00499483358788
0.00499498696114
0.00499511810768
0.00499522134023
0.00499530443412
0.00499538921206
0.00499547935239
0.00499557653236
0.00499568613255
0.00499580378246
0.00499593024308
0.00499607263721
0.00499625213016
0.00499648178704
0.00499675025569
0.00499705270829
0.00499737118544
0.00499768978787
0.00499799876902
0.00499830823624
0.00499861039701
0.00499887030063
0.00499900282736
0.00499902131777
0.00499902220348
0.00499903410224
0.0049990857005
0.00499923976858
0.00499952418113
0.00499984552567
)
;
    }
    water_to_heater
    {
        type            calculated;
        value           nonuniform List<scalar> 
59
(
0.0049930578482
0.00499307715708
0.00499309825078
0.00499314984358
0.00499318575219
0.00499321133444
0.00499324945047
0.00499327448423
0.00499331378574
0.00499333824604
0.00499337504216
0.00499342639082
0.0049934759714
0.00499351498041
0.00499427913976
0.00499432729108
0.00499622999625
0.00499627562784
0.00499676696053
0.00499678878239
0.00499679290964
0.00499680434605
0.00499680812278
0.00499681894134
0.00499682294867
0.00499683378788
0.00499683777077
0.00499685054124
0.00499685659508
0.00499686784632
0.00499687636339
0.0049968890714
0.00499690457588
0.00499691954084
0.00499695206652
0.00499701377065
0.00499707670415
0.00499710538182
0.00499727412691
0.00499731119236
0.00499751186217
0.00499755688859
0.00499762355522
0.00499760763794
0.00499746700105
0.00499751691619
0.00499739560274
0.00499744553307
0.00499738333294
0.00499742995922
0.0049973354967
0.00499741196108
0.00499768451985
0.00499773106092
0.00499837077682
0.00499842065868
0.00499954261499
0.00499959357561
0.00499997031302
)
;
    }
    procBoundary0to1
    {
        type            processor;
        value           nonuniform List<scalar> 
41
(
0.00499303421126
0.00499303415191
0.00499303408281
0.00499303260627
0.00499303110645
0.00499303399852
0.00499303880669
0.00499304263989
0.00499304458646
0.00499304854774
0.00499306710895
0.00499309681159
0.00499311926034
0.00499313185706
0.00499314701055
0.00499316122832
0.00499317815024
0.00499319578348
0.004993214973
0.00499323682954
0.0049932296234
0.00499323183403
0.00499323586576
0.00499325339585
0.00499329558552
0.0049933317949
0.00499331833551
0.00499330813575
0.00499330041535
0.00499329468893
0.00499329204053
0.00499329295189
0.00499329442323
0.00499329629058
0.00499330520068
0.00499331001315
0.00499326776456
0.00499330188223
0.0049933109858
0.00499331568801
0.00499331568801
)
;
    }
}


// ************************************************************************* //
