/*--------------------------------*- C++ -*----------------------------------*\
| =========                 |                                                 |
| \\      /  F ield         | OpenFOAM: The Open Source CFD Toolbox           |
|  \\    /   O peration     | Version:  2312                                  |
|   \\  /    A nd           | Website:  www.openfoam.com                      |
|    \\/     M anipulation  |                                                 |
\*---------------------------------------------------------------------------*/
FoamFile
{
    version     2.0;
    format      ascii;
    arch        "LSB;label=32;scalar=64";
    class       volScalarField;
    location    "0.45/water";
    object      p;
}
// * * * * * * * * * * * * * * * * * * * * * * * * * * * * * * * * * * * * * //

dimensions      [1 -1 -2 0 0 0 0];

internalField   nonuniform List<scalar> 
6000
(
101518.89079
101515.081979
101514.087261
101513.330001
101512.690228
101512.121169
101511.600919
101511.128928
101510.709379
101510.340652
101510.021034
101509.74744
101509.51524
101509.319906
101509.157695
101509.025465
101508.920683
101508.84131
101508.785875
101508.753268
101499.865448
101498.013373
101498.189264
101498.21699
101497.950899
101497.708335
101497.475751
101497.247795
101497.017577
101496.791764
101496.584342
101496.400788
101496.239089
101496.096759
101495.9729
101495.867589
101495.78131
101495.714568
101495.667893
101495.641703
101483.015055
101481.086504
101481.840203
101482.425637
101482.580034
101482.698857
101482.784293
101482.824717
101482.824438
101482.791052
101482.737775
101482.680065
101482.626069
101482.576909
101482.5323
101482.492723
101482.459583
101482.43472
101482.420155
101482.417638
101468.543252
101467.220643
101468.035197
101468.42247
101468.424843
101468.477395
101468.578251
101468.68148
101468.76711
101468.830391
101468.872582
101468.901418
101468.925612
101468.949062
101468.972128
101468.994468
101469.01638
101469.038829
101469.063309
101469.09128
101454.060046
101453.176578
101454.275615
101454.698661
101454.674182
101454.673841
101454.748443
101454.856614
101454.96411
101455.060791
101455.145015
101455.218704
101455.286895
101455.353338
101455.418864
101455.482735
101455.544209
101455.602984
101455.659329
101455.713621
101440.006337
101439.158795
101440.362023
101440.892573
101440.975936
101441.000203
101441.066738
101441.180277
101441.308038
101441.429117
101441.540466
101441.642809
101441.739099
101441.832412
101441.924049
101442.013555
101442.099934
101442.18223
101442.259874
101442.332388
101426.54411
101425.623673
101426.716244
101427.192624
101427.336731
101427.420545
101427.507678
101427.625429
101427.768351
101427.910966
101428.044433
101428.16918
101428.286743
101428.399142
101428.507895
101428.613065
101428.71392
101428.809436
101428.898766
101428.981056
101412.760581
101411.75858
101412.729188
101413.297057
101413.582032
101413.804504
101413.99005
101414.159466
101414.333679
101414.505626
101414.663767
101414.809136
101414.943797
101415.069514
101415.188171
101415.300621
101415.406796
101415.506052
101415.597725
101415.680945
101400.414221
101399.32285
101400.131763
101400.410344
101400.486205
101400.619878
101400.781115
101400.946178
101401.115408
101401.290718
101401.4572
101401.609316
101401.74794
101401.874315
101401.990451
101402.097836
101402.1971
101402.288142
101402.370686
101402.444187
101386.12212
101385.104876
101386.407017
101386.958713
101387.210103
101387.458951
101387.707428
101387.921025
101388.107083
101388.286163
101388.456585
101388.606933
101388.735017
101388.844089
101388.938961
101389.022865
101389.097628
101389.164045
101389.222463
101389.273025
101375.608359
101374.298342
101375.103105
101375.354036
101375.34681
101375.365913
101375.430863
101375.506703
101375.588224
101375.684772
101375.791919
101375.887943
101375.960232
101376.011511
101376.049986
101376.080558
101376.105396
101376.125519
101376.141727
101376.154572
101363.615856
101361.886614
101362.835705
101363.264903
101363.313575
101363.315111
101363.314498
101363.313936
101363.324645
101363.354849
101363.392895
101363.406796
101363.384975
101363.337418
101363.282103
101363.228135
101363.177574
101363.131211
101363.089775
101363.05344
101353.825545
101351.522878
101351.727096
101351.855134
101351.689026
101351.476561
101351.284012
101351.163412
101351.118967
101351.115272
101351.09874
101351.022041
101350.880209
101350.699826
101350.521074
101350.360613
101350.220144
101350.098765
101349.995672
101349.909791
101341.161779
101338.609838
101339.245949
101339.460506
101339.237035
101338.945684
101338.703614
101338.57138
101338.551956
101338.570121
101338.541568
101338.405397
101338.163604
101337.858417
101337.561362
101337.304647
101337.088725
101336.909498
101336.763584
101336.647741
101327.959572
101325.36827
101326.036284
101326.125543
101325.7517
101325.386836
101325.153477
101325.08366
101325.128495
101325.194559
101325.209981
101325.106428
101324.85
101324.492525
101324.14168
101323.852149
101323.620527
101323.438477
101323.299735
101323.198841
101313.745534
101310.79111
101311.329087
101311.338143
101310.943237
101310.597546
101310.411032
101310.410223
101310.505399
101310.617131
101310.719263
101310.748511
101310.610646
101310.333223
101310.051451
101309.844994
101309.703699
101309.611072
101309.558088
101309.538376
101297.786555
101294.631018
101295.004986
101294.99138
101294.601297
101294.305299
101294.219492
101294.300675
101294.439093
101294.616326
101294.863886
101295.123271
101295.27129
101295.277512
101295.247373
101295.2775
101295.359922
101295.46808
101295.590291
101295.722444
101279.530765
101276.125593
101276.276366
101276.393537
101276.328025
101276.412471
101276.648489
101276.950382
101277.273867
101277.66041
101278.138063
101278.64519
101279.125525
101279.585766
101280.002756
101280.413945
101280.8285
101281.221469
101281.580706
101281.9083
101258.86367
101256.346073
101257.514428
101258.140757
101258.570857
101259.112864
101259.738578
101260.38402
101261.035852
101261.680776
101262.295494
101262.875074
101263.468023
101264.196831
101265.039886
101265.844966
101266.586269
101267.249639
101267.828362
101268.330893
101242.333359
101241.529572
101243.263843
101244.039101
101244.550865
101245.162127
101245.890451
101246.673218
101247.429219
101248.085166
101248.665447
101249.261243
101249.828599
101250.443232
101251.303402
101252.267901
101253.165621
101253.955348
101254.635727
101255.21669
101233.56602
101233.08909
101234.329184
101234.674626
101234.773706
101234.994341
101235.388009
101235.880132
101236.393088
101236.878766
101237.312538
101237.754674
101238.215328
101238.684176
101239.259017
101240.037403
101240.832037
101241.53994
101242.151176
101242.673271
101224.240439
101223.810495
101225.121828
101225.533983
101225.638472
101225.789805
101226.046576
101226.367486
101226.709508
101226.944217
101227.125191
101227.379724
101227.727627
101228.124151
101228.489546
101228.943511
101229.448447
101229.905318
101230.301405
101230.642678
101216.779079
101215.921245
101216.576855
101216.784968
101216.783075
101216.825886
101216.976493
101217.203834
101217.352698
101217.259482
101217.264817
101217.373231
101217.61355
101217.966026
101218.245812
101218.439125
101218.623318
101218.754398
101218.857778
101218.945777
101206.676798
101205.866239
101207.030672
101207.404287
101207.487579
101207.5931
101207.785297
101207.93414
101207.726283
101207.513016
101207.442948
101207.449627
101207.552822
101207.795108
101208.000516
101208.034481
101207.942105
101207.74969
101207.545916
101207.359802
101198.529709
101197.53475
101198.613785
101198.85367
101198.797486
101198.769352
101198.784407
101198.579854
101198.053212
101197.632164
101197.578331
101197.429202
101197.274927
101197.30771
101197.434426
101197.384816
101197.069971
101196.593547
101196.11165
101195.671843
101188.539434
101187.357149
101188.793335
101189.19667
101189.202062
101189.168914
101189.031956
101188.438179
101187.630893
101187.452651
101187.109357
101186.855093
101186.581597
101186.161108
101186.243368
101186.186259
101185.730366
101185.047036
101184.351514
101183.709884
101179.986141
101178.330549
101179.340006
101179.547119
101179.354046
101179.065928
101178.517228
101177.501476
101176.945392
101176.351678
101176.054334
101175.53632
101174.447032
101174.023294
101174.247722
101174.252256
101173.76113
101172.987619
101172.161178
101171.37822
101169.139315
101166.944088
101167.868798
101168.190867
101168.044188
101167.692909
101166.914268
101165.966695
101165.130833
101164.706805
101163.979646
101163.057719
101162.033973
101161.733329
101161.99854
101161.883854
101161.357638
101160.530708
101159.586964
101158.674528
101157.878707
101155.596656
101156.755863
101156.940378
101156.563209
101155.924783
101154.880228
101153.72046
101153.204079
101152.390381
101151.618166
101150.37662
101149.205664
101149.341239
101149.177364
101149.086253
101148.607767
101147.731368
101146.643109
101145.579112
101146.062109
101143.401435
101144.815996
101144.920408
101144.326277
101143.41111
101142.154325
101141.31284
101140.29213
101139.49426
101138.474688
101136.786952
101136.507801
101136.173956
101136.037144
101135.862508
101135.416858
101134.468541
101133.213599
101131.980132
101134.172831
101131.062695
101132.323012
101132.244995
101131.417222
101130.363867
101129.247161
101127.955594
101126.91085
101125.791485
101123.669408
101122.919621
101122.659144
101122.282403
101121.876498
101121.744462
101121.332847
101120.370436
101119.014937
101117.656216
101122.73664
101118.634112
101119.054204
101118.610265
101117.558863
101116.289008
101114.633173
101112.820793
101111.256218
101109.448373
101108.568016
101108.234255
101107.715438
101106.986442
101106.632211
101106.377736
101106.008974
101105.103119
101103.7622
101102.373739
101110.348425
101104.501901
101103.614366
101102.847443
101101.499157
101099.731503
101097.748244
101096.173158
101094.97824
101094.037921
101093.322732
101092.488387
101091.49708
101090.664501
101090.019782
101089.615294
101089.159047
101088.348741
101087.178641
101085.912124
101092.540305
101085.108753
101084.466309
101083.614701
101082.417793
101080.951342
101079.55972
101078.545417
101077.619304
101076.685357
101075.562861
101074.265876
101073.057042
101072.051281
101071.226315
101070.498213
101069.981047
101069.48772
101068.846819
101068.035874
101059.009473
101051.074323
101052.724976
101053.821538
101054.435323
101054.434267
101054.240371
101054.037609
101053.716774
101053.111882
101052.215447
101051.325621
101050.607473
101049.953036
101049.195646
101048.592773
101048.324683
101048.473117
101048.694586
101048.808552
101005.184326
101002.061568
101008.360842
101011.319249
101013.932844
101016.357178
101018.395979
101020.054205
101021.391764
101022.34901
101023.118501
101023.906955
101024.670487
101025.225749
101025.485997
101025.809671
101026.451998
101027.073115
101027.844682
101029.000347
100955.329779
100958.982572
100963.74173
100966.398099
100969.065441
100972.922097
100977.529048
100981.801923
100985.659177
100989.202498
100992.488943
100995.542385
100998.324418
101000.674286
101002.504987
101004.101258
101005.508672
101006.487498
101007.688213
101009.606948
100936.731354
100936.719611
100937.48385
100938.684194
100940.014761
100942.238589
100946.415636
100951.670967
100956.981037
100962.1145
100966.9723
100971.480794
100975.656476
100979.32486
100982.337502
100984.623321
100986.52365
100988.12891
100989.710603
100991.870839
100933.85793
100933.806817
100933.727172
100933.665734
100933.656651
100933.925787
100935.101463
100937.912867
100941.783594
100946.148308
100950.62862
100954.976098
100959.13606
100962.992616
100966.281678
100968.824754
100970.965661
100972.809855
100974.614818
100976.698171
100931.868572
100931.845266
100931.826669
100931.808962
100931.78337
100931.782156
100931.921112
100933.009918
100935.173901
100938.082028
100941.373804
100944.757458
100948.160337
100951.383051
100954.248751
100956.600725
100958.592462
100960.46272
100962.250907
100964.144388
100930.150994
100930.129365
100930.112803
100930.099468
100930.086354
100930.120705
100930.086573
100930.574067
100931.854182
100933.733812
100935.929872
100938.315761
100940.778811
100943.218214
100945.366556
100947.193175
100948.875252
100950.4981
100952.11336
100953.76906
100928.511318
100928.493229
100928.481622
100928.472206
100928.461373
100928.517079
100928.437795
100928.651222
100929.464257
100930.723101
100932.146328
100933.68607
100935.463342
100937.188458
100938.519422
100939.690776
100940.932003
100942.295021
100943.653309
100945.027847
100926.978124
100926.959257
100926.946864
100926.937491
100926.92755
100927.021371
100926.919946
100926.995785
100927.551514
100928.334851
100929.076136
100930.059859
100931.142766
100932.295392
100933.039156
100933.412863
100934.244207
100935.303012
100936.371134
100937.464568
100925.502092
100925.486049
100925.477405
100925.471564
100925.464031
100925.623549
100925.509851
100925.522002
100925.850881
100926.095263
100926.300259
100926.76461
100927.454275
100928.001492
100927.987386
100927.959701
100928.376793
100929.084358
100929.878423
100930.745804
100924.092391
100924.077729
100924.074783
100924.081056
100924.096165
100924.235631
100924.02757
100923.953753
100923.98566
100923.674711
100923.427967
100923.630749
100923.778947
100923.858503
100923.558924
100922.919463
100922.961748
100923.332866
100923.899495
100924.574242
100922.608887
100922.59326
100922.584326
100922.57544
100922.694907
100922.740448
100922.503496
100922.321692
100921.907058
100921.080804
100920.667444
100920.412975
100920.214009
100919.824756
100918.855208
100918.03192
100917.703106
100917.71071
100918.044295
100918.538057
100921.155375
100921.145104
100921.152732
100921.169251
100921.388746
100921.286537
100921.005799
100920.616461
100919.541196
100918.33142
100917.56341
100916.983974
100916.241724
100915.284053
100914.108467
100912.846909
100912.151067
100911.770096
100911.853997
100912.158599
100919.44073
100919.44029
100919.463553
100919.725171
100919.804717
100919.631389
100919.27006
100918.346971
100916.523409
100914.939175
100913.990664
100912.882608
100911.648497
100910.255717
100908.406628
100906.999592
100905.86173
100905.026573
100904.810221
100904.943345
100917.197721
100917.231288
100918.22392
100918.72982
100918.640334
100918.223317
100917.328737
100915.146367
100912.638036
100911.087367
100909.475622
100907.848152
100906.092301
100903.883932
100901.788305
100899.958776
100898.28982
100896.942332
100896.414685
100896.360017
100914.425411
100914.765264
100917.271064
100917.729023
100917.220576
100916.075589
100913.554793
100910.242063
100907.94384
100905.767089
100903.6416
100901.382801
100898.83487
100896.212957
100893.453367
100891.255178
100888.988952
100887.135729
100886.280697
100885.947374
100911.907356
100910.971754
100914.494793
100914.791839
100913.30418
100910.205705
100906.294122
100903.492903
100900.911331
100898.416994
100895.692613
100892.717558
100889.788985
100886.271394
100883.316915
100880.606
100877.706673
100875.400618
100874.163964
100873.528019
100909.55431
100904.573583
100908.092039
100907.538047
100903.829015
100899.671268
100896.949504
100894.230591
100891.580291
100888.571162
100885.290973
100882.002097
100878.037218
100874.441445
100871.197118
100867.757414
100864.171263
100861.469894
100859.870214
100859.036227
100907.4126
100897.895239
100898.844107
100895.988778
100891.73028
100889.294635
100886.447767
100883.587139
100880.266693
100876.560193
100872.875516
100868.500959
100864.440888
100860.456953
100856.547851
100852.187956
100847.999048
100844.929351
100843.009872
100841.957734
100905.341626
100893.768386
100890.342482
100886.757084
100883.566479
100879.804969
100875.823389
100871.444344
100866.558973
100861.895095
100856.613503
100851.793495
100846.888802
100842.409753
100837.849229
100833.043127
100828.602641
100825.276795
100823.108903
100821.8547
100897.582439
100880.769123
100877.402436
100874.299782
100868.885445
100862.711258
100856.497067
100849.703498
100843.535425
100837.021319
100831.335945
100825.954916
100821.338681
100817.132843
100813.016734
100808.981372
100805.256672
100802.368718
100800.309777
100799.046189
100801.414498
100780.763819
100787.781621
100793.611109
100796.257864
100797.910685
100797.713433
100796.242735
100793.402176
100790.601669
100787.852146
100785.535466
100783.537608
100781.745649
100780.170524
100778.738779
100777.458653
100776.335843
100775.244355
100774.421958
100659.484889
100652.403046
100660.131309
100666.500391
100673.635046
100683.32555
100696.149382
100708.732664
100717.960578
100724.255454
100729.142958
100733.173426
100736.593368
100739.54701
100742.142406
100744.450872
100746.587708
100748.428962
100749.39816
100749.625103
100634.634397
100634.585565
100634.564272
100634.549995
100634.550275
100634.841318
100637.086007
100644.733216
100657.850389
100670.515212
100680.475611
100688.739326
100695.925853
100702.247361
100707.819719
100712.767581
100717.230937
100721.342357
100724.579694
100726.324868
100633.418922
100633.416184
100633.414841
100633.406549
100633.388809
100633.361254
100633.348004
100633.778596
100637.00406
100645.119724
100654.4119
100662.539522
100669.756956
100676.45256
100682.611382
100688.240261
100693.393094
100698.138312
100702.429815
100705.407733
100632.503494
100632.499475
100632.496104
100632.492608
100632.486477
100632.476827
100632.462771
100632.449258
100633.220208
100636.391297
100642.174917
100648.516547
100654.433859
100660.027165
100665.440161
100670.544017
100675.310193
100679.717582
100683.759868
100687.11263
100631.600937
100631.600259
100631.601641
100631.604301
100631.606705
100631.608436
100631.610089
100631.612057
100631.933519
100633.415251
100636.63172
100640.840069
100645.118742
100649.370407
100653.562846
100657.689119
100661.601413
100665.297618
100668.640363
100671.621319
100630.702804
100630.702849
100630.706603
100630.713078
100630.720643
100630.728743
100630.737952
100630.752703
100630.872247
100631.706666
100633.638538
100636.263971
100639.100614
100642.018938
100645.028978
100648.022264
100650.975363
100653.793466
100656.455543
100658.623831
100629.757491
100629.758894
100629.764461
100629.7715
100629.777528
100629.780765
100629.780009
100629.856596
100629.898585
100630.394398
100631.541099
100633.003265
100634.640412
100636.546863
100638.466965
100640.396755
100642.369145
100644.338769
100646.151516
100647.401773
100628.738588
100628.742433
100628.751818
100628.76455
100628.779508
100628.797749
100628.822874
100628.961933
100628.921135
100629.169249
100629.699863
100630.172508
100630.897306
100631.80156
100632.814742
100633.848961
100634.884756
100635.984489
100637.089824
100637.545635
100627.534043
100627.539813
100627.549766
100627.563027
100627.582469
100627.610581
100627.671242
100627.603133
100627.530313
100627.597368
100627.485589
100627.088799
100626.93954
100627.174169
100627.34295
100627.563674
100627.893713
100628.245001
100628.53833
100627.979297
100626.030676
100626.03781
100626.045595
100626.058891
100626.084473
100626.153475
100626.05089
100625.84064
100625.620757
100625.299308
100624.25856
100623.079209
100622.578031
100622.044964
100621.5971
100621.148617
100620.714956
100620.338137
100619.881306
100618.746805
100624.127356
100624.13267
100624.133534
100624.144762
100624.29586
100624.14243
100623.797979
100623.405113
100622.918221
100621.727821
100619.840307
100618.542217
100617.443088
100616.466446
100615.366941
100614.289317
100613.257721
100612.18107
100611.049882
100608.894341
100621.86817
100621.866164
100621.861296
100622.344102
100622.364473
100621.908341
100621.291145
100620.594536
100619.339825
100617.010472
100614.902661
100613.279869
100611.891428
100610.270624
100608.65912
100607.000314
100605.252124
100603.505795
100601.535761
100598.952531
100619.201917
100619.186111
100620.196002
100620.94985
100620.773337
100619.990759
100618.958136
100617.508107
100614.841968
100611.951753
100609.746578
100607.959147
100605.875803
100603.807467
100601.593934
100599.266166
100596.937295
100594.408463
100591.762576
100588.075341
100612.021109
100615.426308
100618.257257
100619.117062
100618.826419
100617.770617
100616.164093
100613.50792
100609.915978
100606.869981
100604.676239
100602.152904
100599.671472
100596.970699
100594.101072
100591.197578
100588.028346
100584.832554
100581.172788
100577.053681
100606.639731
100609.826181
100614.643645
100615.832945
100615.619665
100614.491149
100612.32061
100608.562004
100604.487366
100601.700191
100598.761353
100595.913854
100592.805177
100589.493789
100586.102174
100582.461606
100578.864844
100574.655997
100570.456951
100565.22641
100609.305936
100607.219794
100612.056241
100613.129833
100612.661318
100611.126993
100607.949036
100603.066092
100598.808552
100595.176811
100591.934132
100588.331108
100584.61915
100580.843926
100576.810912
100572.917346
100567.976864
100563.433564
100558.558471
100553.383458
100612.049359
100604.928872
100607.5519
100608.155671
100607.213578
100604.935993
100600.347919
100594.632951
100589.813629
100586.14884
100582.05219
100577.972247
100573.884152
100569.474445
100565.299396
100560.095947
100555.606462
100551.298046
100546.744887
100541.569968
100602.6133
100592.41724
100594.306061
100594.483367
100592.807343
100589.439155
100583.907329
100578.302113
100574.686702
100570.632938
100566.673617
100562.775158
100558.223134
100554.177845
100549.357328
100545.320444
100541.593711
100537.772607
100533.672845
100529.191559
100575.593389
100562.362277
100564.162735
100563.99547
100562.713963
100560.029962
100555.919457
100552.617717
100549.438469
100546.104405
100543.063566
100538.874324
100535.504371
100532.050846
100529.122186
100526.445835
100523.79033
100521.200491
100518.431568
100515.497466
100510.189856
100496.262678
100498.153081
100500.305597
100501.688988
100501.85092
100500.764108
100499.515552
100498.443626
100498.618784
100499.616842
100501.334117
100502.319145
100502.725186
100502.819331
100502.622769
100502.35428
100501.939022
100501.313678
100500.497771
100437.611815
100427.708522
100430.520203
100432.334545
100433.212816
100433.620874
100434.290008
100435.853086
100438.830517
100443.418825
100449.749221
100457.10483
100463.923077
100469.444685
100473.682195
100477.101533
100479.904813
100482.198977
100484.062799
100485.522706
100432.732385
100432.345171
100432.314907
100432.285875
100432.251165
100432.215758
100432.183316
100432.178487
100432.170492
100432.171176
100432.605642
100434.833748
100439.552541
100445.666648
100451.71027
100457.065059
100461.783979
100465.930936
100469.547814
100472.679294
100431.881826
100431.848455
100431.826969
100431.804443
100431.782063
100431.762515
100431.747245
100431.733931
100431.723256
100431.714193
100431.708381
100431.795072
100432.945464
100435.971518
100440.483013
100445.53315
100450.426027
100455.031161
100459.298785
100463.201132
100431.318956
100431.314153
100431.311876
100431.307321
100431.300913
100431.294531
100431.289313
100431.285164
100431.281766
100431.278792
100431.276577
100431.276123
100431.78118
100433.410704
100436.296055
100440.188094
100444.44655
100448.696474
100452.878557
100456.890431
100430.794508
100430.792302
100430.791212
100430.789436
100430.786694
100430.78472
100430.784787
100430.786947
100430.791078
100430.79693
100430.804183
100430.811795
100431.253535
100432.569729
100434.839556
100437.938797
100441.512453
100445.284833
100449.082726
100452.89677
100430.223034
100430.22313
100430.225697
100430.229875
100430.234798
100430.240633
100430.248256
100430.25846
100430.271627
100430.287883
100430.30713
100430.331671
100430.749685
100431.917499
100433.945975
100436.653363
100439.817727
100443.175166
100446.675574
100450.173717
100429.553666
100429.553191
100429.563554
100429.58577
100429.612823
100429.640225
100429.66507
100429.688581
100429.711491
100429.732549
100429.748838
100429.835641
100430.337956
100431.486118
100433.388501
100435.840325
100438.603733
100441.688428
100444.794582
100447.991808
100428.624246
100428.621714
100428.644847
100428.711286
100428.82489
100428.926761
100429.001106
100429.056254
100429.109727
100429.166639
100429.203263
100429.498205
100430.143708
100431.3493
100433.137972
100435.171765
100437.589088
100440.206621
100442.998307
100445.858436
100426.387131
100426.341257
100426.339851
100426.398932
100426.829256
100427.560566
100428.111506
100428.267636
100428.323766
100428.357541
100428.419494
100428.734987
100429.531046
100430.800245
100432.290932
100433.925454
100435.930667
100438.320329
100440.719167
100442.297135
100419.225397
100421.95454
100421.914886
100421.893052
100422.386599
100422.211774
100422.659003
100423.186865
100423.659875
100424.259029
100425.105604
100426.074963
100427.316257
100428.659375
100429.824159
100431.242055
100433.274298
100435.303629
100436.302189
100437.638442
100413.490364
100416.609679
100416.574363
100416.533399
100417.032056
100416.522166
100417.988503
100420.123839
100421.371432
100421.943816
100422.478019
100423.352362
100424.305472
100425.027954
100425.895977
100427.524465
100429.207599
100429.68588
100430.125109
100432.593398
100409.004378
100411.40826
100411.332671
100411.193173
100411.024278
100410.025181
100410.276385
100412.649592
100415.060413
100416.551577
100417.489684
100418.274773
100418.868925
100419.523484
100420.756483
100421.885083
100421.662796
100421.627269
100423.984394
100426.613452
100407.951361
100407.949944
100407.963165
100407.976299
100407.968972
100407.541857
100406.254473
100406.677872
100408.262038
100409.778773
100410.902029
100411.709587
100412.479791
100413.435126
100413.924057
100413.082475
100413.185632
100415.486989
100417.911754
100420.056907
100405.491709
100405.465379
100405.433142
100405.376421
100405.284721
100405.185422
100404.366608
100403.679924
100404.257257
100405.346089
100406.336714
100407.116595
100407.729517
100407.780725
100406.919115
100407.436902
100409.319661
100410.923654
100412.559688
100414.29651
100403.692274
100403.684651
100403.671523
100403.644099
100403.600386
100403.537784
100403.464691
100402.850237
100402.53938
100403.019771
100403.685905
100404.086094
100404.063029
100403.565228
100404.220051
100405.682096
100406.721888
100407.624079
100408.677111
100410.010361
100402.399744
100402.391955
100402.382843
100402.367296
100402.342228
100402.30948
100402.272488
100402.226493
100401.751664
100401.685846
100401.758911
100401.716758
100401.683851
100402.194907
100403.213652
100403.990533
100404.574903
100405.154376
100405.916922
100406.954109
100401.291958
100401.287742
100401.287014
100401.286044
100401.283345
100401.279328
100401.275591
100401.274542
100401.136897
100400.979806
100400.890289
100400.819922
100401.005797
100401.533643
100402.055129
100402.442636
100402.81144
100403.281747
100403.916168
100404.719621
100400.238361
100400.234736
100400.234588
100400.235407
100400.235972
100400.236565
100400.237209
100400.23631
100400.233816
100400.195068
100400.164484
100400.129114
100400.20001
100400.4372
100400.727515
100400.991702
100401.315278
100401.761631
100402.29681
100402.79846
100399.177979
100399.174966
100399.17533
100399.176172
100399.176488
100399.176927
100399.177529
100399.177171
100399.190391
100399.11697
100399.008572
100398.85916
100398.794541
100398.957561
100399.251013
100399.523717
100399.860429
100400.276141
100400.623279
100400.655517
100398.086909
100398.086186
100398.090234
100398.095761
100398.101523
100398.107833
100398.114676
100398.1178
100398.143249
100397.955487
100397.693334
100397.419862
100397.276772
100397.394643
100397.67211
100397.956246
100398.275912
100398.554605
100398.545952
100397.986992
100396.896644
100396.900134
100396.913564
100396.933949
100396.959824
100396.990003
100397.026957
100397.079257
100397.061894
100396.748406
100396.392031
100396.006047
100395.711963
100395.669659
100395.847522
100396.077101
100396.268459
100396.260821
100395.705725
100394.606177
100395.444795
100395.451747
100395.471609
100395.507498
100395.550747
100395.604224
100395.664559
100395.68572
100395.407671
100395.116955
100394.747504
100394.262022
100393.762184
100393.46271
100393.427447
100393.468422
100393.371988
100392.888864
100391.702588
100390.233677
100393.427473
100393.441898
100393.476406
100393.559858
100393.707606
100393.78892
100393.834735
100393.607888
100393.273246
100392.914694
100392.440551
100391.690785
100390.865255
100390.228886
100389.868865
100389.552208
100388.97386
100387.880263
100386.307704
100384.709174
100390.254891
100390.222052
100390.17796
100390.141457
100390.321909
100389.994665
100389.728479
100389.494469
100389.280414
100388.936737
100388.104473
100387.001571
100385.976907
100385.18332
100384.527993
100383.784627
100382.750446
100381.371075
100379.829523
100378.265802
100386.612097
100386.554041
100386.504656
100386.459294
100386.952392
100386.478593
100385.837057
100385.308376
100384.670533
100383.479746
100382.068793
100380.865557
100379.993389
100379.026067
100377.979404
100376.816277
100375.619931
100374.29007
100372.87568
100371.211654
100376.559817
100382.785416
100382.705722
100382.643652
100383.28544
100382.331843
100381.401907
100380.416666
100378.919816
100377.335883
100375.995891
100374.977255
100373.788303
100372.629354
100371.380169
100370.099623
100368.743458
100367.297714
100365.669176
100363.735407
100371.35809
100377.676682
100378.449202
100378.385342
100379.563101
100378.426145
100376.952884
100375.037907
100373.107473
100371.553173
100370.337389
100368.977987
100367.69828
100366.31635
100364.868025
100363.391238
100361.799608
100360.128512
100358.16487
100356.255947
100360.105135
100368.915415
100373.286057
100373.401209
100375.199018
100373.778908
100371.544552
100368.985842
100366.770075
100365.096829
100363.433823
100361.950859
100360.46816
100359.015444
100357.50703
100355.724519
100354.123674
100352.210259
100350.415341
100349.055075
100339.228437
100351.093643
100358.515696
100360.658508
100363.151663
100362.117941
100360.32904
100358.304228
100356.511325
100354.921198
100353.453047
100352.110169
100350.621867
100349.163192
100347.252778