/*--------------------------------*- C++ -*----------------------------------*\
| =========                 |                                                 |
| \\      /  F ield         | OpenFOAM: The Open Source CFD Toolbox           |
|  \\    /   O peration     | Version:  2312                                  |
|   \\  /    A nd           | Website:  www.openfoam.com                      |
|    \\/     M anipulation  |                                                 |
\*---------------------------------------------------------------------------*/
FoamFile
{
    version     2.0;
    format      ascii;
    arch        "LSB;label=32;scalar=64";
    class       volScalarField;
    location    "0.2/water";
    object      d.gas;
}
// * * * * * * * * * * * * * * * * * * * * * * * * * * * * * * * * * * * * * //

dimensions      [0 1 0 0 0 0 0];

internalField   nonuniform List<scalar> 
1504
(
0.00498179811293
0.00498180262895
0.00498177779363
0.00498176104956
0.00498174224842
0.00498171903308
0.00498167593187
0.0049816149683
0.0049815469885
0.00498147769964
0.00498141025572
0.00498134610777
0.00498128582496
0.00498123136298
0.00498118467826
0.0049811468018
0.00498111501481
0.00498108697315
0.00498106231823
0.00498103428281
0.00498202191124
0.00498201995629
0.00498200574651
0.00498200472322
0.00498199889308
0.00498198351399
0.00498195530994
0.00498190581416
0.0049818417522
0.00498177008767
0.00498169717639
0.0049816267675
0.00498155995661
0.0049814987915
0.0049814452916
0.00498140083936
0.00498136426157
0.00498133115488
0.00498130214678
0.00498127230288
0.00498208290806
0.00498207969552
0.00498206838182
0.00498206840275
0.00498206920482
0.0049820624486
0.00498205160973
0.0049820244263
0.00498198165486
0.004981928219
0.00498186956842
0.00498181001244
0.00498175140717
0.00498169620415
0.00498164698903
0.00498160440893
0.00498156845192
0.00498153512879
0.00498150440477
0.00498147401073
0.00498211907878
0.0049821158254
0.00498211378377
0.00498211326644
0.00498211303658
0.00498210628651
0.00498210148214
0.0049820855164
0.00498205690875
0.00498201903151
0.00498197595299
0.00498193071093
0.0049818847125
0.00498184044603
0.00498180068151
0.00498176497979
0.0049817327125
0.00498170185614
0.00498167250062
0.00498164370756
0.00498215395047
0.00498215396991
0.00498215340146
0.00498215284839
0.00498215241831
0.00498214680686
0.00498214406885
0.00498213232341
0.00498211061923
0.00498208292348
0.00498205241528
0.00498201964544
0.00498198537336
0.00498195181922
0.00498192170094
0.00498189417718
0.00498186682762
0.00498183999229
0.00498181391146
0.00498178819458
0.00498218991415
0.00498219017215
0.00498219020987
0.00498219014757
0.00498218878868
0.00498218447806
0.00498218243478
0.00498217280337
0.00498215636839
0.00498213757352
0.00498211722636
0.00498209400459
0.00498206920726
0.00498204457332
0.00498202248831
0.00498200206853
0.00498198019997
0.004981958295
0.00498193650601
0.00498191452227
0.00498222961646
0.00498222989469
0.0049822300729
0.00498223027807
0.00498222607735
0.00498222431659
0.00498222391748
0.00498221679019
0.00498220546424
0.00498219371962
0.00498217998481
0.00498216263537
0.0049821447511
0.00498212696165
0.00498211078904
0.00498209581435
0.00498207992505
0.00498206406485
0.00498204690363
0.00498202743786
0.00498226833525
0.00498226867083
0.00498226893437
0.00498226919386
0.00498226301728
0.0049822633741
0.00498226576141
0.004982262059
0.00498225576241
0.00498224941318
0.00498223838938
0.00498222592611
0.0049822136195
0.0049822012548
0.00498218937954
0.00498217882914
0.00498216976356
0.004982159812
0.00498214239844
0.00498212522755
0.00498230533363
0.00498230565362
0.00498230591098
0.00498230618846
0.00498229983966
0.00498230106961
0.00498230524158
0.00498230433559
0.00498230216623
0.00498229890217
0.00498229224698
0.00498228247499
0.00498227425314
0.00498226851682
0.0049822598355
0.00498225320258
0.00498225040576
0.00498224035569
0.00498222727747
0.00498221466589
0.00498233931655
0.00498233965359
0.00498233993684
0.00498234023057
0.00498233436063
0.00498233577675
0.00498234079063
0.0049823421624
0.00498234400708
0.00498234612586
0.00498233974279
0.00498233359927
0.00498233313395
0.00498233071312
0.00498232488689
0.0049823221626
0.00498232346669
0.00498232053567
0.00498231030057
0.00498229633852
0.00498237076277
0.00498237104931
0.00498237127059
0.00498237152799
0.00498236516378
0.00498236623518
0.0049823718014
0.00498237578458
0.00498238263698
0.00498238690672
0.00498238726138
0.00498238478844
0.00498238598624
0.00498239192572
0.00498238873345
0.00498239060558
0.00498240017575
0.00498239690966
0.00498238907674
0.00498238052306
0.00498239916776
0.00498239940088
0.00498239947822
0.0049823994281
0.00498239315412
0.00498239418371
0.00498239989553
0.00498240643532
0.00498241884993
0.00498243067391
0.00498243092826
0.0049824330346
0.00498244678872
0.00498245352736
0.00498245391179
0.00498246249583
0.00498247502121
0.00498247987007
0.00498247543742
0.00498246612194
0.00498242709964
0.00498242735671
0.00498242754374
0.0049824250343
0.00498241845525
0.00498241931027
0.00498242566294
0.00498243692378
0.00498245712397
0.00498246978133
0.00498247927248
0.00498248786263
0.0049825028017
0.00498251903463
0.00498252544794
0.00498254209351
0.00498256447149
0.00498256114944
0.00498256133579
0.004982558908
0.0049824527859
0.00498245289213
0.00498245268709
0.00498244560565
0.00498243951177
0.00498244095174
0.00498244897458
0.00498246785177
0.00498249451584
0.00498251583875
0.00498252655545
0.00498254694539
0.00498258053758
0.0049825932777
0.00498260690027
0.00498263558394
0.00498264933022
0.0049826569926
0.00498266371331
0.00498266019774
0.00498248195525
0.00498248176314
0.00498247448193
0.00498246464438
0.00498245969572
0.00498246264936
0.00498247571398
0.00498250857302
0.00498254704499
0.00498256776349
0.00498259190913
0.0049826304937
0.00498265923256
0.00498267874796
0.00498270341103
0.00498273773542
0.00498276567241
0.00498276885419
0.00498278067038
0.00498278730123
0.00498252286882
0.00498252153906
0.00498249401369
0.00498248090051
0.00498247944908
0.00498248907873
0.00498251962557
0.00498257145303
0.00498261011004
0.00498264396565
0.00498267809506
0.00498271707978
0.00498275807286
0.00498278713525
0.00498282608121
0.00498287422435
0.00498288838738
0.00498291073438
0.00498292984955
0.0049829395137
0.00498256576446
0.00498258188637
0.00498253219633
0.00498251909963
0.00498252657979
0.00498255685921
0.00498261549958
0.00498266864566
0.00498270976813
0.00498274613076
0.00498278965538
0.0049828438375
0.00498288351589
0.00498292411847
0.00498297592165
0.004983020394
0.00498305775205
0.00498307747525
0.00498310431007
0.00498312627101
0.0049826071836
0.00498267908205
0.00498262212655
0.00498261485766
0.00498265261621
0.00498271515808
0.00498276884165
0.00498281141468
0.00498284776828
0.00498289282111
0.0049829430995
0.00498299034884
0.00498304234892
0.00498309343098
0.00498315357845
0.00498321205619
0.00498324259922
0.0049832775498
0.00498330918207
0.00498333805352
0.00498264601146
0.00498279353804
0.0049827596634
0.00498278888475
0.00498285439616
0.00498289428951
0.00498293457467
0.00498296886773
0.00498301440837
0.00498306512531
0.00498311600517
0.00498317841586
0.00498323446066
0.00498329490202
0.00498336238826
0.00498342208081
0.00498346814408
0.00498349817904
0.00498353454293
0.00498356789712
0.00498268062476
0.00498286480968
0.00498290639056
0.0049829548843
0.00498299186018
0.00498304116543
0.00498308790424
0.00498314168767
0.00498320504934
0.00498326464401
0.00498333742634
0.00498340320905
0.00498347135739
0.00498353914162
0.00498361076425
0.0049836766516
0.00498372104601
0.00498375506185
0.004983786956
0.00498381515663
0.0049828179129
0.00498305050307
0.00498309133832
0.00498312838585
0.00498319387485
0.00498327008889
0.00498334308379
0.00498342792228
0.00498350264189
0.00498358952594
0.00498366359718
0.00498373648779
0.00498380104093
0.004983863891
0.00498392715813
0.00498398476335
0.00498402428531
0.00498405119658
0.00498407159359
0.00498409157543
0.00498408085913
0.00498435955559
0.00498430245919
0.00498425258012
0.00498423603203
0.00498421541574
0.00498420312956
0.0049841892948
0.00498420214645
0.00498422251903
0.00498424966059
0.00498427447797
0.00498429794362
0.00498431980382
0.00498434208056
0.00498436329618
0.00498437698257
0.00498438653456
0.00498438964693
0.00498439066483
0.00498604217376
0.00498618924391
0.00498609736575
0.00498601519273
0.00498593221584
0.00498582859585
0.00498568129498
0.00498549997797
0.00498531964963
0.00498518455401
0.00498508884639
0.00498501353455
0.00498494991778
0.00498489377319
0.00498484275519
0.00498479694154
0.00498476229274
0.00498474119523
0.00498472117509
0.00498470297547
0.00498633290366
0.00498633385753
0.00498633424009
0.00498633448544
0.00498633460388
0.00498633453969
0.00498632863277
0.00498629147888
0.00498617950976
0.00498598955617
0.00498580301592
0.0049856536627
0.00498552764246
0.00498541587034
0.00498531279367
0.00498521504326
0.00498512961948
0.00498507441358
0.00498503745962
0.00498500310515
0.00498634771245
0.00498634773676
0.00498634767491
0.00498634767664
0.00498634775131
0.00498634790061
0.00498634811501
0.00498634815471
0.00498634287686
0.00498629616218
0.00498617236326
0.00498602290976
0.00498588922036
0.00498576928102
0.0049856575261
0.00498554989454
0.00498544713905
0.00498536555374
0.00498531593473
0.00498527136732
0.00498635846474
0.00498635848428
0.00498635846319
0.00498635841694
0.00498635838088
0.00498635836626
0.00498635838063
0.00498635842249
0.00498635842011
0.00498634617494
0.00498629784985
0.00498620344681
0.00498609247511
0.00498598618828
0.00498588524508
0.00498578783533
0.00498569349495
0.00498560690555
0.00498554795341
0.00498550560759
0.00498636954368
0.00498636954406
0.00498636949889
0.00498636940762
0.0049863692915
0.00498636916648
0.00498636904566
0.00498636892136
0.0049863687749
0.00498636043546
0.00498633273143
0.0049862773635
0.00498620026976
0.00498611799295
0.00498603661025
0.00498595557308
0.00498587880858
0.00498580523495
0.00498575028581
0.00498570653446
0.00498638140489
0.00498638137036
0.00498638125975
0.00498638107242
0.00498638083165
0.00498638055826
0.0049863802682
0.00498637996599
0.00498637955872
0.00498637414105
0.00498635482485
0.0049863173614
0.00498626499171
0.00498620559488
0.00498614375751
0.00498608272279
0.00498602129721
0.00498596760211
0.0049859209704
0.00498588934373
0.00498639471207
0.00498639466004
0.00498639449721
0.00498639422527
0.0049863938693
0.00498639347141
0.0049863930287
0.00498639250885
0.0049863906123
0.00498638688094
0.00498637279228
0.0049863465242
0.00498631143546
0.00498627083986
0.00498622832816
0.00498618325128
0.00498614133607
0.00498610398359
0.00498607928883
0.0049860529889
0.00498641117623
0.00498641108903
0.00498641086556
0.00498641050059
0.00498641004123
0.00498640945641
0.00498640879147
0.0049864071835
0.00498640467227
0.00498640057867
0.00498639002097
0.00498637276955
0.00498635341617
0.00498633217067
0.00498630501771
0.00498627901137
0.00498625036221
0.00498623159476
0.00498623091655
0.00498621593602
0.00498643327319
0.00498643311563
0.00498643277193
0.00498643212114
0.0049864310074
0.00498643025299
0.00498642906955
0.00498642962165
0.00498642867466
0.00498642567214
0.00498641889263
0.00498641346512
0.00498641106132
0.00498640194234
0.00498639140369
0.00498637807994
0.00498636876586
0.00498637082691
0.00498638747193
0.00498637563989
0.00498646500134
0.00498646498118
0.00498646504487
0.00498646517798
0.00498646378938
0.004986464033
0.00498646595313
0.00498646752644
0.00498646829332
0.00498646800338
0.00498647093562
0.00498648179806
0.00498648931964
0.00498649159678
0.0049864901788
0.00498649188439
0.00498649149781
0.00498652137434
0.00498655429133
0.00498654435982
0.00498650231914
0.00498650216794
0.00498650201813
0.00498650170725
0.00498649641773
0.00498650008302
0.00498650693306
0.00498651310753
0.00498651878852
0.00498652956847
0.00498655093622
0.00498657157081
0.00498658529535
0.00498659454585
0.00498660754226
0.0049866190765
0.00498663805755
0.00498669491315
0.00498671921664
0.00498671181696
0.00498654487029
0.0049865448296
0.00498654494786
0.00498653181282
0.00498652928773
0.00498653803109
0.00498655019697
0.00498656325944
0.004986581894
0.0049866123986
0.00498664267436
0.00498666605271
0.00498668450437
0.00498670721212
0.00498672978474
0.00498675715486
0.00498679131145
0.00498684644167
0.00498687551981
0.00498688853825
0.00498659083226
0.00498659111558
0.00498658197587
0.00498656092793
0.00498655783915
0.00498656914401
0.00498658715234
0.00498661265053
0.00498665189447
0.00498669285998
0.00498672528146
0.00498675228979
0.00498678380071
0.00498681503198
0.00498685008402
0.00498688587574
0.00498693215701
0.00498700686008
0.00498704518511
0.00498706281764
0.00498663390221
0.00498663440312
0.00498660111865
0.00498657274885
0.00498656994115
0.00498658475176
0.00498661105433
0.00498665368707
0.00498670940601
0.00498675813211
0.00498679471926
0.00498683563146
0.00498687592273
0.00498692071761
0.00498696703376
0.00498701610435
0.00498707751204
0.00498715087722
0.00498719872718
0.00498723053458
0.00498667394901
0.00498667411486
0.00498663042435
0.00498659866322
0.00498659483407
0.00498661134748
0.00498664452518
0.00498670011934
0.00498676674007
0.00498682040297
0.0049868698107
0.00498691708163
0.00498697013757
0.00498702383815
0.00498708003428
0.00498713860931
0.00498720518948
0.00498729616506
0.00498734855026
0.00498738188553
0.00498672832634
0.0049867218851
0.0049866654999
0.00498663629218
0.00498663530918
0.00498665510109
0.0049866955124
0.00498065490274
0.00498063827015
0.00498062434141
0.00498061268141
0.00498060293085
0.0049805947396
0.00498058779714
0.00498058187819
0.00498057688261
0.00498057276766
0.00498056947626
0.00498056692607
0.0049805650307
0.0049805636983
0.0049805628277
0.004980562312
0.00498056230203
0.0049809950235
0.00498095732026
0.00498092584978
0.00498089987794
0.00498087835866
0.00498086041878
0.00498084546144
0.00498083299693
0.00498082258154
0.00498081382122
0.0049808064245
0.00498080022771
0.00498079514001
0.0049807910633
0.00498078788919
0.00498078550764
0.00498078381285
0.00498078268517
0.00498078200264
0.00498078189187
0.00498123259795
0.00498119084136
0.00498115516466
0.0049811255945
0.00498110103595
0.00498108054453
0.00498106344739
0.00498104919405
0.00498103729387
0.00498102731341
0.00498101892203
0.00498101191758
0.00498100617288
0.00498100156385
0.00498099796261
0.0049809952466
0.004980993298
0.00498099199162
0.00498099119132
0.00498099099639
0.00498143753758
0.00498139649897
0.00498135997845
0.00498132937755
0.00498130380276
0.00498128237598
0.00498126443836
0.00498124944371
0.00498123690508
0.00498122639001
0.00498121756108
0.00498121020089
0.00498120416405
0.00498119931315
0.00498119551311
0.00498119263633
0.00498119056428
0.00498118916734
0.00498118830629
0.0049811880501
0.00498161205488
0.00498157514758
0.00498154060644
0.00498151115912
0.0049814863428
0.00498146543187
0.0049814478445
0.00498143308612
0.00498142071109
0.00498141031896
0.00498140159102
0.00498139431526
0.00498138834352
0.00498138353835
0.00498137976684
0.00498137690539
0.00498137483834
0.00498137344313
0.00498137257962
0.00498137228682
0.00498176160066
0.00498173037593
0.00498169959389
0.00498167278236
0.00498165000159
0.00498163070142
0.00498161439644
0.00498160066314
0.00498158911503
0.00498157939969
0.00498157123261
0.00498156442067
0.00498155882469
0.00498155431631
0.00498155077318
0.00498154808124
0.00498154613588
0.0049815448223
0.00498154400843
0.00498154370428
0.00498189210171
0.00498186648747
0.00498184024301
0.00498181691724
0.0049817969745
0.00498178002218
0.00498176566144
0.0049817535365
0.00498174332109
0.0049817347146
0.00498172747326
0.00498172143054
0.00498171646327
0.00498171245917
0.00498170931117
0.00498170691996
0.00498170519351
0.00498170403222
0.00498170331324
0.00498170302036
0.00498200770422
0.0049819869636
0.00498196549749
0.00498194617876
0.00498192961793
0.00498191554011
0.00498190361441
0.00498189354136
0.00498188505004
0.0049818778908
0.00498187186415
0.00498186683455
0.00498186270014
0.00498185936875
0.00498185675269
0.00498185476988
0.00498185334556
0.00498185239488
0.00498185180947
0.00498185155025
0.00498210912125
0.00498209348835
0.00498207735497
0.00498206272935
0.00498205016025
0.00498203948398
0.00498203045124
0.00498202282591
0.00498201639761
0.00498201097327
0.00498200640459
0.0049820025932
0.00498199946382
0.00498199694882
0.00498199498241
0.00498199350269
0.00498199245269
0.00498199176661
0.00498199135056
0.00498199114781
0.00498220003613
0.00498218880709
0.00498217839577
0.00498216917908
0.00498216124711
0.00498215449697
0.00498214878898
0.00498214396868
0.00498213989904
0.00498213645459
0.00498213354835
0.00498213112647
0.00498212914674
0.00498212756941
0.00498212635331
0.00498212545811
0.00498212484735
0.00498212447396
0.00498212426057
0.00498212413953
0.00498228420512
0.00498227714559
0.00498227258132
0.00498226922118
0.00498226639338
0.00498226394535
0.00498226186988
0.00498226010903
0.00498225860874
0.00498225731953
0.00498225622252
0.00498225531443
0.00498225459114
0.0049822540434
0.00498225365539
0.00498225340936
0.00498225328972
0.00498225327019
0.00498225328938
0.00498225327707
0.00498236954102
0.00498236511914
0.00498236534956
0.00498236749555
0.00498236978983
0.00498237173213
0.00498237339846
0.00498237480765
0.00498237597935
0.00498237693674
0.004982377728
0.00498237840235
0.00498237899713
0.00498237953418
0.00498238002299
0.00498238046809
0.00498238087525
0.00498238123964
0.00498238151587
0.00498238164039
0.00498245736584
0.00498245522116
0.00498245985904
0.00498246748656
0.00498247505383
0.00498248151546
0.00498248702543
0.00498249168521
0.00498249559215
0.00498249884486
0.00498250156003
0.00498250384399
0.00498250578036
0.00498250742401
0.00498250880964
0.00498250996383
0.00498251091431
0.00498251167915
0.0049825122306
0.00498251252166
0.00498255029148
0.00498255017307
0.0049825592001
0.00498257268181
0.00498258588393
0.00498259709212
0.00498260657218
0.00498261454657
0.00498262121429
0.00498262676292
0.00498263138557
0.00498263525469
0.00498263850807
0.00498264123688
0.00498264350198
0.00498264535201
0.00498264683632
0.00498264799958
0.00498264883418
0.00498264932192
0.00498265689121
0.00498265720549
0.00498266992321
0.00498268890604
0.0049827075858
0.00498272339392
0.00498273667516
0.00498274778899
0.00498275704622
0.00498276472655
0.0049827710997
0.00498277640915
0.00498278085231
0.00498278455842
0.00498278761335
0.00498279008546
0.00498279204548
0.00498279356603
0.00498279466853
0.00498279537991
0.00498278349702
0.00498278539137
0.00498280020657
0.00498282331042
0.00498284649704
0.0049828661069
0.00498288248557
0.00498289612959
0.00498290745561
0.00498291682037
0.00498292455428
0.00498293096543
0.00498293631011
0.00498294075295
0.00498294439973
0.00498294733296
0.0049829496381
0.0049829514186
0.00498295273466
0.00498295368459
0.00498294360723
0.00498294399792
0.00498295844003
0.00498298315906
0.00498300882942
0.00498303061241
0.0049830487115
0.00498306373818
0.00498307618914
0.00498308645861
0.00498309489854
0.00498310185699
0.00498310763795
0.00498311243242
0.00498311635597
0.00498311949367
0.00498312193586
0.00498312380992
0.00498312523282
0.00498312641743
0.00498313629018
0.00498315005379
0.00498315937976
0.004983177467
0.00498320029789
0.00498322106813
0.0049832385643
0.00498325319957
0.00498326540114
0.00498327549521
0.00498328377104
0.00498329056078
0.00498329618737
0.00498330085037
0.00498330465987
0.00498330768847
0.00498331000976
0.00498331176136
0.00498331312985
0.00498331451875
0.00498336425585
0.00498338140875
0.00498339609406
0.00498340800724
0.00498342063404
0.0049834365836
0.00498345119911
0.00498346372763
0.00498347434755
0.00498348322109
0.00498349049762
0.00498349643471
0.00498350134313
0.00498350541477
0.00498350874265
0.00498351137247
0.00498351333512
0.00498351473084
0.00498351582005
0.00498351733247
0.00498359725523
0.00498362005795
0.00498364112213
0.00498365575766
0.00498366444991
0.00498367114354
0.00498368156105
0.00498369114313
0.00498369941975
0.0049837064066
0.00498371212226
0.00498371673205
0.00498372052057
0.00498372366946
0.00498372625671
0.00498372830569
0.00498372979327
0.00498373071321
0.00498373128756
0.00498373274504
0.00498384290415
0.00498386631138
0.00498388414159
0.00498390419927
0.00498391884083
0.00498392231923
0.00498392503717
0.00498393090558
0.00498393624831
0.00498394082602
0.0049839445491
0.00498394748599
0.00498394987434
0.00498395187703
0.00498395356091
0.00498395493974
0.00498395596586
0.00498395650296
0.00498395642309
0.00498395739867
0.00498410802862
0.00498412661575
0.00498414154691
0.00498415432315
0.00498416966012
0.00498418274067
0.00498418011062
0.00498417915982
0.00498418042562
0.00498418187836
0.00498418312445
0.00498418404544
0.0049841847542
0.00498418534718
0.00498418585567
0.00498418627552
0.00498418656014
0.00498418659847
0.00498418620582
0.00498418658822
0.00498439612125
0.00498440063219
0.00498440784298
0.00498441351805
0.00498441978465
0.00498442802237
0.00498443028061
0.00498442625551
0.00498442429557
0.0049844232028
0.00498442233514
0.00498442150514
0.00498442074452
0.00498442010084
0.00498441958155
0.00498441916621
0.00498441880658
0.00498441843131
0.00498441801419
0.00498441826252
0.00498468887359
0.00498468179562
0.00498467610192
0.00498467366533
0.00498467032396
0.0049846690266
0.00498467057487
0.00498466777525
0.00498466396228
0.00498466090453
0.00498465833583
0.00498465609048
0.00498465415335
0.00498465253728
0.00498465123426
0.0049846502146
0.00498464942812
0.00498464881237
0.00498464836801
0.00498464847685
0.00498497553368
0.00498495504308
0.00498494063928
0.0049849288207
0.00498492238772
0.00498491268988
0.00498490866641
0.0049849043311
0.00498489858058
0.00498489335072
0.00498488902545
0.00498488541304
0.00498488241015
0.00498487996291
0.00498487802394
0.00498487653721
0.00498487543613
0.00498487464493
0.00498487413928
0.00498487407932
0.00498523660968
0.00498520945444
0.00498518836307
0.00498517291794
0.00498515846558
0.00498514974842
0.00498513900694
0.00498513159404
0.00498512408373
0.00498511718123
0.00498511149594
0.00498510685186
0.00498510307384
0.00498510004946
0.00498509769094
0.00498509591433
0.00498509463126
0.00498509374824
0.00498509320801
0.00498509301594
0.00498546799744
0.00498543862353
0.00498541478587
0.00498539476408
0.00498538111932
0.00498536444652
0.00498535325419
0.00498534469799
0.00498533664808
0.00498532929127
0.00498532322996
0.00498531830851
0.0049853143432
0.00498531120399
0.00498530878753
0.00498530699756
0.00498530573639
0.00498530489859
0.0049853043975
0.00498530414379
0.00498567267159
0.00498564344314
0.00498561914791
0.00498560011514
0.0049855796506
0.00498556367197
0.00498555156449
0.0049855432725
0.00498553599504
0.00498552952448
0.00498552414871
0.00498551977367
0.00498551626649
0.0049855135154
0.00498551142182
0.00498550989321
0.00498550884094
0.00498550817242
0.00498550779023
0.00498550757249
0.00498585658856
0.00498583078282
0.00498580887443
0.00498578686736
0.00498577149022
0.0049857519598
0.00498574032776
0.00498573259368
0.00498572649197
0.00498572133397
0.00498571707917
0.00498571366297
0.00498571098419
0.0049857089372
0.00498570742047
0.00498570634138
0.00498570562857
0.00498570521833
0.00498570502248
0.00498570496575
0.00498602769003
0.00498600649668
0.00498598526217
0.00498596907942
0.00498594638692
0.00498593065511
0.0049859214517
0.0049859157854
0.0049859116267
0.00498590815908
0.00498590533085
0.00498590314058
0.00498590152336
0.00498590038261
0.00498589960866
0.00498589909945
0.00498589879822
0.004985898671
0.0049858986895
0.00498589894003
0.0049861947443
0.00498617717586
0.00498616187871
0.00498613894609
0.00498611877593
0.00498610613846
0.00498610016056
0.00498609749011
0.00498609574438
0.00498609417263
0.00498609290194
0.00498609201831
0.00498609151755
0.00498609132426
0.00498609132603
0.0049860914282
0.00498609155318
0.00498609167543
0.0049860919197
0.00498609262767
0.00498636297711
0.00498635305807
0.00498633551478
0.00498631686594
0.00498629740594
0.00498628828871
0.00498628547731
0.00498628528906
0.00498628524046
0.00498628496995
0.00498628474588
0.00498628470785
0.00498628491242
0.00498628532854
0.00498628592053
0.00498628664067
0.00498628733541
0.00498628792553
0.00498628851404
0.0049862896159
0.00498654015689
0.00498653342966
0.00498652501466
0.00498650521165
0.00498649253426
0.0049864871887
0.00498648591566
0.00498648599793
0.00498648600337
0.00498648586427
0.00498648576158
0.00498648581904
0.0049864860885
0.00498648663043
0.0049864874909
0.00498648852873
0.00498648958152
0.00498649055777
0.00498649142954
0.00498649264681
0.00498671946095
0.00498672613774
0.00498672052896
0.00498671235949
0.00498670435304
0.00498670016664
0.00498669914966
0.00498669938944
0.00498669929516
0.0049866988291
0.00498669826127
0.00498669778138
0.0049866976642
0.00498669805561
0.00498669882609
0.0049866998097
0.0049867009274
0.00498670205618
0.00498670304846
0.00498670429731
0.00498690796681
0.00498692120823
0.00498692964139
0.00498692797391
0.00498692682273
0.0049869267192
0.00498692749215
0.00498692841653
0.00498692783243
0.00498692618041
0.0049869243768
0.00498692270793
0.00498692171912
0.00498692129716
0.00498692130985
0.00498692173777
0.00498692251774
0.00498692347753
0.00498692437072
0.00498692558981
0.00498709264407
0.00498712140914
0.00498713860922
0.00498715423398
0.00498716546718
0.00498717491562
0.00498718079278
0.00498717956833
0.00498717332191
0.00498716724944
0.00498716441642
0.00498716090826
0.0049871577994
0.00498715534142
0.00498715361002
0.00498715262972
0.00498715235708
0.00498715260104
0.00498715302599
0.00498715404069
0.00498727026082
0.00498730654686
0.0049873401619
0.00498736514845
0.00498738736092
0.00498740711354
0.00498741775067
0.00498741376646
0.00498740751539
0.00498740929137
0.00498741320702
0.00498740628667
0.00498739865135
0.00498739231262
0.00498738745376
0.00498738400395
0.00498738185683
0.00498738076459
0.00498738032057
0.00498738086386
0.00498742590883
0.00498746772413
0.0049875042496
0.00498753728577
0.00498756408429
0.00498758424454
0.00498759176016
0.00498759464976
0.00498761472913
0.00498764937712
0.00498764643264
0.004987633912
0.00498762341978
0.00498761339538
0.00498760571666
0.00498760014518
0.00498759636204
0.00498759406104
0.00498759281468
0.00498759279525
)
;

boundaryField
{
    emptyPatch
    {
        type            empty;
    }
    minY
    {
        type            calculated;
        value           nonuniform List<scalar> 0();
    }
    maxY
    {
        type            calculated;
        value           nonuniform List<scalar> 0();
    }
    water_to_cooler
    {
        type            calculated;
        value           nonuniform List<scalar> 
38
(
0.00498056230203
0.00498078189187
0.00498099099639
0.0049811880501
0.00498137228682
0.00498154370428
0.00498170302036
0.00498185155025
0.00498199114781
0.00498212413953
0.00498225327707
0.00498238164039
0.00498251252166
0.00498264932192
0.00498279537991
0.00498295368459
0.00498312641743
0.00498331451875
0.00498351733247
0.00498373274504
0.00498395739867
0.00498418658822
0.00498441826252
0.00498464847685
0.00498487407932
0.00498509301594
0.00498530414379
0.00498550757249
0.00498570496575
0.00498589894003
0.00498609262767
0.0049862896159
0.00498649264681
0.00498670429731
0.00498692558981
0.00498715404069
0.00498738086386
0.00498759279525
)
;
    }
    water_to_heater
    {
        type            calculated;
        value           nonuniform List<scalar> 
60
(
0.00498178626652
0.00498182796365
0.00498202042777
0.00498208138298
0.00498209172784
0.00498212609433
0.00498213803514
0.00498216663113
0.00498218248515
0.00498220593176
0.00498222808728
0.0049822667942
0.00498228626266
0.004982309622
0.00498232635238
0.00498234913183
0.00498236335344
0.00498238664576
0.00498239755803
0.00498242547637
0.00498243409129
0.0049824568111
0.00498246869413
0.00498249185062
0.00498251546624
0.00498253820931
0.00498256402668
0.00498260541411
0.00498262667228
0.00498264998491
0.00498266367153
0.00498269344919
0.00498280470414
0.00498284960192
0.00498407891933
0.00498604006456
0.00498631257185
0.00498633721351
0.00498633989466
0.00498635295809
0.00498635434829
0.004986366418
0.00498636845854
0.00498638025854
0.00498638450006
0.00498639644693
0.00498640376098
0.00498641583126
0.00498642879474
0.00498644076191
0.00498646347649
0.0049865008176
0.00498653363786
0.00498654663588
0.0049865811583
0.0049865973838
0.00498662675032
0.0049866479856
0.00498667170908
0.0049867257994
)
;
    }
    procBoundary3to1
    {
        type            processor;
        value           nonuniform List<scalar> 
41
(
0.00498676188877
0.00498683676564
0.0049869001475
0.00498695252337
0.00498701154588
0.00498707016629
0.00498713288416
0.00498719764848
0.00498726382427
0.00498734162198
0.00498742472559
0.00498748795405
0.00498752844039
0.00498679960891
0.0049868174592
0.00498674823918
0.00498672011489
0.00498671939534
0.00498673953454
0.00498676188877
0.00498678419552
0.0049875714593
0.00498761371311
0.00498765142859
0.00498768238844
0.00498771169843
0.00498773121671
0.00498774548457
0.00498777307138
0.00498782944374
0.00498783591285
0.00498782826735
0.00498781948241
0.00498781131306
0.0049878026828
0.00498779505074
0.00498778942128
0.00498778547434
0.00498778289358
0.00498778137948
0.00498778097009
)
;
    }
    procBoundary3to2
    {
        type            processor;
        value           nonuniform List<scalar> 
41
(
0.00498135225889
0.0049813965538
0.0049813652608
0.00498133775801
0.00498130809218
0.00498126985972
0.00498121678523
0.00498116135468
0.00498110954794
0.00498106170732
0.00498101690996
0.0049809742137
0.00498093384401
0.00498089788224
0.00498086834766
0.00498084428697
0.00498082223768
0.00498080462293
0.00498078632783
0.00498076063728
0.00498039603898
0.00498038547731
0.00498037648528
0.00498036886142
0.00498036240992
0.00498035691677
0.00498035217385
0.00498034804837
0.00498034450996
0.00498034157742
0.00498033923614
0.00498033744054