/*--------------------------------*- C++ -*----------------------------------*\
| =========                 |                                                 |
| \\      /  F ield         | OpenFOAM: The Open Source CFD Toolbox           |
|  \\    /   O peration     | Version:  2312                                  |
|   \\  /    A nd           | Website:  www.openfoam.com                      |
|    \\/     M anipulation  |                                                 |
\*---------------------------------------------------------------------------*/
FoamFile
{
    version     2.0;
    format      ascii;
    arch        "LSB;label=32;scalar=64";
    class       volScalarField;
    location    "0.2/water";
    object      k.gas;
}
// * * * * * * * * * * * * * * * * * * * * * * * * * * * * * * * * * * * * * //

dimensions      [0 2 -2 0 0 0 0];

internalField   nonuniform List<scalar> 
1504
(
1.70703597903
0.825930543102
0.445301942881
0.261395576878
0.136753871801
0.0670326027906
0.0344949172419
0.0197453750158
0.0127435675335
0.00909733574003
0.0067409604046
0.00457256103692
0.00239380131481
0.00114925636153
0.000841022980169
0.000789454660587
0.000692579776247
0.000584505575255
0.000475413027081
0.000333355458003
1.74588568328
0.849753605288
0.478583759412
0.304756996959
0.166562738712
0.0771832424688
0.0378223546535
0.0211289911425
0.0134909467489
0.00962154464249
0.00717336363616
0.00492675067653
0.00256667751178
0.00112917804735
0.000745500159352
0.000668551487277
0.000578249199257
0.000486174853108
0.00039279968134
0.000305117419861
1.75842671697
0.86396311387
0.498161315872
0.329488400046
0.198772311132
0.0862333205275
0.0405176589089
0.0223242685889
0.0142211844242
0.0101693311739
0.00761696598805
0.00527941161961
0.0027642370688
0.00115222192334
0.000684577707593
0.00057493404672
0.000484020945795
0.000399886375154
0.000318792224826
0.000260347515441
1.83910604271
0.883028262726
0.488003572801
0.324533404774
0.2063205485
0.088778240319
0.0418236169879
0.0231800114502
0.0148572068809
0.0106770908681
0.00801401380776
0.00557691418183
0.00294868005219
0.00119970085155
0.000645313488697
0.000501029448152
0.000404812142699
0.000325153353678
0.000256538587043
0.000213397636752
2.24292731569
0.912216685386
0.481334731223
0.31163257466
0.191813443156
0.0858173466585
0.0420375832683
0.0237555643667
0.0153958366982
0.0111183808133
0.00833748202332
0.0057988104423
0.00310887243057
0.00126207903036
0.000620297335899
0.000438337841931
0.000335131857481
0.000259116436283
0.000203398785615
0.000170772935394
2.87768971937
1.07361718
0.514609781225
0.313953480217
0.174179039016
0.0834452538183
0.042691835905
0.0244910476086
0.0159716219344
0.01153745058
0.00861026856043
0.00596672370212
0.00324244128522
0.00133653409831
0.000607106901599
0.000382248277676
0.000271815355129
0.000199910360948
0.000156799332495
0.000133472744943
3.2666444335
1.25459670015
0.581221463296
0.332270237475
0.173588567504
0.0865218307769
0.0451063434196
0.0258160679587
0.0167347717245
0.0120039876069
0.00888589459238
0.00613867714838
0.00338501047372
0.00141927387461
0.000602017842887
0.000332234329645
0.000214537665184
0.000147934719702
0.000116090785948
0.000100292725831
3.48860083932
1.40276903757
0.653989514586
0.359981101177
0.18748701862
0.0955455675027
0.0498080074473
0.0279658713869
0.0177733134872
0.0125679008888
0.00920426693262
0.0063481610591
0.00355922914111
0.00151804465718
0.00060407359013
0.00028766247255
0.000164398989858
0.000106097716487
8.46356794773e-05
7.43876056912e-05
3.59101179264
1.50230771379
0.71719488071
0.391481181563
0.208652315443
0.108821662769
0.0565725848691
0.0309616990326
0.0191246495187
0.013247082479
0.00957982083739
0.0066020562099
0.00376435389947
0.00163107397523
0.000613188532986
0.000249895647619
0.000124090304592
7.94559146497e-05
6.63839366457e-05
5.88880086712e-05
3.59130548121
1.55035564163
0.759772336178
0.418478379503
0.229863984691
0.123015727215
0.0642164765817
0.0344773354485
0.0207052296366
0.0140088153746
0.00999846516656
0.00688582429471
0.00398354530324
0.00174918211805
0.00062806058145
0.000220852887351
9.80351754542e-05
6.73801804119e-05
5.92599473204e-05
5.2832390159e-05
3.52511606811
1.55217174112
0.778291935416
0.434279830055
0.245691086404
0.134966893772
0.0712972563893
0.0380163188956
0.0223617039743
0.0147992621875
0.010430567275
0.00717499744103
0.00419611451128
0.00186056216572
0.000647223702183
0.000202508268545
8.58521433342e-05
6.47315300051e-05
5.88350795661e-05
5.32203230868e-05
3.42050307686
1.52203357765
0.774133020064
0.435998727456
0.253161745319
0.142499457742
0.0765861748252
0.0410531238348
0.0238960712911
0.0155373537555
0.0108293990277
0.00743406380572
0.00437416392796
0.00195140833989
0.000668711940001
0.000195241671016
8.38724545393e-05
6.70856221483e-05
6.17796002223e-05
5.67789866676e-05
3.31689619102
1.47062719335
0.747940856931
0.42571191713
0.251319907585
0.144435858607
0.0792142657688
0.0431020998094
0.0250656729446
0.0161041069057
0.0111293646058
0.00761769346158
0.00448989979206
0.00201380916729
0.000689565119455
0.000197407553868
8.84919159955e-05
7.21907432534e-05
6.63050782181e-05
6.17468021303e-05
3.2692344874
1.39732114818
0.696032355093
0.401015603755
0.239738272936
0.14017721847
0.0786038875745
0.0436973252466
0.02557137064
0.0163457902992
0.0112491605133
0.00767675204143
0.00451907650427
0.00204202800379
0.000706632640742
0.000207522811685
9.82360544101e-05
7.94649165996e-05
7.19375381991e-05
6.72802953333e-05
3.34941095662
1.31228280939
0.646566860392
0.366742755421
0.219680350767
0.130212204216
0.0747354687634
0.0425060899305
0.0251182992868
0.0161086096704
0.0111086022421
0.00757132312068
0.00445297223356
0.00203578036952
0.000722896243006
0.000226283719508
0.000113954356282
8.92506885589e-05
7.85700085657e-05
7.3114944763e-05
3.42169835555
1.28106178025
0.598248801639
0.329446422019
0.196050432971
0.117360430471
0.0686936306433
0.0396862272839
0.0237022695058
0.0153841048064
0.01070070643
0.00731377462297
0.00432236807413
0.00201905789814
0.000748560346617
0.000256840100916
0.000136947130969
0.00010215989112
8.63407470427e-05
7.88935743349e-05
3.3675428005
1.23829303656
0.561598712661
0.299012132757
0.175268180475
0.105173151114
0.0618487737524
0.0358722068676
0.021735782405
0.0143751772686
0.010134644201
0.0069865716755
0.00419483716317
0.00203566225106
0.000803230612843
0.000304920414701
0.00016901233837
0.000119270197165
9.53595109016e-05
8.47219121116e-05
3.21968108833
1.19499256539
0.535153392296
0.278748657498
0.161242919558
0.0956056480037
0.0554037977888
0.0321575136828
0.0198568513566
0.0134021937459
0.00958895327622
0.00670299889155
0.00414343331167
0.0021289901514
0.000908326004512
0.000377451230518
0.000212604171775
0.000141577256128
0.000105992441706
9.10364225949e-05
2.91993705107
1.09896799693
0.504196337909
0.267688230345
0.154086489628
0.0892130932476
0.0506976991606
0.0295280244455
0.0185657766498
0.0127356571913
0.00920821233504
0.00653666243962
0.00420119070701
0.00231768859866
0.00107822498362
0.000481876053843
0.000270178964512
0.000170143799321
0.000118131713158
9.78469218752e-05
2.4249650184
0.988702394409
0.489135206129
0.269952666774
0.154625411734
0.0871010082805
0.0486207411212
0.0285493521394
0.0182091205642
0.0125633286662
0.00908137940402
0.00651580371148
0.00436006888169
0.00258861334594
0.0013163743477
0.00062523951296
0.000343222085052
0.000204879549632
0.000131485546559
0.000104909908032
2.06549194283
0.981483924167
0.524866143388
0.295234742893
0.166660839243
0.0916699015714
0.0507005914306
0.0297738979115
0.0189541738623
0.0129524652204
0.00925259027174
0.00665100112527
0.00459009533795
0.00289276978767
0.00158695570353
0.000799611825217
0.000425064416609
0.000242848219803
0.000144743820728
0.000111776601116
2.19905358959
1.15969011368
0.636736978613
0.353875098699
0.192964494973
0.103769364698
0.0572734852181
0.0336440916846
0.021174265657
0.0141543752196
0.00987528848703
0.00702385374134
0.00492075344214
0.00322949592327
0.00187111588166
0.000970592326834
0.000503446959951
0.000275521113526
0.000155952611412
0.000117449663233
2.84851375597
1.52963466931
0.793978636057
0.415762113314
0.220243757573
0.119657979837
0.0682864509683
0.0411030957688
0.0257134282078
0.016661522461
0.0112072904159
0.00776737141397
0.00542254748233
0.00363180577954
0.00217479598839
0.00111897191475
0.000563543490451
0.000291895589884
0.000162345452876
0.000121153172167
3.76584791753
1.81486260551
0.874813840946
0.441274922246
0.235298645206
0.132699401393
0.0798881613164
0.0503357693039
0.0319607993156
0.0203613070082
0.0132364714644
0.00887484098917
0.00609510321234
0.00409429795089
0.00247891117583
0.00125656488039
0.000570038746356
0.000286556247257
0.000161745198573
0.000122538606188
4.22988836229
1.79098684561
0.842811467824
0.435110210967
0.239328763166
0.141169771503
0.0894783774514
0.0585884828971
0.0376108906801
0.0237263508953
0.0153406249871
0.0101198092606
0.00685083241975
0.00458429796246
0.00276441162118
0.00136772690605
0.000557751821699
0.000261136580816
0.000154393529069
0.000122580738793
4.21510175209
1.75608967441
0.806255658842
0.414248943468
0.233153019333
0.143416507672
0.0952177894675
0.0645388766881
0.0416763883172
0.025709600834
0.0167019616298
0.01112977391
0.00754552473337
0.00504305895601
0.00300968544579
0.0014400531997
0.000545614277335
0.000216857131381
0.000144916578038
0.000123153729516
4.1857589716
1.70789903677
0.761594735461
0.385045394116
0.219099965033
0.139296773752
0.0958226672457
0.066320043296
0.0427752926398
0.0262874248291
0.0172449284616
0.0116886895796
0.00803945087825
0.00539006402337
0.0031703017552
0.00146216298027
0.000520254602093
0.000183280989445
0.000138869798111
0.000126212094096
4.2797305182
1.67480355061
0.713216002438
0.349942888606
0.199860991051
0.130602576333
0.092124087007
0.0640285059463
0.0402940976248
0.0256830436428
0.0171966794577
0.011865166932
0.00829206130523
0.00556960717766
0.00320885204957
0.00142360021967
0.000480685633477
0.000165318726787
0.000139964680978
0.000132708993563
4.54963856885
1.66731554497
0.663559741151
0.313590411345
0.179345999374
0.119415108604
0.0846980582773
0.056964189195
0.036516804398
0.0242388799727
0.0166563564831
0.0117406366046
0.00832623520777
0.00556551874559
0.00312254705456
0.00133194932172
0.000432120175973
0.000156149663248
0.000148908855421
0.000142694208308
5.03155677977
1.70202974991
0.63123685689
0.287043367191
0.162667972661
0.107199184356
0.0736209129099
0.0486228972698
0.0327172269176
0.0225429372077
0.0158999751349
0.0114421883695
0.00817855251219
0.00537556252402
0.00291706832258
0.00120440433416
0.000385890883519
0.000156380053126
0.000163749802559
0.000155661912247
5.74589983039
1.83475500654
0.656795446622
0.290360103312
0.157365412798
0.0959938345142
0.0627374237747
0.042700186688
0.0297376287666
0.0210697560737
0.015202707547
0.01110659601
0.00790134120297
0.00505614212598
0.00264748648421
0.00106137948119
0.000347651993125
0.000166053241229
0.000180826643545
0.000171623379407
6.62408529622
2.11516365891
0.782772147707
0.351173349984
0.176393772375
0.0987452388146
0.0611991340789
0.0406220776439
0.0281855769971
0.0201517161794
0.0147234829567
0.0107739005622
0.00752650384562
0.00468377737922
0.00238024256006
0.000939519714428
0.000324082541012
0.000187692537593
0.000198757538225
0.000191578938863
7.4223662169
2.48708713603
1.00051208718
0.469360771136
0.244931756752
0.132348127179
0.0743846401175
0.0444565607837
0.0288067424536
0.0200331727986
0.0144744985357
0.010417652688
0.00712814242156
0.00434382661033
0.00217251078899
0.00086367832103
0.000321485062995
0.000217259540376
0.000219420727289
0.000216536652231
7.77825105734
2.82344427964
1.26175257842
0.649860054337
0.352478658013
0.192621553592
0.103872347316
0.0561232843646
0.0323988740921
0.0208043094223
0.0143710865117
0.010084847013
0.00679873432982
0.00410607438942
0.00206164024839
0.000848231120801
0.000343638045184
0.000247338822091
0.000243778903857
0.0002464880234
7.31943766163
3.06067089748
1.50387476824
0.811027013388
0.455664686653
0.257067278844
0.140781975988
0.0736771312316
0.0386122450079
0.0222270306417
0.0143983283582
0.00985333031526
0.00659391690962
0.00400319096739
0.00206128575067
0.000898616231807
0.000394914619896
0.000284413020935
0.000272492504954
0.00028006465702
6.16905648437
2.91949178345
1.54566735491
0.87668466872
0.51362330942
0.301439183376
0.171036830043
0.0906360224906
0.045274148554
0.0238476945486
0.014554170626
0.00974955827409
0.00652622514844
0.0040347687088
0.00216700767731
0.00101550764507
0.000479564397751
0.000337175228187
0.000309003039865
0.000318251426293
5.00804813179
2.54273259692
1.42737317309
0.847131548494
0.516429869055
0.314389514832
0.184546174089
0.100059551136
0.0494431080496
0.0249605878899
0.0147177195312
0.0097486069002
0.00657637391922
0.00417970482473
0.0023660030526
0.00119706477781
0.000603636058355
0.000412765641415
0.000358751931825
0.000364778665863
4.046657095
2.14227310123
1.23774463681
0.758741333764
0.477164850064
0.298559356282
0.179422920331
0.000722456237566
0.000711887687203
0.000700999398914
0.000692398028839
0.000695314845118
0.000745039784258
0.000975394057067
0.00177465697639
0.00360274021648
0.00612351154233
0.00866713262827
0.0110058737615
0.0131654261865
0.0153928387392
0.0183478494632
0.0235954146551
0.0341138229944
0.000352317899063
0.000646384197895
0.000634791510306
0.000627521610305
0.000619723482238
0.00061138440762
0.000604876795143
0.00060932128842
0.000660985978148
0.000901371623708
0.00174150105198
0.00363041186875
0.00616085382537
0.00866962100974
0.0109550115964
0.0130498994899
0.015196910915
0.0180420190677
0.0231229170197
0.0332388144011
0.00026260021815
0.000519472659174
0.000539929348978
0.000534439239614
0.000529054261311
0.000523037475244
0.00051853353384
0.00052463137958
0.000579038206421
0.000832533237813
0.00171964037246
0.00367037704256
0.00620628715433
0.00867812733135
0.0109090734631
0.0129384238368
0.015003602638
0.0177348388159
0.0226443136543
0.0323928194214
0.000250689090609
0.000359216294573
0.000449808562707
0.000445724522841
0.000442391836589
0.000438476798444
0.000435920227036
0.000443955823087
0.000502502994201
0.000773651763387
0.00171483010203
0.00372666381368
0.00626221298359
0.00869404524624
0.0108687096252
0.0128312275389
0.0148132080737
0.0174270073597
0.0221586505475
0.0315722373534
0.000187983142542
0.000222189555173
0.000364293484919
0.000363402419203
0.000361827983286
0.000359843313054
0.000359244095186
0.00036968856628
0.000434344784155
0.000728722232276
0.00173080423031
0.00380052473874
0.00632875368411
0.008717133927
0.0108335532761
0.0127280137955
0.0146258548108
0.0171194111702
0.0216658508272
0.0307721978564
0.000144525284339
0.000155393260547
0.000281024744816
0.000289222255171
0.000289161528495
0.000288937188353
0.000290335809623
0.000303826935622
0.000377038722675
0.00070069953787
0.00176921296946
0.00389102730667
0.00640461482794
0.00874635167771
0.0108029576387
0.0126286064535
0.0144420097032
0.0168134786842
0.0211668079979
0.0299873411613
0.000117557121046
0.000130964538477
0.000202197998033
0.000224586412031
0.000225789482382
0.000227112014653
0.000230544369241
0.000247859193109
0.000332423910638
0.000691406862405
0.00182991440899
0.00399589050015
0.00648791860835
0.00878053474543
0.0107765306434
0.0125333766289
0.0142628740891
0.0165114329507
0.0206633818674
0.0292116731865
9.09717120166e-05
0.000110646850519
0.000138682854165
0.000170243350699
0.000172503349082
0.000175119729901
0.00018062202646
0.000202669561139
0.000301622806581
0.000701619650834
0.00191142498253
0.00411221988643
0.006576722911
0.00881870701617
0.0107543045031
0.012443378729
0.0140905240769
0.0162164607841
0.0201583682436
0.02843773623
6.83647943871e-05
8.01860983301e-05
9.69100171605e-05
0.000126131760503
0.000129396597746
0.000133047875164
0.000140694666699
0.000168538456334
0.000285100166606
0.000731246497998
0.00201125341503
0.00423677066439
0.00666893959034
0.0088598024337
0.0107363688548
0.0123599862348
0.0139276528121
0.0159325258767
0.0196552289794
0.027655238776
5.25424072595e-05
4.85756527379e-05
7.2324816976e-05
9.15624836217e-05
9.58627662053e-05
0.000100345524677
0.000110313214945
0.000145201963586
0.000282683075867
0.000779121436367
0.00212545429057
0.00436520094627
0.00676135679822
0.00890166010186
0.0107219165761
0.0122840442031
0.013776849763
0.0156637905571
0.0191576601374
0.0268499119032
4.44085883429e-05
3.5593028825e-05
5.35878119714e-05
6.57991570576e-05
7.07215155484e-05
7.59485663767e-05
8.85490205865e-05
0.000131826663746
0.000293179389872
0.000841922810875
0.00224717973208
0.00449056309797
0.00684828457347
0.00893989147409
0.0107082648126
0.0122149659507
0.0136397257681
0.0154137579921
0.0186689866423
0.0260037065863
4.30871756011e-05
2.9411902949e-05
3.70899477229e-05
4.78619192585e-05
5.25030123646e-05
5.85110453117e-05
7.41046237837e-05
0.000126868894028
0.000313731999431
0.000913009326523
0.002365725906
0.00460267772912
0.00692123794855
0.0089677102802
0.0106906484201
0.0121503696315
0.0135163943545
0.0151846547814
0.0181918509507
0.0250969528136
4.6246927486e-05
2.9326530991e-05
2.6413698617e-05
3.65265566862e-05
3.97214322963e-05
4.6615993497e-05
6.54161749216e-05
0.000128008614724
0.000339603135471
0.000982573724328
0.00246743843635
0.00468911637317
0.00696981314053
0.00897656488929
0.0106625256052
0.0120860743105
0.0134052660028
0.0149772767636
0.0177284489298
0.0241117873538
5.18436312001e-05
3.40458007945e-05
2.25692890295e-05
3.1237147056e-05
3.09939280628e-05
3.88443016724e-05
6.07215931474e-05
0.000132219917766
0.000364467414338
0.00103868465788
0.00253709428882
0.00473610365424
0.00698223820849
0.00895640963532
0.0106156020262
0.0120159009782
0.0133027862016
0.0147907800792
0.0172806745287
0.0230359893959
5.96942736078e-05
4.24640791656e-05
2.55698273191e-05
2.80697382335e-05
2.36177417095e-05
3.36926660905e-05
5.79738706277e-05
0.000135653797333
0.000380403133947
0.00106758293596
0.00255804263328
0.00472852125061
0.00694558802053
0.00889610185164
0.0105402314016
0.0119318881306
0.0132033478206
0.0146224451129
0.0168499948011
0.0218680276252
6.87496751364e-05
5.43451921291e-05
3.43422040546e-05
2.63908243271e-05
1.71496456525e-05
2.97188420314e-05
5.48186015737e-05
0.000133766995127
0.000378442392436
0.00105483972355
0.00251373622604
0.00465210659191
0.00684855835633
0.0087863244456
0.0104280117082
0.0118261232317
0.0131002742732
0.0144679225937
0.0164373707108
0.0206235675522
7.63458333059e-05
6.97122237972e-05
4.25661984581e-05
2.94150748901e-05
1.34312534203e-05
2.38026229489e-05
4.91720510596e-05
0.000122753465879
0.000351536494996
0.000990001036458
0.00239331804981
0.00449959947406
0.00668751685141
0.00862508041271
0.0102763300122
0.0116940120867
0.0129876947493
0.0143221415257
0.0160433975583
0.0193401962192
8.19052544873e-05
8.42432131233e-05
6.37177742304e-05
3.58029901535e-05
2.07218567945e-05
1.69163051139e-05
4.06105794638e-05
0.000101851744382
0.000298924810008
0.000872960967023
0.0021989884694
0.00427820815299
0.00647302772887
0.00842320439223
0.01009284041
0.0115375059167
0.0128625461589
0.0141806041622
0.0156685473829
0.0180770940527
8.62498891162e-05
8.9536390199e-05
9.31564075799e-05
5.60063092865e-05
2.75498882997e-05
1.43566556517e-05
2.66157942591e-05
7.49861584648e-05
0.000229980610984
0.000720139991164
0.00195317636672
0.00401448421506
0.00623186155786
0.00820536347223
0.00989670239334
0.0113665005948
0.0127251970922
0.0140415971841
0.0153189011734
0.0169131190041
9.03944896253e-05
9.28764924094e-05
0.000100827749356
9.98508850029e-05
3.91334236746e-05
2.16697729984e-05
1.45160041033e-05
4.78552845803e-05
0.000161329285363
0.000561324129823
0.0016962000317
0.00375140633109
0.00600348909545
0.00800653110495
0.00971469267383
0.0111899738031
0.0125539179716
0.013871914468
0.0150105283879
0.0159827069912
9.49809125442e-05
9.51877739969e-05
0.00010420110677
0.00011095680758
7.36593632379e-05
2.54331380021e-05
1.54316530644e-05
2.48592380038e-05
0.00010557854417
0.0004238441735
0.00147030255204
0.00353553648487
0.00583012542004
0.00786434851786
0.00958092879692
0.0110402114879
0.0123751781075
0.0136891273722
0.0147809714274
0.0153529902241
9.95851238065e-05
9.74328929152e-05
0.000105150992954
0.000115783308126
8.50595943305e-05
4.01534365489e-05
1.38336216002e-05
1.40161930997e-05
6.67949658155e-05
0.00032539230811
0.00131403309343
0.00341250652468
0.00575302830023
0.00781469411701
0.0095292642232
0.0109571842015
0.0122372884039
0.013512779577
0.0147304765993
0.0155313551243
0.000103697351119
9.90411262723e-05
0.00010453616966
0.00011506357986
9.35642154837e-05
4.97510794769e-05
2.29830136393e-05
1.1846004516e-05
4.53624799381e-05
0.000273882757036
0.0012596252537
0.00342007573787
0.00580433419223
0.00788282017124
0.00958108545512
0.0109647009045
0.012184567611
0.0134160555716
0.0147073101495
0.015932904176
0.00010665312718
9.97551645419e-05
0.000102260352711
0.000110910349095
9.729463492e-05
5.78094882481e-05
3.70432569808e-05
1.2152402061e-05
4.29875273902e-05
0.000275086397041
0.00133163813851
0.0035803336321
0.00599942682229
0.00807837452404
0.00974390920461
0.0110694581822
0.0122179583284
0.0133878172555
0.0146816814005
0.0161535489493
0.000108404990821
9.95016478546e-05
9.88330862689e-05
0.000104244183244
9.70918777792e-05
6.57582074317e-05
5.06431374126e-05
1.85725219266e-05
5.14321854645e-05
0.000337947172568
0.00154006191431
0.00389064954798
0.00633116903376
0.00839388361177
0.0100135504077
0.0112714758859
0.0123386519355
0.0134271625166
0.0146683696717
0.0162199921564
0.000109398525764
9.88758554569e-05
9.4843712871e-05
9.60786413367e-05
9.24491866625e-05
7.15596172028e-05
6.51949695458e-05
2.59343686453e-05
6.1945168779e-05
0.000473793455713
0.00187933677189
0.00433001153999
0.00678007835564
0.00881720957619
0.0103877397802
0.0115780818263
0.0125603902126
0.0135484607346
0.0146884828884
0.0161922313087
0.000110857637473
9.86730476767e-05
9.11773154422e-05
8.74308321868e-05
8.41004732705e-05
7.17875577663e-05
7.84270461785e-05
4.11363858374e-05
9.30982465856e-05
0.000698570506136
0.00233764933415
0.00487151263077
0.00732231163531
0.00933389646744
0.0108631903586
0.0119958101043
0.0128960014064
0.0137662272629
0.0147612831881
0.0161314952106
0.000113829074793
9.96902321739e-05
8.84790494862e-05
7.93611859186e-05
7.34948523334e-05
6.68155856294e-05
8.51037920611e-05
7.02174645034e-05
0.00016526542514
0.00103732697273
0.00289262526194
0.00547236962996
0.00791063914276
0.00989533196469
0.0113893535283
0.0124728906101
0.0132951735836
0.0140389471413
0.0148674491549
0.0160702903201
0.000118995609706
0.000102338897331
8.73694756588e-05
7.2628190601e-05
6.24038126666e-05
5.94774720884e-05
8.36806122202e-05
8.34313580457e-05
0.000353964868289
0.00147062014473
0.0034898744751
0.0060791727465
0.00848157311944
0.0104094748627
0.0118288884103
0.0128289840067
0.0135660558317
0.0142101068351
0.0149107940103
0.015982784179
0.000126579642185
0.000107045883871
8.83648987018e-05
6.79815010911e-05
5.33079416055e-05
5.09075404715e-05
7.84518104399e-05
0.000102907518701
0.000675655806072
0.00193394382394
0.00404873025978
0.0066085131712
0.008945146233
0.0107829505278
0.0120982576182
0.01300797724
0.0136851068571
0.0142779079822
0.01490381717
0.0159172445548
0.000136929082926
0.000114378457172
9.23669411588e-05
6.62800713935e-05
4.89385238774e-05
4.43391037022e-05
9.66264315965e-05
0.000194479221607
0.00100419891808
0.00233533843751
0.00446997456723
0.00696848678959
0.00922851899373
0.0109729046445
0.012185983765
0.0130088794816
0.0136426718342
0.0142463850231
0.014927087065
0.0160941848765
0.000150838381843
0.000125592124935
0.000100755106871
6.9203959064e-05
4.83771180068e-05
4.02941164561e-05
9.02680826677e-05
0.00038665197327
0.00121997463716
0.00256722977175
0.00464118213847
0.00704927889315
0.00922830317906
0.0108845044419
0.0119890905808
0.0126921551526
0.0132582894876
0.0139738479411
0.0150967293481
0.0171366720098
0.000169868079362
0.000142478408719
0.00011539721844
7.87446272975e-05
5.26640429632e-05
4.06242883363e-05
8.78576794434e-05
0.000448809948885
0.00122503795348
0.00251055792445
0.00443278097527
0.00670980912021
0.0088116422963
0.0104066931113
0.0114667370128
0.0121880919781
0.0128250564838
0.0137353140416
0.0154962671609
0.0191280359075
0.000195557180267
0.000167179488886
0.000137956762428
9.68975519988e-05
6.48465023991e-05
4.43955125076e-05
6.30255348466e-05
0.00031580585416
0.000934441225281
0.0020494651447
0.00378512355632
0.00589613315864
0.00793922611419
0.00955819616507
0.010768502465
0.0116730389597
0.0124836706198
0.0136326562673
0.0161060547914
0.0218700996432
0.000229194794433
0.000201958182517
0.000171034929023
0.000127613663404
8.6206631043e-05
5.60007707802e-05
5.11179656855e-05
0.000109454842314
0.000433421928592
0.0012187206636
0.00266917916051
0.00459059321059
0.0066907864352
0.00861541208088
0.010135676715
0.0112957135717
0.0123035673256
0.0136800893967
0.0168489563041
0.0251166197384
0.000271013659862
0.000249194349342
0.000218914263427
0.000176690896436
0.000127826737046
8.40616684249e-05
5.90791981374e-05
5.90708854229e-05
5.94391928151e-05
0.000275616877352
0.00128500630997
0.00308603037213
0.00542255802556
0.00771030327363
0.00957411783604
0.01100897482
0.0122200736776
0.0137931514578
0.0175583893975
0.0285226953285
0.000320253285844
0.000308429678022
0.00028243462071
0.000242310932379
0.000185759348636
0.000135036414046
9.47297675595e-05
7.55195965437e-05
5.67991274316e-05
5.38260320329e-05
0.000108153105589
0.00160764917841
0.00401668959503
0.00674052602361
0.00898890649102
0.0107274110673
0.0121502572291
0.0138731583627
0.018045171226
0.0315668740692
0.000378549136469
0.000381175656783
0.000363368486591
0.000324724768025
0.000258949625675
0.0001874313382
0.000129073415364
0.000102339553092
9.79541411436e-05
0.000100911910239
6.80693809828e-05
0.000109819700365
0.00243579549691
0.00575716689721
0.00844080656439
0.0104895034259
0.012106939282
0.0139122170201
0.0182314739348
0.0336795990319
)
;

boundaryField
{
    emptyPatch
    {
        type            empty;
    }
    minY
    {
        type            fixedValue;
        value           nonuniform List<scalar> 0();
    }
    maxY
    {
        type            inletOutlet;
        inletValue      nonuniform List<scalar> 0();
        value           nonuniform List<scalar> 0();
    }
    water_to_cooler
    {
        type            kqRWallFunction;
        value           nonuniform List<scalar> 
38
(
0.0341138229944
0.0332388144011
0.0323928194214
0.0315722373534
0.0307721978564
0.0299873411613
0.0292116731865
0.02843773623
0.027655238776
0.0268499119032
0.0260037065863
0.0250969528136
0.0241117873538
0.0230359893959
0.0218680276252
0.0206235675522
0.0193401962192
0.0180770940527
0.0169131190041
0.0159827069912
0.0153529902241
0.0155313551243
0.015932904176
0.0161535489493
0.0162199921564
0.0161922313087
0.0161314952106
0.0160702903201
0.015982784179
0.0159172445548
0.0160941848765
0.0171366720098
0.0191280359075
0.0218700996432
0.0251166197384
0.0285226953285
0.0315668740692
0.0336795990319
)
;
    }
    water_to_heater
    {
        type            kqRWallFunction;
        value           nonuniform List<scalar> 
60
(
1.70703597903
1.70703597903
1.74588568328
1.75842671697
1.83910604271
1.83910604271
2.24292731569
2.24292731569
2.87768971937
2.87768971937
3.2666444335
3.48860083932
3.59101179264
3.59101179264
3.59130548121
3.59130548121
3.52511606811
3.52511606811
3.42050307686
3.31689619102
3.2692344874
3.2692344874
3.34941095662
3.34941095662
3.42169835555
3.42169835555
3.3675428005
3.21968108833
2.91993705107
2.91993705107
2.4249650184
2.4249650184
2.06549194283
2.06549194283
2.19905358959
2.84851375597
3.76584791753
3.76584791753
4.22988836229
4.22988836229
4.21510175209
4.21510175209
4.1857589716
4.2797305182
4.54963856885
4.54963856885
5.03155677977
5.03155677977
5.74589983039
5.74589983039
6.62408529622
7.4223662169
7.77825105734
7.77825105734
7.31943766163
7.31943766163
6.16905648437
6.16905648437
5.00804813179
4.046657095
)
;
    }
    procBoundary3to1
    {
        type            processor;
        value           nonuniform List<scalar> 
41
(
0.0990415434511
0.0493911888215
0.0250106898962
0.0147564758683
0.00980265091331
0.00670931429454
0.0044100860242
0.00264372721796
0.00144486245996
0.000776960118429
0.000518536971934
0.000428935531205
0.000425619100849
3.26688159216
1.73860237558
1.02506542965
0.643766942774
0.413876126286
0.263468954456
0.0990415434511
0.160441080171
0.000449959047108
0.000470714918959
0.000465265178999
0.000425818506599
0.000346885321828
0.000253523619044
0.000171733815865
0.000129290647155
0.000119362803267
0.000118007881663
8.54340632146e-05
4.94415030265e-05
0.000330604780963
0.00467253654803
0.00807692411559
0.0104052093938
0.0121734649377
0.0139946359187
0.0182181067012
0.0345740575979
)
;
    }
    procBoundary3to2
    {
        type            processor;
        value           nonuniform List<scalar> 
41
(
1.58008091397
0.782572070089
0.408328827433
0.220707426538
0.115196271328
0.0586078801077
0.0312989955646
0.0184390030122
0.0121127418887
0.00868244284468
0.00638922554279
0.00427878683434
0.00228287127329
0.0012246866281
0.000977492955509
0.00093726332796
0.000825216111391
0.000689415965751
0.000538305033288
0.000419407914669
0.00081598924571
0.000802465268415
0.000788942871531
0.000778236101523
0.000779673965239
0.000827710554512
0.00104943764867
0.00181183386293
0.00358051524029
0.00608903216938
0.00866693498058
0.0110592761315
0.0132836074888
0.0155903336015
0.0186508498185
0.024060264291
0.0350154476933
0.000612946716259
0.000746512153864
0.000732012853498
0.000732012853498
)
;
    }
}


// ************************************************************************* //
