/*--------------------------------*- C++ -*----------------------------------*\
| =========                 |                                                 |
| \\      /  F ield         | OpenFOAM: The Open Source CFD Toolbox           |
|  \\    /   O peration     | Version:  2312                                  |
|   \\  /    A nd           | Website:  www.openfoam.com                      |
|    \\/     M anipulation  |                                                 |
\*---------------------------------------------------------------------------*/
FoamFile
{
    version     2.0;
    format      ascii;
    arch        "LSB;label=32;scalar=64";
    class       volScalarField;
    location    "0.37/water";
    object      k.gas;
}
// * * * * * * * * * * * * * * * * * * * * * * * * * * * * * * * * * * * * * //

dimensions      [0 2 -2 0 0 0 0];

internalField   nonuniform List<scalar> 
1503
(
0.0357736667239
0.00846256237864
0.00229719504108
0.000916011023932
0.000994802469919
0.00118304955731
0.0012487880328
0.00126631642532
0.00127108632614
0.00127041357854
0.00126679131122
0.00126169088476
0.00125630424459
0.00125135444453
0.00124719037535
0.00124390186761
0.00124143039944
0.00123965235967
0.00123843266894
0.00123765355204
0.482974316431
0.151753772265
0.0419550756183
0.0136230673411
0.00380728938757
0.00172899882154
0.00118707204346
0.00122781106509
0.00127312852143
0.00128195430157
0.00128067080753
0.00127613226225
0.00127003068579
0.00126337806505
0.00125692036871
0.00125115893597
0.00124635510691
0.00124257642415
0.0012397674356
0.00123781748631
0.682005261388
0.256791729636
0.0921747114252
0.0311102381905
0.0110980121204
0.0036552508891
0.00162793659724
0.00119008207766
0.00125088246864
0.00128539396197
0.00129034916356
0.00128852392627
0.00128390043042
0.00127770271805
0.00127075404892
0.00126376157222
0.00125729784685
0.00125174627595
0.00124729548443
0.00124398296888
0.837597570588
0.334517163184
0.132780988294
0.0506377361168
0.0212171245983
0.00679350187301
0.00256002351688
0.00133452316181
0.0012155478972
0.00127829184898
0.00129427618652
0.00129585490015
0.00129349553262
0.00128883905424
0.00128269178522
0.00127572481642
0.00126860641827
0.00126193917045
0.0012561735272
0.00125157454493
0.91622448128
0.384495032797
0.161943036536
0.0675481641656
0.0263969642089
0.0118146339144
0.00360672549826
0.00161947038274
0.00119899295886
0.00126011748635
0.00129440393333
0.0012998497245
0.00129991875119
0.00129714118366
0.00129235368882
0.00128614985292
0.00127915154632
0.00127202962371
0.00126540868924
0.00125977020307
0.927684263893
0.408564115996
0.181381404624
0.0805824321284
0.0346518334244
0.0134784870424
0.0058435576177
0.00182572141869
0.00116519580056
0.00122119654466
0.00129121885256
0.00130224783658
0.00130429730106
0.00130322661806
0.0012997905723
0.00129453990824
0.00128801787182
0.00128086457151
0.00127377167271
0.00126736969921
0.907607376502
0.412459220354
0.190982639257
0.0893522409761
0.0411724927438
0.0178014405202
0.00662986593833
0.00260614960314
0.00100619824552
0.00109533946438
0.00127652073402
0.0013043366471
0.00130749656139
0.00130763295401
0.00130526273799
0.00130086062081
0.0012948992061
0.00128794470343
0.00128067196017
0.00127377545837
0.88892768684
0.407764933007
0.194100856024
0.0946695551608
0.0459313060171
0.0212853343492
0.00886001267528
0.00322186676134
0.00112094906479
0.000805489146992
0.0012037404648
0.00130493819868
0.00130986867723
0.00131039363097
0.00130872198508
0.00130500745922
0.00129962273806
0.00129303436799
0.00128583905659
0.00127874594576
0.865632862353
0.401410778537
0.195324003219
0.0981839673108
0.0492692245161
0.0238783273457
0.0107542014507
0.00419515762107
0.00167097364837
0.000625914197661
0.000973741002832
0.00129256384412
0.00131199416293
0.00131163814049
0.00131022208143
0.00130705899707
0.00130228356325
0.00129622741046
0.00128937687346
0.00128236560785
0.840314047251
0.398231425708
0.197880073623
0.101137584769
0.0515088078876
0.0255891051206
0.0122142242144
0.00536139494216
0.00193959020033
0.000797314204265
0.000649489339238
0.00122012625624
0.00131471235502
0.00131228874805
0.0013103940769
0.00130761919494
0.00130348425078
0.00129808343623
0.00129174945781
0.00128500911005
0.839474452553
0.406826961327
0.204126149245
0.104122127314
0.0529379966646
0.0267147641811
0.013414689716
0.00648410902199
0.00273924291137
0.00108381554113
0.000536160212963
0.00100301479636
0.00131440218983
0.00131482807673
0.00131078286372
0.00130797317955
0.00130434242347
0.00129954809206
0.00129371959815
0.00128725751042
0.89781595673
0.434281272628
0.214216120796
0.106872324434
0.0540285142139
0.0278502601689
0.0146634620942
0.00768571627519
0.00369435602073
0.0014652415459
0.000726119048427
0.000668778843563
0.00126489193109
0.00132292926489
0.00131381699921
0.00130988481008
0.00130627842966
0.00130175055211
0.00129614275781
0.00128971960925
1.02736427728
0.472133903441
0.223124551051
0.109414590165
0.0557765338401
0.0295331000447
0.0161818865731
0.00903851167798
0.00481948113182
0.00218142961762
0.000858086948835
0.000547469434521
0.00099170883472
0.00132926555166
0.00132213768397
0.00131490354397
0.00131044894566
0.0013055673345
0.00129964588892
0.00129280634258
1.12558037606
0.497538287839
0.231525192001
0.113341989882
0.0583311291796
0.0315262160124
0.0178099841283
0.0103927419353
0.0059919759928
0.0030261458078
0.00125502505701
0.000731406967634
0.000567761739935
0.00123245517933
0.00133609681803
0.00132373155555
0.00131724617096
0.0013112770072
0.00130440790328
0.00129660637806
1.15056786325
0.510389803921
0.237591155309
0.116430525124
0.0603341396746
0.0331310779809
0.0192000883805
0.0116056991783
0.00705342905552
0.00385129347872
0.00171310345444
0.000823081398451
0.000567379160348
0.0008114086372
0.00133385331817
0.00133620847434
0.0013263633091
0.0013186359263
0.00131024421079
0.00130097753205
1.15414593542
0.514203916051
0.240223638426
0.118148981371
0.0616077563289
0.0342339650674
0.0202322264819
0.0125886486909
0.00794508246113
0.00457428141113
0.00212033946508
0.00105872560824
0.000627699319328
0.000465285604241
0.0011998996796
0.00135015598509
0.00133733812776
0.0013272699588
0.0013168993978
0.00130576837616
1.14950959964
0.513975894882
0.241303434856
0.119145475459
0.0623744646755
0.0349307562481
0.0209715785591
0.013368166077
0.00868385738972
0.00515350707753
0.0024482966246
0.00123355051953
0.000782249472345
0.00050402308856
0.000832949408318
0.00135288303971
0.00134977750346
0.00133693458942
0.00132425311601
0.00131097068637
1.148450741
0.513678349059
0.241734029421
0.1195848775
0.0627448470189
0.0353522437791
0.0215142546228
0.014002334757
0.00929905713649
0.00562031303338
0.00270702713611
0.00135810105309
0.000913663403611
0.000592672560934
0.000520612617772
0.00131589444366
0.00136325287036
0.00134749183218
0.00133230281009
0.0013167055833
1.16253781133
0.517834114857
0.242928119524
0.120092098699
0.0631348155299
0.0357776939097
0.0220245772581
0.0145747808826
0.00981070633057
0.00601517370157
0.00294029330368
0.00147002296421
0.00101073673457
0.000607543532964
0.000429879198238
0.00123161762958
0.00137711356577
0.00135866688414
0.00134098470974
0.0013230829222
1.18679998172
0.526644198372
0.24601011606
0.121483015954
0.0640159761574
0.0364573477507
0.0226372744934
0.0150938121641
0.010231889656
0.00640136609303
0.00321916140223
0.00161716440907
0.00110868823089
0.000711480565666
0.000466882973991
0.00113138238671
0.00139181721136
0.00137006093518
0.00135001684473
0.00133002739275
1.21494204833
0.536886918578
0.250409889942
0.123997417643
0.065655445445
0.0375147452454
0.0232980973841
0.0155275784344
0.0106308225728
0.00682623375134
0.00359457686776
0.00182809226619
0.00123439877587
0.000846444082592
0.000585975308465
0.00103016920075
0.0014116410557
0.00138184112365
0.00135894451817
0.00133718564609
1.23390279966
0.543255732871
0.254520269601
0.127441126787
0.0680356772544
0.0388161028284
0.0239135483572
0.0158828183619
0.0109666608758
0.0072119728257
0.00404617899014
0.00206742283953
0.00140410082821
0.00103152695071
0.000785091492487
0.000877493445417
0.00143813506959
0.00139558354043
0.00136744555911
0.00134403600403
1.23477965114
0.545367004668
0.260352755718
0.132711003311
0.071098128218
0.0400301289945
0.0242288916007
0.0159485967071
0.0110291919605
0.00745271271964
0.00445646266844
0.00229452286705
0.00154192879041
0.00125029289854
0.000823624771574
0.000689788956119
0.00142554033477
0.00141500991308
0.00137577557129
0.00135018426966
1.20703820145
0.553974744793
0.272763428294
0.140565182959
0.0741238098044
0.0404590356469
0.0239126900048
0.0156249156885
0.0108789355456
0.00755938366202
0.00474381821478
0.00246341561028
0.00158926235355
0.00140705964019
0.00108516459418
0.000798840474582
0.00115285387239
0.0014409451352
0.00138485484494
0.00135557565865
1.2091304435
0.584275997643
0.293634665792
0.149155578659
0.0755798714021
0.040075363521
0.0235419617343
0.0153374878536
0.0107166832285
0.00759527059007
0.00493772942537
0.00257575321833
0.00157940301937
0.00142143400902
0.00126922966702
0.000817154993939
0.000666632501154
0.00142328116229
0.00139579230785
0.00136043118698
1.29496747847
0.637801338902
0.316796374704
0.155852541387
0.0766528283751
0.0405714126784
0.023741610976
0.0153472886633
0.0106998240562
0.00768296014496
0.00514274990421
0.00268702601
0.00154272401383
0.00138388891448
0.00131177225879
0.00101178404048
0.000638692125233
0.00115118155129
0.00140593737872
0.00136511747022
1.45804343807
0.697615226034
0.333891371127
0.161326493729
0.0800428616413
0.0425185285003
0.0247560462872
0.0158055135797
0.0109406543289
0.00794193463256
0.00545694999452
0.00286140003204
0.00152051532183
0.00133714434578
0.00129386995931
0.00111962919797
0.000668061310671
0.000660404061122
0.00139089529836
0.00136998554227
1.65623815386
0.741321420685
0.34463236738
0.16734788459
0.0851713821222
0.0458574394734
0.0265127607365
0.0166852790952
0.0114546293285
0.00839413333435
0.00589760495941
0.00314195847483
0.00155001127853
0.00130739661626
0.0012858687589
0.00117986964402
0.000776791844559
0.000458203917248
0.0012778902634
0.00137472241074
1.76384795342
0.772084457427
0.356673040226
0.1745701123
0.0903326501402
0.0492717479145
0.0285570460771
0.0178365257261
0.0121809711364
0.00897672508208
0.00641106394571
0.00353343148387
0.00165881145227
0.00131175561712
0.00131101805101
0.00124005605641
0.000905479920775
0.000514127880719
0.00101357713791
0.00137665772516
1.8018726896
0.789715351599
0.365478123262
0.180207633882
0.0942621607144
0.0519178310757
0.0302737180815
0.0189354232941
0.0129613122866
0.00958726247671
0.00690057795065
0.00396083672104
0.00185250627382
0.00135889388392
0.00137091529835
0.00131463227999
0.00102843740208
0.000605724703539
0.000693578647434
0.00136827654547
1.81309358354
0.796868049574
0.370814290041
0.183883333355
0.0967047665247
0.0536392954213
0.0315212561304
0.0198610807527
0.0137105498038
0.0101725234817
0.00734339169749
0.00433801640423
0.00206784132084
0.00144178826363
0.00145485484
0.00140494369423
0.0011573898223
0.000643143004311
0.000477985237061
0.00132851805839
1.80844244855
0.797911103378
0.373316805477
0.185700134527
0.0978510737805
0.0545920532358
0.0323629217942
0.0206219723479
0.0143944467403
0.0106929993189
0.00771192316832
0.00463082116457
0.00225337607168
0.00153733858705
0.00154831508917
0.00150532512437
0.00128633795896
0.00080181389542
0.000428054704552
0.00121163492568
1.80829688305
0.795367299661
0.372607738544
0.185443402892
0.0979837029992
0.0550343020966
0.0329222643186
0.0212374375066
0.0149729602392
0.0111029796422
0.00797519708091
0.00481899888092
0.00238574653482
0.00162966583481
0.00164118214996
0.00159881402125
0.00138820384461
0.000948623102498
0.000514368014576
0.000985842157683
1.81967551881
0.796774108433
0.372068457499
0.184922328832
0.0979525869477
0.0552975850238
0.0333055096822
0.0217169499984
0.0154057770562
0.0113668534589
0.00811457942645
0.00490330543962
0.00246781709125
0.00171559209576
0.0017246079934
0.00168267423077
0.00146695546449
0.00107320536465
0.000618742258254
0.000730702085088
1.84068083237
0.800811693136
0.372728802452
0.184877904076
0.0979927833939
0.0554301864076
0.0335321305653
0.0220535000272
0.0156542310947
0.011468780468
0.00813027976772
0.004905358101
0.00252139905876
0.00179865423914
0.00179760068015
0.00175929411151
0.00154359025023
0.00117994138675
0.000637042520433
0.000558559742936
1.85927271053
0.805949054409
0.374284435481
0.185318585478
0.0981256500169
0.0554787612767
0.0336646274494
0.0222362682238
0.0156960999435
0.0114170907458
0.00804168003792
0.0048614253081
0.00257391676735
0.00188150628282
0.00186017045311
0.00183423858027
0.0016353150495
0.00128951436065
0.000740352615159
0.00049206311165
1.87735787035
0.809013244942
0.375021182092
0.185564140666
0.098181756356
0.0554553488233
0.0337249550737
0.022210276648
0.0155348702804
0.0112352494545
0.00787941482429
0.00480721058832
0.00264285477079
0.00195967804802
0.00191488553233
0.0019136697351
0.00175329236563
0.00142380013616
0.000884993351785
0.000514501919131
1.8918076259
0.808160819052
0.373392385727
0.18485641502
0.0978432068557
0.0552548448654
0.0335746152771
0.0218911381116
0.0151909824419
0.010945558032
0.0076680660964
0.00476155467105
0.00272477383657
0.00202100147417
0.0019618017852
0.00199660592508
0.0018903747289
0.00160223943971
0.00105757877596
0.000619152773865
0.00123723353236
0.00123709541982
0.00123716843526
0.00123741498068
0.00123782428952
0.00123840163404
0.00123916028324
0.00124011280955
0.00124125940172
0.00124257108923
0.00124396756696
0.00124529212186
0.00124629283166
0.00124662719194
0.00124591709512
0.0012439690791
0.00124304396027
0.00129221489183
0.00262479660155
0.0232967039316
0.00123663250586
0.00123608703054
0.00123603337011
0.00123637164272
0.00123704972453
0.00123803904788
0.00123931352985
0.0012408300277
0.00124251033886
0.00124422669765
0.00124579496822
0.00124697701154
0.00124748210373
0.00124693106125
0.00124476834731
0.00124125480774
0.00126065706047
0.00172122691569
0.00713972108276
0.0433706805442
0.00124180683188
0.00124065708465
0.00124032089842
0.00124061374487
0.00124140780711
0.00124259962595
0.0012440811761
0.00124571816123
0.00124733841626
0.00124873117955
0.00124965264959
0.0012498203321
0.00124885895498
0.0012461462217
0.00124078852099
0.00123707746735
0.00133318001449
0.00268855287035
0.0129896641402
0.0557805530945
0.00124832549434
0.00124641459824
0.00124560597864
0.00124563561697
0.0012462881115
0.00124736873616
0.00124867856826
0.00125000104065
0.00125110148573
0.00125173235022
0.00125162691484
0.00125045165705
0.00124767446971
0.00124235543546
0.00123403192516
0.0012421373007
0.0015422690813
0.00444346552399
0.0194734493326
0.0625547515724
0.00125551626627
0.00125279519248
0.00125139056528
0.00125098167428
0.00125127300018
0.00125198430488
0.00125283955079
0.00125356439315
0.00125388994344
0.00125354848089
0.00125223899503
0.00124953283965
0.00124469448294
0.00123664612044
0.00122784350005
0.00127671014347
0.00199176368296
0.00699004219877
0.0253029702047
0.0657983081368
0.00126225529309
0.00125876169744
0.00125671716695
0.00125577127369
0.00125556646242
0.00125575468915
0.00125600365015
0.00125600214625
0.00125545947142
0.00125408310353
0.0012515148524
0.00124720417143
0.00124025361676
0.00123005847907
0.0012273784794
0.00137134662973
0.0027806281148
0.0100475818923
0.0297503217065
0.0670821613045
0.00126800816181
0.00126384641665
0.00126118860735
0.00125967763786
0.00125891659063
0.00125851152294
0.00125809350262
0.00125732729745
0.00125590157773
0.00125348802484
0.00124965575906
0.00124374036059
0.00123485466414
0.00122418034455
0.00124067809587
0.00156644477566
0.00395221211612
0.0131557044763
0.032751387598
0.0672806763104
0.00127256715926
0.00126789080239
0.00126469461024
0.00126263721637
0.0012613074168
0.00126028809602
0.00125919033322
0.00125766223735
0.00125536940876
0.00125193979575
0.00124686952813
0.00123943489361
0.00122912448302
0.00122131370794
0.00127941486196
0.00190650548408
0.00545540097662
0.0159166750676
0.0346070206435
0.066845942598
0.00127601073829
0.0012709789803
0.00126732915853
0.00126475707069
0.00126286196732
0.00126122461657
0.00125944946462
0.00125717243741
0.00125403404912
0.00124961721205
0.00124336387105
0.0012346085719
0.00122387058813
0.00122476020025
0.00135934763854
0.00242781023479
0.00715305030534
0.0181336117655
0.035657986805
0.0660252706153
0.00127863841463
0.00127335398653
0.00126929761827
0.00126621972869
0.00126375038254
0.00126148460183
0.00125902940717
0.00125601104253
0.00125204481349
0.00124667547021
0.00123933353965
0.00122961800389
0.00122016411403
0.00123917727259
0.00149992188705
0.00314332228138
0.0088741796145
0.0197940787274
0.0361650185449
0.0649676463161
0.00128087613026
0.00127532692659
0.00127083378324
0.00126721027772
0.00126412833596
0.00126120561101
0.00125805544341
0.00125429490397
0.00124951637721
0.0012432431032
0.00123496851716
0.00122488930583
0.00121947146671
0.00127096300757
0.00172227664997
0.00403332830013
0.01047371761
0.0209818076873
0.0363053499793
0.0637673077023
0.001283134236
0.00127716793888
0.00127211831866
0.00126785681603
0.00126409516188
0.00126047197712
0.00125660464266
0.001252099811
0.00124653239856
0.00123943316904
0.00123047599452
0.00122097212072
0.00122383297881
0.00132856237331
0.00204529007389
0.00504797159478
0.0118660927584
0.0218024084822
0.0361972538998
0.0624849440387
0.00128565768079
0.00127901248199
0.00127322403731
0.00126820181211
0.00126368257937
0.00125931533859
0.00125471455994
0.00124947475395
0.00124316355113
0.00123536489261
0.00122611139416
0.00121861178063
0.00123608660732
0.0014225275999
0.00248048089192
0.00612071918102
0.0130251363942
0.0223483230399
0.0359202904565
0.0611594859853
0.00128846885434
0.00128084722899
0.00127412677572
0.00126822607322
0.00126288462235
0.00125774646577
0.00125241454726
0.00124647118807
0.00123949404985
0.00123118895566
0.00122221274558
0.00121883911794
0.00126012317239
0.00156505777175
0.00302764376367
0.00718584810236
0.0139642369729
0.0226908737007
0.0355283420635
0.0598150436235
0.00129146099494
0.00128259897432
0.00127478557848
0.00126791870017
0.00126171731734
0.00125580510001
0.00124976621629
0.00124317458217
0.00123564534806
0.00122710739601
0.00121923347267
0.00122307834023
0.00130112526587
0.00176868958298
0.00367311135437
0.00819209569938
0.0147142183446
0.0228827846677
0.0350579730276
0.0584652585538
0.00129456595404
0.0012842609933
0.00127523777423
0.00126734879801
0.0012602725652
0.00125359953886
0.00124689092715
0.00123972147198
0.00123178514793
0.00122338122254
0.0012177725629
0.00123327149095
0.00136568151122
0.00204403939022
0.0043915425777
0.00910825223027
0.0153083870578
0.0229624319566
0.0345339597668
0.0571164476239
0.00129785917299
0.00128596168064
0.00127564255054
0.00126669193355
0.00125873232693
0.00125131133171
0.00124396672081
0.00123629027415
0.00122811524024
0.00122032454282
0.00121860567671
0.00125200731392
0.00146159756629
0.00239703792751
0.00515072023811
0.00992135566589
0.0157757109304
0.022957370193
0.0339729983869
0.0557702441572
0.00130153837199
0.00128793595076
0.00127624843676
0.00126619536396
0.00125733226104
0.00124915787086
0.0012411907388
0.00123306533622
0.00122484145032
0.00121829241822
0.00122272511388
0.00128262325521
0.00159722510906
0.00282663162622
0.00591767277987
0.0106310730613
0.0161392446833
0.0228870786224
0.0333862491192
0.054425991719
0.00130580524778
0.00129042312585
0.00127730298206
0.00126609580558
0.00125628583843
0.00124732298325
0.00123871782858
0.00123018651105
0.00122213990395
0.00121767786799
0.00123139721891
0.00132923075699
0.00178029571176
0.00332400567012
0.00666407451465
0.0112438907903
0.0164168528015
0.0227651937289
0.0327811361267
0.0530828448843
0.00131071408104
0.00129353988346
0.00127894230114
0.00126652104383
0.00125569747931
0.00124588331033
0.00123660295611
0.00122771123951
0.00122014470296
0.00121893867052
0.00124624224567
0.00139662031884
0.00201654382566
0.00387384517733
0.00736948394052
0.0117690681777
0.0166225276556
0.0226013559623
0.0321626584222
0.0517413603672
0.00131606720439
0.0012971882479
0.00128111117107
0.00126742299997
0.00125551113955
0.00124477485355
0.00123478759719
0.00122562253609
0.00121898137878
0.00122266755683
0.00126933317745
0.00149004782138
0.00230860467795
0.00445725661535
0.00802208242374
0.0122165587502
0.0167676030105
0.0224026767096
0.0315343309463
0.0504043224811
0.00132145161912
0.00130106823281
0.00128357344271
0.0012685972774
0.00125554345373
0.00124383988786
0.00123315857288
0.00122389798183
0.00121884846951
0.00122969876122
0.00130330310516
0.00161495635377
0.00265556841703
0.00505525398367
0.00861748982223
0.0125961825664
0.0168616354815
0.0221748034823
0.030898820572
0.0490766679948
0.00132643898868
0.00130482390669
0.00128603926354
0.00126980708694
0.00125560684179
0.00124294599433
0.00123165850302
0.00122260955356
0.00122011354844
0.00124122225438
0.00135144584302
0.00177667421285
0.00305321261639
0.00565158064884
0.00915658640461
0.0129172500769
0.0169128877983
0.0219225625677
0.0302583074736
0.0477646197809
0.0013308031667
0.00130823405736
0.00128833655573
0.00127093817909
0.0012556450705
0.00124209836592
0.0012303728651
0.00122198925632
0.0012233751571
0.00125887675904
0.0014177830047
0.0019800371378
0.00349462700242
0.00623411350837
0.00964317811753
0.013188207198
0.0169284639361
0.0216502239128
0.0296146311623
0.0464744057196
0.00133456457628
0.00131128886566
0.00129048574552
0.00127205699788
0.00125576940648
0.00124145360437
0.0012295254946
0.00122241808396
0.00122947291511
0.00128481544915
0.00150704444943
0.00222882495885
0.003970935974
0.00679483994107
0.0100820727667
0.0134162713143
0.0169142549676
0.0213615126798
0.0289693077757
0.0452110607373
0.00133789872853
0.0013141204848
0.00129262801438
0.00127332939898
0.00125616978681
0.00124122914951
0.00122939524187
0.00122436593421
0.0012394803959
0.00132175898384
0.00162448813915
0.00252501104593
0.00447204588915
0.00732896856754
0.0104778538245
0.0136072258675
0.0168749029515
0.0210595458668
0.0283235257322
0.0439776946788
0.00134099116457
0.00131685797599
0.00129488358564
0.00127488437908
0.0012569894284
0.00124159569603
0.00123023532889
0.00122835386633
0.0012547346049
0.00137304404187
0.00177550788831
0.00286804964772
0.00498749315424
0.00783386674648
0.0108343710264
0.0137654912739
0.0168139149793
0.020746831761
0.0276781857082
0.0427753177808
0.00134400366568
0.00131956880022
0.00129729139836
0.00127675794791
0.0012582780376
0.00124264584532
0.00123226658984
0.00123498912251
0.00127692929702
0.00144265033144
0.00196505929169
0.00325455689487
0.00550738681011
0.00830827051392
0.0111547531167
0.0138944259532
0.0167339220838
0.0204253721724
0.0270339905179
0.041603038168
0.00134717783071
0.00132235824371
0.00129989545219
0.00127896623436
0.00126005565482
0.00124445574002
0.00123574933291
0.00124506946696
0.0013082571551
0.00153516750215
0.00219702429326
0.00367860867948
0.00602324970123
0.00875184193019
0.0114416421715
0.0139966874035
0.0166369708211
0.0200968128759
0.0263915428474
0.0404583355972
0.00135105947117
0.00132555668588
0.00130290267211
0.0012816388002
0.00126242557852
0.00124718567017
0.00124108813158
0.00125971920363
0.00135155918302
0.00165565499822
0.00247365456884
0.00413255460336
0.00652848812829
0.0091649031763
0.0116973810814
0.0140744809082
0.016524720801
0.0197625511405
0.0257514007742
0.0393372022605
0.00135657223122
0.00132981003721
0.00130676829571
0.00128509979743
0.00126564813567
0.00125115099859
0.00124891767398
0.00128051548826
0.00141042588567
0.00180933940461
0.00279516029325
0.00460797553154
0.00701833606248
0.00954814724836
0.0119240180746
0.0141296193275
0.0163984885326
0.019423739929
0.0251140698833
0.0382341382301
0.00136433456551
0.00133591152785
0.00131210470282
0.00128981637982
0.00127011258526
0.00125681655424
0.00126013535274
0.00130956877953
0.00148917236308
0.00200107360277
0.00315940858012
0.00509637866078
0.00748933161959
0.00990224800376
0.0121231458806
0.0141634344665
0.0162591660624
0.0190811845524
0.0244799358307
0.037142184787
0.00137314662094
0.00134449868695
0.00131945215497
0.00129622444109
0.00127621053017
0.00126471837191
0.00127588182238
0.00134952928104
0.00159258827682
0.00223450716855
0.00356169946613
0.00558946329949
0.00793859424743
0.0102274737424
0.0122957257454
0.014176678206
0.016107125037
0.0187352030313
0.0238491821635
0.0360532854524
0.00137923587208
0.0013558050066
0.0013289899195
0.00130449335534
0.00128416622422
0.00127536116358
0.00129749918524
0.00140349207175
0.00172538930978
0.00251107316363
0.00399474042062
0.00607913772499
0.00836327863687
0.0105235159453
0.0124420857915
0.0141695668433
0.0159422336018
0.0183855568384
0.0232217532257
0.0349591867543
0.0013764110499
0.00136931455287
0.0013402243583
0.00131430184107
0.00129389557551
0.00128915171502
0.0013264943576
0.00147477216922
0.00189141414067
0.00282913733001
0.00444906988291
0.00655764565117
0.00876049482868
0.0107896865056
0.0125621975621
0.0141420417126
0.015764055078
0.018031538267
0.0225974137672
0.0338528367343
0.0013560182022
0.00138361659121
0.00135194039981
0.00132481915059
0.0013050231955
0.00130644881732
0.0013645354892
0.00156657606723
0.00209282619155
0.00318380719741
0.00491411151855
0.00701805407202
0.00912773565776
0.0110254458716
0.0126561665282
0.0140941815022
0.0155721849952
0.0176722059276
0.0219758880849
0.0327299089698
0.00131138921246
0.00139747362504
0.00136276192775
0.00133505530937
0.00131714648274
0.00132776519234
0.00141349241503
0.00168169569134
0.00232972643674
0.00356771983277
0.00537971846071
0.00745501576873
0.00946354163983
0.011230998732
0.012724703895
0.0140265717307
0.0153665650791
0.0173066053375
0.0213567300555
0.0315896679954
0.0012404043222
0.00141186928934
0.00137186911654
)
;

boundaryField
{
    emptyPatch
    {
        type            empty;
    }
    minY
    {
        type            fixedValue;
        value           uniform 0.000138;
    }
    maxY
    {
        type            inletOutlet;
        inletValue      nonuniform List<scalar> 0();
        value           nonuniform List<scalar> 0();
    }
    water_to_cooler
    {
        type            kqRWallFunction;
        value           nonuniform List<scalar> 
37
(
0.0232967039316
0.0433706805442
0.0557805530945
0.0625547515724
0.0657983081368
0.0670821613045
0.0672806763104
0.066845942598
0.0660252706153
0.0649676463161
0.0637673077023
0.0624849440387
0.0611594859853
0.0598150436235
0.0584652585538
0.0571164476239
0.0557702441572
0.054425991719
0.0530828448843
0.0517413603672
0.0504043224811
0.0490766679948
0.0477646197809
0.0464744057196
0.0452110607373
0.0439776946788
0.0427753177808
0.041603038168
0.0404583355972
0.0393372022605
0.0382341382301
0.037142184787
0.0360532854524
0.0349591867543
0.0338528367343
0.0327299089698
0.0315896679954
)
;
    }
    water_to_heater
    {
        type            kqRWallFunction;
        value           nonuniform List<scalar> 
61
(
0.0357736667239
0.482974316431
0.482974316431
0.682005261388
0.682005261388
0.837597570588
0.837597570588
0.91622448128
0.927684263893
0.907607376502
0.907607376502
0.88892768684
0.88892768684
0.865632862353
0.865632862353
0.840314047251
0.839474452553
0.89781595673
0.89781595673
1.02736427728
1.02736427728
1.12558037606
1.12558037606
1.15056786325
1.15414593542
1.14950959964
1.14950959964
1.148450741
1.148450741
1.16253781133
1.16253781133
1.18679998172
1.21494204833
1.23390279966
1.23390279966
1.23477965114
1.23477965114
1.20703820145
1.20703820145
1.2091304435
1.29496747847
1.45804343807
1.45804343807
1.65623815386
1.65623815386
1.76384795342
1.76384795342
1.8018726896
1.81309358354
1.80844244855
1.80844244855
1.80829688305
1.80829688305
1.81967551881
1.81967551881
1.84068083237
1.85927271053
1.87735787035
1.87735787035
1.8918076259
1.8918076259
)
;
    }
    procBoundary2to3
    {
        type            processor;
        value           nonuniform List<scalar> 
41
(
1.90104754752
0.803941287963
0.369655446237
0.183251508495
0.0972270301075
0.0549418525875
0.0331405274884
0.0213274496197
0.0147224270428
0.0105826657524
0.00743287781871
0.0047305234854
0.00280570080915
0.00206147832141
0.00199472228337
0.00207152391942
0.00201730389723
0.00177865193483
0.00125881867807
0.000801501177328
0.00134432891072
0.00133019088139
0.00135400422698
0.00147547917832
0.00182236366941
0.00260039542144
0.00397255660817
0.00583764677196
0.00786537719747
0.00976795358685
0.0114076288507
0.0127693911554
0.0139406534253
0.0151482675813
0.0169357145743
0.0207434455084
0.0304401750924
0.00113428013508
0.00143081422522
0.00134432891072
0.00137937430433
)
;
    }
}


// ************************************************************************* //
