/*--------------------------------*- C++ -*----------------------------------*\
| =========                 |                                                 |
| \\      /  F ield         | OpenFOAM: The Open Source CFD Toolbox           |
|  \\    /   O peration     | Version:  2312                                  |
|   \\  /    A nd           | Website:  www.openfoam.com                      |
|    \\/     M anipulation  |                                                 |
\*---------------------------------------------------------------------------*/
FoamFile
{
    version     2.0;
    format      ascii;
    arch        "LSB;label=32;scalar=64";
    class       volScalarField;
    location    "0.005/water";
    object      alpha.gas_0;
}
// * * * * * * * * * * * * * * * * * * * * * * * * * * * * * * * * * * * * * //

dimensions      [0 0 0 0 0 0 0];

internalField   nonuniform List<scalar> 
1503
(
0.186113573838
0.125054613579
0.0416662349591
0.0145378137929
0.00468666172006
0.00168465208533
0.000635648129928
0.000251814046706
0.0001002567824
4.41797712497e-05
2.06529604321e-05
9.28594416591e-06
2.38918662984e-06
9.39952703108e-08
4.1187295626e-10
4.69154840143e-13
1.15289540312e-15
1e-15
1e-15
1e-15
0.20103028654
0.145941348348
0.0812973574601
0.0449454520835
0.0239289764956
0.0126746009735
0.0066422576121
0.00343472206935
0.0017621913561
0.000925102564781
0.000506124160647
0.000281167383004
0.000143292644206
6.13635853216e-05
1.07385102086e-05
1.30704931913e-07
9.99601698769e-11
3.8518641228e-14
6.43329238031e-15
7.07144228843e-15
0.199484067989
0.147687354589
0.087577719807
0.055940252977
0.0360027278631
0.0233765744576
0.014895287082
0.00924409740936
0.00561594483278
0.00339899222709
0.00206661681551
0.00124086997255
0.000714774522282
0.000382551093727
0.000157470991975
2.99378173773e-05
5.3377401209e-07
4.22037626707e-10
1.38764166552e-13
1.25524454555e-14
0.197907477326
0.154694104399
0.0965770383307
0.0649999942615
0.0446629385333
0.0315303454859
0.0222844071667
0.0155945766804
0.0107371670552
0.00726136631524
0.00481079703936
0.00309933108752
0.00193645083833
0.00119086607141
0.000677696498075
0.000271959629942
4.17163355733e-05
5.0613584407e-07
2.53534720664e-10
7.16254991632e-14
0.191210462374
0.155556594051
0.10311944339
0.0727551062399
0.0521701932838
0.0385052908504
0.0287345150085
0.0214366752608
0.0157561651126
0.0113079523724
0.00793739270008
0.00546717772406
0.00370246416438
0.0025215367573
0.001699963342
0.000967961771466
0.000338575984534
4.2379378531e-05
4.09636274359e-07
1.69722100106e-10
0.188725740522
0.156147144096
0.106060266952
0.0775742070526
0.0579514921721
0.044570618995
0.0345087835761
0.0265179422753
0.0199756335069
0.0147519917833
0.0107931885902
0.00786427073223
0.00569078201034
0.00412572075856
0.00300295933831
0.00206568109722
0.00116472171023
0.000417279800377
5.73666490164e-05
6.6166685916e-07
0.18720113756
0.156253627987
0.106525478453
0.0789906609623
0.0605167381608
0.0480322033481
0.0383221781942
0.0302005485326
0.0233121846614
0.0177445954016
0.0134400489592
0.010171995139
0.00766554904182
0.00568089651226
0.00422747902851
0.00328449567181
0.00244213959581
0.00143190811623
0.000560495115372
9.0567764096e-05
0.185642320128
0.155605349131
0.105450555506
0.0782002639888
0.0602053789712
0.0481756322417
0.0388757780217
0.0312405563335
0.0248862482631
0.0196754290454
0.0154388519333
0.0120736904901
0.00933869565899
0.00702074849927
0.00535847710385
0.00434596547041
0.00342577904155
0.00251900025587
0.00177999070708
0.000834718600905
0.184007090176
0.154526655396
0.105775072232
0.0784614960054
0.0603000152857
0.0481105588447
0.0387814050354
0.0313088720966
0.0252776834958
0.0203703601476
0.0163593883814
0.0130982245416
0.010330074586
0.00803092635806
0.00635438322455
0.0048934612909
0.00363947641249
0.00328263735747
0.00315398762371
0.00231545584819
0.182697644352
0.153553184598
0.10628149713
0.0792703046367
0.0608802106286
0.0483950368967
0.0389375518055
0.0314943294788
0.0255332910888
0.0206823024119
0.0167430868308
0.0135095652396
0.0107823811425
0.00864429211198
0.00689669065961
0.00496841723981
0.00376686091344
0.003786836282
0.00402051738779
0.00334791596722
0.181224024135
0.152326019676
0.10603514018
0.0793757485564
0.0612347813781
0.0489031851635
0.039510779424
0.0320826088325
0.026033998234
0.021082358936
0.0170915557478
0.013801956352
0.011061637988
0.0089549323366
0.00707486613608
0.00495107432559
0.00393610145893
0.00404818794494
0.00436378977645
0.00373379985432
0.179872884995
0.150922747241
0.104782895909
0.0786294165014
0.0608587877057
0.0488270155975
0.0399006492668
0.0328155057154
0.026817162086
0.0217813268397
0.0176727435715
0.0142197472445
0.0113581334592
0.00918407286103
0.00718529332002
0.00498094040574
0.00407222442906
0.00419313156489
0.0045091438922
0.003927643505
0.178277786961
0.149815526573
0.102492598351
0.0764663107209
0.0592939559487
0.048007695736
0.0395835335649
0.0327730505417
0.0270113618878
0.0221678764351
0.0181317423483
0.0146290538785
0.0117079464594
0.00948654518234
0.00736788097479
0.00508189449218
0.00420052733824
0.00431928999288
0.00464827015112
0.00413176194171
0.17656339286
0.148836432495
0.102366888969
0.0755473829758
0.0580575018424
0.0468503054281
0.0387416366165
0.0322933590358
0.0267855240971
0.0220883980848
0.0181211273487
0.0147090512279
0.0119374157566
0.00975618412165
0.00752717039905
0.00519086765001
0.0043768887867
0.0044910827057
0.00481029607662
0.00429350559184
0.175572878775
0.14771256453
0.102754687793
0.0760821329114
0.0583377434123
0.0468834933284
0.0386274976225
0.0320803648057
0.0265353778174
0.0218545057182
0.0179391863669
0.0146201806034
0.0119354105415
0.0097817282562
0.00754648431538
0.00530224073144
0.00457588837603
0.00467582638666
0.00488736606946
0.00432709670744
0.179442536416
0.146871694908
0.102530316156
0.0763260852794
0.0587728916848
0.04728903387
0.0389254009134
0.0322766311358
0.0266387168162
0.0218776322076
0.0179065396598
0.014568334293
0.0118988490472
0.00973870823716
0.00751669308366
0.00537284313243
0.00465608429119
0.00472384390403
0.0048915501865
0.00430868705712
0.182446904826
0.146810352802
0.101445437411
0.0757272182536
0.0585046477907
0.0472400398755
0.0390894710751
0.0326050194209
0.0270218425966
0.0221642866208
0.0180666981492
0.0146422529977
0.0119177031048
0.00972650021064
0.00751024045451
0.00539561576937
0.0046736951693
0.00472518645826
0.0048737498952
0.00428877769027
0.18277057285
0.146907315926
0.0995716282704
0.0739309148806
0.057111964687
0.0463650109073
0.0386283409088
0.0324384813318
0.0270328831802
0.022324904102
0.018270207779
0.0148131347273
0.0120147783602
0.00977827251769
0.00754845973273
0.0054235783134
0.00468430494329
0.00472193996334
0.00486691495106
0.00431624286195
0.18342954442
0.147425222364
0.0999969127622
0.0737936476909
0.0566469736347
0.0456675809699
0.0379027935937
0.0318835752478
0.0267428943855
0.0221952129997
0.0182292289603
0.014815632302
0.0120672687823
0.00986468174309
0.00764064649079
0.00547446896091
0.00469646832858
0.00472699625813
0.00489536390559
0.00438631438327
0.184592232477
0.148005695706
0.10093234343
0.0745431954402
0.0571448334513
0.0459148085144
0.0379523992786
0.031751284686
0.0264774414615
0.0219077314853
0.0180060422908
0.0146955595478
0.0120231255759
0.0098613597585
0.00765807780387
0.00549863299634
0.00471079039389
0.0047527932379
0.00491612477954
0.00438646434653
0.184533939088
0.148198188818
0.101063349344
0.0749607033195
0.0578037141665
0.0465955321684
0.0384431403181
0.0320185099838
0.0265783491979
0.021909482402
0.0179456790242
0.0146092196085
0.0119417489894
0.00979997518762
0.00762233280133
0.00548745808045
0.00472286640843
0.00475826306529
0.00491326430332
0.00432805312254
0.184537988048
0.14821969855
0.100428789593
0.0744988188204
0.0575958288394
0.0465828037006
0.0386461744392
0.0323513975322
0.0269250548468
0.0221515740223
0.0180873970432
0.014674676298
0.0119561352348
0.00978327093177
0.00758304626514
0.00546266890628
0.00473003981398
0.00475617962685
0.00488139723023
0.00426538630567
0.183729408873
0.148396988064
0.0989475993898
0.0729236550516
0.0563368182286
0.0457611288856
0.0381780403767
0.0321594699401
0.0269130847789
0.0223096132779
0.0182989557219
0.0148496732182
0.0120538455324
0.00982940225704
0.00760092181964
0.00546587438516
0.00473849899088
0.00474768052358
0.00484322776582
0.00427143829914
0.183429442113
0.148428758507
0.0995631226315
0.0728915712367
0.0558742336326
0.0450107712154
0.0373850805697
0.0315571889305
0.0266123679162
0.0221933809412
0.0182713559685
0.0148597157859
0.0121031861718
0.0099014660778
0.00766846957554
0.00550130199984
0.00474632063794
0.00474963587876
0.00484137060939
0.00432236204971
0.187374887257
0.148533283758
0.100681448469
0.0736747091455
0.0563535366855
0.0452206686334
0.0374056084186
0.0314038818987
0.0263389424377
0.0219044543108
0.0180501229199
0.0147377644076
0.0120546941192
0.00989225953382
0.00770148931964
0.00553835802112
0.00474495962402
0.00474769471675
0.00485897130716
0.00432887383147
0.188659962474
0.148570118396
0.100994281628
0.0741666098469
0.0570126075847
0.0458903772217
0.0378821508306
0.0316663567714
0.0264302716348
0.0218867185008
0.0179575664983
0.0146260263683
0.0119564616487
0.00982241247039
0.0076677270132
0.00553216724064
0.00473870992936
0.00474685338256
0.00486009654102
0.00428879770417
0.190294651101
0.148930579089
0.100343311623
0.0737275611801
0.0568220876881
0.0459045448544
0.0381172421294
0.0320031762266
0.0267510283343
0.0220896301232
0.0180743501421
0.0146794144678
0.0119641710137
0.00979452118636
0.0076238370498
0.00550197771448
0.00472926879514
0.00474054455983
0.00484070573496
0.00424335275667
0.189684461185
0.148700151148
0.0986698142763
0.0721427816677
0.0556029151431
0.0451472629871
0.0376872420349
0.0318212720465
0.0267322470553
0.022238205179
0.0182845697715
0.0148525986932
0.0120529260517
0.00983232217149
0.00763578718684
0.00550213589428
0.00472265517021
0.00472711970999
0.00481506486153
0.00425338520525
0.189831314844
0.149136711641
0.0990693313467
0.0720530785992
0.0550955234165
0.0443624093836
0.0368725317595
0.0312032687324
0.0264173545838
0.0221260842749
0.0182702154745
0.0148745140603
0.0121052791193
0.00990053484993
0.00769406609252
0.00552969951936
0.00471920133077
0.00472164826292
0.00482129864234
0.0043110157753
0.189947903027
0.149451928224
0.100229291747
0.0727763621491
0.0555370370946
0.0445438807575
0.0368654017551
0.0310118508384
0.026131270081
0.0218496752705
0.0180724249381
0.0147618277762
0.0120591816349
0.00989374609187
0.0077235885595
0.00556196437158
0.00471695299811
0.00472501070276
0.00484430002447
0.00432860571319
0.193191642717
0.14957507303
0.100461130592
0.0733167926902
0.0562273650726
0.0452032275485
0.0373017753237
0.0312554417851
0.0262205815088
0.0218332708414
0.0179637134384
0.0146319841557
0.0119564070818
0.00982933497607
0.00769175701337
0.00555586525819
0.00471143524968
0.0047273680476
0.00484774684187
0.00429689319807
0.197897586593
0.149666785595
0.0998416004674
0.0728871399981
0.056066916524
0.0452398086289
0.0375649287199
0.031612034639
0.0265452154477
0.0220214554232
0.018059888113
0.0146723616167
0.0119614217896
0.00979834798541
0.0076470907745
0.00552402150337
0.00470036822143
0.00472097708547
0.00483105778107
0.00425398745326
0.198501739963
0.149834960533
0.0981019923228
0.0712206517316
0.0548629869251
0.044535566723
0.0371823365401
0.0314558155415
0.0265304955079
0.0221577434673
0.0182604420852
0.0148426600329
0.0120504581667
0.00983280428046
0.00765747474992
0.00551907637123
0.00469241248082
0.00470439511049
0.00479814353952
0.00425588181753
0.199698090927
0.149971239034
0.0984564938853
0.0711118712292
0.0543063681402
0.0437249116449
0.0363667439269
0.0308429510122
0.0262109854723
0.0220460845483
0.0182555793824
0.0148838041797
0.0121080569648
0.00989820081113
0.00771661009237
0.00554890145218
0.00469027481118
0.00469184153192
0.00479676397256
0.0043030579548
0.201173742018
0.150403043135
0.0996452860861
0.0718730712396
0.0547043468646
0.0438600588526
0.0363258616843
0.030616494829
0.025905548113
0.0217746315115
0.0180800854758
0.0147845882462
0.0120656617577
0.00989246437453
0.00775422956765
0.00558988965522
0.00468893220818
0.00469372493625
0.00480553235437
0.00431562640084
0.201441363075
0.151011925044
0.100015610903
0.0724458716795
0.0553976524581
0.0444983644409
0.0367316247186
0.0308407436755
0.0259878328635
0.0217521999107
0.0179607392394
0.0146447486046
0.0119563924082
0.00983153123374
0.0077295313686
0.00558681084682
0.00468407345657
0.00469119301476
0.00480499560528
0.00428996691871
0.202246075377
0.150956936465
0.0993926267755
0.0720650331532
0.0552773291829
0.0445693835664
0.0370195788258
0.0312097801605
0.026309633195
0.0219280554541
0.0180411560671
0.0146732994878
0.0119565298569
0.00979922536695
0.00768342514842
0.00555262678781
0.00467399812981
0.00468318455333
0.00478672723334
0.00424915281949
0.201620150439
0.150635979988
0.0975880538397
0.0704669900251
0.0541217080262
0.0438984067417
0.0366745448847
0.0310786231682
0.0263013421292
0.0220544323392
0.0182301549678
0.0148345552434
0.0120419520604
0.00983222519552
0.00768837285918
0.00554476882112
0.00466716843231
0.00466763343862
0.00475216741454
0.00424847438242
1e-15
1e-15
1e-15
1e-15
1e-15
1e-15
1.00655695644e-15
1.02227228392e-15
1.03753738825e-15
1.05381689663e-15
1.06987809488e-15
1.08660090695e-15
1.10547525296e-15
1.13208839525e-15
1.18164055974e-15
1.23906958685e-15
1.24959573299e-15
1.11728492797e-15
1.53083952667e-15
1e-15
7.21737765454e-15
7.39038493916e-15
7.57503349583e-15
7.76625071149e-15
7.98635045973e-15
8.18747245905e-15
8.32590095301e-15
8.44967326354e-15
8.56932533695e-15
8.69282186169e-15
8.81001633511e-15
8.92085068305e-15
9.0346524227e-15
9.17690840318e-15
9.41011580396e-15
9.72748552999e-15
9.80553099763e-15
9.28469530617e-15
9.42833940175e-15
3.46557841623e-15
1.31052351639e-14
1.31247118197e-14
1.3138860844e-14
1.32339460279e-14
1.33208728498e-14
1.3380046481e-14
1.34006581848e-14
1.34185290824e-14
1.34467821387e-14
1.34772244504e-14
1.35020520575e-14
1.35346778778e-14
1.35716662402e-14
1.36095104836e-14
1.36606414675e-14
1.3730281394e-14
1.37629996222e-14
1.36626885629e-14
1.44117849138e-14
1.05690002479e-14
1.47135630487e-14
1.46521719249e-14
1.45635256215e-14
1.45108131236e-14
1.44948121539e-14
1.45004950207e-14
1.45232315814e-14
1.45459462381e-14
1.45555946337e-14
1.45642678797e-14
1.4580616755e-14
1.45958670384e-14
1.46025144361e-14
1.46049628976e-14
1.46085517714e-14
1.46104370638e-14
1.46137693642e-14
1.46135589852e-14
1.461401327e-14
1.41447730499e-14
1.5585115312e-14
1.47786686647e-14
1.46918968799e-14
1.4582317654e-14
1.45238538434e-14
1.45032457648e-14
1.45095477832e-14
1.45249418275e-14
1.4541663528e-14
1.45528547075e-14
1.45696169723e-14
1.45833529531e-14
1.45912117093e-14
1.45925558651e-14
1.45959910863e-14
1.45967496997e-14
1.45995306259e-14
1.45868155073e-14
1.46139827031e-14
1.45043154338e-14
6.52945683568e-11
1.46463135569e-14
1.47476045811e-14
1.46463251971e-14
1.45698685316e-14
1.45194607176e-14
1.45114011933e-14
1.45166577589e-14
1.4529086211e-14
1.45448065218e-14
1.4557815517e-14
1.45678331034e-14
1.45744015138e-14
1.45801119156e-14
1.45849474252e-14
1.45869944866e-14
1.45896596413e-14
1.4571302519e-14
1.45834309371e-14
1.45377244588e-14
9.88347338794e-07
1.45991681073e-14
1.47477710525e-14
1.47222692329e-14
1.4632505996e-14
1.45668363516e-14
1.45280066394e-14
1.45138495716e-14
1.45168651683e-14
1.45292695639e-14
1.45412406674e-14
1.45484206505e-14
1.45540198117e-14
1.45619143381e-14
1.45680034858e-14
1.45727689285e-14
1.45752148535e-14
1.45560920383e-14
1.45548275591e-14
1.45389750904e-14
7.64472949928e-05
8.80314753746e-08
1.33904609653e-14
1.47278035183e-14
1.46654041538e-14
1.45927065547e-14
1.45317660389e-14
1.45113076088e-14
1.451248004e-14
1.45157549685e-14
1.45210713962e-14
1.452636442e-14
1.45332669318e-14
1.4541197579e-14
1.45500453716e-14
1.45547438087e-14
1.45591637596e-14
1.45393036896e-14
1.45350608759e-14
1.45299731841e-14
0.000441112295704
2.87058186106e-06
1.33018573083e-14
1.47269952638e-14
1.46618641508e-14
1.45857077737e-14
1.4519804513e-14
1.45079049703e-14
1.45088823919e-14
1.45094200937e-14
1.45112856156e-14
1.45126981244e-14
1.45145124411e-14
1.45210663016e-14
1.45293011556e-14
1.45366870458e-14
1.45401377803e-14
1.45207685372e-14
1.45161432974e-14
1.45124484063e-14
0.000839393247598
1.00111286557e-05
1.32256945696e-14
1.47058643875e-14
1.46390947331e-14
1.45461217275e-14
1.4507687692e-14
1.45041228632e-14
1.45050335426e-14
1.45053535308e-14
1.45053276174e-14
1.45033861772e-14
1.45005404473e-14
1.45022548097e-14
1.45080171339e-14
1.45156184789e-14
1.45198087584e-14
1.4498139723e-14
1.44933465165e-14
1.44885625675e-14
0.00104480832376
1.63343811372e-05
1.31735887567e-14
1.46886417176e-14
1.45987470078e-14
1.45142937896e-14
1.45037725578e-14
1.45005818018e-14
1.45011539043e-14
1.45003496178e-14
1.44977644656e-14
1.44935972921e-14
1.44891590052e-14
1.44859697457e-14
1.44867484756e-14
1.44911687135e-14
1.44953911301e-14
1.44697495164e-14
1.44648042854e-14
1.44584266696e-14
0.00119427166159
2.27614700914e-05
1.2909015012e-14
1.46927956705e-14
1.45902236876e-14
1.4509212055e-14
1.45013418519e-14
1.44970791083e-14
1.44964419455e-14
1.44932357985e-14
1.44881537967e-14
1.44832800316e-14
1.44778500385e-14
1.44724222455e-14
1.44683740218e-14
1.44686117478e-14
1.44689271909e-14
1.44389200311e-14
1.44336171732e-14
1.44287689653e-14
0.00135294545617
2.98015610204e-05
1.28356882245e-14
1.47296241659e-14
1.46206188456e-14
1.45103824568e-14
1.44968608255e-14
1.4491346939e-14
1.44880268627e-14
1.44818452243e-14
1.44754399112e-14
1.44695939653e-14
1.44627146546e-14
1.44555494801e-14
1.44481044412e-14
1.44411999383e-14
1.44327199154e-14
1.44037921982e-14
1.43964931028e-14
1.43871941221e-14
0.00139600036868
2.94673768392e-05
1.27670608266e-14
1.47752263428e-14
1.46928644353e-14
1.45554144154e-14
1.45016153841e-14
1.44909490896e-14
1.44842690679e-14
1.44801307268e-14
1.44766114008e-14
1.44724201309e-14
1.44670768491e-14
1.4460768253e-14
1.44543380036e-14
1.44460796668e-14
1.44310482585e-14
1.43607931727e-14
1.43436325912e-14
1.43407645244e-14
0.0013607577612
2.5637173258e-05
1.26907440751e-14
1.47776183799e-14
1.471746673e-14
1.46242947339e-14
1.45451924002e-14
1.45155427873e-14
1.45041545373e-14
1.45017659797e-14
1.45020660313e-14
1.44988671168e-14
1.44963886933e-14
1.44941101195e-14
1.44932890415e-14
1.44887573307e-14
1.44734245024e-14
1.43994564992e-14
1.43154353394e-14
1.42912176411e-14
0.00129329718159
2.11048441423e-05
1.26066836112e-14
1.47785553495e-14
1.47277064762e-14
1.465971794e-14
1.46059068504e-14
1.45755426349e-14
1.45606223735e-14
1.45544263794e-14
1.45473818732e-14
1.45367038925e-14
1.45289244096e-14
1.45220667243e-14
1.45181445678e-14
1.45193581781e-14
1.45185358759e-14
1.44735029496e-14
1.43667317258e-14
1.42276442832e-14
0.0012989318436
2.12221791307e-05
1.25246426598e-14
1.48225632819e-14
1.47586294993e-14
1.4697697093e-14
1.46558987115e-14
1.46265794642e-14
1.46097942117e-14
1.45977944758e-14
1.4585036857e-14
1.4568751245e-14
1.45544191387e-14
1.4542370132e-14
1.45308039625e-14
1.4523888544e-14
1.45182646138e-14
1.44785027352e-14
1.4362242821e-14
1.41888248018e-14
0.00136402150771
2.38790218595e-05
1.24416497438e-14
1.48255123751e-14
1.47807590058e-14
1.47109593422e-14
1.46608148158e-14
1.4625897215e-14
1.46059723536e-14
1.45946460871e-14
1.45864143762e-14
1.45838464142e-14
1.45764489949e-14
1.45628702788e-14
1.45419630821e-14
1.45157216766e-14
1.44883685455e-14
1.43783197004e-14
1.42572989834e-14
1.41717866757e-14
0.00140539617745
2.38735287793e-05
1.21060592137e-14
1.48029708988e-14
1.47597243633e-14
1.4690973073e-14
1.46363325031e-14
1.45915480179e-14
1.45664453625e-14
1.45618362315e-14
1.45615348987e-14
1.45600703452e-14
1.45516472619e-14
1.45349853576e-14
1.45083698642e-14
1.44597515701e-14
1.44079860059e-14
1.4218399167e-14
1.41599275404e-14
1.41536955146e-14
0.00137626995447
2.10992086663e-05
1.20174601276e-14
1.47169456003e-14
1.46843379982e-14
1.46190995418e-14
1.45616240614e-14
1.45137099905e-14
1.44908291206e-14
1.4494114637e-14
1.45013120956e-14
1.44972036356e-14
1.44832954537e-14
1.44603294603e-14
1.44357079036e-14
1.43901160106e-14
1.43471676968e-14
1.41606298406e-14
1.41363947431e-14
1.41412831564e-14
0.00131354860096
1.81129655298e-05
1.19280970439e-14
1.46233813858e-14
1.45939907543e-14
1.45275039609e-14
1.44700391424e-14
1.44306975052e-14
1.44173300218e-14
1.44154803563e-14
1.44354434682e-14
1.44368045188e-14
1.44254340939e-14
1.44045036217e-14
1.4381154196e-14
1.43515310807e-14
1.43223993284e-14
1.41386920589e-14
1.41275527239e-14
1.41327215713e-14
0.00132516491745
1.94566722117e-05
1.18369630324e-14
1.45690442762e-14
1.45369930227e-14
1.44639917639e-14
1.44053562333e-14
1.43729687514e-14
1.43652173077e-14
1.43564361045e-14
1.43817188692e-14
1.43869367807e-14
1.43898175831e-14
1.43789578433e-14
1.4349869902e-14
1.43151869609e-14
1.42748753713e-14
1.4121176955e-14
1.41202858587e-14
1.41244136184e-14
0.0014025686058
2.44684379328e-05
1.17493381271e-14
1.45324448669e-14
1.44987809934e-14
1.44219447918e-14
1.43593188386e-14
1.43264933376e-14
1.4323949975e-14
1.43190783843e-14
1.43382411265e-14
1.43452152475e-14
1.43499898209e-14
1.43439999899e-14
1.4311174752e-14
1.42696496209e-14
1.41980107618e-14
1.41083593091e-14
1.41115262228e-14
1.41155150133e-14
0.00146196353995
2.76432743399e-05
1.16603541127e-14
1.44798448387e-14
1.44487659856e-14
1.43727118487e-14
1.43098536936e-14
1.42797467716e-14
1.4288458757e-14
1.42919444344e-14
1.4301078884e-14
1.43107519456e-14
1.43116337248e-14
1.43050588203e-14
1.42722004108e-14
1.42379694712e-14
1.4137944771e-14
1.41000243331e-14
1.40971575279e-14
1.41025423636e-14
0.0014413706744
2.65347777792e-05
1.13184814381e-14
1.43971404016e-14
1.43727001448e-14
1.43042047482e-14
1.42537129906e-14
1.42362398834e-14
1.42545463229e-14
1.42659903937e-14
1.42708658479e-14
1.42789553276e-14
1.42790224163e-14
1.42703716294e-14
1.42470962961e-14
1.42105223917e-14
1.4116570571e-14
1.40821794618e-14
1.40796206327e-14
1.40887351099e-14
0.00138082817641
2.44686642863e-05
1.12266065072e-14
1.4299186121e-14
1.42789697828e-14
1.42278480389e-14
1.41988162997e-14
1.41962973377e-14
1.4219445116e-14
1.42396464409e-14
1.42460897494e-14
1.42523990724e-14
1.42531104949e-14
1.42437946091e-14
1.42199585827e-14
1.41820966159e-14
1.41256552884e-14
1.40619368196e-14
1.40606524081e-14
1.40706230189e-14
0.00138165428066
2.64328666337e-05
1.11271361063e-14
1.4267528223e-14
1.42385657417e-14
1.41824455973e-14
1.41557869935e-14
1.4157327546e-14
1.4182934494e-14
1.42099457837e-14
1.42228186489e-14
1.42291997962e-14
1.42274559771e-14
1.42041079285e-14
1.41714000155e-14
1.4146059278e-14
1.41215870448e-14
1.4024225669e-14
1.40250133357e-14
1.40308523741e-14
0.00144477260319
3.1745080725e-05
1.07474332702e-14
1.42523513352e-14
1.42210996979e-14
1.41553897345e-14
1.41210628797e-14
1.41208521783e-14
1.41478492711e-14
1.41782443376e-14
1.419548264e-14
1.41963315933e-14
1.41887423499e-14
1.41583391182e-14
1.41278922227e-14
1.41272864145e-14
1.40873419427e-14
1.39990708632e-14
1.40012635349e-14
1.40024702476e-14
0.00150868877559
3.53594105009e-05
1.06451421317e-14
1.42197674317e-14
1.41888084427e-14
1.4119604231e-14
1.40821679755e-14
1.40895827508e-14
1.4118578785e-14
1.41437451047e-14
1.4158462763e-14
1.414909746e-14
1.41439558131e-14
1.41204665979e-14
1.40979662182e-14
1.41070616681e-14
1.40563683074e-14
1.39782673334e-14
1.39838641844e-14
1.39842352887e-14
0.00149275566127
3.3942993768e-05
1.05454016632e-14
1.41482241655e-14
1.41261460256e-14
1.40662340926e-14
1.40387010228e-14
1.4062449405e-14
1.40908019919e-14
1.41096301719e-14
1.41153990826e-14
1.41052923288e-14
1.41092082562e-14
1.40895964779e-14
1.40698856043e-14
1.40714245337e-14
1.40107844782e-14
1.39557827954e-14
1.3967465157e-14
1.39719576848e-14
0.00143722059368
3.12372125225e-05
1.04433428512e-14
1.40554402728e-14
1.40486477857e-14
1.40071677472e-14
1.39967167022e-14
1.40324983543e-14
1.40610146551e-14
1.40768184658e-14
1.40777048143e-14
1.40769874111e-14
1.40815280741e-14
1.40570503967e-14
1.4038381015e-14
1.40284149815e-14
1.39970785542e-14
1.39386429987e-14
1.39512453963e-14
1.3958672149e-14
0.00143510272943
3.29632816868e-05
1.03414797488e-14
1.40210599842e-14
1.40071898126e-14
1.39648993901e-14
1.39578830663e-14
1.39956606885e-14
1.40295118523e-14
1.40441328778e-14
1.40414201071e-14
1.40402048192e-14
1.40335332504e-14
1.39969771737e-14
1.39764379213e-14
1.39612195392e-14
1.39647315073e-14
1.39174633388e-14
1.39325630058e-14
1.39392593054e-14
0.00149187226243
3.83878666151e-05
1.02342909835e-14
1.39988431098e-14
1.3978935149e-14
1.39317465225e-14
1.39228610816e-14
1.39543008305e-14
1.39928977727e-14
1.40100444911e-14
1.39967354053e-14
1.39847909588e-14
1.39672469254e-14
1.39238599992e-14
1.38986074562e-14
1.38830119923e-14
1.38853370147e-14
1.38471074654e-14
1.38726598464e-14
1.38795631434e-14
0.00155511239062
4.24592540276e-05
9.83112525246e-15
1.39537457089e-14
1.39369356425e-14
1.38911058983e-14
1.38905277537e-14
1.39185545009e-14
1.3953385062e-14
1.39757056087e-14
1.39548125956e-14
1.39339007169e-14
1.39176964869e-14
1.38811232696e-14
1.3857987713e-14
1.38452353774e-14
1.38230324705e-14
1.37843862964e-14
1.37977089593e-14
1.37981314155e-14
0.00154511247811
4.11923181659e-05
9.721364207e-15
1.38837164514e-14
1.38792626217e-14
1.38430692594e-14
1.38602834051e-14
1.38886723187e-14
1.39173325245e-14
1.39377100977e-14
1.39200410009e-14
1.39001848658e-14
1.38802040355e-14
1.38563308091e-14
1.38442175581e-14
1.38377628277e-14
1.3824714615e-14
1.37683548836e-14
1.37696377183e-14
1.37768849352e-14
0.00149956063018
3.84737662449e-05
9.83112525415e-15
1.38072840028e-14
1.38200008854e-14
1.37971923707e-14
1.3829078773e-14
1.38584428101e-14
1.38811751429e-14
1.38923198113e-14
1.38777515651e-14
1.38638815205e-14
1.38401158403e-14
1.38275659699e-14
1.38227377612e-14
1.38180987542e-14
1.3811036805e-14
1.37463199668e-14
1.37509706568e-14
1.3748768341e-14
0.00149889399343
4.0386538839e-05
9.72136420774e-15
1.3751515631e-14
1.37708777582e-14
1.37544536747e-14
1.37918558482e-14
1.38269065067e-14
1.38420797999e-14
1.38395192079e-14
1.38257378622e-14
1.38172414559e-14
1.37996048635e-14
1.3795496861e-14
1.37908194293e-14
1.37823296195e-14
1.37753230065e-14
1.37117782693e-14
1.37199342278e-14
1.37155802433e-14
0.00155670173874
4.66247680615e-05
1.0100966424e-10
)
;

boundaryField
{
    emptyPatch
    {
        type            empty;
    }
    minY
    {
        type            fixedValue;
        value           uniform 1e-15;
    }
    maxY
    {
        type            inletOutlet;
        phi             phi.gas;
        inletValue      nonuniform List<scalar> 0();
        value           nonuniform List<scalar> 0();
    }
    water_to_cooler
    {
        type            zeroGradient;
    }
    water_to_heater
    {
        type            zeroGradient;
    }
    procBoundary2to3
    {
        type            processor;
        value           nonuniform List<scalar> 
41
(
0.200363864347
0.150690953164
0.098060230608
0.0702056721757
0.0534799601631
0.0430739319029
0.0358734472801
0.0304833078986
0.0259859309401
0.0219425465248
0.0182298602317
0.0148918892355
0.0121109036621
0.00989869799802
0.00773663760156
0.00556938021636
0.0046657133476
0.00466626278504
0.00474388999251
0.0042958366441
1.37114996166e-14
1.37261498608e-14
1.37132554614e-14
1.37485470744e-14
1.37872693744e-14
1.3797546736e-14
1.3778599719e-14
1.37595414311e-14
1.37554442131e-14
1.37511633057e-14
1.37593218634e-14
1.37592058655e-14
1.37522150314e-14
1.37434726528e-14
1.3678400853e-14
1.3686560056e-14
1.36890158807e-14
0.00162651731857
5.1705306324e-05
1.37114996166e-14
5.48789256171e-10
)
;
    }
}


// ************************************************************************* //
