/*--------------------------------*- C++ -*----------------------------------*\
| =========                 |                                                 |
| \\      /  F ield         | OpenFOAM: The Open Source CFD Toolbox           |
|  \\    /   O peration     | Version:  2312                                  |
|   \\  /    A nd           | Website:  www.openfoam.com                      |
|    \\/     M anipulation  |                                                 |
\*---------------------------------------------------------------------------*/
FoamFile
{
    version     2.0;
    format      ascii;
    arch        "LSB;label=32;scalar=64";
    class       volScalarField;
    location    "0.35/water";
    object      p;
}
// * * * * * * * * * * * * * * * * * * * * * * * * * * * * * * * * * * * * * //

dimensions      [1 -1 -2 0 0 0 0];

internalField   nonuniform List<scalar> 
750
(
102456.61712
102454.237111
102452.002313
102449.97298
102448.172549
102446.605677
102445.255862
102444.098759
102443.120983
102442.318812
102441.687358
102441.21257
102440.869842
102440.631396
102440.484911
102440.442933
102440.528716
102440.78852
102442.479797
102405.832584
102405.466588
102404.934073
102404.190074
102403.26434
102402.258624
102401.254615
102400.305372
102399.44559
102398.696239
102398.068691
102397.562516
102397.161264
102396.840809
102396.584012
102396.383457
102396.238345
102396.14674
102396.029794
102348.61819
102348.047322
102347.628969
102347.114494
102346.4995
102345.815603
102345.10436
102344.404794
102343.749429
102343.160237
102342.64885
102342.219607
102341.867559
102341.582525
102341.357309
102341.188223
102341.071284
102341.000485
102340.935846
102280.902556
102280.162246
102279.719819
102279.404874
102279.15651
102278.910316
102278.648411
102278.36926
102278.084836
102277.812578
102277.565138
102277.349921
102277.168327
102277.018789
102276.899917
102276.810266
102276.747582
102276.708757
102276.672382
102204.851798
102207.035129
102207.961357
102208.247307
102208.306694
102208.309993
102208.309768
102208.298461
102208.265661
102208.21759
102208.163765
102208.112352
102208.066768
102208.027308
102207.994193
102207.968538
102207.950172
102207.938083
102207.921617
102133.861936
102135.786435
102136.985927
102137.610871
102138.031847
102138.235394
102138.301255
102138.342222
102138.382926
102138.421842
102138.449537
102138.465023
102138.472701
102138.475586
102138.474922
102138.472775
102138.469189
102138.463296
102138.453158
102065.894146
102065.505737
102066.059129
102066.649706
102067.175329
102067.735954
102068.294109
102068.73258
102069.087896
102069.397773
102069.665642
102069.889962
102070.072802
102070.216626
102070.324002
102070.399202
102070.442948
102070.455209
102070.454417
101982.673765
101988.897696
101992.973135
101996.045967
101998.56298
102000.623026
102002.258823
102003.596941
102004.769612
102005.803352
102006.695068
102007.452227
102008.08347
102008.592898
102008.985559
102009.268559
102009.437907
102009.498199
102009.542251
101942.47319
101949.302191
101954.009154
101957.210954
101959.680497
101961.71518
101963.381341
101964.713193
101965.83434
101966.803577
101967.627176
101968.300139
101968.840544
101969.265742
101969.588545
101969.813286
101969.908815
101969.881396
101970.086303
101919.839733
101924.499663
101928.052279
101930.462573
101932.144186
101933.531257
101934.687854
101935.648224
101936.497356
101937.26942
101937.964956
101938.575227
101939.093473
101939.523407
101939.856915
101940.093477
101940.243258
101940.273622
101940.605314
101893.169785
101896.153753
101899.124688
101901.5934
101903.383284
101904.5347
101905.319156
101906.030101
101906.697437
101907.312981
101907.885149
101908.436963
101908.970391
101909.45661
101909.831736
101910.078482
101910.392895
101910.846311
101910.85077
101911.174549
101865.450152
101869.793952
101874.61369
101879.095233
101883.003118
101886.153602
101888.505932
101890.173623
101891.378981
101892.370201
101893.222752
101893.91986
101894.446345
101894.811631
101895.198236
101895.823303
101896.42585
101896.65474
101896.516622
101896.740163
101846.385085
101850.238792
101854.932717
101859.767802
101864.164763
101868.126357
101871.503295
101874.133843
101876.033069
101877.36249
101878.359751
101879.05729
101879.455903
101880.194705
101880.906831
101881.280055
101881.517532
101881.586849
101881.395667
101881.741934
101843.191971
101845.895654
101847.806803
101850.284672
101853.085553
101855.776151
101858.289682
101860.536886
101862.361951
101863.662196
101864.505671
101864.75303
101865.218273
101866.067024
101866.476905
101866.774154
101866.946119
101866.956461
101866.71013
101867.300575
101834.310968
101837.305642
101838.552416
101840.186339
101842.323916
101844.623811
101846.866076
101849.01858
101850.977998
101852.499296
101853.411183
101853.864883
101854.510949
101855.024709
101855.502644
101855.887794
101856.165738
101856.292243
101856.065841
101857.003692
101816.411409
101819.55694
101821.230002
101823.475528
101826.00637
101828.564035
101831.082354
101833.540702
101835.867545
101837.904424
101839.466343
101840.491165
101840.969669
101841.565443
101842.481557
101843.401474
101844.091347
101844.456817
101844.335279
101845.784027
101794.303372
101796.187053
101797.903194
101800.344474
101802.741307
101804.890491
101806.856689
101808.679866
101810.323999
101811.688328
101812.442947
101812.478747
101812.588291
101813.378187
101814.217825
101815.280966
101816.320003
101816.893315
101816.810157
101818.862338
101781.509144
101781.486831
101781.688708
101783.205715
101784.7349
101785.948335
101786.985919
101787.972292
101788.882824
101789.447185
101789.367909
101788.699813
101788.568343
101789.905744
101790.539899
101790.893367
101791.468979
101791.907819
101791.856499
101793.927564
101774.259598
101771.37674
101769.462567
101769.294061
101769.199695
101768.546062
101767.547639
101766.686595
101766.008074
101765.275848
101764.232979
101762.856472
101763.428812
101764.435009
101764.594824
101764.47094
101764.311175
101764.029516
101763.663704
101765.048282
101760.400343
101754.244278
101749.684663
101747.699827
101745.880367
101743.418247
101740.564059
101737.843894
101735.604727
101733.698785
101731.235225
101730.844569
101732.079143
101732.08825
101731.625712
101731.139682
101730.711178
101730.218256
101729.675757
101730.752553
101725.947001
101714.776408
101707.439554
101703.276484
101699.650105
101696.18581
101692.648497
101688.744292
101685.268173
101682.578151
101679.072123
101678.590401
101681.11103
101680.308131
101679.435264
101678.750132
101678.100882
101677.487845
101676.950582
101677.811361
101609.474864
101600.383497
101599.591595
101600.901522
101602.193323
101602.954303
101602.390318
101600.745241
101598.944972
101597.305084
101595.118862
101590.789165
101593.503607
101597.85251
101597.938529
101597.843031
101597.747061
101597.495784
101597.20421
101597.928609
101528.750883
101519.986124
101520.837511
101522.35793
101524.088084
101525.385237
101525.429458
101524.686864
101523.810216
101522.974409
101521.876815
101520.120626
101516.474346
101515.154452
101524.053643
101526.752693
101527.927431
101528.480234
101528.625786
101529.267184
101477.323167
101472.762588
101474.212433
101475.742813
101477.423902
101478.92581
101480.111764
101481.141243
101482.565839
101484.253443
101485.519269
101485.908162
101485.306177
101483.323129
101479.542304
101484.166663
101494.3228
101498.583655
101500.036064
101501.285852
101402.934071
101405.749916
101409.176859
101412.009553
101414.571337
101416.794037
101418.918873
101420.839649
101422.710012
101424.825964
101426.960193
101428.10469
101427.987606
101426.969335
101424.442617
101420.581509
101416.967175
101416.516252
101415.518942
101420.551002
101326.475908
101344.394861
101347.610409
101349.706252
101351.809988
101353.581631
101353.735209
101350.406629
101344.721538
101338.362493
101330.145272
101324.877784
101323.867643
101323.556629
101323.548431
101323.539907
101323.527524
101323.518894
101323.516412
101317.538113
101330.538305
101343.658331
101346.905855
101348.720183
101350.141521
101349.513835
101344.930745
101337.574861
101327.697379
101319.32699
101318.948765
101318.942825
101318.958214
101318.994537
101319.028937
101319.060275
101319.088797
101319.10989
101319.116905
101305.384844
101313.918984
101312.182808
101313.978716
101314.568499
101315.373085
101315.426686
101314.868178
101313.964106
101314.037508
101315.33532
101315.351144
101315.370775
101315.384049
101315.395395
101315.408126
101315.423868
101315.439285
101315.451937
101315.457401
101305.313143
101335.757241
101326.137674
101321.595036
101318.34048
101315.163759
101312.692242
101311.165851
101310.391289
101311.316562
101312.157045
101312.147932
101312.139274
101312.134072
101312.132084
101312.134216
101312.138935
101312.144129
101312.147761
101310.393498
101307.585397
101300.06261
101302.430862
101304.621966
101306.117326
101306.800505
101306.970411
101306.92328
101307.130165
101308.191995
101308.936991
101308.923552
101308.915913
101308.910342
101308.908662
101308.910489
101308.915225
101308.919926
101308.922734
101303.75521
101305.608367
101282.290243
101303.237107
101310.040017
101311.987058
101311.611054
101310.028892
101308.225459
101306.994141
101306.230076
101305.968586
101305.86675
101305.864925
101305.865531
101305.869252
101305.876731
101305.885544
101305.895405
101305.903227
101301.725751
101304.848748
101259.488734
101276.164487
101291.302364
101296.776443
101296.431645
101295.623489
101297.082202
101299.754735
101301.900641
101303.060386
101303.158532
101303.160242
101303.157498
101303.157579
101303.160295
101303.166037
101303.171961
101302.160245
101301.689845
101303.867373
101254.06049
101265.090671
101279.573809
101291.00775
101296.52122
101298.403154
101299.74654
101300.925027
101301.460746
101301.422615
101300.948512
101300.545813
101300.447598
101300.455579
101300.461719
101300.466974
101300.200326
101300.190407
101299.928698
101302.752853
101217.581351
101217.224206
101229.718512
101244.838427
101254.142323
101259.531556
101264.365338
101269.247064
101273.695562
101277.736963
101281.091719
101283.603874
101285.231181
101286.189529
101286.774032
101287.449104
101288.762807
101290.043499
101289.467382
101293.100613
101223.421103
101203.781112
101218.76911
101232.633928
101243.258467
101253.22971
101262.299724
101269.098642
101273.401845
101276.014487
101277.454429
101278.380193
101279.092234
101279.611284
101280.00949
101280.46705
101281.022887
101281.358419
101280.680765
101284.678179
101218.694372
101219.283657
101215.94262
101200.808793
101189.266446
101187.915697
101195.113707
101205.316099
101214.009089
101219.044015
101219.320237
101215.02552
101206.969046
101196.285101
101184.198344
101171.986283
101160.727955
101150.718214
101142.202846
101141.486393
100973.210033
100980.25506
100969.696925
100953.80976
100940.307828
100931.541577
100927.955853
100927.489515
100928.301326
100929.112508
100928.415067
100925.388314
100919.790213
100911.693018
100901.585353
100890.302978
100879.355602
100870.415737
100862.341612
100860.354618
100189.207576
100195.74366
100210.629586
100250.180497
100316.698346
100369.806633
100413.832019
100449.656706
100478.430387
100501.459726
100519.749519
100534.154027
100545.302515
100553.639366
100559.520003
100562.736718
100562.690281
100560.519485
100557.193586
100554.945883
)
;

boundaryField
{
    emptyPatch
    {
        type            empty;
    }
    minY
    {
        type            calculated;
        value           nonuniform List<scalar> 
19
(
102468.543412
102466.561576
102464.601969
102462.756534
102461.073273
102459.579297
102458.274353
102457.144384
102456.182364
102455.38894
102454.762216
102454.289958
102453.948539
102453.710745
102453.564554
102453.522896
102453.608716
102453.86852
102455.559797
)
;
    }
    maxY
    {
        type            calculated;
        value           nonuniform List<scalar> 0();
    }
    maxX
    {
        type            calculated;
        value           nonuniform List<scalar> 
38
(
102442.479797
102396.029794
102340.935846
102276.672382
102207.921617
102138.453158
102070.454417
102009.542251
101970.086303
101940.605314
101911.174549
101896.740163
101881.741934
101867.300575
101857.003692
101845.784027
101818.862338
101793.927563
101765.048282
101730.752552
101677.811361
101597.928608
101529.267183
101501.285852
101420.551001
101317.538111
101305.384842
101305.313142
101307.585395
101305.608365
101304.848746
101303.86737
101302.752849
101293.100609
101284.678174
101141.486385
100860.354606
100554.945859
)
;
    }
    water_to_heater
    {
        type            calculated;
        value           nonuniform List<scalar> 0();
    }
    procBoundary1to0
    {
        type            processor;
        value           nonuniform List<scalar> 
38
(
101892.263566
101862.586649
101842.497977
101838.796975
101829.156766
101812.615541
101793.491162
101781.600575
101775.393637
101764.728872
101738.17225
101614.577487
101533.774351
101482.786754
101405.353161
101370.569898
101340.774137
101332.996415
101344.201453
101303.405203
101178.701113
101248.822698
101240.163126
101204.381302
101223.650697
101113.637735
100954.858271
102459.12428
102404.864764
102349.231817
102281.878276
102201.888139
102132.280463
102066.741813
101973.892186
101934.249041
101914.666598
101914.666598
)
;
    }
    procBoundary1to2
    {
        type            processor;
        value           nonuniform List<scalar> 
20
(
100175.530014
100175.378984
100175.301711
100175.295678
100173.785754
100191.201216
100226.919296
100257.443425
100283.945174
100307.182593
100327.557195
100345.430213
100361.07928
100374.771094
100386.809256
100396.515413
100401.308035
100401.661681
100399.850676
100397.996885
)
;
    }
    procBoundary1to3
    {
        type            processor;
        value           uniform 100189.23505;
    }
}


// ************************************************************************* //
