/*--------------------------------*- C++ -*----------------------------------*\
| =========                 |                                                 |
| \\      /  F ield         | OpenFOAM: The Open Source CFD Toolbox           |
|  \\    /   O peration     | Version:  2312                                  |
|   \\  /    A nd           | Website:  www.openfoam.com                      |
|    \\/     M anipulation  |                                                 |
\*---------------------------------------------------------------------------*/
FoamFile
{
    version     2.0;
    format      ascii;
    arch        "LSB;label=32;scalar=64";
    class       surfaceScalarField;
    location    "0.8/water";
    object      phi.gas;
}
// * * * * * * * * * * * * * * * * * * * * * * * * * * * * * * * * * * * * * //

dimensions      [0 3 -1 0 0 0 0];

oriented        oriented;

internalField   nonuniform List<scalar> 
11810
(
3.40894933882e-07
3.16158116165e-07
2.35575434028e-07
2.09569193102e-07
3.10858168521e-07
1.92204484818e-07
2.87788019722e-07
1.81422522816e-07
3.00652873936e-07
1.83608886078e-07
2.91922768326e-07
1.87688404271e-07
2.43512038658e-07
1.94094432488e-07
1.99773230689e-07
2.10243184128e-07
2.12275245032e-07
3.4126311419e-07
1.81934854031e-07
4.23187841443e-07
1.62960202671e-07
4.49000745501e-07
1.44177065547e-07
4.72912781005e-07
1.26595426143e-07
4.98065579953e-07
1.09893898897e-07
5.24447550135e-07
9.39557950461e-08
5.52103892276e-07
7.86578830101e-08
5.81052752823e-07
6.38852439234e-08
6.11308530356e-07
4.95244550237e-08
6.42885230434e-07
3.55595727485e-08
6.75793759401e-07
7.10043937012e-07
2.20950319356e-08
1.3830033702e-07
3.35157510712e-07
2.40655618867e-07
2.62846530925e-07
2.37334607858e-07
2.40565454127e-07
2.71226667875e-07
2.33510365302e-07
2.72633312752e-07
2.34152662489e-07
2.7674545946e-07
2.40211641996e-07
2.638838283e-07
2.49280862247e-07
2.33646051885e-07
2.62614226506e-07
1.19232466629e-07
3.14534609789e-07
5.05028468696e-08
3.61598595463e-07
4.23715036304e-08
3.75841802752e-07
3.65955456846e-08
3.92601138962e-07
3.14846504629e-08
4.10356777606e-07
2.6804634993e-08
4.29099203303e-07
2.24302670228e-08
4.4888119082e-07
1.83205017939e-08
4.69775988712e-07
1.44649243367e-08
4.91857198864e-07
1.08498187568e-08
5.15194548169e-07
7.460078609e-09
5.3985624906e-07
5.65915383334e-07
4.30590751497e-09
1.58597947866e-07
4.0663431163e-07
2.03202845693e-07
3.20312475852e-07
2.14788743487e-07
2.86237267753e-07
2.3196188412e-07
2.74247230524e-07
2.39416963088e-07
2.72760264782e-07
2.4216827248e-07
2.76707214143e-07
2.395456337e-07
2.84338719516e-07
2.24681150761e-07
2.95886300313e-07
1.69538753523e-07
3.27299704683e-07
4.7768781337e-08
3.67769935413e-07
3.05294343455e-08
3.90361306503e-07
2.78881320713e-08
4.08687899941e-07
2.51226469461e-08
4.27906492076e-07
2.23971416523e-08
4.48112387559e-07
1.96141318471e-08
4.69317784453e-07
1.66964304486e-08
4.91578248042e-07
1.36332024771e-08
5.1497209881e-07
1.04507449422e-08
5.39586697391e-07
7.20867191891e-09
5.65512360613e-07
5.92842801176e-07
4.04213355673e-09
2.17583037206e-07
4.39495371196e-07
2.34213766403e-07
3.67536061788e-07
2.37560715701e-07
3.21459625697e-07
2.40591419636e-07
3.03749946454e-07
2.37282595327e-07
2.98972274413e-07
2.31479891268e-07
3.00942669736e-07
2.23695327978e-07
3.06961296247e-07
2.11330906704e-07
3.16531541087e-07
1.85406749837e-07
3.36663200168e-07
8.66196942211e-08
3.64919060771e-07
1.92642132959e-08
3.88514130467e-07
1.77856731011e-08
4.06951390723e-07
1.63964142544e-08
4.26282426104e-07
1.47962972934e-08
4.46612303851e-07
1.30943623209e-08
4.67921100394e-07
1.12419774346e-08
4.9024111235e-07
9.19457679598e-09
5.13637161057e-07
6.94384331928e-09
5.38194565919e-07
4.53588248549e-09
5.64011371699e-07
5.91194760581e-07
2.1253982922e-09
2.55736359709e-07
4.56616569883e-07
2.71955348397e-07
4.01661997647e-07
2.66795337261e-07
3.53716307922e-07
2.63740410626e-07
3.2859557243e-07
2.54161653186e-07
3.20060258502e-07
2.4103296711e-07
3.1959350866e-07
2.25450016011e-07
3.23859071355e-07
2.08524499425e-07
3.3166266566e-07
1.86428973297e-07
3.46081350092e-07
1.36849436983e-07
3.67308390135e-07
2.44212261413e-08
3.89168611442e-07
1.3451001707e-08
4.07982865121e-07
1.21321013762e-08
4.27610187207e-07
1.05317508711e-08
4.48199015958e-07
8.89574864229e-09
4.69768847834e-07
7.23999847567e-09
4.92340510664e-07
5.51806529134e-09
5.15967146738e-07
3.6930505921e-09
5.40726169893e-07
1.77945980292e-09
5.66712886302e-07
5.9403506745e-07
-8.08735887559e-11
2.83066154876e-07
4.61944971861e-07
3.00061963417e-07
4.23948979783e-07
2.90110838637e-07
3.83122968157e-07
2.83575126829e-07
3.52322119001e-07
2.739803171e-07
3.39037793868e-07
2.5962706912e-07
3.35681092688e-07
2.40029128342e-07
3.37948126997e-07
2.17237962314e-07
3.43972840373e-07
1.92485368015e-07
3.54816129256e-07
1.59541471391e-07
3.71151466204e-07
5.81144330141e-08
3.90595613451e-07
1.28883460037e-08
4.09399956235e-07
1.06252865702e-08
4.29094138125e-07
8.34084455651e-09
4.49675691032e-07
6.20399003015e-09
4.71267822124e-07
4.25289102108e-09
4.93878951507e-07
2.43787717362e-09
5.17553283756e-07
6.99263835269e-10
5.42360505237e-07
-9.81384086688e-10
5.6839016168e-07
5.95748448612e-07
-2.49288000763e-09
2.924675918e-07
4.6456843103e-07
3.0819733552e-07
4.38129031879e-07
2.98673555406e-07
4.0600211078e-07
2.88532161992e-07
3.76218908275e-07
2.80583543043e-07
3.57138334657e-07
2.70210500744e-07
3.50682791863e-07
2.53136185676e-07
3.50761489856e-07
2.29199292604e-07
3.5485536189e-07
2.01853002674e-07
3.62993665167e-07
1.70736184999e-07
3.75855135231e-07
1.08915046634e-07
3.92613249221e-07
1.35333785534e-08
4.12296736236e-07
8.05813401559e-09
4.31400845116e-07
5.21004332126e-09
4.51738454113e-07
2.71848542614e-09
4.73148968266e-07
5.96895068951e-10
4.95627567908e-07
-1.21915867275e-09
5.19211102569e-07
-2.8098330041e-09
5.43960009993e-07
-4.21101077823e-09
5.69956778399e-07
5.97298145662e-07
-5.37456893475e-09
2.8584946857e-07
4.71361108933e-07
2.96556682773e-07
4.5065252267e-07
2.89060677756e-07
4.24438410795e-07
2.78117893082e-07
3.97709171572e-07
2.71689007228e-07
3.7533928108e-07
2.66024157662e-07
3.64720921608e-07
2.54802485022e-07
3.62437680474e-07
2.34571935297e-07
3.64474050547e-07
2.07483891676e-07
3.70175344088e-07
1.77169185221e-07
3.80211895023e-07
1.36846658777e-07
3.94444674374e-07
2.31901966844e-08
4.12661730733e-07
1.45041029124e-10
4.33435948106e-07
-2.12680899196e-09
4.53509297179e-07
-3.99754511934e-09
4.74652021234e-07
-5.49361137063e-09
4.96938054158e-07
-6.68045007503e-09
5.20389449685e-07
-7.62971272291e-09
5.45056996071e-07
-8.39671348116e-09
5.71011169474e-07
5.98338491697e-07
-8.96598161089e-09
2.89726309797e-07
4.8060425098e-07
2.94631803006e-07
4.62179387997e-07
2.79292273885e-07
4.40013890055e-07
2.66299261887e-07
4.16249285588e-07
2.57603231392e-07
3.940609808e-07
2.53904411358e-07
3.78485975915e-07
2.47873363312e-07
3.73041718864e-07
2.32831457735e-07
3.72729174612e-07
2.08275667739e-07
3.76048816858e-07
1.79305913241e-07
3.83487748129e-07
1.45643240353e-07
3.95452431016e-07
7.0129364037e-08
4.11638148919e-07
-1.44607660054e-08
4.33875799915e-07
-1.46628434778e-08
4.53854798104e-07
-1.45319375463e-08
4.74880231609e-07
-1.43018317751e-08
4.97103133684e-07
-1.4005446716e-08
5.20546709725e-07
-1.36787349646e-08
5.45249583792e-07
-1.33518539305e-08
5.7127090469e-07
5.986874483e-07
-1.29901913203e-08
2.87869655308e-07
4.90598344968e-07
2.8443231113e-07
4.70123893325e-07
2.66929106165e-07
4.50399627397e-07
2.53316559526e-07
4.30114545728e-07
2.44151512659e-07
4.09814828512e-07
2.4035952634e-07
3.92054320126e-07
2.37456376042e-07
3.82062054125e-07
2.28053629756e-07
3.79378781148e-07
2.07604870228e-07
3.80495740067e-07
1.79865308456e-07
3.85561421403e-07
1.49879616104e-07
3.95448290402e-07
1.06500320196e-07
4.0985555297e-07
-1.95616716407e-08
4.28817751917e-07
-2.97911533971e-08
4.51969445055e-07
-2.65640139782e-08
4.73090046317e-07
-2.3815929939e-08
4.95599462235e-07
-2.14946186527e-08
5.1932753388e-07
-1.95369384586e-08
5.44311182812e-07
-1.78945660848e-08
5.70605774824e-07
5.98283030396e-07
-1.64850831608e-08
2.79486332995e-07
4.96027317228e-07
2.78840728842e-07
4.73749763515e-07
2.64056711698e-07
4.56394401731e-07
2.51154865015e-07
4.4014527311e-07
2.42069496527e-07
4.23141218235e-07
2.36773109514e-07
4.06101847548e-07
2.34342689763e-07
3.92217213249e-07
2.28991560077e-07
3.86139349161e-07
2.12994710222e-07
3.84980517263e-07
1.86773108332e-07
3.87762608245e-07
1.57489268697e-07
3.95483166672e-07
1.24260762438e-07
4.08286483551e-07
4.89479175468e-08
4.25535690092e-07
-4.06484183782e-08
4.46620258014e-07
-3.47069147959e-08
4.69624420891e-07
-2.98708022231e-08
4.92757554976e-07
-2.59392427026e-08
5.17061899455e-07
-2.27432931183e-08
5.42559860559e-07
-2.01545891883e-08
5.69313453155e-07
5.9739879878e-07
-1.80359831239e-08
2.76941723182e-07
4.96797348283e-07
2.81979489217e-07
4.75448547063e-07
2.70030901825e-07
4.60596257177e-07
2.59057080542e-07
4.48355628239e-07
2.5140670019e-07
4.35222215136e-07
2.47170079156e-07
4.20318517171e-07
2.44431686156e-07
4.05631291726e-07
2.40458336547e-07
3.95552661588e-07
2.28331855414e-07
3.91909822366e-07
2.04007073961e-07
3.92223680197e-07
1.73458747793e-07
3.97375992585e-07
1.43884880889e-07
4.08234381183e-07
1.02069152246e-07
4.23936432604e-07
-2.04888096442e-08
4.43506106511e-07
-3.34010501864e-08
4.66215151252e-07
-2.83700946888e-08
4.89946541333e-07
-2.43176941965e-08
5.14844679888e-07
-2.10766675177e-08
5.40872433307e-07
-1.8510101812e-08
5.68102060921e-07
5.96610157958e-07
-1.6468857173e-08
2.65910406572e-07
4.98943683558e-07
2.73618165904e-07
4.76914857453e-07
2.64973055205e-07
4.63298170352e-07
2.59127503031e-07
4.54003181636e-07
2.56921667718e-07
4.44485425979e-07
2.5801204607e-07
4.32661337098e-07
2.58406093517e-07
4.19630577289e-07
2.56395384264e-07
4.07977347583e-07
2.47488097145e-07
4.01854607962e-07
2.25997909455e-07
3.99715974163e-07
1.95608515739e-07
4.01976613311e-07
1.65213165634e-07
4.10406523019e-07
1.33540929639e-07
4.24637855945e-07
6.77147638603e-08
4.43290439849e-07
-2.20788031277e-08
4.63024513412e-07
-1.85854282554e-08
4.88408125789e-07
-1.60283056467e-08
5.13673724273e-07
-1.40695991699e-08
5.40091438908e-07
-1.26266825825e-08
5.67681027281e-07
5.96510512883e-07
-1.15730061001e-08
2.60025145314e-07
4.97833655668e-07
2.72784123262e-07
4.76090278244e-07
2.5941812234e-07
4.65063909637e-07
2.56183507554e-07
4.58084950356e-07
2.59353494593e-07
4.51369446027e-07
2.66655220449e-07
4.42537259203e-07
2.72175768326e-07
4.32287360944e-07
2.72373494983e-07
4.22075605585e-07
2.64738422726e-07
4.14357048343e-07
2.45682504576e-07
4.10072835317e-07
2.17044337663e-07
4.09483387364e-07
1.86841120084e-07
4.15177951048e-07
1.6110023525e-07
4.27629552954e-07
1.22880372004e-07
4.45184625543e-07
9.96753373859e-09
4.64132119003e-07
-2.43232550925e-09
4.88230969474e-07
-2.54917364736e-09
5.14016155643e-07
-2.91148296712e-09
5.40698040525e-07
-3.49498807763e-09
5.68508182534e-07
5.97511577693e-07
-4.20004569934e-09
2.52791813626e-07
4.9820653915e-07
2.70836547723e-07
4.7534560053e-07
2.54681363053e-07
4.6645209949e-07
2.53237022573e-07
4.61320227217e-07
2.60330355171e-07
4.56844680008e-07
2.73212193068e-07
4.51029777125e-07
2.83794127008e-07
4.44176311185e-07
2.86012264058e-07
4.36868564947e-07
2.77927787913e-07
4.29455968296e-07
2.59430446444e-07
4.23341309555e-07
2.33165224108e-07
4.20264022096e-07
2.05360059107e-07
4.23228236303e-07
1.81411327242e-07
4.33477665598e-07
1.5368397082e-07
4.4984585608e-07
7.94333593099e-08
4.69903261739e-07
1.77517126562e-08
4.89891715825e-07
1.39360924274e-08
5.16355423916e-07
1.03372640893e-08
5.43091217251e-07
7.00872009098e-09
5.70907003479e-07
5.99865194072e-07
3.98258561443e-09
2.41584453825e-07
5.01922207846e-07
2.62826555134e-07
4.7660468823e-07
2.47843689709e-07
4.6865598437e-07
2.5038388849e-07
4.65064205234e-07
2.62003809623e-07
4.62779952791e-07
2.79541363089e-07
4.6005183936e-07
2.93441139135e-07
4.56998043203e-07
2.96202815777e-07
4.53112357271e-07
2.86070833463e-07
4.47115300226e-07
2.66530886973e-07
4.39726127179e-07
2.42171313832e-07
4.34595396775e-07
2.17291579706e-07
4.34963136193e-07
1.94704432363e-07
4.42572157357e-07
1.72002697761e-07
4.57068039732e-07
1.27007131772e-07
4.76357702268e-07
3.7956830366e-08
4.94331017555e-07
2.96116980995e-08
5.21158474807e-07
2.23091505967e-08
5.47546844472e-07
1.59765503617e-08
5.75001336445e-07
6.03587666946e-07
1.05072509508e-08
2.28025566541e-07
5.12348572944e-07
2.52776286657e-07
4.82428512329e-07
2.41724339499e-07
4.73484618522e-07
2.4915579101e-07
4.70936876569e-07
2.64825597133e-07
4.70918671558e-07
2.84832591827e-07
4.71296357094e-07
2.98661905434e-07
4.71806722764e-07
2.99330341404e-07
4.71047096714e-07
2.86850099764e-07
4.66839497863e-07
2.66326992609e-07
4.58852463928e-07
2.42982498455e-07
4.5182156584e-07
2.19941512997e-07
4.49655825793e-07
1.98426885132e-07
4.54307778992e-07
1.78173905965e-07
4.66186502939e-07
1.4418452578e-07
4.83830496039e-07
5.34498846302e-08
5.01612505197e-07
3.82752377249e-08
5.2816926142e-07
2.81079929507e-08
5.53710996803e-07
1.95458745815e-08
5.80367391719e-07
6.0822513249e-07
1.23310029362e-08
2.13094587701e-07
5.30564633869e-07
2.40058415549e-07
4.93317032681e-07
2.34017870326e-07
4.81549697142e-07
2.45370819637e-07
4.79247072829e-07
2.63154707861e-07
4.8127381062e-07
2.82601106202e-07
4.84455814471e-07
2.94056619157e-07
4.8783978524e-07
2.92653079926e-07
4.89563526336e-07
2.79164955734e-07
4.8702986279e-07
2.58071243529e-07
4.79120010482e-07
2.34542788312e-07
4.69931294301e-07
2.12007017114e-07
4.65424315119e-07
1.90803424823e-07
4.67023504273e-07
1.69325574732e-07
4.7562252588e-07
1.38465213035e-07
4.90657865498e-07
5.90057880618e-08
5.10367128482e-07
3.36294638493e-08
5.35693260585e-07
2.29792170574e-08
5.60249597631e-07
1.41485020595e-08
5.85835729023e-07
6.12747380012e-07
6.78492141839e-09
2.18864528221e-07
5.46661965672e-07
2.52372926484e-07
5.0650216243e-07
2.38789442485e-07
4.93896819159e-07
2.45216967064e-07
4.91634477312e-07
2.58908725005e-07
4.94850783212e-07
2.74989441481e-07
4.99702990315e-07
2.83684008453e-07
5.04671969718e-07
2.80335994599e-07
5.0767274881e-07
2.65844183655e-07
5.05976519978e-07
2.43479781542e-07
4.9838845412e-07
2.18587557431e-07
4.87342773716e-07
1.95312272532e-07
4.79623835321e-07
1.72946223022e-07
4.78369551146e-07
1.48454416613e-07
4.83218970506e-07
1.16866030656e-07
4.94673266153e-07
5.77200299574e-08
5.12861462088e-07
1.29966566328e-08
5.42078338857e-07
4.70286646602e-09
5.65280200332e-07
-1.82970663242e-09
5.89774899935e-07
6.15773558603e-07
-7.24384842008e-09
2.37603517505e-07
5.59016835015e-07
2.74594729397e-07
5.21970356108e-07
2.52508531977e-07
5.11445448853e-07
2.49138520564e-07
5.10284887293e-07
2.55056214888e-07
5.13419015842e-07
2.64891840862e-07
5.1749514115e-07
2.6819635172e-07
5.2149084918e-07
2.6154849846e-07
5.23412143426e-07
2.4654552652e-07
5.20734721744e-07
2.25297520094e-07
5.12671095084e-07
2.00514114353e-07
5.01174088583e-07
1.75800323489e-07
4.90638413112e-07
1.50366898833e-07
4.85201811234e-07
1.21115152024e-07
4.86437929474e-07
8.81222235077e-08
4.93978175774e-07
4.49247974743e-08
5.0928410809e-07
-2.30585974316e-08
5.38360907045e-07
-2.56353304789e-08
5.66437705591e-07
-2.73504367063e-08
5.90476873934e-07
6.15923989023e-07
-2.87257608261e-08
2.62187323878e-07
5.68334002522e-07
2.92837534924e-07
5.38766936474e-07
2.61288687684e-07
5.33296271901e-07
2.43262894183e-07
5.34536310353e-07
2.3637634903e-07
5.356282658e-07
2.36398043993e-07
5.35420540229e-07
2.3418727972e-07
5.3530405931e-07
2.27290513651e-07
5.33707010379e-07
2.1677781808e-07
5.28140581866e-07
2.03268062294e-07
5.18518166536e-07
1.85048018503e-07
5.07540022876e-07
1.6133639364e-07
4.97217988479e-07
1.33149297811e-07
4.88323432602e-07
9.85478067855e-08
4.84130198671e-07
6.24040873123e-08
4.88405891287e-07
2.51198250871e-08
5.0127190438e-07
-4.91389944586e-08
5.24230047197e-07
-6.32240239687e-08
5.64038566131e-07
-5.84883492219e-08
5.86696700272e-07
6.12332372631e-07
-5.43738228295e-08
2.78087018855e-07
5.73077947479e-07
2.80579735813e-07
5.53647175923e-07
2.36450996042e-07
5.54593661523e-07
2.03681630334e-07
5.59077300113e-07
1.87056258256e-07
5.56487080266e-07
1.82910825423e-07
5.49366411769e-07
1.82245240646e-07
5.43152851876e-07
1.82061808008e-07
5.36868036221e-07
1.82630156574e-07
5.27824957882e-07
1.81098136271e-07
5.16499500008e-07
1.7146089312e-07
5.06032627708e-07
1.52664397653e-07
4.9780027895e-07
1.2742392206e-07
4.89889504737e-07
9.37047430872e-08
4.80336467521e-07
5.34186405629e-08
4.80872476677e-07
1.84352993638e-08
4.91654782968e-07
-2.45458856735e-08
5.11904919099e-07
-9.96470362595e-08
5.46648497038e-07
-8.87503465248e-08
5.78868260946e-07
6.0539154466e-07
-7.91370908281e-08
2.66449892401e-07
5.80778916248e-07
2.31453775515e-07
5.69100598059e-07
1.83327212988e-07
5.73460944671e-07
1.49268189235e-07
5.79352815451e-07
1.33929897933e-07
5.72401706339e-07
1.3343183575e-07
5.58085379642e-07
1.39319334386e-07
5.45473292126e-07
1.48191932338e-07
5.344895122e-07
1.580167482e-07
5.22506342455e-07
1.64977437852e-07
5.10163489364e-07
1.64538578666e-07
5.01097251922e-07
1.52966411875e-07
4.94928188423e-07
1.3246369518e-07
4.89631813893e-07
1.04555782619e-07
4.7977001961e-07
6.65113097749e-08
4.75019929879e-07
3.13524655881e-08
4.8336400485e-07
1.80866206131e-10
5.02065819987e-07
-9.54512642814e-08
5.29448331787e-07
-1.11788692178e-07
5.7044860301e-07
5.96466182903e-07
-9.80798769969e-08
2.53905230052e-07
5.91875801265e-07
2.0177617246e-07
5.84541441215e-07
1.56752893143e-07
5.90421604541e-07
1.28136774955e-07
5.95840968567e-07
1.15375105908e-07
5.85408284179e-07
1.17190361758e-07
5.65097207974e-07
1.26956550004e-07
5.46705170002e-07
1.40495656346e-07
5.31543950413e-07
1.55379748587e-07
5.17372317823e-07
1.6824468263e-07
5.05015648792e-07
1.72290040502e-07
4.97501247834e-07
1.64294830058e-07
4.92748875366e-07
1.45722515114e-07
4.89673830912e-07
1.21773709302e-07
4.8233769325e-07
9.21817044348e-08
4.73796319023e-07
5.83872149081e-08
4.79156175775e-07
3.14953340754e-08
4.96150164853e-07
-1.37536782092e-08
5.209514979e-07
-1.22293400177e-07
5.56562346674e-07
5.87598872496e-07
-1.0770226981e-07
2.41894119957e-07
6.07056731359e-07
1.94621433713e-07
5.98371261389e-07
1.61640621993e-07
6.02699352438e-07
1.39082624588e-07
6.08865339809e-07
1.2754925752e-07
5.97148705315e-07
1.29764826601e-07
5.72543396259e-07
1.40800814463e-07
5.49576141429e-07
1.56000784504e-07
5.31125372906e-07
1.74032949344e-07
5.15593918835e-07
1.89066276185e-07
5.04682354388e-07
1.92434796874e-07
4.98585755548e-07
1.84146828988e-07
4.93914810754e-07
1.64897031483e-07
4.92007118118e-07
1.42754446687e-07
4.87024181325e-07
1.19452106271e-07
4.7771516611e-07
9.07157951973e-08
4.80078846358e-07
6.91489585134e-08
4.94498321049e-07
4.17412798204e-08
5.17467118651e-07
-1.00304824063e-07
5.43288156019e-07
5.80699446321e-07
-1.07062707734e-07
2.36624860252e-07
6.2216149731e-07
2.00296889344e-07
6.07580049224e-07
1.75266632995e-07
6.09510355013e-07
1.57125130002e-07
6.17405575074e-07
1.48677652058e-07
6.06104133148e-07
1.52978935601e-07
5.7930484579e-07
1.65592247471e-07
5.53471556163e-07
1.83010707026e-07
5.32886542055e-07
2.02924578039e-07
5.17315500447e-07
2.16072787914e-07
5.08964968666e-07
2.1845132774e-07
5.04379599518e-07
2.08888473199e-07
4.99774089949e-07
1.89797183571e-07
4.97478165723e-07
1.66808043314e-07
4.94762985436e-07
1.44993072779e-07
4.86355547701e-07
1.20956795463e-07
4.85914109253e-07
1.00254279821e-07
4.9692010133e-07
7.92748016638e-08
5.18003551435e-07
-2.2283737565e-08
5.42318266352e-07
5.75787182761e-07
-9.7689873874e-08
2.30663252537e-07
6.34144171396e-07
2.03560008316e-07
6.11620537751e-07
1.81599377357e-07
6.12097292853e-07
1.6858153062e-07
6.20517458264e-07
1.66014778008e-07
6.10137498023e-07
1.74478824006e-07
5.83302814635e-07
1.90450937315e-07
5.56618380073e-07
2.12179934656e-07
5.35592310092e-07
2.32135018982e-07
5.21886419923e-07
2.42955238144e-07
5.16497967414e-07
2.46078408758e-07
5.13767972608e-07
2.37617637751e-07
5.10038314773e-07
2.18917672319e-07
5.07300010385e-07
1.94136295355e-07
5.05954627806e-07
1.69638499327e-07
4.99480985092e-07
1.46591105112e-07
4.95860219211e-07
1.25708590719e-07
5.02657715463e-07
1.06546124192e-07
5.21088871458e-07
5.04232745107e-08
5.45151375865e-07
5.72637230258e-07
-8.03816694879e-08
2.19168928645e-07
6.48502831733e-07
1.97412651011e-07
6.14734778001e-07
1.78708162765e-07
6.11590592743e-07
1.72488921752e-07
6.1824406866e-07
1.77456410492e-07
6.08519579605e-07
1.92071528495e-07
5.83498449233e-07
2.14169461466e-07
5.58140838324e-07
2.40528707894e-07
5.38805037435e-07
2.5887688437e-07
5.28667691941e-07
2.68747198843e-07
5.25989358002e-07
2.7330664574e-07
5.25146550398e-07
2.67180538307e-07
5.22985160427e-07
2.50388129789e-07
5.20778061753e-07
2.24385266135e-07
5.20890832449e-07
1.93432620037e-07
5.17086913409e-07
1.67768767464e-07
5.09040285185e-07
1.46140286584e-07
5.10748289176e-07
1.27172809071e-07
5.25753542785e-07
9.29582087182e-08
5.48849223703e-07
5.6808054878e-07
-5.28872696585e-08
2.22669435211e-07
6.60900146873e-07
2.0657267127e-07
6.17656237851e-07
1.85116613123e-07
6.11741127721e-07
1.81104779904e-07
6.14949688999e-07
1.90909273953e-07
6.04600804418e-07
2.11886303164e-07
5.81869591823e-07
2.40258264335e-07
5.59234533902e-07
2.67735830593e-07
5.43119927252e-07
2.8353258285e-07
5.371750421e-07
2.93238560916e-07
5.36893592945e-07
2.99445655751e-07
5.37740940975e-07
2.96022462073e-07
5.3734849756e-07
2.83057257204e-07
5.36436765349e-07
2.55777597138e-07
5.38950091619e-07
2.14281619138e-07
5.38667960136e-07
1.84217689293e-07
5.23853150143e-07
1.61922498422e-07
5.200602932e-07
1.43308823154e-07
5.31058054878e-07
1.16608527511e-07
5.52697406042e-07
5.64501892322e-07
-1.21596317861e-08
2.24504350594e-07
6.72217883355e-07
2.1227477761e-07
6.20516170596e-07
1.91653574927e-07
6.11151562691e-07
1.9075743423e-07
6.10476572977e-07
2.05421641026e-07
5.99253802741e-07
2.32355575355e-07
5.7921686675e-07
2.65078583829e-07
5.60342465594e-07
2.90829723757e-07
5.48665953969e-07
3.04479355192e-07
5.46646429447e-07
3.15376411917e-07
5.48579008872e-07
3.22701307781e-07
5.50939458774e-07
3.22441572368e-07
5.52051501981e-07
3.13927248343e-07
5.53054390829e-07
2.80220368642e-07
5.58288107967e-07
2.27935395694e-07
5.60423762795e-07
1.96742575962e-07
5.41468390594e-07
1.74761549e-07
5.30796113882e-07
1.55185853858e-07
5.37043837864e-07
1.30770180631e-07
5.56928889968e-07
5.70905567507e-07
3.95546029855e-08
2.25055302903e-07
6.82977037199e-07
2.17410142585e-07
6.2310845471e-07
1.99373598408e-07
6.09389031522e-07
2.02493799514e-07
6.0488751237e-07
2.21391432932e-07
5.93360933149e-07
2.52492238525e-07
5.76494517772e-07
2.86578343463e-07
5.61989882182e-07
3.08854561662e-07
5.5545623949e-07
3.21561337572e-07
5.56691520029e-07
3.33096739271e-07
5.60584513288e-07
3.41585156163e-07
5.64386824204e-07
3.43491103558e-07
5.66880103585e-07
3.34644594815e-07
5.70136874203e-07
2.90478346497e-07
5.78434921229e-07
2.38562309861e-07
5.80980885413e-07
2.0734145794e-07
5.62805252386e-07
1.85314150883e-07
5.43811294076e-07
1.65345470217e-07
5.44817101719e-07
1.41661500682e-07
5.62446835863e-07
5.83472882067e-07
8.75664513177e-08
2.20517297659e-07
6.9148310339e-07
2.17294581207e-07
6.24546177438e-07
2.04965340147e-07
6.056257804e-07
2.14265623874e-07
5.97997920742e-07
2.37896950845e-07
5.87587105107e-07
2.72193777826e-07
5.74769291297e-07
3.04350234853e-07
5.65131048991e-07
3.23305068064e-07
5.63731552003e-07
3.35871569568e-07
5.67647501595e-07
3.47678426021e-07
5.73250887072e-07
3.55743027729e-07
5.78338848458e-07
3.58282081707e-07
5.82265887539e-07
3.4249791146e-07
5.88285194829e-07
2.91963832616e-07
5.98864503556e-07
2.46050797716e-07
6.0124213642e-07
2.12793984609e-07
5.85022282629e-07
1.92020695624e-07
5.5931432592e-07
1.73762715047e-07
5.55239968288e-07
1.51283050131e-07
5.69960738827e-07
5.93594448448e-07
1.17532040103e-07
2.08310520942e-07
7.07350563877e-07
2.11041182418e-07
6.26885830081e-07
2.06329827689e-07
6.00506641829e-07
2.23332515924e-07
5.90175780893e-07
2.52815222487e-07
5.82360821429e-07
2.90319107677e-07
5.74695078687e-07
3.19116719447e-07
5.70550259007e-07
3.35660294978e-07
5.73502096703e-07
3.48920377288e-07
5.79723006926e-07
3.59430852997e-07
5.8671024054e-07
3.66324299209e-07
5.92843816416e-07
3.67698838966e-07
5.98385942775e-07
3.39090966388e-07
6.07285301909e-07
2.87634146028e-07
6.18105084797e-07
2.46995868766e-07
6.21119181772e-07
2.13964023785e-07
6.07624780346e-07
1.95214651976e-07
5.77514809816e-07
1.7958533037e-07
5.6866989037e-07
1.58760462787e-07
5.79614748816e-07
6.03368686055e-07
1.27507661285e-07
2.09703757424e-07
7.16328754011e-07
2.24935508394e-07
6.2726922257e-07
2.19415835573e-07
5.96405076851e-07
2.39475693192e-07
5.84621499582e-07
2.71960850703e-07
5.80109311073e-07
3.09972314539e-07
5.77892961896e-07
3.34282554035e-07
5.79112553088e-07
3.49436878633e-07
5.8519592928e-07
3.61599393147e-07
5.93105458361e-07
3.70112060584e-07
6.00958291778e-07
3.74249512258e-07
6.07557487212e-07
3.68683843281e-07
6.14543241142e-07
3.25865522336e-07
6.25597911448e-07
2.7988972914e-07
6.35532495933e-07
2.44793595811e-07
6.40609322946e-07
2.13630349906e-07
6.30938408801e-07
1.96073004877e-07
5.98748718691e-07
1.82027333492e-07
5.85175048173e-07
1.61930007137e-07
5.91070249547e-07
6.13138936283e-07
1.28702363764e-07
2.10715315117e-07
7.21394871949e-07
2.43891233335e-07
6.24873536896e-07
2.39758431898e-07
5.93112994799e-07
2.61986147327e-07
5.82642768653e-07
2.95037697944e-07
5.824293048e-07
3.288032079e-07
5.8547165172e-07
3.49608540447e-07
5.91044294745e-07
3.63794306108e-07
5.99290994981e-07
3.73689932489e-07
6.08118546169e-07
3.77843725048e-07
6.15841800203e-07
3.77684930474e-07
6.22052711369e-07
3.54242393072e-07
6.29143919111e-07
3.06752377315e-07
6.40404904929e-07
2.7389988114e-07
6.51354995862e-07
2.43359641641e-07
6.59488982662e-07
2.14512835181e-07
6.55632126625e-07
1.95451945054e-07
6.24967429457e-07
1.80125651896e-07
6.04557025401e-07
1.58472164686e-07
6.03745806245e-07
6.22759660181e-07
1.22225935774e-07
2.09008377723e-07
7.18866772648e-07
2.63440271008e-07
6.18994416598e-07
2.64500689753e-07
5.91112409313e-07
2.89546248811e-07
5.85488388138e-07
3.19785081739e-07
5.90711667062e-07
3.47868626316e-07
5.9841280287e-07
3.66099954641e-07
6.06883965567e-07
3.77519091229e-07
6.16168014143e-07
3.80852541665e-07
6.24502570406e-07
3.77017516873e-07
6.30434056107e-07
3.63539486302e-07
6.34605679086e-07
3.27008111731e-07
6.40458983317e-07
2.92624949348e-07
6.51130157546e-07
2.69903147814e-07
6.64505025697e-07
2.46082178316e-07
6.77929399998e-07
2.1860659389e-07
6.8218844744e-07
1.93078513515e-07
6.57043870318e-07
1.72388923532e-07
6.25705623596e-07
1.48358308365e-07
6.17130280238e-07
6.31844345817e-07
1.08398485403e-07
2.03856414647e-07
7.0922903547e-07
2.84332586609e-07
6.11166870777e-07
2.92173702421e-07
5.92349162785e-07
3.19293044107e-07
5.94299162487e-07
3.44618094975e-07
6.05012366031e-07
3.68048083532e-07
6.1583185368e-07
3.81027132138e-07
6.24949382168e-07
3.80727455925e-07
6.32679101258e-07
3.70185105734e-07
6.38386217801e-07
3.54290040299e-07
6.41802165522e-07
3.3152428072e-07
6.44755861379e-07
3.044871868e-07
6.50546688283e-07
2.85697092831e-07
6.61042279789e-07
2.70663193801e-07
6.76744079667e-07
2.5089835518e-07
6.96947024592e-07
2.20598374586e-07
7.10059953644e-07
1.84208314775e-07
6.92949605871e-07
1.57361967193e-07
6.47719657271e-07
1.31058616217e-07
6.31165313165e-07
6.40197830321e-07
8.76684742861e-08
1.96542666851e-07
6.86351066067e-07
3.01590053996e-07
6.08127487219e-07
3.12298229804e-07
6.01338769174e-07
3.37810653177e-07
6.10806681648e-07
3.57227020923e-07
6.24485237972e-07
3.69801617692e-07
6.34900705642e-07
3.67584605069e-07
6.42265105144e-07
3.54482324063e-07
6.47973271374e-07
3.38452350306e-07
6.51882646825e-07
3.23921748439e-07
6.54626200952e-07
3.09622383315e-07
6.58557689284e-07
2.95403948891e-07
6.65101851762e-07
2.81834957541e-07
6.74346119933e-07
2.67309563777e-07
6.89859702752e-07
2.44335013376e-07
7.16390466205e-07
2.08517579987e-07
7.36955762886e-07
1.65613178061e-07
7.27568209276e-07
1.35062546507e-07
6.72971563097e-07
1.05679941971e-07
6.45101641472e-07
6.4726198986e-07
6.02347039195e-08
2.06110117134e-07
6.69965593359e-07
3.36047743792e-07
6.23019539346e-07
3.2611533414e-07
6.28323608407e-07
3.3751063971e-07
6.42542874509e-07
3.40488890364e-07
6.52740927234e-07
3.38176201174e-07
6.58243932386e-07
3.29135660845e-07
6.62674147453e-07
3.15787041383e-07
6.66211297981e-07
3.04325036018e-07
6.688958171e-07
2.97923716026e-07
6.72742264093e-07
2.9223563192e-07
6.78528637845e-07
2.80800096604e-07
6.84501965831e-07
2.62212639542e-07
6.9052919932e-07
2.40880853318e-07
7.0257997479e-07
2.13125956324e-07
7.34219930894e-07
1.77576531268e-07
7.60072836915e-07
1.40205169353e-07
7.55308878789e-07
1.07201667227e-07
7.00934183762e-07
7.19708557501e-08
6.55916889315e-07
6.51376282315e-07
2.56669533269e-08
2.22495028427e-07
6.97388863038e-07
3.57632996697e-07
6.72090665756e-07
3.18146567913e-07
6.87768685524e-07
2.95549296735e-07
6.9665666516e-07
2.80045986073e-07
6.9235066308e-07
2.72681087036e-07
6.88070682604e-07
2.62487901062e-07
6.87210564498e-07
2.52853985918e-07
6.87990450267e-07
2.49476066738e-07
6.90750957108e-07
2.48524464091e-07
6.95767647902e-07
2.42052240248e-07
7.006346378e-07
2.27112184714e-07
7.03160867373e-07
2.04013470788e-07
7.04328922562e-07
1.79851757968e-07
7.11258592524e-07
1.56251217213e-07
7.45363553831e-07
1.31096716067e-07
7.74493709408e-07
1.06122903722e-07
7.70959253348e-07
7.28339255673e-08
7.23852858974e-07
3.39205254673e-08
6.60007577781e-07
6.50200113868e-07
-1.48643441899e-08
2.69345129038e-07
7.67236635214e-07
3.27815581803e-07
7.7284918677e-07
2.19523722462e-07
7.95352928569e-07
1.52938307276e-07
7.7801985665e-07
1.32566396595e-07
7.41945639434e-07
1.27549096003e-07
7.19703300132e-07
1.24968021894e-07
7.08974653511e-07
1.25605143684e-07
7.06520198074e-07
1.27654933412e-07
7.08510754349e-07
1.26017513615e-07
7.11554543426e-07