/*--------------------------------*- C++ -*----------------------------------*\
| =========                 |                                                 |
| \\      /  F ield         | OpenFOAM: The Open Source CFD Toolbox           |
|  \\    /   O peration     | Version:  2312                                  |
|   \\  /    A nd           | Website:  www.openfoam.com                      |
|    \\/     M anipulation  |                                                 |
\*---------------------------------------------------------------------------*/
FoamFile
{
    version     2.0;
    format      ascii;
    arch        "LSB;label=32;scalar=64";
    class       volScalarField;
    location    "0.165/water";
    object      Tf.gasAndLiquid;
}
// * * * * * * * * * * * * * * * * * * * * * * * * * * * * * * * * * * * * * //

dimensions      [0 0 0 1 0 0 0];

internalField   nonuniform List<scalar> 
1503
(
314.520652899
306.257201411
302.715257389
301.113863689
300.473400983
300.089804109
300.003470729
300.000018819
300.000000015
300
300
300
300
300
300
300
300
300
300
300
320.337975673
308.398229559
303.079006797
301.138620456
300.415689328
300.15143697
300.047462255
300.00508225
300.000070471
300.000000067
300
300
300
300
300
300
300
300
300
300
320.477954725
307.986313841
302.768405882
300.93908352
300.31372471
300.104054721
300.034051489
300.00837764
300.000566889
300.000005839
300.000000001
300
300
300
300
300
300
300
300
300
319.627848376
307.979747572
302.88141382
300.977361279
300.321082051
300.102412452
300.031355273
300.009218631
300.001483415
300.000053688
300.000000578
300
300
300
300
300
300
300
300
300
318.810935732
307.838028103
302.998403401
301.063963671
300.362206299
300.120037801
300.037488069
300.010802395
300.002965805
300.00026386
300.000006215
300.000000001
300
300
300
300
300
300
300
300
317.938947369
307.563919049
303.015893018
301.126671021
300.402156317
300.14106257
300.047392984
300.01423245
300.003917862
300.000764754
300.000034474
300.000000668
300
300
300
300
300
300
300
300
317.324916765
307.244409345
302.930161795
301.13834721
300.425535826
300.157415827
300.056970186
300.018454508
300.005131433
300.001406691
300.000154159
300.000003822
300
300
300
300
300
300
300
300
317.127521517
306.999955164
302.807831512
301.10699518
300.430023775
300.167126673
300.064484307
300.022556376
300.006445991
300.001683671
300.000403818
300.000017807
300.000000012
300
300
300
300
300
300
300
316.986364508
306.870181171
302.742596534
301.08781702
300.433150815
300.175325516
300.071238251
300.026598593
300.007883389
300.001925304
300.000527318
300.000062479
300.000000311
300
300
300
300
300
300
300
316.671410663
306.717420751
302.671200506
301.065016065
300.431403416
300.180519549
300.07699194
300.030735432
300.009631663
300.002214847
300.000528571
300.000130281
300.000003069
300.000000001
300
300
300
300
300
300
316.210400957
306.497111361
302.570027405
301.02650844
300.421794407
300.181897079
300.081235971
300.034633817
300.011844615
300.002740739
300.00055205
300.00014842
300.000011862
300.000000037
300
300
300
300
300
300
315.952702148
306.340833513
302.473249548
300.982774886
300.40949102
300.182621389
300.085691281
300.038938987
300.014573772
300.003595603
300.000636498
300.000137043
300.000026952
300.000000443
300
300
300
300
300
300
316.284814548
306.415224631
302.451222141
300.963537448
300.407391504
300.18859696
300.092825755
300.044588431
300.018060092
300.00487523
300.000811259
300.000140684
300.000033856
300.000002538
300.000000007
300
300
300
300
300
317.433711123
306.961990916
302.656325341
301.033447371
300.437028271
300.205920367
300.104259684
300.051984474
300.022342529
300.006594554
300.001107884
300.000163668
300.000033367
300.000008515
300.00000017
300
300
300
300
300
317.926660949
307.337394397
302.880567034
301.138048921
300.482871497
300.228993294
300.117750718
300.060095566
300.026910412
300.008550143
300.0015124
300.000205223
300.00003735
300.000010608
300.000001144
300.000000004
300
300
300
300
318.058748553
307.482474574
302.993900077
301.20737621
300.519410651
300.249196264
300.130110816
300.067675074
300.031089722
300.010420265
300.001961513
300.000259516
300.000043985
300.000011266
300.000003463
300.000000087
300
300
300
300
318.15916431
307.475556458
302.999501895
301.224812681
300.536463921
300.262495249
300.139809179
300.074137197
300.034581492
300.011993032
300.002394686
300.00032056
300.000051904
300.000012154
300.000003725
300.000000374
300.000000001
300
300
300
318.201281162
307.334273959
302.898750185
301.186355827
300.529909774
300.266510048
300.145478418
300.078563927
300.037119654
300.013174154
300.002776799
300.000381988
300.000059864
300.000012905
300.000003525
300.000000796
300.00000001
300
300
300
318.209689545
307.21709334
302.802397177
301.135906542
300.512631083
300.264406101
300.147788661
300.080990668
300.038550782
300.014018494
300.003109354
300.000438201
300.000066019
300.000013278
300.000003244
300.000001029
300.000000033
300
300
300
318.138133263
307.134759221
302.728431036
301.094515023
300.495896203
300.260447747
300.1481814
300.081821025
300.039395248
300.014763307
300.003444715
300.000491423
300.00006939
300.000013191
300.000002892
300.000000826
300.000000042
300
300
300
318.044369601
307.08581707
302.688659839
301.07412688
300.487805316
300.258345411
300.147960412
300.082063962
300.040451285
300.015717359
300.003906312
300.000566737
300.000072166
300.0000129
300.000002539
300.000000618
300.000000034
300
300
300
317.927161393
307.053376405
302.671612634
301.069173619
300.487397766
300.258590638
300.14813013
300.08299951
300.042063328
300.017063094
300.004637015
300.000693505
300.000078804
300.000012796
300.000002219
300.000000442
300.000000019
300
300
300
317.805810167
306.999401985
302.645397635
301.060525684
300.486384129
300.258773688
300.148808015
300.084827188
300.044144855
300.019038873
300.005687464
300.000886924
300.000090189
300.000013065
300.000001959
300.000000291
300
300
300
300
317.463791507
306.985758662
302.675807756
301.07274224
300.488301242
300.25908356
300.150353251
300.087505295
300.04724189
300.021725007
300.007050948
300.0011523
300.000104794
300.000013469
300.000001759
300.000000171
300
300
300
300
316.662832973
306.807500366
302.675636818
301.077170013
300.485417094
300.257918618
300.152776046
300.091799835
300.0517906
300.02522925
300.008821882
300.001514794
300.000123608
300.000013803
300.000001672
300.0000001
300
300
300
300
316.030913401
306.594319908
302.616164008
301.057795227
300.477481475
300.258697418
300.158952194
300.099389362
300.058536183
300.029968335
300.011131563
300.002017529
300.000154732
300.000015485
300.00000177
300.00000008
300
300
300
300
316.061818717
306.5544082
302.599833735
301.058579683
300.486046115
300.270846648
300.172066329
300.111200643
300.067803838
300.036179402
300.014154187
300.002717981
300.000208326
300.000020297
300.000002385
300.000000142
300
300
300
300
316.889379896
306.826603901
302.684660851
301.106097814
300.522488451
300.297162528
300.191720184
300.126429695
300.079178331
300.043761053
300.017920941
300.003680791
300.000295647
300.000029669
300.000003815
300.000000318
300
300
300
300
317.884251166
307.303062464
302.90317077
301.215480651
300.58352592
300.332792865
300.214792996
300.143136539
300.091554436
300.052223556
300.022379752
300.004932381
300.000431882
300.000044676
300.000006253
300.000000635
300
300
300
300
318.461454707
307.69201963
303.1243645
301.329940658
300.644821463
300.367410689
300.236793581
300.159007692
300.103570049
300.060849089
300.027290913
300.006461065
300.000621271
300.000066718
300.000009905
300.00000114
300
300
300
300
318.634478954
307.897363817
303.27392958
301.412189065
300.689450123
300.393893583
300.254650399
300.172468662
300.114187388
300.068954112
300.032343034
300.008235489
300.00085818
300.000095839
300.000014639
300.000001817
300
300
300
300
318.722693136
307.963788915
303.338412179
301.453989969
300.714732224
300.411444023
300.267898201
300.18315634
300.12289071
300.075492299
300.036894252
300.01026594
300.001144204
300.000128944
300.00002044
300.00000266
300.000000085
300
300
300
318.732589519
307.888733238
303.29489566
301.444559569
300.719140038
300.420109093
300.276751075
300.191074947
300.129442537
300.080142356
300.040119081
300.01222344
300.001504086
300.000162381
300.000026852
300.000003544
300.000000164
300
300
300
318.738759107
307.827965408
303.245344743
301.422411186
300.714430555
300.42321646
300.28214328
300.196377637
300.133665709
300.082754475
300.041923649
300.013536504
300.001888805
300.00019522
300.000032246
300.000004196
300.000000196
300
300
300
318.689472826
307.784607176
303.202336206
301.40006686
300.706753126
300.422967322
300.284593664
300.199032033
300.135365404
300.083286294
300.042292904
300.014081667
300.002119804
300.000218642
300.000035738
300.000004455
300.000000164
300
300
300
318.666209235
307.752810628
303.171571231
301.383984732
300.699943158
300.42118958
300.284802733
300.19929775
300.13463043
300.08199208
300.041457006
300.013957058
300.002164186
300.000225964
300.000036311
300.000004431
300.000000084
300
300
300
318.613325274
307.712169122
303.138524783
301.368877915
300.693874402
300.41886598
300.283551247
300.197671746
300.13191768
300.079362457
300.039814591
300.013427004
300.002088381
300.000218314
300.000035186
300.000004348
300.000000004
300
300
300
318.563150227
307.588440978
303.059239673
301.336047941
300.68272203
300.41488157
300.280909417
300.194343795
300.127778899
300.075915542
300.037789515
300.012745362
300.001980372
300.000206593
300.000032375
300.000004096
300
300
300
300
300
300
300
300
300
300
300
300
300
300
300
300
300
300
300
300
300
300
300
300
300
300
300
300
300
300
300
300
300
300
300
300
300
300
300
300
300
300
300
300
300
300
300
300
300
300
300
300
300
300
300
300
300
300
300
300
300
300
300
300
300
300
300
300
300
300
300
300
300
300
300
300
300
300
300
300
300
300
300
300
300
300
300
300
300
300
300
300
300
300
300
300
300
300
300
300
300
300
300
300
300
300
300
300
300
300
300
300
300
300
300
300
300
300
300
300
300
300
300
300
300
300
300
300
300
300
300
300
300
300
300
300
300
300
300
300
300
300
300
300
300
300
300
300
300
300
300
300
300
300
300
300
300
300
300
300
300
300
300
300
300
300
300
300
300
300
300
300
300
300
300
300
300
300
300
300
300
300
300
300
300
300
300
300
300
300
300
300
300
300
300
300
300
300
300
300
300
300
300
300
300
300
300
300
300
300
300
300
300
300
300
300
300
300
300
300
300
300
300
300
300
300
300
300
300
300
300
300
300
300
300
300
300
300
300
300
300
300
300
300
300
300
300
300
300
300
300
300
300
300
300
300
300
300
300
300
300
300
300
300
300
300
300
300
300
300
300
300
300
300
300
300
300
300
300
300
300
300
300
300
300
300
300
300
300
300
300
300
300
300
300
300
300
300
300
300
300
300
300
300
300
300
300
300
300
300
300
300
300
300
300
300
300
300
300
300
300
300
300
300
300
300
300
300
300
300
300
300
300
300
300
300
300
300
300
300
300
300
300
300
300
300
300
300
300
300
300
300
300
300
300
300
300
300
300
300
300
300
300
300
300
300
300
300
300
300
300
300
300
300
300
300
300
300
300
300
300
300
300
300
300
300
300
300
300
300
300
300
300
300
300
300
300
300
300
300
300
300
300
300
300
300
300
300
300
300
300
300
300
300
300
300
300
300
300
300
300
300
300
300
300
300
300
300
300
300
300
300
300
300
300
300
300
300
300
300
300
300
300
300
300
300
300
300
300
300
300
300
300
300
300
300
300
300
300
300
300
300
300
300
300
300
300
300
300
300
300
300
300
300
300
300
300
300
300
300
300
300
300
300
300
300
300
300
300
300
300
300
300
300
300
300
300
300
300
300
300
300
300
300
300
300
300
300
300
300
300
300
300
300
300
300
300
300
300
300
300
300
300
300
300
300
300
300
300
300
300
300
300
300
300
300
300
300
300
300
300
300
300
300
300
300
300
300
300
300
300
300
300
300
300
300
300
300
300
300
300
300
300
300
300
300
300
300
300
300
300
300
300
300
300
300
300
300
300
300
300
300
300
300
300
300
300
300
300
300
300
300
300
300
300
300
300
300
300
300
300
300
300
300
300
300
300
300
300
300
300
300
300
300
300
300
300
300
300
300
300
300
300
300
300
300
300
300
300
300
300
300
300
300
300
300
300
300
300
300
300
300
300
300
300
300
300
300
300
300
300
300
300
300
300
300
300
300
300
300
300
300
300
300
300
300
300
300
300
300
300
300
300
300
300
300
300
300
300
300
300
300
300
300
300
300
300
300
300
300
300
300
300
300
300
300
300
300
300
300
300
300
300
300
300
300
300
300
300
300
300
300
300
300
300
300
300
300
300
300
300
300
300
300
300
300
300
300
300
300
300
300
300
300
300
300
300
300
300
300
300
300
300
300
300
300.000000002
300
)
;

boundaryField
{
    emptyPatch
    {
        type            empty;
    }
    minY
    {
        type            calculated;
        value           nonuniform List<scalar> 
40
(
300
300
300
300
300
300
300
300
300
300
300
300
300
300
300
300
300
300
300
300
300
300
300
300
300
300
300
300
300
300
300
300
300
300
300
300
300
300
300
300
)
;
    }
    maxY
    {
        type            calculated;
        value           nonuniform List<scalar> 0();
    }
    water_to_cooler
    {
        type            calculated;
        value           nonuniform List<scalar> 
37
(
300
300
300
300
300
300
300
300
300
300
300
300
300
300
300
300
300
300
300
300
300
300
300
300
300
300
300
300
300
300
300
300
300
300
300
300
300
)
;
    }
    water_to_heater
    {
        type            calculated;
        value           nonuniform List<scalar> 
61
(
796.760923599
796.712077496
796.516986363
796.517425178
796.472788248
796.472590158
796.467326912
796.46798958
796.481436624
796.482787796
796.492223376
796.492184329
796.495993365
796.496365653
796.49783721
796.499190164
796.498530008
796.49903499
796.492820499
796.490578888
796.484683203
796.479566674
796.476494418
796.475312225
796.473542417
796.473239329
796.471005322
796.471354919
796.469776159
796.469454874
796.469472022
796.469803047
796.470551301
796.470741683
796.471592994
796.47148608
796.472542889
796.472940239
796.474837417
796.477213895
796.480509897
796.479409745
796.479890743
796.476599407
796.477177746
796.475028804
796.475861285
796.47553486
796.476775552
796.476784615
796.477484803
796.477595158
796.47804038
796.477940613
796.478307253
796.478412826
796.477596223
796.477698661
796.4752954
796.475150392
796.470313325
)
;
    }
    procBoundary2to3
    {
        type            processor;
        value           nonuniform List<scalar> 
41
(
318.480924017
307.545017452
303.027864102
301.316468117
300.673931866
300.410876607
300.277351943
300.189571144
300.122815141
300.072178908
300.035738475
300.012138471
300.001924224
300.000198056
300.000030264
300.000003819
300
300
300
300
300
300
300
300
300
300
300
300
300
300
300
300
300
300
300
300
300
300
300
300
300
)
;
    }
}


// ************************************************************************* //
