/*--------------------------------*- C++ -*----------------------------------*\
| =========                 |                                                 |
| \\      /  F ield         | OpenFOAM: The Open Source CFD Toolbox           |
|  \\    /   O peration     | Version:  2312                                  |
|   \\  /    A nd           | Website:  www.openfoam.com                      |
|    \\/     M anipulation  |                                                 |
\*---------------------------------------------------------------------------*/
FoamFile
{
    version     2.0;
    format      ascii;
    arch        "LSB;label=32;scalar=64";
    class       volScalarField;
    location    "0.115/water";
    object      Tf.gasAndLiquid;
}
// * * * * * * * * * * * * * * * * * * * * * * * * * * * * * * * * * * * * * //

dimensions      [0 0 0 1 0 0 0];

internalField   nonuniform List<scalar> 
1497
(
300.199972695
300.142677353
300.107014515
300.083019919
300.064499632
300.048484118
300.033853307
300.020851188
300.01041344
300.003763749
300.000922088
300.00016929
300.000025607
314.081342756
305.906207654
302.579826821
301.284209243
300.708493534
300.434143928
300.295284497
300.214866683
300.163463725
300.128914904
300.103794626
300.082594284
300.063188194
300.045143692
300.028783108
300.015026415
300.005665414
300.001423426
300.0002586
300.000038236
313.878325959
306.282308039
302.904574516
301.437687469
300.75930418
300.454499539
300.32022064
300.246677714
300.196776376
300.161172503
300.132791024
300.106970273
300.082574917
300.05986317
300.039200894
300.021294883
300.008351553
300.002148972
300.000386412
300.000053721
317.695679008
309.628351403
304.797222601
302.208028108
301.007244649
300.532959603
300.379881531
300.302921863
300.249401288
300.208656286
300.173090118
300.139285214
300.107371999
300.078025532
300.051801922
300.028996719
300.011759751
300.003091584
300.000551644
300.000071638
334.395016004
315.053366042
306.524482708
302.733286035
301.171233992
300.642769848
300.473098976
300.386588965
300.32280382
300.269617854
300.221637253
300.176787652
300.135229018
300.09772733
300.065104401
300.037133656
300.015461357
300.0041488
300.000743719
300.00009138
349.1291509
317.523081486
307.032868861
302.797205587
301.246066068
300.736021745
300.557831271
300.461756386
300.38685528
300.321805916
300.263001352
300.208764353
300.159082013
300.114669534
300.076436137
300.044087814
300.018702695
300.005145698
300.000944102
300.000112943
352.659591822
318.001843799
306.825876449
302.674005716
301.232854229
300.763290351
300.590972001
300.493979431
300.416589985
300.348190288
300.285512097
300.22720734
300.173427315
300.125193879
300.083625056
300.048610111
300.02094686
300.00589387
300.001098162
300.000129804
352.582048829
317.395025867
306.402704912
302.467937819
301.163055329
300.748180604
300.591182612
300.498985746
300.423829512
300.35657151
300.293626385
300.234211039
300.178891143
300.129054402
300.086091343
300.049816521
300.021465227
300.006147998
300.001159254
300.000136124
351.300982443
316.579330272
305.907066959
302.230737519
301.074070152
300.717885317
300.579191994
300.493370774
300.421817332
300.355961765
300.293234986
300.233529338
300.177792825
300.127695337
300.084631862
300.047954516
300.020254078
300.005743856
300.001081069
300.00013131
349.660874251
315.745734951
305.394608297
301.994904721
300.987678068
300.68704969
300.565211362
300.485676661
300.416496569
300.350940226
300.287965354
300.22797425
300.172286104
300.122718208
300.080104083
300.043911658
300.017976695
300.004969623
300.000901679
300.000120461
347.887098708
314.807466348
304.865714887
301.783042499
300.920780856
300.66558327
300.556689206
300.479027778
300.40904029
300.342795587
300.279198685
300.21894991
300.163674727
300.115096949
300.073033457
300.038631492
300.015303536
300.004087494
300.000701019
300.000116066
345.734165527
313.55216831
304.313429752
301.638233565
300.905084682
300.677061774
300.560156212
300.473418357
300.399604095
300.331625052
300.267242567
300.206976204
300.152518372
300.104934456
300.064234048
300.032850893
300.012631133
300.003262497
300.000528202
300.000113697
342.387975332
312.173914008
304.04099174
301.716479055
301.021584836
300.730528709
300.572614902
300.468535729
300.387663671
300.316995797
300.251867478
300.191994174
300.138570498
300.092052172
300.054355727
300.027018019
300.010162415
300.002500116
300.000403316
300.00011619
339.105008502
311.780673713
304.645343864
302.155812907
301.207039987
300.794446529
300.585743038
300.460851474
300.371774945
300.298191181
300.23255872
300.173252014
300.120620072
300.076918888
300.043934147
300.021345418
300.007841865
300.001779754
300.000390656
300.000118583
333.389823515
312.812125893
305.356972411
302.48781811
301.329356581
300.826755648
300.582766868
300.444189346
300.349687094
300.274214372
300.20808276
300.148769168
300.098781752
300.060455526
300.033459966
300.015773968
300.005423729
300.001320063
300.000418697
300.000119975
326.978019084
311.887036794
305.237264651
302.464709474
301.303087347
300.797401656
300.553511064
300.415077737
300.320279245
300.243712432
300.176195421
300.119215688
300.075422911
300.044371281
300.023595241
300.010527582
300.003743688
300.001292811
300.000461322
300.000124181
321.955808206
310.099698045
304.534049484
302.166596591
301.162549285
300.72208242
300.5053437
300.377240623
300.284230542
300.205857737
300.140059793
300.089649275
300.054329352
300.030598404
300.016099154
300.007583521
300.003329479
300.001414982
300.000506871
300.000128262
318.057949226
308.304224191
303.700399142
301.785879972
300.988049493
300.635290223
300.454175675
300.338210361
300.246279601
300.169013808
300.108832673
300.066693822
300.040052371
300.023209314
300.01293665
300.006985782
300.00355179
300.001585264
300.00054233
300.000128773
315.235853301
307.07709732
303.2048675
301.561915053
300.883679252
300.584209057
300.424477335
300.314047682
300.222130398
300.147121917
300.093251235
300.058165338
300.036240294
300.022479943
300.013506016
300.007718152
300.004039994
300.001769472
300.000566192
300.000125771
314.313916007
306.91684532
303.352824944
301.703055831
300.959126202
300.616517776
300.438135106
300.322301982
300.228045435
300.153167891
300.100830229
300.065894871
300.042572959
300.026874336
300.016105042
300.009080223
300.00465088
300.001945588
300.000578361
300.000118352
316.601259654
308.612455
304.4954076
302.328427904
301.251923204
300.741245497
300.497866931
300.374649625
300.27800028
300.196389191
300.13290804
300.086918862
300.055731436
300.034398625
300.019901609
300.010796124
300.005328329
300.002112848
300.000580341
300.000107071
323.722681962
311.75259234
305.850555498
302.921707746
301.529186572
300.884926257
300.590971485
300.451181711
300.351959454
300.262286135
300.180504973
300.115947978
300.072956652
300.043981597
300.024493745
300.012727322
300.006039517
300.002272927
300.000571585
300.000092498
331.591901398
313.342166075
306.229452865
303.071593401
301.630111751
300.958679492
300.644688654
300.489844976
300.387390256
300.298669084
300.21545876
300.142727747
300.089484898
300.053119347
300.02890471
300.014564861
300.006692816
300.00239367
300.000550315
300.00007563
334.272852619
314.010913763
306.33579292
303.101688465
301.665798485
300.990695638
300.663046961
300.495259508
300.388458451
300.301578171
300.222260462
300.152116479
300.097781329
300.058740594
300.031887671
300.015882944
300.007144677
300.002448724
300.000516608
300.000058907
334.582284196
314.083176744
306.334272411
303.108171088
301.686046755
301.009272222
300.668547516
300.488127934
300.376236663
300.290034465
300.214045988
300.148229685
300.097379951
300.059802358
300.032840287
300.016469506
300.007347588
300.002449409
300.000483229
300.000046781
332.514083235
313.559262569
306.166861228
303.052255933
301.66688524
301.003497483
300.660252895
300.472659543
300.357461591
300.27231918
300.200183505
300.139742993
300.092843053
300.057533106
300.032197706
300.016442769
300.007367606
300.00242573
300.000455627
300.000039007
329.093446531
312.415576729
305.85066376
302.917117859
301.580505785
300.950878069
300.626944919
300.445693059
300.333356814
300.25169622
300.18486227
300.130069346
300.086776811
300.053840322
300.030582074
300.015963108
300.007196652
300.002329804
300.000419856
300.000032605
325.66414517
311.098541788
305.182200144
302.572282077
301.372933302
300.829737142
300.560136113
300.405071617
300.304888353
300.230660326
300.170186406
300.120299819
300.080099823
300.049846177
300.028808097
300.015345559
300.00691442
300.00215128
300.000363187
300.000027303
322.895503465
309.858826928
304.368560831
302.142039712
301.070478866
300.672415345
300.479299319
300.359553977
300.276012219
300.211025392
300.156961386
300.111053992
300.073756896
300.046256646
300.027277365
300.014768018
300.006590492
300.001930069
300.000294929
300.000024345
321.16151032
308.857705418
303.707293364
301.640395508
300.797689321
300.534427093
300.406661564
300.317890167
300.25011958
300.194095529
300.145408796
300.103233401
300.068538242
300.043392354
300.026094037
300.014243158
300.006196975
300.001680266
300.000226256
300.000020943
320.21945029
308.338723032
303.354318968
301.38368989
300.668586082
300.466886935
300.359384586
300.286995047
300.22999756
300.180611931
300.135929722
300.096989992
300.064420114
300.041305023
300.025220925
300.013706228
300.005640867
300.001389025
300.000157416
300.000017159
319.553903035
308.010147975
303.17401254
301.315924129
300.698069892
300.443200202
300.335306344
300.267883837
300.216268971
300.170976286
300.129039147
300.092501155
300.061721044
300.040058341
300.024595127
300.013054694
300.004918474
300.001026039
300.000109632
300.000012874
319.080528489
307.920458692
303.209511852
301.333747046
300.742168029
300.479877636
300.335753323
300.260800208
300.208692535
300.165060071
300.124846016
300.089834308
300.060412219
300.039524077
300.024074604
300.012106309
300.004094133
300.000633314
300.000083046
300.000009056
318.824392973
307.917383508
303.316676965
301.393204877
300.779748838
300.537737686
300.375063608
300.26911388
300.20792013
300.162595341
300.122967871
300.088669654
300.060327295
300.03951801
300.023535127
300.01098931
300.003148157
300.000404013
300.000067804
300.00000641
318.705352394
307.995844743
303.432431058
301.478978691
300.824593398
300.569214755
300.41111017
300.295107799
300.215375965
300.163054513
300.122624909
300.088608779
300.061035123
300.039806027
300.023007048
300.010059715
300.002249237
300.000299037
300.00006068
300.000004986
318.749861763
308.089060478
303.567757757
301.583508471
300.875725226
300.595005677
300.438626908
300.318616007
300.229002684
300.166975317
300.123642422
300.089503586
300.062108391
300.040321972
300.022900438
300.009498643
300.001768893
300.000255468
300.000059172
300.000005343
318.855491608
308.175421254
303.615085206
301.653005116
300.908561873
300.610941107
300.448365001
300.332964043
300.240988326
300.171707224
300.125575328
300.090839274
300.063333095
300.041140696
300.023268233
300.009246988
300.001573881
300.000246804
300.000060548
300.000006415
318.948874603
308.09456926
303.543699787
301.633254027
300.905586064
300.609658756
300.451499795
300.339548265
300.247711512
300.175045486
300.127216664
300.092080229
300.064502633
300.042075684
300.023821868
300.009023706
300.00152028
300.000254088
300.000063253
300.00000752
300
300
300
300
300
300
300
300
300
300
300
300
300
300
300
300
300
300
300
300
300.000001107
300
300
300
300
300
300
300
300
300
300
300
300
300
300
300
300
300
300
300
300.000003914
300.000000034
300
300
300
300
300
300
300
300
300
300
300
300
300
300
300
300
300
300
300.000007187
300.000000115
300
300
300
300
300
300
300
300
300
300
300
300
300
300
300
300
300
300
300.000010607
300.00000016
300
300
300
300
300
300
300
300
300
300
300
300
300
300
300
300
300
300
300.000014309
300.000000314
300
300
300
300
300
300
300
300
300
300
300
300
300
300
300
300
300
300
300.000018116
300.00000063
300
300
300
300
300
300
300
300
300
300
300
300
300
300
300
300
300
300
300.000021105
300.000001066
300
300
300
300
300
300
300
300
300
300
300
300
300
300
300
300
300
300
300.000023228
300.00000153
300
300
300
300
300
300
300
300
300
300
300
300
300
300
300
300
300
300
300.000024426
300.000001803
300
300
300
300
300
300
300
300
300
300
300
300
300
300
300
300
300
300
300.000024932
300.000001869
300
300
300
300
300
300
300
300
300
300
300
300
300
300
300
300
300
300
300.000025047
300.000001629
300
300
300
300
300
300
300
300
300
300
300
300
300
300
300
300
300
300
300.000024273
300.000001019
300
300
300
300
300
300
300
300
300
300
300
300
300
300
300
300
300
300
300.000022374
300.000000437
300
300
300
300
300
300
300
300
300
300
300
300
300
300
300
300
300
300
300.000020654
300.000000065
300
300
300
300
300
300
300
300
300
300
300
300
300
300
300
300
300
300
300.000019478
300
300
300
300
300
300
300
300
300
300
300
300
300
300
300
300
300
300
300
300.000018536
300
300
300
300
300
300
300
300
300
300
300
300
300
300
300
300
300
300
300
300.000017636
300
300
300
300
300
300
300
300
300
300
300
300
300
300
300
300
300
300
300
300.000015985
300
300
300
300
300
300
300
300
300
300
300
300
300
300
300
300
300
300
300
300.000013499
300.000000016
300
300
300
300
300
300
300
300
300
300
300
300
300
300
300
300
300
300
300.00001035
300.000000071
300
300
300
300
300
300
300
300
300
300
300
300
300
300
300
300
300
300
300.000006838
300.000000074
300.000000001
300
300
300
300
300
300
300
300
300
300
300
300
300
300
300
300
300
300.000003534
300.000000018
300
300
300
300
300
300
300
300
300
300
300
300
300
300
300
300
300
300
300.000001335
300
300
300
300
300
300
300
300
300
300
300
300
300
300
300
300
300
300
300
300.00000201
300
300
300
300
300
300
300
300
300
300
300
300
300
300
300
300
300
300
300
300.000002917
300.000000073
300
300
300
300
300
300
300
300
300
300
300
300
300
300
300
300
300
300
300.000003492
300.00000016
300
300
300
300
300
300
300
300
300
300
300
300
300
300
300
300
300
300
300.000003652
300.000000198
300
300
300
300
300
300
300
300
300
300
300
300
300
300
300
300
300
300
300.000003509
300.000000186
300
300
300
300
300
300
300
300
300
300
300
300
300
300
300
300
300
300
300.000003124
300.000000132
300
300
300
300
300
300
300
300
300
300
300
300
300
300
300
300
300
300
300.000002544
300.000000062
300
300
300
300
300
300
300
300
300
300
300
300
300
300
300
300
300
300
300.000001963
300.000000018
300
300
300
300
300
300
300
300
300
300
300
300
300
300
300
300
300
300
300.000001466
300
300
300
300
300
300
300
300
300
300
300
300
300
300
300
300
300
300
300
300.000001154
300
300
300
300
300
300
300
300
300
300
300
300
300
300
300
300
300
300
300
300.000001028
300
300
300
300
300
300
300
300
300
300
300
300
300
300
300
300
300
300
300
300.000001021
300
300
300
300
300
300
300
300
300
300
300
300
300
300
300
300
300
300
300
300.000001069
300.000000002
300
300
300
300
300
300
300
300
300
300
300
300
300
300
300
300
300
300
300.000001142
300.000000007
300
300
)
;

boundaryField
{
    emptyPatch
    {
        type            empty;
    }
    minY
    {
        type            calculated;
        value           nonuniform List<scalar> 0();
    }
    maxY
    {
        type            calculated;
        value           nonuniform List<scalar> 0();
    }
    water_to_cooler
    {
        type            calculated;
        value           nonuniform List<scalar> 
37
(
300
300
300
300
300
300
300
300
300
300
300
300
300
300
300
300
300
300
300
300
300
300
300
300
300
300
300
300
300
300
300
300
300
300
300
300
300
)
;
    }
    water_to_heater
    {
        type            calculated;
        value           nonuniform List<scalar> 
60
(
797.525259399
797.562598332
797.562377098
797.602867267
797.596428911
797.633972259
797.717263876
797.827791742
797.839902952
797.806931897
797.807606004
797.770755108
797.769640911
797.728006583
797.724598587
797.669783529
797.665529936
797.620370654
797.610370315
797.567349749
797.543124127
797.504216373
797.424423421
797.339941982
797.31916248
797.315923612
797.313011154
797.310497358
797.317028545
797.311376279
797.312124877
797.296391924
797.304407815
797.291907938
797.331744502
797.30759986
797.318550246
797.288197955
797.286969213
797.239933809
797.218497311
797.20533215
797.192016554
797.187612282
797.18201277
797.181594483
797.180096184
797.180366518
797.179973846
797.181053924
797.180890689
797.182050466
797.181831927
797.183593693
797.183660675
797.186288982
797.186482066
797.191440902
797.191318294
797.198808204
)
;
    }
    procBoundary1to0
    {
        type            processor;
        value           nonuniform List<scalar> 
41
(
318.897347542
307.988907401
303.395013318
301.554305191
300.86530588
300.593025208
300.443822325
300.335298353
300.247536377
300.176051947
300.127928385
300.092908913
300.065366368
300.042796164
300.024189888
300.008681615
300.001508467
300.000267219
300.000065663
300.000008434
300
300
300
300
300
300
300
300
300
300
300
300
300
300
300
300
300.00000121
300.00000001
300
300
300
)
;
    }
    procBoundary1to3
    {
        type            processor;
        value           nonuniform List<scalar> 
41
(
300.195682808
300.129569009
300.090993517
300.067371873
300.050853974
300.037342874
300.025416069
300.015086903
300.007197667
300.002486883
300.000592221
300.000109549
300.000015779
315.332003629
306.306493167
302.823427347
301.433411681
300.792059378
300.467063472
300.296036167
300.296036167
300
300
300
300
300
300
300
300
300
300
300
300
300
300
300
300
300
300
300
300
)
;
    }
}


// ************************************************************************* //
