/*--------------------------------*- C++ -*----------------------------------*\
| =========                 |                                                 |
| \\      /  F ield         | OpenFOAM: The Open Source CFD Toolbox           |
|  \\    /   O peration     | Version:  2312                                  |
|   \\  /    A nd           | Website:  www.openfoam.com                      |
|    \\/     M anipulation  |                                                 |
\*---------------------------------------------------------------------------*/
FoamFile
{
    version     2.0;
    format      ascii;
    arch        "LSB;label=32;scalar=64";
    class       volScalarField;
    location    "0.56/water";
    object      T.gas;
}
// * * * * * * * * * * * * * * * * * * * * * * * * * * * * * * * * * * * * * //

dimensions      [0 0 0 1 0 0 0];

internalField   nonuniform List<scalar> 
1503
(
355.468839844
324.170336451
310.55499475
304.397281739
301.86995955
300.392855424
300.016793254
300.000095731
300.000000067
300
300
300
300
300
300
300
300
300
300
300
398.511697645
335.487404691
312.310460136
304.407275178
301.59730408
300.58163705
300.188450186
300.021708101
300.000388372
300.000000453
300
300
300
300
300
300
300
300
300
300
402.779557663
335.731021093
311.53192947
303.73085718
301.21292121
300.400322693
300.132432245
300.034259172
300.002664755
300.000024526
300.000000008
300
300
300
300
300
300
300
300
300
401.712115382
337.423458888
312.489283314
303.977239386
301.236323186
300.381057882
300.117045492
300.035180271
300.006249379
300.000226625
300.00000083
300
300
300
300
300
300
300
300
300
398.331154489
337.648276461
313.301730993
304.39140137
301.386753389
300.427873226
300.129861869
300.038559607
300.011031933
300.001077562
300.000013813
300.000000004
300
300
300
300
300
300
300
300
393.497573002
336.550156655
313.465957609
304.629615251
301.506301722
300.475790004
300.148222224
300.045159245
300.013417151
300.002825813
300.000106208
300.000000697
300
300
300
300
300
300
300
300
390.434180308
335.186677416
313.116009741
304.624458066
301.540447721
300.496987239
300.15907084
300.050257061
300.015428708
300.004712611
300.000529584
300.000006496
300.000000001
300
300
300
300
300
300
300
389.472851694
334.192842209
312.621399315
304.473049861
301.513743362
300.497506659
300.163439894
300.053515595
300.016870747
300.005256052
300.001414771
300.000054691
300.000000052
300
300
300
300
300
300
300
389.248999292
333.87831266
312.471665519
304.432916605
301.518575879
300.50779039
300.170830927
300.057783174
300.018636439
300.005740042
300.001865597
300.000268823
300.000001859
300
300
300
300
300
300
300
389.248692642
333.735474842
312.415318091
304.435817612
301.540750975
300.52672765
300.181878384
300.063487833
300.020951522
300.006328212
300.001960541
300.000640633
300.000026215
300.000000022
300
300
300
300
300
300
389.392959332
333.47870915
312.261248809
304.399478179
301.546215739
300.540704357
300.192133613
300.069381431
300.02363595
300.007024606
300.002032691
300.000677962
300.000105031
300.000000634
300
300
300
300
300
300
389.51938453
333.039698091
311.917290713
304.255826628
301.50765669
300.537071352
300.196396414
300.073485882
300.026081282
300.007820502
300.002115325
300.000640781
300.000200844
300.000005608
300.000000002
300
300
300
300
300
389.50551707
332.386146206
311.369426083
303.977939834
301.40473555
300.507373134
300.190983108
300.074422612
300.027730028
300.008574085
300.002206408
300.000598184
300.000204926
300.000017727
300.000000033
300
300
300
300
300
388.959573118
332.273474913
311.15261164
303.796692539
301.307358404
300.469677281
300.180842181
300.073654969
300.029010783
300.009408993
300.002348014
300.000562712
300.000164327
300.000030835
300.000000245
300
300
300
300
300
386.630237269
331.872863242
311.035415501
303.678006176
301.226695478
300.434964261
300.171394516
300.073518954
300.030851209
300.010629578
300.002629762
300.000554031
300.000131207
300.000038471
300.000001257
300.000000001
300
300
300
300
386.284282833
332.111598171
311.148728206
303.671020943
301.198417875
300.422145085
300.170978595
300.077246747
300.0344598
300.012677042
300.003213535
300.000617928
300.000120491
300.000028917
300.000003477
300.000000015
300
300
300
300
392.004921472
334.524767028
311.997637049
303.957716829
301.294495649
300.457167963
300.187632354
300.087143918
300.040465749
300.015765808
300.004224959
300.00080436
300.000141576
300.000028942
300.00000739
300.000000225
300
300
300
300
396.46689652
336.314758422
312.845997381
304.337425699
301.452176825
300.520567381
300.215174085
300.100974471
300.047919819
300.0194154
300.005529206
300.001103259
300.000192016
300.000036212
300.000008168
300.000001068
300.000000004
300
300
300
397.521987233
337.20731139
313.495480563
304.670428917
301.594036242
300.579486298
300.241740955
300.114549326
300.055258397
300.023025401
300.006863771
300.001452143
300.00026238
300.000047742
300.000009883
300.000002312
300.000000063
300
300
300
397.916708046
337.46528224
313.75880769
304.843863259
301.676345613
300.615764284
300.259942041
300.125114798
300.06151978
300.026076852
300.008024373
300.001756068
300.000330479
300.000059907
300.00001157
300.000002372
300.00000014
300
300
300
397.993971471
337.269090572
313.666132327
304.836111132
301.688109353
300.627197106
300.269263477
300.132392869
300.066363005
300.028430425
300.008959269
300.002017367
300.000383537
300.000069548
300.000012693
300.000002295
300.000000078
300
300
300
398.096935627
336.656055181
313.240821037
304.662678279
301.637985243
300.618837266
300.272290746
300.137168711
300.069405402
300.030081117
300.009646779
300.002219799
300.000424118
300.000076407
300.000013386
300.000002159
300
300
300
300
397.899393319
335.6109652
312.497100185
304.33233892
301.529362941
300.592759495
300.269842814
300.138454118
300.070924475
300.031181238
300.010208602
300.002370191
300.000453117
300.000081426
300.000013852
300.00000206
300
300
300
300
397.689863289
335.063753575
312.061519141
304.09185546
301.437061689
300.56741239
300.265160837
300.137550526
300.071231682
300.031993005
300.010736104
300.002526444
300.000479743
300.000086283
300.000014212
300.000001999
300
300
300
300
397.368023569
334.974402576
311.979273322
304.029032684
301.40530542
300.556555611
300.260832672
300.136312214
300.071217835
300.032623948
300.011359605
300.002680366
300.000527568
300.000094883
300.000014794
300.000001942
300
300
300
300
397.223068191
335.069325573
312.082377601
304.089032652
301.427248317
300.561782242
300.260070689
300.135214976
300.070865137
300.033183398
300.011930508
300.003046184
300.000575933
300.000096415
300.000014391
300.000001687
300
300
300
300
397.062463327
335.067380191
312.131412099
304.144689397
301.457873101
300.571866451
300.261437869
300.134370691
300.0706598
300.033638895
300.012867987
300.003399494
300.000613296
300.000093288
300.000012364
300.000001091
300
300
300
300
396.763008379
334.792931469
311.954973327
304.087183481
301.446293658
300.566871519
300.258119197
300.132959218
300.070734441
300.035124027
300.014151279
300.003804026
300.000654862
300.000088543
300.000009522
300.000000422
300
300
300
300
394.068561809
334.411042168
311.928568237
304.054109998
301.400516116
300.534936575
300.24319874
300.12819486
300.07093584
300.036831854
300.015674326
300.004346334
300.000713331
300.00008692
300.000007631
300
300
300
300
300
388.585460301
333.034523805
311.627679622
303.873223321
301.258472317
300.461167943
300.217227228
300.123002336
300.072560668
300.039740623
300.017700031
300.005019129
300.000784306
300.00008508
300.000006774
300
300
300
300
300
384.272455786
331.59381835
311.012963413
303.480021537
301.015154913
300.369863535
300.196501994
300.123226275
300.077403492
300.044575494
300.020718068
300.006009431
300.000878975
300.00008677
300.000007218
300
300
300
300
300
384.256856658
331.179489665
310.385837057
302.971667032
300.781635122
300.32368444
300.196406285
300.132450964
300.087081999
300.051910936
300.025176441
300.007654788
300.00111677
300.000106539
300.000010596
300
300
300
300
300
392.825663858
331.460267234
309.251439915
302.412834409
300.70365526
300.325998786
300.211653681
300.148251114
300.100600777
300.062202927
300.031439493
300.010298334
300.001644381
300.000173568
300.000020693
300.000001236
300
300
300
300
407.326055265
334.831032872
309.98924854
302.580026188
300.769056757
300.364452308
300.237995
300.168720363
300.116719461
300.074298638
300.039482669
300.014127163
300.00261038
300.00032872
300.000044332
300.000004841
300
300
300
300
413.787107967
344.276547586
314.147925812
303.732178334
301.046748773
300.452328463
300.276707005
300.192723823
300.134504223
300.087736632
300.0486116
300.018900942
300.004059015
300.000608519
300.000089653
300.000011379
300.000000156
300
300
300
417.274290401
346.972883568
315.931770485
304.544712069
301.405457295
300.586700122
300.330144194
300.220140222
300.152492771
300.100637943
300.057489706
300.023948277
300.005854993
300.001009108
300.000160237
300.000022473
300.000001397
300
300
300
418.565946627
345.966866877
315.881179011
304.87841636
301.653451958
300.709265665
300.383722462
300.246174241
300.168085461
300.111130854
300.064491079
300.028274982
300.007707521
300.001468567
300.000247934
300.000037922
300.000003602
300
300
300
418.749512482
344.178093151
314.82282722
304.647348289
301.729700392
300.786615626
300.424598617
300.266857434
300.179946042
300.118437145
300.068879659
300.031031272
300.009166874
300.001892159
300.000335864
300.000055309
300.000006283
300
300
300
300
300
300
300
300
300
300
300
300
300
300
300
300
300
300
300
300
300
300
300
300
300
300
300
300
300
300
300
300
300
300
300
300
300
300
300
300
300
300
300
300
300
300
300
300
300
300
300
300
300
300
300
300
300
300
300
300
300
300
300
300
300
300
300
300
300
300
300
300
300
300
300
300
300
300
300
300
300
300
300
300
300
300
300
300
300
300
300
300
300
300
300
300
300
300
300
300
300
300
300
300
300
300
300
300
300
300
300
300
300
300
300
300
300
300
300
300
300
300
300
300
300
300
300
300
300
300
300
300
300
300
300
300
300
300
300
300
300
300
300
300
300
300
300
300
300
300
300
300
300
300
300
300
300
300
300
300
300
300
300
300
300
300
300
300
300
300
300
300
300
300
300
300
300
300
300
300
300
300
300
300
300
300
300
300
300
300
300
300
300
300
300
300
300
300
300
300
300
300
300
300
300
300
300
300
300
300
300
300
300
300
300
300
300
300
300
300
300
300
300
300
300
300
300
300
300
300
300
300
300
300
300
300
300
300
300
300
300
300
300
300
300
300
300
300
300
300
300
300
300
300
300
300
300
300
300
300
300
300
300
300
300
300
300
300
300
300
300
300
300
300
300
300
300
300
300
300
300
300
300
300
300
300
300
300
300
300
300
300
300
300
300
300
300
300
300
300
300
300
300
300
300
300
300
300
300
300
300
300
300
300
300
300
300
300
300
300
300
300
300
300
300
300
300
300
300
300
300
300
300
300
300
300
300
300
300
300
300
300
300
300
300
300
300
300
300
300
300
300
300
300
300
300
300
300
300
300
300
300
300
300
300
300
300
300
300
300
300
300
300
300
300
300
300
300
300
300
300
300
300
300
300
300
300
300
300
300
300
300
300
300
300
300
300
300
300
300
300
300
300
300
300
300
300
300
300
300
300
300
300
300
300
300
300
300
300
300
300
300
300
300
300
300
300
300
300
300
300
300
300
300
300
300
300
300
300
300
300
300
300
300
300
300
300
300
300
300
300
300
300
300
300
300
300
300
300
300
300
300
300
300
300
300
300
300
300
300
300
300
300
300
300
300
300
300
300
300
300
300
300
300
300
300
300
300
300
300
300
300
300
300
300
300
300
300
300
300
300
300
300
300
300
300
300
300
300
300
300
300
300
300
300
300
300
300
300
300
300
300
300
300
300
300
300
300
300
300
300
300
300
300
300
300
300
300
300
300
300
300
300
300
300
300
300
300
300
300
300
300
300
300
300
300
300
300
300
300
300
300
300
300
300
300
300
300
300
300
300
300
300
300
300
300
300
300
300
300
300
300
300
300
300
300
300
300
300
300
300
300
300
300
300
300
300
300
300
300
300
300
300
300
300
300
300
300
300
300
300
300
300
300
300
300
300
300
300
300
300
300
300
300
300
300
300
300
300
300
300
300
300
300
300
300
300
300
300
300
300
300
300
300
300
300
300
300
300
300
300
300
300
300
300
300
300
300
300
300
300
300
300
300
300
300
300
300
300
300
300
300
300
300
300
300
300
300
300
300
300
300
300
300
300
300
300
300
300
300
300
300
300
300
300
300
300
300
300
300
300
300
300
300
300
300
300
300
300
300
300
300
300
300
300
300
300
300
300
300
300
300
300
300
300
300
300
300
300
300
300
300
300
300
300
300
300
300
300
300
300
300
300
300
300
300
)
;

boundaryField
{
    emptyPatch
    {
        type            empty;
    }
    minY
    {
        type            fixedValue;
        value           uniform 300;
    }
    maxY
    {
        type            inletOutlet;
        inletValue      nonuniform List<scalar> 0();
        value           nonuniform List<scalar> 0();
    }
    maxX
    {
        type            fixedValue;
        value           uniform 300;
    }
    water_to_heater
    {
        type            copiedFixedValue;
        sourceFieldName T.liquid;
        value           nonuniform List<scalar> 
61
(
791.367671735
791.319107161
791.062867071
791.063235603
790.950125294
790.949926522
790.901469259
790.90224719
790.898356617
790.899111476
790.904287597
790.904163695
790.907798621
790.907620549
790.90879894
790.908967063
790.90488083
790.9050727
790.895247578
790.895183925
790.88262423
790.882630511
790.870103413
790.871649384
790.858626251
790.854771934
790.844596657
790.842155176
790.835114074
790.835488966
790.830977023
790.830709255
790.828452084
790.828134477
790.826098093
790.826401914
790.824985956
790.824660664
790.824798939
790.825038549
790.825819406
790.826000028
790.82594179
790.825841911
790.825454622
790.826145251
790.826608651
790.829676654
790.832265591
790.831130941
790.831006883
790.825619656
790.828508496
790.829361301
790.834617764
790.837360649
790.846956077
790.846536836
790.859604406
790.860480429
790.882104463
)
;
    }
    procBoundary2to3
    {
        type            processor;
        value           nonuniform List<scalar> 
41
(
417.672697811
341.63499977
313.128497825
304.178561992
301.771478383
300.839047734
300.453343449
300.281790575
300.188122007
300.122585919
300.070850768
300.032276216
300.010040918
300.002212208
300.000410085
300.000071551
300.000009086
300
300
300
300
300
300
300
300
300
300
300
300
300
300
300
300
300
300
300
300
300
300
300
300
)
;
    }
}


// ************************************************************************* //
