/*--------------------------------*- C++ -*----------------------------------*\
| =========                 |                                                 |
| \\      /  F ield         | OpenFOAM: The Open Source CFD Toolbox           |
|  \\    /   O peration     | Version:  2312                                  |
|   \\  /    A nd           | Website:  www.openfoam.com                      |
|    \\/     M anipulation  |                                                 |
\*---------------------------------------------------------------------------*/
FoamFile
{
    version     2.0;
    format      ascii;
    arch        "LSB;label=32;scalar=64";
    class       volScalarField;
    location    "0.7/water";
    object      k.gas;
}
// * * * * * * * * * * * * * * * * * * * * * * * * * * * * * * * * * * * * * //

dimensions      [0 2 -2 0 0 0 0];

internalField   nonuniform List<scalar> 
1504
(
1.98388775749
0.902421507359
0.432013523123
0.224026879491
0.127301187413
0.0747566047184
0.0439414731319
0.0267000056844
0.0173432070676
0.0122796769676
0.00913247511759
0.00638406347208
0.00366368887815
0.00196203182663
0.0015123391582
0.00157523170098
0.001579128598
0.00141658010534
0.00118546053887
0.000709581359805
1.96969213974
0.898587848816
0.429205479132
0.22124460921
0.124391186446
0.0725426715738
0.0431508558036
0.0267591219619
0.0177293677473
0.0127328937202
0.0094772763582
0.00659576237292
0.00381573062907
0.00207063889739
0.00157985154538
0.00163214536292
0.00164626187282
0.0015018564042
0.00128331589301
0.000844115357535
1.97226552584
0.900244210756
0.428410381767
0.218441434001
0.120536540342
0.0697620822322
0.0420834899981
0.026643463303
0.0180249351134
0.0131055831521
0.00972492132938
0.00672339713749
0.00391104669796
0.00216122631187
0.00165309505308
0.0016976857006
0.00172334287924
0.00161101837251
0.00140742452664
0.00098502739846
1.98831946853
0.907063341004
0.429829818037
0.21595858455
0.116647576011
0.0673591152635
0.0411614581832
0.0265169916006
0.0182833234292
0.0133800241878
0.00986083538431
0.00677022863098
0.00395756293648
0.00223346742593
0.00172781700884
0.00176624271004
0.00180732719936
0.00173808097591
0.00154379817973
0.00113888282637
2.02783482068
0.918225074676
0.431601573027
0.213102743676
0.113570892908
0.0656644278287
0.0404381264564
0.0264217771611
0.0184755136644
0.0135099845352
0.00988036675979
0.00674201268533
0.00396189213293
0.00228491245917
0.00179671999424
0.00182938261777
0.00189108513389
0.00186387972696
0.00167758795911
0.00130104349833
2.08920264185
0.937405928492
0.43548435153
0.211916466295
0.11201108594
0.0645835839034
0.0398835519308
0.0263736706861
0.0185395356115
0.0134791290875
0.00979857720626
0.00665463610733
0.00393531075122
0.00231626838987
0.00185317142587
0.00187960929861
0.00196306430558
0.00197033203188
0.0018077990159
0.00146046807076
2.15588068517
0.958531845161
0.441214399046
0.212653416814
0.111476934831
0.063841933261
0.0395094655719
0.0263075996772
0.0184357454335
0.0133341002224
0.00965069975099
0.00653612107178
0.00389872131143
0.00233481840708
0.00188988827966
0.00191428530022
0.00202056099758
0.00206199415525
0.00193501700651
0.00160971017512
2.20616887616
0.974449025113
0.446300061473
0.214079171512
0.111372294164
0.0633644972573
0.0393222484757
0.0261680103088
0.0182347417395
0.0131524323691
0.00948307622774
0.00642065562491
0.00387675615447
0.00235481230962
0.0019115060702
0.00193488528916
0.00206659190422
0.00214158591557
0.00205826316556
0.00174446751968
2.22852945827
0.976151441108
0.446313807021
0.214254148615
0.111079678682
0.0630375018569
0.0391900807553
0.0259838486468
0.0180669601483
0.0130035530624
0.00933264094444
0.0063296823667
0.00388517176929
0.00238717013145
0.00192427874619
0.0019401986518
0.00209591108835
0.00220611769444
0.00217448061927
0.0018606485136
2.2137838418
0.959002300333
0.439790516715
0.212642639213
0.110398074332
0.0627118720339
0.0390638188099
0.0258920214374
0.0180212175727
0.0129261830569
0.00920998143288
0.00626224770943
0.00392148242931
0.00243568111244
0.00193026813305
0.00192483449142
0.0020952020547
0.00224445369686
0.00227132316069
0.00198504898252
2.12670714607
0.924719900838
0.430913886458
0.211156514494
0.110042900238
0.0626698413279
0.039199981412
0.0261152191791
0.0182091604937
0.0129650516646
0.00912122289578
0.00620842018389
0.00397641733226
0.00249741088076
0.00192562484826
0.00188340272087
0.00204722392681
0.00223612592452
0.0023242474071
0.00209799898763
1.95190742012
0.887854203426
0.42698629055
0.212374606352
0.111093715142
0.0635209274402
0.0400573180733
0.0269618665919
0.0188264034107
0.0132084144459
0.00908708259292
0.00617398840278
0.00403713244218
0.00254785003307
0.00189202490652
0.00181143795058
0.00194528091472
0.00216149971563
0.00231716998366
0.00215427500136
1.82232056329
0.878823906617
0.435587662535
0.218795794546
0.114662302449
0.0660814269911
0.0424744370731
0.0290156974484
0.0200751085305
0.0136067443779
0.00907374150943
0.00616784118886
0.00411069394613
0.00259216921042
0.00184012754236
0.00169908351041
0.00180286579148
0.00201951003462
0.00224564623038
0.00215266666464
1.84346997598
0.911621690126
0.454280204145
0.227861263892
0.120604619863
0.0713862562714
0.0469163260234
0.0321524396043
0.0217376329007
0.0142348091321
0.00929359816799
0.00630957713485
0.00425592411371
0.00267134143107
0.00179460196404
0.00157620168839
0.00164362275067
0.00183256810762
0.00211632400041
0.00209915551011
1.98387197227
0.95965535138
0.465003898586
0.233091143033
0.127664541785
0.0781490065218
0.0525043948243
0.0361088003415
0.0241066776323
0.0154612590295
0.00990348308658
0.00665658227651
0.00452244642906
0.00282670382925
0.00178823668808
0.00147750656736
0.00148417212633
0.0016433592436
0.00194766586033
0.00201608762124
2.17355443152
0.985467149166
0.463223924345
0.234771604012
0.133497139831
0.0854618129348
0.0589206951779
0.0410486334549
0.0274070766164
0.0173108456579
0.0108589311619
0.00720031974875
0.00491644102047
0.00308485093109
0.00185102659059
0.00142199299827
0.0013642020402
0.00148542144052
0.00177718067926
0.00192983862475
2.25812843344
0.984116775048
0.459452530747
0.23576790623
0.137922744943
0.091413836087
0.0652145493633
0.046625838586
0.031316643829
0.0195282032719
0.0120284415591
0.00788114206019
0.00540898028892
0.00344122015982
0.00200048060391
0.0014201799423
0.001292871024
0.0013613716192
0.00163747985672
0.00185663361563
2.21868363086
0.968119955255
0.453176132122
0.235204745879
0.140468889829
0.0955955481441
0.0700817281021
0.0512555223431
0.0349021333409
0.0217766153651
0.0133053888109
0.00864345498445
0.00595115275658
0.00386238768952
0.00223679379116
0.00147856139217
0.00126614442575
0.00128734842674
0.00154330655106
0.00180416837734
2.14945924999
0.940644184121
0.44358137956
0.232609939344
0.140875566434
0.097679410176
0.0730513641683
0.0543151204428
0.0373680169716
0.0234913536473
0.0144261191964
0.00937443017921
0.00647677603677
0.00428092865453
0.00251655139232
0.00158787519464
0.00127648709602
0.00125077365845
0.00148838704217
0.00177579212228
2.07745236623
0.910795798737
0.432366660615
0.228174842919
0.139185577361
0.0975495967646
0.0738889613603
0.0555048052121
0.0384433112651
0.024411084075
0.0151830553466
0.00996001032401
0.00693490422143
0.0046540397301
0.00278084392598
0.00171141324807
0.00130798573951
0.00124038845284
0.001453437881
0.00177272051733
2.03144560873
0.891533004939
0.424299498867
0.223524225992
0.136016261835
0.0955153111598
0.0726947391211
0.0547583555857
0.0380396707596
0.0244399031385
0.0154908165288
0.0103479828685
0.00729729234896
0.00495494450872
0.00299273159562
0.00182016053953
0.00134579665576
0.00124581005623
0.00144387275225
0.00179097223918
2.0101460011
0.884591710066
0.42019233527
0.219158456171
0.131908745803
0.0920465253244
0.0697452972193
0.0522577060854
0.0363114508511
0.0236681252401
0.0153824013371
0.0105364996945
0.00754423427579
0.00515277157947
0.00312123736167
0.00189364412499
0.0013794121187
0.0012649841861
0.00145201933328
0.00182821382378
2.02244553291
0.889538599183
0.420231200958
0.215984077812
0.127999287822
0.0881176560572
0.0658088500968
0.0486595547157
0.0337638364033
0.0223926162981
0.0149824487796
0.0105497241054
0.00765242803087
0.00521418073569
0.00314680146839
0.00192401141204
0.00140193786012
0.00129193992621
0.00147027578831
0.00187879273154
2.05970993863
0.903669134771
0.423654573842
0.214983542792
0.125667233634
0.0849479527908
0.0619332675764
0.044856907022
0.0310228538973
0.0209416757471
0.0144205337506
0.0104058132502
0.00759539830656
0.00512538872901
0.00308105810704
0.00191405515603
0.00141045848974
0.00131945137491
0.00149074817955
0.00193463993741
2.11873969882
0.92123539278
0.428817909287
0.216597794748
0.125786780038
0.0833275794851
0.0588488659021
0.041501555733
0.0285230781615
0.0195382821219
0.0137880874039
0.0101107614066
0.00736662697828
0.00490716878607
0.00295434732502
0.00187039481116
0.00140639708553
0.00134014215547
0.00150631213224
0.00198479436069
2.17278891674
0.938954672048
0.435556873893
0.221891792321
0.129112659804
0.0836485764016
0.0569346301416
0.0389635261406
0.0265091576765
0.018323156691
0.0131441262463
0.00969416951685
0.00700473385394
0.00460681996608
0.00279164784122
0.00180445746046
0.00139442009717
0.0013490911922
0.00150989438371
0.00201587639292
2.17056377867
0.942442445295
0.444284114464
0.232298061436
0.135810275441
0.0857355494776
0.0563002218008
0.0374227213401
0.0251147939477
0.0173921925853
0.0125263970578
0.00922187742555
0.00657677370851
0.00426835163672
0.00260667419142
0.00172835097202
0.00137632352222
0.00134208875389
0.00149560868648
0.0020137949167
2.07419061911
0.93905178877
0.461493868283
0.249635685268
0.145060439955
0.0892187239437
0.0570643776563
0.0370888052421
0.0244935488432
0.016842599252
0.0120503843391
0.00879490125146
0.00617087613451
0.0039423210648
0.00242257547962
0.001651366193
0.00134963350169
0.00131648344282
0.00146006361531
0.00196726337539
2.00371506061
0.962080112423
0.495903110034
0.272335431739
0.156170155772
0.0944401306972
0.0593462914415
0.0380822896009
0.0248982856003
0.0168720654526
0.0119132775606
0.00856423196131
0.00590690855131
0.00371238360449
0.00227763717546
0.00158062464067
0.00131201397781
0.00127343074483
0.00140242292099
0.00187761702124
2.13170899161
1.04825943723
0.545921753537
0.296293090002
0.169699423162
0.102388529424
0.0640883907574
0.0409259470861
0.0265521342652
0.0177307527391
0.0123063386058
0.00868508343042
0.00590424904376
0.00366953826804
0.00222281508829
0.00153231190147
0.00126993412823
0.00122132283379
0.00132808088471
0.0017455292099
2.48008372606
1.1838959315
0.594801382868
0.321904348936
0.187710154119
0.115002022037
0.0724817177305
0.0463532130142
0.0299327120582
0.0197139771683
0.0133951756601
0.00925579918027
0.00621500904625
0.00384425553229
0.00229712289059
0.00153576942651
0.00124234874836
0.00117516386496
0.00125554900625
0.00159135163263
2.73351880228
1.27928343657
0.64278232692
0.356810890516
0.213426222412
0.132546902139
0.0841301966618
0.0541231495636
0.0350154607088
0.0229101039186
0.0153134455421
0.0103726064282
0.0068907302287
0.0042748941939
0.00252779187147
0.0016213983542
0.00125414962362
0.00115280651133
0.00120108896171
0.00146163243704
2.59675329219
1.27627641989
0.668167085701
0.385975618607
0.239771394569
0.150301778663
0.0962403403719
0.0625978343219
0.0409409362735
0.0269420725204
0.0179159996854
0.0119795549398
0.00789544093858
0.00492958325397
0.00291339498381
0.00180498979657
0.0013235768093
0.00116795163352
0.00117995216659
0.00136988879212
2.45684735878
1.23273043421
0.657854248727
0.386322359654
0.24589835926
0.158327726851
0.103514042817
0.0686238640757
0.0457012020288
0.0305461418904
0.0204986727059
0.0137223800515
0.00904947909333
0.00571229270635
0.00341068106697
0.0020761364642
0.00145299371816
0.00122415033908
0.00119210248687
0.00131767030995
2.49146459808
1.19001412715
0.615316655689
0.360752024514
0.233454983603
0.155166619627
0.104406453034
0.0708147571762
0.04815284041
0.0328621922141
0.022468653592
0.0152303795203
0.0101412072512
0.0065005855961
0.00394990727792
0.00240167255564
0.00162951870974
0.00131523890869
0.00123186275925
0.00129723544371
2.69439000425
1.19099412021
0.579008237633
0.327465144348
0.211779408106
0.144303763211
0.0997630746684
0.0692648047813
0.0481771189142
0.033696319094
0.023594294737
0.0162887146075
0.0110143392817
0.00719085620161
0.00446418705095
0.00274344156749
0.00183371707068
0.00143023369886
0.00129058112619
0.00130042661689
2.92893754366
1.22754016324
0.562457955829
0.299790689577
0.189009742355
0.129886207215
0.0916561255909
0.0650777292847
0.0464161760016
0.0333909166356
0.0239733965729
0.0168618039698
0.0116029960568
0.00772570881748
0.0049133159935
0.00307702135463
0.00205204613027
0.00156053962548
0.00136055731039
0.00131843745277
3.11306366506
1.27198163514
0.556728507959
0.27880624533
0.169229356132
0.11574795774
0.0827451127
0.00131570705758
0.00130769616083
0.00133607551661
0.00145848293907
0.00180318659847
0.00258071892539
0.00395725167871
0.0058258699714
0.00785068730851
0.00974291063957
0.0113650930639
0.0127012813053
0.0138347226573
0.0149886385734
0.0167222407792
0.0205505214467
0.0302061180968
0.000421002882552
0.00130413523991
0.00134825917616
0.00132665736164
0.00132582688556
0.00137376594416
0.00154410157864
0.00198639989471
0.00290826087863
0.00440953327302
0.00630655400946
0.00826609883023
0.0100433530659
0.011533045023
0.0127350396851
0.0137374124322
0.014758046524
0.0163347019498
0.0199391986512
0.029297303935
0.000424461941055
0.00117985940084
0.00135846857563
0.00133937046036
0.00134901354693
0.00142393628662
0.00165592526321
0.00221205780895
0.00328052506704
0.0048843218759
0.00678284512503
0.00866258958838
0.0103205754855
0.0116786878429
0.0127497612332
0.0136256011412
0.0145187759162
0.0159459707973
0.0193335487791
0.0284047957067
0.000512801814674
0.000994644048294
0.00136924561322
0.00135475032502
0.00137916027805
0.0014903781873
0.00179928806331
0.00248299191103
0.00369283145305
0.0053730869473
0.0072489795618
0.00903746881477
0.0105735355089
0.0118017646624
0.0127455433995
0.0134994644132
0.0142708752402
0.0155559886965
0.0187334454903
0.0275200373422
0.000637645926501
0.000794940705525
0.00138119513047
0.00137470313405
0.00141923345448
0.001577908867
0.00197960272318
0.00280032416955
0.00413901276001
0.00586816582853
0.00770063768067
0.00938908749722
0.0108019175984
0.0119025692359
0.0127229495045
0.0133596108571
0.0140147584653
0.0151648798742
0.0181390580228
0.0266360287232
0.000679655564485
0.000627169094613
0.00139524454095
0.0014020429739
0.00147322069598
0.00169222480286
0.00220196540142
0.00316342226607
0.00461222283201
0.00636309623719
0.00813465733332
0.00971644284454
0.0110057346226
0.0119815752683
0.0126826827861
0.0132068140919
0.0137510479278
0.0147729465518
0.0175508000109
0.0257475234304
0.000787078580354
0.000523389394886
0.00140900600323
0.00144003607812
0.0015458074266
0.0018393569437
0.00247030013146
0.00356944915015
0.00510493445994
0.00685197821778
0.00854814460996
0.0100184228518
0.0111847420391
0.0120389979712
0.0126252602817
0.013041773882
0.0134804052383
0.0143805761232
0.016969233032
0.024850982398
0.000954674365531
0.000504162988367
0.00141362422804
0.00149208745835
0.00164190376848
0.002024684695
0.00278604625805
0.00401263983648
0.00560850971319
0.00732866269771
0.00893777825559
0.0102933829698
0.0113382230913
0.0120747052755
0.0125509839443
0.0128650987672
0.0132035131415
0.0139882099618
0.0163950384675
0.0239450788801
0.0011208361077
0.000571449980638
0.00139587374972
0.00156197234552
0.00176613795637
0.00225177980112
0.00314705038008
0.00448416618504
0.00611332190073
0.00778672505189
0.00929997110146
0.0105394734792
0.0114653748131
0.0120885848766
0.0124602410975
0.0126775239052
0.0129212118605
0.0135964450072
0.0158291288907
0.0230316641558
0.00128458922204
0.000720655630263
0.00133359402351
0.00165421125098
0.0019224129773
0.00252160349158
0.00354750478362
0.00497323268414
0.00660987331158
0.00822039486449
0.00963179325049
0.0107554936436
0.0115660296689
0.0120811080928
0.0123539159955
0.0124801909738
0.0126347007339
0.013206210564
0.015272833769
0.0221166903723
0.00144054404044
0.000897448085342
0.00119207803928
0.00177379244456
0.00211363686143
0.00283249801287
0.00397921900589
0.00546916938938
0.00709048552092
0.00862587396995
0.00993205998557
0.0109417445889
0.011641281297
0.0120537630508
0.0122336731662
0.0122748316687
0.0123456696261
0.012818932319
0.0147280615516
0.02121043845
0.00158717281869
0.000885005911159
0.000960547640108
0.00192322731393
0.00234235634643
0.00318149387551
0.00443412830802
0.00596396152337
0.00755098504784
0.00900246215097
0.0102020862901
0.0111004907574
0.0116937259163
0.0120091452886
0.0121019597331
0.0120637276906
0.0120562686697
0.0124365512643
0.0141972660598
0.0203265636895
0.00169648122146
0.0010384071569
0.000750803936125
0.00208265094479
0.00261356350604
0.00356728487368
0.00490737878555
0.00645423433327
0.00799148318207
0.00935269882898
0.0104454858208
0.0112355743881
0.0117269995741
0.0119504956061
0.0119615923746
0.0118493733756
0.0117688447403
0.0120613531869
0.0136832198364
0.0194800551858
0.00173890185993
0.00119653074459
0.000747075651722
0.00212052880931
0.00293569506159
0.00399112141593
0.00539740055165
0.0069400580527
0.0084145228198
0.00968046610034
0.0106664587415
0.0113509624187
0.0117446025163
0.011880790237
0.0118150833319
0.0116339801768
0.0114855503011
0.011695593834
0.0131885568685
0.0186849092011
0.0017606129331
0.00131511168327
0.000922483039296
0.00176607976309
0.00331251970632
0.00445450945413
0.00590292846128
0.00742165455363
0.008822170896
0.00998874453569
0.0108681722553
0.0114496391458
0.0117491884214
0.0118023271684
0.0116644359846
0.0114194036878
0.0112083126776
0.0113414519656
0.012715735149
0.0179531120492
0.00177423958467
0.00140514576906
0.000890296986808
0.00116145469158
0.00369732936068
0.00495878261189
0.00642205018093
0.00789853369427
0.00921563619278
0.0102796771248
0.0110531020007
0.0115340791899
0.0117430724682
0.0117172114507
0.0115115800869
0.0112075120354
0.010939121947
0.0110011939945
0.0122671165924
0.0172944874169
0.00178575817052
0.00149246461673
0.00108092699054
0.000889152442344
0.00381872389825
0.00550692228282
0.00695455538269
0.00837150501903
0.00959714409145
0.0105562264781
0.0112243869789
0.0116072833245
0.0117289850369
0.0116278986928
0.0113587895819
0.0110005654258
0.0106804212809
0.010677568527
0.0118452088722
0.0167166639828
0.00180210204203
0.00157431600893
0.00129994952892
0.00101517456623
0.00313999415775
0.00608679417354
0.00750574467245
0.00884514627548
0.00997156427278
0.0108231582471
0.0113863120177
0.0116729059688
0.0117099916795
0.011537042347
0.0112085742122
0.0108012349711
0.0104353361864
0.0103741827644
0.011453083724
0.0162240157283
0.00182446095165
0.00168487011039
0.00153765627699
0.00112054562856
0.00193898677015
0.00653921994025
0.00808753947534
0.0093277421024
0.0103457559698
0.011086101015
0.0115432481957
0.011734174033
0.0116884420539
0.0114464916942
0.011062707535
0.0106116138416
0.0102064995054
0.0100943883013
0.0110938523105
0.015815107914
0.00185875755544
0.00181899271737
0.00178899275178
0.00132878490902
0.00138414854856
0.00616783990737
0.00870752732027
0.0098297010228
0.0107269754902
0.0113501325769
0.0116984258785
0.0117927592313
0.0116648146733
0.0113559697971
0.0109205917084
0.0104310474993
0.00999330701495
0.00983864612201
0.0107668240369
0.0154804941969
0.00190850428171
0.00196377686164
0.00202174416669
0.00170032811071
0.00150746977817
0.00436983849792
0.00927890399121
0.0103623585558
0.0111220666875
0.0116192530795
0.0118535155455
0.0118482435991
0.0116368261402
0.0112615746939
0.0107768927086
0.0102527871845
0.00978796601099
0.00959805155101
0.0104604998673
0.0151965540331
0.0019760390218
0.00213050956982
0.00224246216666
0.00207191475559
0.00158493282287
0.00265241846432
0.00933900531325
0.0109327705152
0.0115360420478
0.0118957924118
0.0120086808721
0.0118987649746
0.0116007639669
0.0111580367324
0.0106250937271
0.0100692682613
0.00958253393834
0.00936248359227
0.0101621755312
0.0149344035399
0.00206621539182
0.002321387695
0.00249674154107
0.00243179228255
0.00170171133211
0.00207046956773
0.0080522060475
0.0115047217791
0.0119704558451
0.0121802047059
0.0121635544532
0.011942985849
0.0115542918063
0.0110422094461
0.0104615550607
0.00987706110984
0.00937213240581
0.00912648686501
0.0098630719636
0.0146539893803
0.00217734401361
0.00253799009157
0.00279746511661
0.00279336234981
0.00206726982991
0.00213055861481
0.00575231577952
0.0118751122401
0.0124238361483
0.0124719093454
0.0123180832834
0.0119803105333
0.011495006326
0.0109086489072
0.0102766522725
0.00966130961542
0.00913727364416
0.00886500750087
0.00952895155932
0.0142790939762
0.00230421671874
0.0027790335141
0.00314443966264
0.00316995720194
0.00245948515538
0.00238607281253
0.00387726782767
0.0115286939618
0.0128799619818
0.0127641645033
0.0124660683331
0.0120030770057
0.0114107077078
0.0107368589822
0.010037832082
0.00937438796895
0.00881525891529
0.00850332297211
0.00907265167031
0.0136816721118
0.00243788376246
0.00303620349905
0.00352623769199
0.0035549050774
0.00286468764881
0.00234417078134
0.00296751189408
0.00985842933201
0.0132517247605
0.0130365649346
0.0125894154875
0.0119959855869
0.0112879018208
0.0105130851473
0.00972879610367
0.00899691414535
0.00838605956463
0.00802962958124
0.00850586862366
0.0128360802615
0.00256470334873
0.0032928543303
0.00392261816818
0.00392361533601
0.00327244780196
0.00239590731416
0.002727828604
0.0072875701741
0.0132680569176
0.013258834258
0.0126654027908
0.0119486589055
0.0111333955443
0.0102662246859
0.00940679431542
0.00862419586483
0.0079991325057
0.00767081414077
0.00815267164681
0.0120589285084
0.00266297811224
0.00352400686085
0.00430098967915
0.00430866889125
0.00369139691248
0.00275538461825
0.00286259876975
0.00501074594004
0.0124310595114
0.013392022753
0.0126815311172
0.0118689125169
0.0109899309349
0.0100942296673
0.00925567770213
0.00857094961659
0.00815336241966
0.0081367014439
0.00886888008836
0.012112014853
0.00270439307871
0.00369970342061
0.00464208420454
0.0047277793548
0.00414544315637
0.00317732348321
0.00307275023171
0.00364866184823
0.0102515370479
0.0133017983848
0.0126308684481
0.0117740641931
0.0109374220832
0.0101943977318
0.00966169263792
0.00948130084912
0.00976167875677
0.010493762471
0.0116633943935
0.0139414655473
0.0026653996025
0.00379134512587
0.00491453099478
0.0051709097214
0.0046665947935
0.00368604826622
0.00287021496773
0.00312277129226
0.00712678320226
0.0125938253659
0.0125122042283
0.0117158447798
0.0111416277905
0.0109204572219
0.0111956509166
0.0120786076544
0.0135553278425
0.0153164120137
0.0168477278019
0.0181031631031
0.00254060747473
0.00376030878224
0.00507185818692
0.00559615598449
0.00522595679856
0.00431906643261
0.00327123177498
0.00331346006984
0.00435890283021
0.0103515562021
0.0122044236965
0.0117311443705
0.0117179237876
0.0124380148788
0.0139195977605
0.0161012862879
0.0188225974954
0.0219194660757
0.0249018489917
0.0266442817533
0.0023469816873
0.00357567354964
0.00503839525381
0.00590208049376
0.00580331136331
0.00510372930313
0.00406497129503
0.00333190076041
0.00326031690309
0.006195876526
0.0112263483168
0.0121320457341
0.0128999184089
0.0146758116443
0.0172737735046
0.0204839763145
0.0243505610019
0.0290525115793
0.0346435252303
0.0402963985814
0.00213419864246
0.00327511800859
0.00476215733734
0.00590986566072
0.00624056259863
0.00599577159788
0.00517982643673
0.00409519289266
0.00382261033579
0.0034735289103
0.00712246987659
0.0128611751875
0.0152715161606
0.0176508067497
0.0206984475397
0.0244975364063
0.0293076725595
0.0357151437814
0.0444758098336
0.0559059370117
0.00193393991247
0.002931796666
0.00431731675998
0.00558232536816
0.00629998651367
0.00656215667436
0.00644834456348
0.00577610402596
0.00474305340673
0.00396784552161
0.00419780659214
0.0057790511511
0.0108151136585
0.0135799445955
0.0225398291016
0.0263258536222
0.029970156258
0.037708587026
0.0519881739138
0.0709772431116
0.0017523684523
0.00259893552329
0.00380345109113
0.00503660846707
0.00600584594202
0.00669068436689
0.00710018016935
0.00715464547634
0.00689235277964
0.00647668399251
0.00615547445829
0.00595848715023
0.00538464326755
0.00434917337275
0.00492441462709
0.0141037567807
0.0184761397994
0.0228432383827
0.0440484359107
0.0822048323042
0.00161312335799
0.00230856072269
0.00330823624888
0.00442335027021
0.0054949366236
0.00646613128211
0.00726744591055
0.00778862653185
0.00796993899772
0.00785775782575
0.007525706241
0.00683150714919
0.00596508260399
0.00511456197676
0.00443766698471
0.0038289034442
0.00787916371745
0.0133518986999
0.0230043715581
0.0853957041737
0.00151163107739
0.00205962444824
0.00287712842854
0.00384961345678
0.00491221430498
0.00602701877504
0.00707600809559
0.00773546624707
0.00771480348375
0.00736307010088
0.00687988228863
0.00624205307237
0.00553324203305
0.00485250745511
0.00424307289724
0.00400700652814
0.00409486115139
0.0120340792114
0.0206802341426
0.0831674141361
0.00144151538942
0.00183852196833
0.00251578425308
0.00335172390424
0.00432789086799
0.0054242043933
0.00646792808705
0.00702122012261
0.00703097380713
0.00681193223315
0.00644145196837
0.00591366783421
0.00529503715542
0.00469569614687
0.00420774574256
0.00398844713462
0.00433789492599
0.0126018617674
0.0385411765899
0.0829176830517
)
;

boundaryField
{
    emptyPatch
    {
        type            empty;
    }
    minY
    {
        type            fixedValue;
        value           nonuniform List<scalar> 0();
    }
    maxY
    {
        type            inletOutlet;
        inletValue      nonuniform List<scalar> 0();
        value           nonuniform List<scalar> 0();
    }
    water_to_cooler
    {
        type            kqRWallFunction;
        value           nonuniform List<scalar> 
38
(
0.0302061180968
0.029297303935
0.0284047957067
0.0275200373422
0.0266360287232
0.0257475234304
0.024850982398
0.0239450788801
0.0230316641558
0.0221166903723
0.02121043845
0.0203265636895
0.0194800551858
0.0186849092011
0.0179531120492
0.0172944874169
0.0167166639828
0.0162240157283
0.015815107914
0.0154804941969
0.0151965540331
0.0149344035399
0.0146539893803
0.0142790939762
0.0136816721118
0.0128360802615
0.0120589285084
0.012112014853
0.0139414655473
0.0181031631031
0.0266442817533
0.0402963985814
0.0559059370117
0.0709772431116
0.0822048323042
0.0853957041737
0.0831674141361
0.0829176830517
)
;
    }
    water_to_heater
    {
        type            kqRWallFunction;
        value           nonuniform List<scalar> 
60
(
1.98388775749
1.98388775749
1.96969213974
1.97226552584
1.98831946853
1.98831946853
2.02783482068
2.02783482068
2.08920264185
2.08920264185
2.15588068517
2.20616887616
2.22852945827
2.22852945827
2.2137838418
2.2137838418
2.12670714607
2.12670714607
1.95190742012
1.82232056329
1.84346997598
1.84346997598
1.98387197227
1.98387197227
2.17355443152
2.17355443152
2.25812843344
2.21868363086
2.14945924999
2.14945924999
2.07745236623
2.07745236623
2.03144560873
2.03144560873
2.0101460011
2.02244553291
2.05970993863
2.05970993863
2.11873969882
2.11873969882
2.17278891674
2.17278891674
2.17056377867
2.07419061911
2.00371506061
2.00371506061
2.13170899161
2.13170899161
2.48008372606
2.48008372606
2.73351880228
2.59675329219
2.45684735878
2.45684735878
2.49146459808
2.49146459808
2.69439000425
2.69439000425
2.92893754366
3.11306366506
)
;
    }
    procBoundary3to1
    {
        type            processor;
        value           nonuniform List<scalar> 
41
(
0.0600106624997
0.0440176423112
0.0325837452049
0.023862576856
0.0170472813357
0.0119336351002
0.00810844270629
0.00529793720849
0.00340404374247
0.00228555436877
0.00170570993146
0.00143942781813
0.00134523717265
3.22116171917
1.31938067337
0.564817755695
0.269095820401
0.155890238755
0.104887979588
0.0600106624997
0.0754817951395
0.00139738790108
0.00166350861075
0.00217658849583
0.00287585805534
0.00373625639483
0.00468669240853
0.0055758148536
0.00610640062969
0.0062729850065
0.00622562426676
0.00597677768974
0.00555372303546
0.00504120009536
0.00454966181223
0.00410870840569
0.00406742313642
0.0048583751012
0.0264913977256
0.0581410601555
0.0815136236316
)
;
    }
    procBoundary3to2
    {
        type            processor;
        value           nonuniform List<scalar> 
41
(
2.00443269205
0.910321173692
0.435424208992
0.225720639891
0.128384168439
0.0753769576996
0.0438365904449
0.0261997045135
0.0167652633732
0.0117384983611
0.00870541928826
0.00608778020366
0.00344755258845
0.00183630202875
0.0014553539624
0.00153007283615
0.00152242638506
0.00135415483225
0.00110172191847
0.000588314426276
0.00130637162876
0.00129358082446
0.00130803145534
0.001394070666
0.00165800581051
0.00230006173402
0.00353567959945
0.00534751577165
0.00741983754093
0.00942089919212
0.011175614629
0.0126488908025
0.0139178538913
0.0152108851778
0.0171082454688
0.0211648065362
0.0311361877661
0.00055177885914
0.00135726498346
0.00133878690063
0.00133878690063
)
;
    }
}


// ************************************************************************* //
