/*--------------------------------*- C++ -*----------------------------------*\
| =========                 |                                                 |
| \\      /  F ield         | OpenFOAM: The Open Source CFD Toolbox           |
|  \\    /   O peration     | Version:  2312                                  |
|   \\  /    A nd           | Website:  www.openfoam.com                      |
|    \\/     M anipulation  |                                                 |
\*---------------------------------------------------------------------------*/
FoamFile
{
    version     2.0;
    format      ascii;
    arch        "LSB;label=32;scalar=64";
    class       surfaceScalarField;
    location    "0.6/water";
    object      phi.gas;
}
// * * * * * * * * * * * * * * * * * * * * * * * * * * * * * * * * * * * * * //

dimensions      [0 3 -1 0 0 0 0];

oriented        oriented;

internalField   nonuniform List<scalar> 
2914
(
2.91557219551e-07
1.06288622833e-06
4.945543535e-07
8.11083953717e-07
6.29124954101e-07
7.21197724577e-07
7.33970701796e-07
6.75038815147e-07
7.76561561828e-07
6.60485626144e-07
8.16134693426e-07
6.66292983184e-07
8.6287105774e-07
6.84786315287e-07
9.24158347566e-07
7.11511306464e-07
1.01329862338e-06
7.46840503222e-07
1.07185537393e-06
7.93316747083e-07
9.40303729512e-07
8.45316905663e-07
7.32117324163e-07
9.05441137348e-07
6.08614378149e-07
9.75065129008e-07
5.44948074195e-07
1.03869573064e-06
4.94629920646e-07
1.08537800912e-06
4.59990757384e-07
1.10437669844e-06
4.5689542727e-07
1.08346131668e-06
4.63958321739e-07
1.03951056249e-06
4.46138334834e-07
1.00682466867e-06
1.03044486217e-06
3.75676217357e-07
2.72211759925e-07
7.66829974424e-07
5.2973564838e-07
6.92119657033e-07
6.50391716295e-07
6.63926572475e-07
7.46491754673e-07
6.5136371305e-07
7.92239599457e-07
6.558325762e-07
8.44524554183e-07
6.70178770737e-07
9.03564737487e-07
6.90321633391e-07
9.84499847135e-07
7.15226971677e-07
1.0334301938e-06
7.46715061292e-07
8.67254233651e-07
7.85076056826e-07
6.50655120113e-07
8.40013970542e-07
5.6053470982e-07
9.11119648078e-07
5.33621719084e-07
9.79903484834e-07
5.16449969936e-07
1.03696526037e-06
5.01301275119e-07
1.07637271627e-06
5.09081300027e-07
1.08997098784e-06
5.37851123169e-07
1.07539295468e-06
5.61700459313e-07
1.04895100906e-06
5.39916102895e-07
1.04011203073e-06
1.09351300063e-06
4.52335440828e-07
2.47273235119e-07
6.34447766421e-07
5.47304773553e-07
6.33006173364e-07
6.40105129392e-07
6.37061128193e-07
7.20932894991e-07
6.48561061594e-07
7.74959013326e-07
6.65727559405e-07
8.3063188761e-07
6.84593197535e-07
8.87666236358e-07
7.03577641363e-07
9.2873488088e-07
7.24383692625e-07
7.94367589926e-07
7.49045798031e-07
5.85044701954e-07
7.90727577166e-07
4.9334740884e-07
8.52122895013e-07
4.72067994555e-07
9.18385327245e-07
4.70662447622e-07
9.79520835905e-07
4.79166161487e-07
1.03010796878e-06
5.02133991977e-07
1.06539581321e-06
5.46570337521e-07
1.08044834341e-06
5.99867414719e-07
1.07722352376e-06
6.2727663231e-07
1.06958611817e-06
5.91349014786e-07
1.08463161255e-06
1.1743810464e-06
4.72927942719e-07
2.03275047363e-07
6.0978678442e-07
5.26004952582e-07
6.21626310842e-07
5.87354043627e-07
6.4688819701e-07
6.70592859422e-07
6.72624592168e-07
7.23968174002e-07
6.97458938899e-07
7.66336766104e-07
7.1711519448e-07
7.90245877127e-07
7.3260126935e-07
7.01236638101e-07
7.46594308794e-07
5.13204441983e-07
7.71894792231e-07
4.00840541147e-07
8.18850989558e-07
3.71741485463e-07
8.76450092759e-07
3.76746788283e-07
9.35134922784e-07
3.97414549849e-07
9.88903445372e-07
4.34226195855e-07
1.03349257723e-06
4.87873808702e-07
1.06546867763e-06
5.52513704829e-07
1.08272559074e-06
6.04655756515e-07
1.08721403091e-06
6.06513518141e-07
1.09054854883e-06
5.38498202751e-07
1.13108539693e-06
1.26349001777e-06
3.799182093e-07
1.32168089772e-07
6.57136190886e-07
4.72726488601e-07
6.70563779403e-07
5.33917487596e-07
7.02797447109e-07
6.15346380261e-07
7.3721573016e-07
6.49426681572e-07
7.6531460274e-07
6.55937398475e-07
7.81395733689e-07
5.96093289172e-07
7.90640860114e-07
4.36280783426e-07
7.99549709183e-07
3.00263593765e-07
8.25948178975e-07
2.52750603635e-07
8.69083965321e-07
2.51874756228e-07
9.17113734e-07
2.7049153486e-07
9.64658064643e-07
3.07409277129e-07
1.00789446924e-06
3.61979012255e-07
1.04322187369e-06
4.27063685789e-07
1.06750056704e-06
4.82641870381e-07
1.07992967091e-06
4.93831047461e-07
1.08488484847e-06
4.51675211331e-07
1.10368926132e-06
3.44077860721e-07
1.18206932274e-06
1.34961794632e-06
1.87717800261e-07
1.40738205589e-07
7.89949106404e-07
4.65066787508e-07
7.87371636842e-07
5.17910938791e-07
8.20124838003e-07
5.57026377826e-07
8.63931308605e-07
5.39101999591e-07
8.91929812581e-07
4.70789819759e-07
8.95703884622e-07
3.27524902105e-07
8.88167486168e-07
1.77416967004e-07
8.84639065932e-07
9.92038608057e-08
8.96977862907e-07
7.84633298432e-08
9.21669369191e-07
8.31823761756e-08
9.51508561182e-07
1.09551296494e-07
9.82312657281e-07
1.5423012445e-07
1.01039771106e-06
2.09169151427e-07
1.03262149358e-06
2.59316689631e-07
1.04689855378e-06
2.76493320778e-07
1.05481484554e-06
2.46681304007e-07
1.06913049006e-06
1.72680698601e-07
1.12888891181e-06
6.0903339661e-08
1.24539044622e-06
1.41180849973e-06
-2.52183066502e-08
3.04293473716e-07
8.94423589963e-07
4.86628289553e-07
8.80771515741e-07
4.56592988112e-07
9.21315932227e-07
3.8053346461e-07
9.77962695338e-07
2.5018212332e-07
1.00743684203e-06
8.56897112892e-08
9.98566253468e-07
-7.11081081462e-08
9.7065271599e-07
-1.71189543584e-07
9.44003485026e-07
-2.16680879249e-07
9.31273394215e-07
-2.25727451092e-07
9.30748691288e-07
-2.06043032564e-07
9.41077853269e-07
-1.66479575292e-07
9.56804128502e-07
-1.15922667764e-07
9.73348012751e-07
-6.4108579245e-08
9.88069374013e-07
-2.60447421415e-08
1.00121488717e-06
-2.52059770994e-08
1.01985750766e-06
-6.83583541731e-08
1.06876532557e-06
-1.40925036961e-07
1.17649258425e-06
-2.07264915915e-07
1.30765699422e-06
1.44489329792e-06
-2.27095228365e-07
4.32016280789e-07
7.88526366026e-07
3.75223112401e-07
8.02924015e-07
2.96645576457e-07
8.8187579715e-07
1.76821563307e-07
9.55985491262e-07
4.32965496237e-08
9.95897763458e-07
-9.38908359797e-08
9.98871448823e-07
-2.17102742821e-07
9.77736560284e-07
-3.23968388586e-07
9.49285952473e-07
-4.18784382174e-07
9.25071794723e-07
-4.78187019286e-07
9.08016183617e-07
-4.87176598086e-07
9.01154490366e-07
-4.53642219654e-07
9.0192004457e-07
-3.98509730658e-07
9.09304172278e-07
-3.43775904336e-07
9.24193916754e-07
-3.06481211644e-07
9.48583784621e-07
-3.06862006928e-07
9.97649932484e-07
-3.47119622178e-07
1.09972854817e-06
-4.00658755525e-07
1.24231648e-06
-4.24160941269e-07
1.36390745809e-06
1.46024012168e-06
-4.08506339668e-07
3.55204083221e-07
5.36923824761e-07
2.52964696718e-07
7.50683604546e-07
2.2326089427e-07
8.23865816868e-07
1.99595720823e-07
8.83727649968e-07
1.80983106839e-07
9.20643051321e-07
1.55532965694e-07
9.33610793792e-07
1.09091463797e-07
9.36051439494e-07
2.04686632944e-08
9.35222009832e-07
-9.97030003275e-08
9.20250267382e-07
-2.32189752574e-07
8.96346447194e-07
-3.52427727989e-07
8.71350034215e-07
-4.36445753448e-07
8.54784151073e-07
-4.72661506758e-07
8.50117083136e-07
-4.73829476831e-07
8.62566726092e-07
-4.72929769415e-07
9.0471632386e-07
-4.9508820826e-07
9.97475633251e-07
-5.47588967849e-07
1.15465252357e-06
-5.99025334152e-07
1.31825566536e-06
-6.00062682061e-07
1.41043389126e-06
1.45333987798e-06
-5.53859803043e-07
9.83566331951e-08
4.40965232518e-07
1.504623337e-07
6.67019990708e-07
1.97061031199e-07
7.55053960447e-07
2.41463206815e-07
8.16222827533e-07
2.79729524647e-07
8.58680476485e-07
3.02057837001e-07
8.84506439165e-07
3.06483084632e-07
8.97719473417e-07
2.90207498889e-07
9.04523355666e-07
2.45493082434e-07
9.05748442148e-07
1.67831920311e-07
8.99582415125e-07
5.88076747137e-08
8.84848951124e-07
-8.80199859555e-08
8.74404138552e-07
-2.51840308899e-07
8.54531303365e-07
-4.00184694832e-07
8.42554629326e-07
-5.13794935887e-07
8.77263857399e-07
-6.04235589602e-07
9.93026677856e-07
-6.91703652538e-07
1.18004889954e-06
-7.65912269574e-07
1.35476633099e-06
-7.67254464967e-07
1.4175504356e-06
1.40055400387e-06
-6.88757591075e-07
5.29329263665e-08
3.9371894922e-07
9.88117799195e-08
6.11474976013e-07
1.48570134224e-07
6.96537467565e-07
2.00616285734e-07
7.57468607791e-07
2.48749614509e-07
8.05316721073e-07
2.91158516385e-07
8.39648711555e-07
3.21919167899e-07
8.65107181763e-07
3.37341309724e-07
8.85849651353e-07
3.31789799821e-07
9.0271124845e-07
2.9857241714e-07
9.15572784643e-07
2.28203417238e-07
9.24700138375e-07
1.22541187864e-07
9.3163588422e-07
-3.27002324664e-08
9.35476724629e-07
-2.34278734691e-07
9.33378502509e-07
-4.55655744176e-07
9.54061633543e-07
-6.5395185657e-07
1.03227305308e-06
-7.82345921097e-07
1.15998110762e-06
-8.47575324271e-07
1.28490972012e-06
-8.65145219357e-07
1.3353537139e-06
1.28599201807e-06
-7.86489706624e-07
2.8744838746e-08
3.72190819903e-07
5.90068063448e-08
5.73537950459e-07
9.78059996561e-08
6.50402016685e-07
1.38498606783e-07
7.10892347315e-07
1.73690567684e-07
7.65439618975e-07
2.05172530902e-07
8.06796731081e-07
2.28454974651e-07
8.42278633532e-07
2.4046018182e-07
8.74929411112e-07
2.38936714002e-07
9.06089683989e-07
2.20333856325e-07
9.35908618635e-07
1.81621236968e-07
9.64473868743e-07
1.17884197117e-07
9.9238226629e-07
2.21166991681e-08
1.0196910646e-06
-1.17754067062e-07
1.04533111666e-06
-2.90348868242e-07
1.08101497917e-06
-4.7244102285e-07
1.1418536663e-06
-6.26649602706e-07
1.20720329184e-06
-7.12758275403e-07
1.24815553458e-06
-7.44781236691e-07
1.23703670889e-06
1.1685130312e-06
-7.22304505479e-07
1.67840384721e-08
3.63705268799e-07
3.18983348472e-08
5.52468519298e-07
6.04201016283e-08
6.1667776286e-07
9.32835071444e-08
6.74151219061e-07
1.18371603957e-07
7.35958860465e-07
1.3696843873e-07
7.84836476353e-07
1.49366452232e-07
8.27601966725e-07
1.54033437248e-07
8.68524912115e-07
1.49455754395e-07
9.09310530162e-07
1.33644550237e-07
9.50475098297e-07
1.0464469744e-07
9.92363504707e-07
6.07665379133e-08
1.03531480056e-06
-2.35034313616e-10
1.07964635506e-06
-7.96199545285e-08
1.12383515032e-06
-1.72162025221e-07
1.1712071649e-06
-2.63556755365e-07
1.22737296744e-06
-3.6466437448e-07
1.2756559609e-06
-4.40995868109e-07
1.26566762454e-06
-4.95347636538e-07
1.21640658325e-06
1.11400008603e-06
-5.16480960219e-07
1.08131325241e-08
3.59619912854e-07
1.62020032957e-08
5.41706731182e-07
3.42272714986e-08
5.9367618846e-07
6.24538341053e-08
6.43915563353e-07
8.6680930337e-08
7.09606495829e-07
9.80463081695e-08
7.69051424295e-07
1.04473655024e-07
8.1750631917e-07
1.05940186687e-07
8.6386375298e-07
1.0140383647e-07
9.10651939159e-07
9.01576394682e-08
9.58608704562e-07
7.12081310059e-08
1.00810222563e-06
4.40293637596e-08
1.05927102302e-06
8.27904972157e-09
1.11214475741e-06
-3.70829784349e-08
1.16588770854e-06
-8.98207434627e-08
1.22040685436e-06
-1.42626206686e-07
1.27614890315e-06
-1.91577883938e-07
1.31369231142e-06
-2.33841859853e-07
1.27935634916e-06
-2.63933727511e-07
1.20616145923e-06
1.08653851906e-06
-2.81610589999e-07
9.82647786963e-09
3.5695823436e-07
8.7252954986e-09
5.37429009689e-07
1.69839397535e-08
5.79282293389e-07
4.03667179442e-08
6.1866482393e-07
6.7927194394e-08
6.82409912053e-07
7.87886933052e-08
7.53819816573e-07
8.38106849078e-08
8.08212800207e-07
8.48925586897e-08
8.58572533584e-07
8.24063400299e-08
9.09054463058e-07
7.57943894837e-08
9.60896972773e-07
6.50385495648e-08
1.01455229721e-06
4.96622733665e-08
1.07009176561e-06
2.9746404229e-08
1.12754319498e-06
4.52925053918e-09
1.18628455033e-06
-2.51637290881e-08
1.24525311376e-06
-5.58624473784e-08
1.30148243244e-06
-8.71476414862e-08
1.33386397379e-06
-1.1428241479e-07
1.28501083388e-06
-1.3340853075e-07
1.19590905801e-06
1.02502115503e-06
-1.02052038562e-07
7.85746518418e-09
3.54715874774e-07
9.41571728477e-10
5.38428219382e-07
2.80492682283e-09
5.7104553526e-07
2.14641096751e-08
5.9786738214e-07
5.00891140325e-08
6.55066457477e-07
6.94634563048e-08
7.33221367672e-07
7.55135538246e-08
7.97303531072e-07
7.81720414105e-08
8.512957085e-07
7.8056024873e-08
9.04276674151e-07
7.57912534744e-08
9.5826986937e-07
7.10713160109e-08
1.01402051374e-06
6.4261567014e-08
1.07169762602e-06
5.48299774419e-08
1.1313751024e-06
4.28894781993e-08
1.19270150984e-06
2.78065127387e-08
1.25432330092e-06
1.11563205871e-08
1.31205277767e-06
-9.87391869915e-09
1.34344633833e-06
-3.75766183291e-08
1.29204037925e-06
-6.81217936954e-08
1.2000355307e-06
9.1911048021e-07
1.3351065432e-08
5.09210144692e-09
3.56425589064e-07
-9.23129739227e-09
5.46689718154e-07
-1.41243755602e-08
5.69784285432e-07
-2.22643574485e-09
5.83549443976e-07
2.37446026666e-08
6.30574863775e-07
5.58470065268e-08
7.05042109329e-07
7.06289507814e-08
7.80154784885e-07
7.60442609943e-08
8.40670779042e-07
7.93130328102e-08
8.95829880286e-07
8.11553852413e-08
9.50794467722e-07
8.25336410299e-08
1.00704144717e-06
8.31799411911e-08
1.06497331302e-06
8.37693954576e-08
1.12477484303e-06
8.37678283124e-08
1.1861793603e-06
8.39301413151e-08
1.24772761566e-06
8.47936401154e-08
1.3041622689e-06
8.61865043414e-08
1.33120638332e-06
8.27583087987e-08
1.27676569117e-06
8.4576423472e-08
1.17512989454e-06
8.93764617492e-07
8.84389634351e-08
-3.79106377282e-09
3.67494792079e-07
-2.8037280047e-08
5.66317108843e-07
-4.43619255846e-08
5.79871284471e-07
-4.37607260541e-08
5.80006140482e-07
-2.52043537963e-08
6.14206963176e-07
1.19158779416e-08
6.75944236713e-07
4.57886525239e-08
7.51600994187e-07
6.45166898798e-08
8.20656466753e-07
7.46696696656e-08
8.81031663013e-07
8.20187184794e-08
9.37633849133e-07
8.95473430298e-08
9.93205146846e-07
9.84372293996e-08
1.04981148094e-06
1.08413582554e-07
1.10794501712e-06
1.2047603372e-07
1.1673248194e-06
1.34347354082e-07
1.22643704951e-06
1.51714273903e-07
1.27945517362e-06
1.72515319428e-07
1.30072804782e-06
1.84782829214e-07
1.24795690585e-06
1.89285349403e-07
1.1477368849e-06
8.99919813233e-07
1.58163519381e-07
-2.03508606595e-08
3.9910770323e-07
-6.21814597238e-08
6.07793872787e-07
-9.97965432963e-08
6.11315310994e-07
-1.20335566888e-07
5.95863226034e-07
-1.1714026952e-07
6.13376742432e-07
-8.871412954e-08
6.58048286096e-07
-4.15923765739e-08
7.19673740304e-07
2.55216635926e-09
7.8674880567e-07
3.52200446834e-08
8.51293478499e-07
5.88281504585e-08
9.11810995676e-07
7.84643472459e-08
9.68800771918e-07
9.71790478157e-08
1.02453107957e-06
1.17960890124e-07
1.08017677636e-06
1.41505873082e-07
1.13613567792e-06
1.69072443216e-07
1.19125176298e-06
2.0082888267e-07
1.23927436149e-06
2.39927934712e-07
1.25409303877e-06
2.66001722213e-07
1.20825012169e-06
2.75693566885e-07
1.11739959428e-06
9.14204619684e-07
2.36025861046e-07
-5.04867193918e-08
4.66043767151e-07
-1.22974125464e-07
6.87142094481e-07
-1.96074840993e-07
6.78891960543e-07
-2.5709554207e-07
6.46145802722e-07
-2.8559965467e-07
6.40039358044e-07
-2.73839170135e-07
6.56837198935e-07
-2.27278142739e-07
6.94996581211e-07
-1.61315541051e-07
7.46387322908e-07
-9.42096511449e-08
8.04198990892e-07
-3.44254264812e-08
8.63992603797e-07
1.6538843887e-08
9.22613068603e-07
6.0723175981e-08
9.80341950497e-07
1.00727892997e-07
1.03667060863e-06
1.41922202751e-07
1.08989859312e-06
1.87149223289e-07
1.14023978004e-06
2.38716136823e-07
1.18215075628e-06
2.96101710871e-07
1.19311479485e-06
3.37279196278e-07
1.15843270251e-06
3.580129574e-07
1.0813276685e-06
9.2539509591e-07
3.27437885487e-07
-9.66773625937e-08
5.93605046233e-07
-2.11729328301e-07
8.27961374779e-07
-3.39505836478e-07
8.05036749817e-07
-4.70872495495e-07
7.54533902497e-07
-5.70175402573e-07
7.20668604795e-07
-5.95432762797e-07
6.83515637875e-07
-5.52302818819e-07
6.7228986417e-07
-4.57681125441e-07
6.86774771002e-07
-3.46116483791e-07
7.3228500749e-07
-2.32902390487e-07
7.84800015365e-07
-1.27904107702e-07
8.42541286045e-07
-3.40233455144e-08
9.03362969439e-07
4.75268226658e-08
9.65420744755e-07
1.20985139443e-07
1.02211450332e-06
1.94663783488e-07
1.07095858362e-06
2.71057074679e-07
1.11017322846e-06
3.44776609038e-07
1.12386913904e-06
4.02172527399e-07
1.10126579505e-06
4.46105542288e-07
1.03395280494e-06
9.30241048666e-07
4.37643981528e-07
-1.30302039754e-07
7.57648681935e-07
-2.68973828857e-07
1.00730758932e-06
-4.39495456277e-07
9.7889726432e-07
-6.40439250716e-07
9.231574568e-07
-8.47497080525e-07
8.8142792212e-07
-1.01133562826e-06
8.14106120758e-07
-9.18103219178e-07
5.74627015728e-07
-7.87304901995e-07
5.79973221011e-07
-6.26715591224e-07
6.15165622782e-07
-4.53058919991e-07
6.60078225292e-07
-2.82113205703e-07
7.15150911149e-07
-1.33197525193e-07
7.90272797245e-07
-5.26860393965e-09
8.65576154708e-07
1.04834296445e-07
9.33511005899e-07
2.06934535178e-07
9.87660970287e-07
3.04949797613e-07
1.03022595037e-06
3.93808552989e-07
1.05113231377e-06
4.77594270171e-07
1.03267881213e-06
5.54765393735e-07
9.75589380932e-07
9.4177481344e-07
5.70948081313e-07
-4.43340246087e-08
8.20135060553e-07
-1.05039345705e-07
1.09971223548e-06
-1.97842896569e-07
1.07747936394e-06
-3.06035093681e-07
1.01247513419e-06
-4.17866072755e-07
9.58361237468e-07
-5.1290604822e-07
8.67232618261e-07
-5.15867919705e-07
5.43593414807e-07
-4.80769387373e-07
5.41231212126e-07
-4.12607333072e-07
5.69750434897e-07
-3.24561599347e-07
6.09529628257e-07
-2.22852523458e-07
6.5576961868e-07
-9.9472838475e-08
7.0872248419e-07
2.91559184992e-08
7.74447203694e-07
1.50411067468e-07
8.44002059584e-07
2.69534157203e-07
8.97892955995e-07
3.93179704998e-07
9.35709513674e-07
5.19223024644e-07
9.56517864248e-07
6.23597017615e-07
9.68096377663e-07
6.7862793878e-07
9.74042428221e-07
9.67048372819e-07
7.16934730884e-07
1.01490065021e-08
8.14267096096e-07
9.37006142772e-09
1.11777800267e-06
-1.93977247783e-08
1.10919316517e-06
-5.62847212375e-08
1.04068727776e-06
-9.8446003893e-08
9.81940723898e-07
-1.5886727579e-07
8.99187494446e-07
-2.12886486728e-07
5.59695003397e-07
-2.18712007692e-07
5.18166501449e-07
-1.82389486038e-07
5.31029347746e-07
-1.15373073893e-07
5.62117711655e-07
-3.33994057315e-08
6.04396017513e-07
5.70395916504e-08
6.54411299159e-07
1.56704678774e-07
7.10802052347e-07
2.69029979944e-07
7.6573561798e-07
3.87712754182e-07
8.14322292652e-07
5.06686470382e-07
8.57576010749e-07
6.15828675546e-07
9.00016762418e-07
7.07706377541e-07
9.40627167019e-07
7.79099242588e-07
9.71367654819e-07
9.9068424049e-07
8.13174081531e-07
2.86853445864e-08
7.84734098026e-07
4.79298123934e-08
1.1005728392e-06
6.03884007867e-08
1.0963421136e-06
7.37186707988e-08
1.02423151998e-06
8.98751311274e-08
9.58850774323e-07
1.01353340093e-07
8.75745334908e-07
4.71037782194e-08
5.92527439805e-07
2.01311936015e-08
5.16956456983e-07
2.19180731494e-08
5.08874493317e-07
5.72882334392e-08
5.27589780409e-07
1.16207033629e-07
5.62481646188e-07
1.88382754604e-07
6.06846119218e-07
2.72187249561e-07
6.56566673882e-07
3.65611715651e-07
7.06276779681e-07
4.67458131895e-07
7.53693548836e-07
5.76245741368e-07
8.03484473868e-07
6.78239131353e-07
8.60035299756e-07
7.50349760179e-07
9.18412909317e-07
7.73093417446e-07
9.69435907795e-07
1.01203992607e-06
7.15545394349e-07
7.05031913629e-09
7.77122328511e-07
1.70240632158e-08
1.0876848691e-06
4.3797223055e-08
1.07200858791e-06
7.99869295911e-08
9.91458126345e-07
1.20023682736e-07
9.20780691386e-07
2.20319850934e-07
7.75706572804e-07
2.21170100741e-07
5.86109819476e-07
2.07845006506e-07
5.19100904626e-07
2.0149325043e-07
4.99714897291e-07
2.11528586547e-07
5.0699220425e-07
2.44439926501e-07
5.33280524455e-07
2.94787045941e-07
5.71598774016e-07
3.6062720041e-07
6.15911185843e-07
4.4127306092e-07
6.61691500307e-07
5.33662915418e-07
7.07894404883e-07
6.18085041959e-07
7.64245539569e-07
6.56230136817e-07
8.34687887872e-07
6.27107563624e-07
9.10603361679e-07
5.15963929146e-07
9.98615697327e-07
1.14470368483e-06
2.94275364994e-07
-4.33115967116e-08
8.25416789125e-07
-6.06757095931e-08
1.10866741968e-06
-3.43652665179e-08
1.05681641164e-06
5.74772811869e-10
9.69031825146e-07
1.29144181002e-07
8.029928401e-07
2.78125342864e-07
6.3578188161e-07
3.11999357499e-07
5.59120609819e-07
3.22777539837e-07
5.12906037795e-07
3.29562303244e-07
4.94010689153e-07
3.37986246438e-07
4.96057913565e-07
3.56556539688e-07
5.16116573507e-07
3.91116490717e-07
5.48088686108e-07
4.42927832424e-07
5.86296398137e-07
5.08058175643e-07
6.26792635969e-07
5.60158476483e-07
6.73572811462e-07
5.48060880319e-07
7.45969600363e-07
4.5112634994e-07
8.41571770153e-07
2.84274229813e-07
9.83454404128e-07
5.58846359655e-08
1.17116786392e-06
1.27034242289e-06
-9.72145429329e-08
-9.07789279004e-08
9.28220543781e-07
-1.31975828392e-07
1.1656701139e-06
-1.29316908322e-07
1.07567151905e-06
4.56608856154e-08
8.13898220398e-07
2.30304753466e-07
6.34846131311e-07
3.07295963186e-07
5.7441745191e-07
3.5341881009e-07
5.28205768768e-07
3.82309462295e-07
5.00289633893e-07
4.05194629303e-07
4.88101933329e-07
4.25168048176e-07
4.9101595223e-07
4.46623976308e-07
5.07466699212e-07
4.74145881211e-07
5.33114494867e-07
5.10423242746e-07
5.64591271382e-07
5.33065436815e-07
6.01746265851e-07
4.80610735803e-07
6.63630320444e-07
3.38447812278e-07
7.70377010424e-07
1.29884811739e-07
9.62836257881e-07
-4.97036891034e-08
1.12720079203e-06
-1.17389925451e-07
1.22665878261e-06
1.31373978696e-06
-1.61052338429e-07
-8.526127588e-08
1.03017814282e-06
-9.15100787181e-08
1.19763488003e-06
-2.2998662331e-08
1.03495999022e-06
1.64886360927e-07
6.43187460998e-07
2.53725945742e-07
5.63265116335e-07
3.22882100646e-07
5.23325106359e-07
3.72298695252e-07
4.99901488797e-07
4.11693939533e-07
4.86626830711e-07
4.46370945749e-07
4.83135796904e-07
4.76043635241e-07
4.89292073799e-07
4.97432969899e-07
5.0381228666e-07
5.16453024982e-07
5.25201670578e-07
5.30437222355e-07
5.52511867321e-07
4.70529258657e-07
5.93417064043e-07
3.10332375661e-07
6.88304889274e-07
7.75935462786e-08
9.12770238493e-07
-5.89988822943e-08
1.07555802462e-06
-1.09908416197e-07
1.1748884058e-06
-1.47205004747e-07
1.25929342119e-06
1.33133095784e-06
-1.7496853904e-07
-1.61560461469e-07
1.21735835073e-06
-2.28890238643e-07
1.31036036037e-06
9.74917275338e-08
7.38095200814e-07
1.94044662501e-07
5.60456078743e-07
2.70442053592e-07
5.03781594448e-07
3.3094184524e-07
4.8435581096e-07
3.81517966713e-07
4.76863156601e-07
4.259270916e-07
4.75902362134e-07
4.64320067992e-07
4.7974139496e-07
4.89581255266e-07
4.88595666606e-07
5.03491957605e-07
5.02664725717e-07
5.1635622942e-07
5.22756088243e-07
4.80577238346e-07
5.47953521457e-07
3.30262005938e-07
6.02842463488e-07
1.10254938293e-07
8.0212108193e-07
-2.04746453512e-08
1.018698173e-06
-7.27044373507e-08
1.12500422413e-06
-1.10589253718e-07
1.20497232164e-06
-1.41126058077e-07
1.27708001999e-06
1.34342714083e-06
-1.70108432259e-07
1.74171008891e-08
1.21933994985e-06
6.46402872125e-08
1.30540986211e-06
1.53924357243e-07
6.54109582942e-07
2.28015679216e-07
5.00430512489e-07
2.88125283626e-07
4.63802817838e-07
3.41966858096e-07
4.58620064336e-07
3.89852174736e-07
4.62716974874e-07
4.30469754231e-07
4.69270864609e-07
4.56087463573e-07
4.77829256421e-07
4.6798446354e-07
4.89054110644e-07
4.77505657105e-07
5.0446817774e-07
4.6772532102e-07
5.24878540356e-07
3.57032665553e-07
5.49833594956e-07
1.91374674711e-07
6.41767189012e-07
2.15887035671e-08
9.29433965388e-07
-2.72380850787e-08
1.06403260282e-06
-6.22511445725e-08
1.15068597435e-06
-9.4466343001e-08
1.22281943361e-06
-1.25919188584e-07
1.29107495609e-06
1.35309057859e-06
-1.56532641073e-07
-1.32345787699e-07
1.45840179754e-06
1.35739827697e-07
1.10321665651e-06
1.94737149804e-07
5.91237994596e-07
2.51649283364e-07
4.6387534542e-07
3.0335952522e-07
4.40538181099e-07
3.50802151446e-07
4.44230722282e-07
3.8798875549e-07
4.54472676481e-07
4.09148720623e-07
4.66042059414e-07
4.17641056458e-07
4.78455361296e-07
4.23067369972e-07
4.92923594157e-07
4.23329996123e-07
5.10762267597e-07
3.70050622814e-07
5.32494094788e-07
2.35308494825e-07
5.62967286172e-07
7.88370877328e-08
7.22784462246e-07
3.09154153213e-08
9.67911176032e-07
3.42370803132e-11
1.08567656892e-06
-3.19919906415e-08
1.16771932969e-06
-6.49246677429e-08
1.23753953228e-06
-9.5775592231e-08
1.30082466055e-06
1.34975657984e-06
-1.11998118579e-07
-4.50659919691e-09
1.62295662139e-06
1.91591010105e-07
9.04816130961e-07
2.28461847851e-07
5.50574230005e-07
2.74115747946e-07
4.44802500219e-07
3.16985669341e-07
4.29041703214e-07
3.46977814609e-07
4.37926478571e-07
3.61766845584e-07
4.52786606247e-07
3.67489987434e-07
4.68761967186e-07
3.69189383112e-07
4.85337988824e-07
3.67737591213e-07
5.03386925343e-07
3.47268390049e-07
5.24308974534e-07
2.60867137854e-07
5.48715565786e-07
1.41033334519e-07
5.90112292796e-07
6.69050640455e-08
7.57380911187e-07
6.37075722562e-08
9.67751301588e-07
4.52759810173e-08
1.09360485866e-06
1.36582404559e-08
1.18284519521e-06
-1.58814361837e-08
1.24865022979e-06
-2.6272594943e-08
1.29623950774e-06
1.31227977071e-06
6.87192623646e-09
2.21322896514e-07
1.60068872756e-06
2.52862755256e-07
8.41998113178e-07
2.79733927969e-07
5.29593518701e-07
3.07023134998e-07
4.42530394865e-07
3.23840024003e-07
4.31980556342e-07
3.31115325083e-07
4.44145642842e-07
3.33799860628e-07
4.62510682843e-07
3.32640800293e-07
4.82037860991e-07
3.26433272304e-07
5.02015848131e-07
3.11742866911e-07
5.23433828029e-07
2.66153002667e-07
5.47978555991e-07
1.69034727765e-07
5.76624683905e-07
6.98060213584e-08
6.28490253134e-07
4.05151976522e-08
7.74808069124e-07
8.0914429044e-08
9.38690925624e-07
9.53628308889e-08
1.08242135296e-06
6.69884790287e-08
1.21013202024e-06
6.11099802011e-08
1.2563564933e-06
1.07759860956e-07
1.26163288174e-06
1.26978013958e-06
1.83685042319e-07
2.92039032983e-07
1.54012084423e-06
2.87486245681e-07
7.93528580512e-07
3.10823831491e-07
5.21122402533e-07
3.16785178346e-07
4.51520871373e-07
3.14887349617e-07
4.46941992387e-07
3.16050734987e-07
4.62394356384e-07
3.14183040929e-07
4.83390926906e-07
3.06248695183e-07
5.05510924004e-07
2.89611502182e-07
5.2839980169e-07
2.59439754209e-07
5.53270857411e-07
1.94412768731e-07
5.82123124115e-07
9.78961423632e-08
6.16382638828e-07
2.1296459737e-08
6.75155969059e-07
1.134084219e-08
7.99946567423e-07
3.95285917608e-08
9.43457044233e-07
7.48579858377e-08
1.07925876281e-06
1.31620149268e-07
1.18690107732e-06
1.89853446077e-07
1.23995793519e-06
2.42103606455e-07
1.26552654531e-06
1.28131287097e-06
3.01974402725e-07
3.62827069685e-07
1.44846002342e-06
3.29973430058e-07
7.67425034786e-07
3.26762036054e-07
5.25327752984e-07
3.18110628431e-07
4.70820512672e-07
3.11430225182e-07
4.71938824079e-07
3.10044306978e-07
4.89855532327e-07
3.03669916769e-07
5.12481221509e-07
2.88732459586e-07
5.3629846277e-07
2.6208213931e-07
5.6122727287e-07
2.1914129572e-07
5.8878586859e-07
1.43542768496e-07
6.21519668849e-07
5.8899040506e-08
6.60838187332e-07
2.24531596072e-09
7.22308912335e-07
-3.64607903124e-09
8.28716392984e-07
3.12419851103e-08
9.53241823031e-07
9.13994604191e-08
1.07673993731e-06
1.66341589283e-07
1.1775102583e-06
2.42623102875e-07
1.23623450636e-06
3.13886636985e-07
1.2705011528e-06
1.29441001715e-06
3.68637756617e-07
4.45687356326e-07
3.50320657589e-07
3.33216011681e-07
3.15125330745e-07
3.07241182497e-07
3.02449317861e-07
2.92279903106e-07
2.71596612989e-07
2.37299696503e-07
1.86935351777e-07
1.20613433462e-07
6.08354505758e-08
2.4952888529e-08
2.10413766045e-08
5.11294250535e-08
1.08768812981e-07
1.80198613303e-07
2.49196778373e-07
3.05291947239e-07
3.36694132196e-07
1.85185101479e-07
8.02814855774e-07
2.04398870647e-07
5.9244551515e-07
2.36936081583e-07
4.93255548155e-07
2.95735881258e-07
4.32721102335e-07
3.83194234117e-07
3.77535782201e-07
4.49205461603e-07
3.16601626014e-07
4.68730378566e-07
2.59504406068e-07
4.39088640623e-07
2.15331999891e-07
2.84631554334e-07
1.85080538974e-07
2.79444848607e-08
1.68625807308e-07
-2.45968783355e-08
1.64584931524e-07
-2.29213848883e-08
3.07269356384e-07
4.26743799146e-08
2.65264733096e-07
3.04131546766e-08
1.5440283985e-07
-2.64309312905e-07
8.17816358375e-08
7.40869932172e-08
2.73758538902e-07
1.12142240231e-06
2.12634940955e-07
1.24400997954e-06
2.02705546238e-07
1.22037777308e-06
2.0908443462e-07
1.08131966231e-06
2.30182591608e-07
8.07439833805e-07
2.50729434481e-07
6.0150302066e-07
2.88894291774e-07
5.03395113727e-07
3.61744549716e-07
4.37827838813e-07
4.48597346122e-07
3.73866993539e-07
5.10421662989e-07
3.06541863858e-07
5.31499753226e-07
2.47657404183e-07
5.15484875808e-07
2.02739573361e-07
4.02263856566e-07
1.71704629842e-07
1.68765706371e-07
1.52608336474e-07
7.2533894763e-08
1.47916546959e-07
3.94756797358e-08
3.49392659009e-07
4.21191923078e-08
3.25960800048e-07
1.90230342774e-08
1.8533045466e-07
-2.36599543056e-07
5.42274810774e-08
3.78102061868e-08
3.19373453569e-07
1.21941348121e-06
2.42607990109e-07
1.33108376109e-06
2.26345029008e-07
1.28594407996e-06
2.3267419235e-07
1.12813941423e-06
2.53813233139e-07
8.18258589567e-07
2.74078835613e-07
6.10935300926e-07
3.14955137581e-07
5.11996377791e-07
3.99696618426e-07
4.40529588057e-07
4.85245365611e-07
3.67578185187e-07
5.43382231378e-07
2.93634874733e-07
5.66002486108e-07
2.32020102408e-07
5.61613695451e-07
1.8472510141e-07
4.7551798692e-07
1.498992485e-07
2.48307578006e-07
1.21868546767e-07
6.55774008756e-08
1.56855435688e-07
4.62826216232e-08
3.64681468952e-07
4.03934721412e-08
3.42283585474e-07
-2.46447298905e-08
2.32752104162e-07
-1.97459247033e-07
3.52309053836e-08
1.61775638453e-09
3.08631501874e-07
1.33435900638e-06
2.33233274263e-07
1.41563125286e-06
2.16737836227e-07
1.34670329139e-06
2.21176334685e-07
1.17502788649e-06
2.42777347754e-07
8.2789232827e-07
2.6308702729e-07
6.16146748852e-07
3.02773114606e-07
5.17290165794e-07
3.95916200901e-07
4.41450321066e-07
4.80384306571e-07
3.61732196638e-07
5.33150995798e-07
2.8213366734e-07
5.51137416185e-07
2.1678102074e-07
5.48136871638e-07
1.65999864981e-07
4.72029555725e-07
1.24882617079e-07
1.62474753605e-07
9.61326353341e-08
-3.32289846183e-08
2.20513193688e-07
-3.53740945311e-08
3.54021517192e-07
-1.13124337369e-08
3.29930694987e-07
-2.43133076545e-08
2.37969712733e-07
-1.45698812727e-07
4.11343005056e-08
-1.48844250105e-08
2.28535393585e-07
1.43933158512e-06
1.831789341e-07
1.47160723251e-06
1.75149222253e-07