/*--------------------------------*- C++ -*----------------------------------*\
| =========                 |                                                 |
| \\      /  F ield         | OpenFOAM: The Open Source CFD Toolbox           |
|  \\    /   O peration     | Version:  2312                                  |
|   \\  /    A nd           | Website:  www.openfoam.com                      |
|    \\/     M anipulation  |                                                 |
\*---------------------------------------------------------------------------*/
FoamFile
{
    version     2.0;
    format      ascii;
    arch        "LSB;label=32;scalar=64";
    class       surfaceScalarField;
    location    "0.61/water";
    object      phi.gas;
}
// * * * * * * * * * * * * * * * * * * * * * * * * * * * * * * * * * * * * * //

dimensions      [0 3 -1 0 0 0 0];

oriented        oriented;

internalField   nonuniform List<scalar> 
2929
(
2.44754904791e-07
5.91276596799e-07
2.17987939403e-07
8.06843907172e-07
2.06168816329e-07
8.95907881714e-07
2.04020837099e-07
9.62931013064e-07
1.89023428571e-07
9.83736087777e-07
1.72655536232e-07
7.96286967102e-07
1.67916916342e-07
6.88408398393e-07
1.72415860322e-07
6.25363339673e-07
1.83250966446e-07
5.87507636702e-07
1.96795984198e-07
5.65548740891e-07
2.09970069948e-07
5.57128014812e-07
2.20810716047e-07
5.55535135093e-07
2.28065986049e-07
5.53972890656e-07
2.32429385293e-07
5.51930529859e-07
2.29111583117e-07
5.52092079574e-07
2.08899898056e-07
5.61043074432e-07
1.7193745904e-07
5.7218176126e-07
1.41400616737e-07
5.56962359126e-07
1.16119595907e-07
5.30343910186e-07
5.29645628304e-07
8.73042994911e-08
2.27007771555e-07
5.7894535894e-07
2.00787559748e-07
8.03571470142e-07
1.89749011245e-07
8.90285444706e-07
1.93559813669e-07
9.47390864982e-07
1.97295257786e-07
9.70838800196e-07
2.08211785817e-07
7.83401895516e-07
2.18147740492e-07
6.88599537744e-07
2.31494949587e-07
6.31597643024e-07
2.4827976917e-07
5.96504989438e-07
2.66287209956e-07
5.76493459004e-07
2.79865950041e-07
5.69413510273e-07
2.87501154447e-07
5.6791858035e-07
2.91024970102e-07
5.66684478247e-07
2.91759656879e-07
5.65382055667e-07
2.86030129453e-07
5.66554506904e-07
2.5843896624e-07
5.75092057797e-07
2.13242311073e-07
5.87522417155e-07
1.78759498766e-07
5.75332009451e-07
1.53681106743e-07
5.46509161598e-07
5.40005758329e-07
1.2739145447e-07
1.9777171211e-07
5.94630512621e-07
1.66167345279e-07
8.07867990947e-07
1.45081168248e-07
8.93012298216e-07
1.35706311564e-07
9.43055586072e-07
1.94372230978e-07
9.02092378253e-07
2.27746479163e-07
7.51867660906e-07
2.52118045039e-07
6.80283451029e-07
2.75841620137e-07
6.33907457218e-07
3.0145625678e-07
6.04748374459e-07
3.25411493296e-07
5.89101875593e-07
3.38876186594e-07
5.84602343565e-07
3.43943882152e-07
5.83728044062e-07
3.44470256592e-07
5.83199287058e-07
3.42225292809e-07
5.83010796624e-07
3.35012766924e-07
5.85591226688e-07
3.01565048219e-07
5.95324232771e-07
2.5145147336e-07
6.08673699412e-07
2.13000260317e-07
5.99643348254e-07
1.85842047739e-07
5.68902772867e-07
5.55752407367e-07
1.60279832687e-07
1.09605952037e-07
7.06846589033e-07
1.02439367622e-07
7.97017043843e-07
7.62112020483e-08
9.01227749088e-07
9.41331284089e-08
9.10311241893e-07
2.01256713633e-07
7.88815305572e-07
2.43970396705e-07
7.19657174057e-07
2.7981883613e-07
6.69094146336e-07
3.14376309529e-07
6.34270210635e-07
3.4964593852e-07
6.12829350537e-07
3.75883511811e-07
6.03231696115e-07
3.86574909497e-07
6.01260628255e-07
3.9008021617e-07
6.01521811928e-07
3.88251693161e-07
6.02012213876e-07
3.83742416829e-07
6.03170654372e-07
3.74358852797e-07
6.075942699e-07
3.36524580135e-07
6.19567274628e-07
2.84288422928e-07
6.34118551117e-07
2.42409884456e-07
6.28851555352e-07
2.11360638204e-07
5.97272232123e-07
5.75753178421e-07
1.84765073171e-07
5.17587035861e-09
9.2603337555e-07
-1.7814733917e-08
8.05438974597e-07
5.03275972285e-08
8.18399190063e-07
1.6387609973e-07
7.85716651963e-07
2.19141695101e-07
7.36756528938e-07
2.65692703492e-07
6.92736128997e-07
3.09053368449e-07
6.58215075998e-07
3.52780660048e-07
6.34387335681e-07
3.9321095644e-07
6.21545814822e-07
4.15691048398e-07
6.17865151809e-07
4.23393340377e-07
6.18237275132e-07
4.26196733318e-07
6.20064885812e-07
4.22556502082e-07
6.21797631327e-07
4.1633722302e-07
6.24444710069e-07
4.03864375553e-07
6.31103815733e-07
3.61960278125e-07
6.45662980056e-07
3.10108466416e-07
6.62020910218e-07
2.65681123554e-07
6.61502672619e-07
2.29204557386e-07
6.31006210641e-07
5.99365811949e-07
2.00684276566e-07
1.11762191951e-07
1.03107348212e-06
8.37558040116e-08
8.12981477122e-07
1.35343188367e-07
7.53816133381e-07
1.92782731377e-07
7.2574883527e-07
2.44499887002e-07
6.97371613568e-07
2.93375428252e-07
6.70707720251e-07
3.42673940159e-07
6.49193555875e-07
3.92820827938e-07
6.35937607792e-07
4.29230575777e-07
6.31535005328e-07
4.44753226281e-07
6.32327672779e-07
4.52551494193e-07
6.35371638775e-07
4.54148326638e-07
6.38853119228e-07
4.48588585271e-07
6.41872917725e-07
4.40745006756e-07
6.46020870271e-07
4.22491023915e-07
6.54773422233e-07
3.76984377347e-07
6.71934840405e-07
3.2787827791e-07
6.9094919404e-07
2.80866719617e-07
6.96117023314e-07
2.39047397325e-07
6.68902976515e-07
6.26579552473e-07
2.09430977237e-07
2.01206803407e-07
1.04258014641e-06
1.79826141788e-07
8.13845207193e-07
1.97351669891e-07
7.25076872926e-07
2.35824999794e-07
6.91360169046e-07
2.80598933997e-07
6.71523016198e-07
3.2993774256e-07
6.55652052967e-07
3.83726897996e-07
6.44866266327e-07
4.31181896449e-07
6.41342643062e-07
4.57063326547e-07
6.43405121449e-07
4.69478142019e-07
6.47822435063e-07
4.76189729382e-07
6.53239043029e-07
4.75611651482e-07
6.5816818333e-07
4.67155030557e-07
6.62331353492e-07
4.55513413531e-07
6.67737896734e-07
4.29133453824e-07
6.78219106926e-07
3.82146773282e-07
6.97743698362e-07
3.35814914793e-07
7.20207763511e-07
2.87772192699e-07
7.31760659622e-07
2.42607781724e-07
7.10339227936e-07
6.57469881005e-07
2.12003093701e-07
2.39176909579e-07
1.01980128286e-06
2.40498617361e-07
8.01668920506e-07
2.50878973752e-07
7.06052936252e-07
2.81795647316e-07
6.70321818209e-07
3.23120026116e-07
6.55811729059e-07
3.73864512636e-07
6.48501572839e-07
4.26748301728e-07
6.4724148743e-07
4.6203460194e-07
6.51420278871e-07
4.79182631804e-07
6.57877827622e-07
4.90131651704e-07
6.6533876767e-07
4.94205963695e-07
6.72550141769e-07
4.8969133026e-07
6.78508678039e-07
4.76958587705e-07
6.83496702897e-07
4.58533795914e-07
6.89795893669e-07
4.23602270969e-07
7.01469084411e-07
3.77884548339e-07
7.23176973528e-07
3.34395551389e-07
7.49613720673e-07
2.88089866197e-07
7.67720742583e-07
2.40488454661e-07
7.54201527969e-07
6.93869418328e-07
2.07842009079e-07
2.46089924029e-07
9.83974605686e-07
2.75113432634e-07
7.77318192059e-07
2.91665207797e-07
6.88252455409e-07
3.24888059458e-07
6.56596160598e-07
3.67709149047e-07
6.4868158802e-07
4.19155509943e-07
6.49801941564e-07
4.59655120996e-07
6.56607972766e-07
4.81577879905e-07
6.6595454799e-07
4.96197442266e-07
6.75930375071e-07
5.04150484799e-07
6.85507569119e-07
5.03333946683e-07
6.9371332954e-07
4.93263480817e-07
7.00148175396e-07
4.75201524282e-07
7.05622660755e-07
4.48238684026e-07
7.12230403035e-07
4.07268337111e-07
7.24265595257e-07
3.64406519904e-07
7.47282926359e-07
3.25329418892e-07
7.77861601428e-07
2.82301474237e-07
8.02530040973e-07
2.34172063474e-07
7.98409061917e-07
7.37678203849e-07
1.9790730133e-07
2.29042839705e-07
9.52734673791e-07
2.91038923755e-07
7.47729321008e-07
3.18835042017e-07
6.72746724968e-07
3.60782971924e-07
6.49761422856e-07
4.0722927812e-07
6.50371395118e-07
4.48045337335e-07
6.59652698048e-07
4.73721025831e-07
6.72332526204e-07
4.91334244371e-07
6.85557007389e-07
5.03274891068e-07
6.97970700101e-07
5.0561450829e-07
7.08545216966e-07
4.98070700287e-07
7.16801242982e-07
4.81282736851e-07
7.23127897844e-07
4.57007460809e-07
7.28575771451e-07
4.22406337742e-07
7.34830745762e-07
3.78159014987e-07
7.45703494296e-07
3.41210046877e-07
7.68265010931e-07
3.08483106362e-07
8.01986561582e-07
2.70216661135e-07
8.32979290918e-07
2.25377717472e-07
8.39066348671e-07
7.87173346846e-07
1.81246850467e-07
2.29233663643e-07
8.99211734526e-07
3.34340507498e-07
7.2015817888e-07
3.57050309659e-07
6.67909938783e-07
4.00307935515e-07
6.55843708811e-07
4.31855376644e-07
6.6448044642e-07
4.55703170348e-07
6.79546283149e-07
4.73839775762e-07
6.96071133307e-07
4.88872281945e-07
7.11847054086e-07
4.93973793307e-07
7.24977042872e-07
4.87837351503e-07
7.34991971912e-07
4.71151252041e-07
7.42169420525e-07
4.45884021728e-07
7.47657689263e-07
4.15360343026e-07
7.52528995732e-07
3.74368651953e-07
7.57428692815e-07
3.3233871133e-07
7.65767674083e-07
3.03464843594e-07
7.84873348537e-07
2.78852001772e-07
8.18693260624e-07
2.48023099623e-07
8.55302756967e-07
2.1085334408e-07
8.710778284e-07
8.33638680126e-07
1.59125235479e-07
2.26461762869e-07
8.33771544761e-07
3.8257073523e-07
7.08471746472e-07
3.90158547794e-07
6.80185019822e-07
4.15524738417e-07
6.79785978641e-07
4.25832257992e-07
6.9407980857e-07
4.38985718814e-07
7.11794114056e-07
4.53675433974e-07
7.3023135651e-07
4.60449647016e-07
7.46118899019e-07
4.55269912265e-07
7.57596197247e-07
4.37477882957e-07
7.65037768797e-07
4.09710165723e-07
7.69792373982e-07
3.76004916526e-07
7.73810694953e-07
3.38473299431e-07
7.77261728805e-07
2.97075878656e-07
7.8017615896e-07
2.62918726038e-07
7.85281710917e-07
2.42307832011e-07
7.97976831667e-07
2.27617438362e-07
8.25982307521e-07
2.09366956517e-07
8.66313258388e-07
1.80953275321e-07
8.92664992048e-07
8.68434329482e-07
1.38746130996e-07
2.19905736235e-07
8.27698018331e-07
4.03239767354e-07
7.30482018016e-07
3.8565163179e-07
7.20698322857e-07
3.853070035e-07
7.31655514644e-07
3.80453623015e-07
7.45382267669e-07
3.84121696169e-07
7.60829847639e-07
3.87681772636e-07
7.77250105442e-07
3.82826994004e-07
7.89226778886e-07
3.64564683097e-07
7.95510317696e-07
3.34446861128e-07
7.973715926e-07
2.96946458705e-07
7.97541217545e-07
2.56705702342e-07
7.98498987989e-07
2.1888019758e-07
7.99576962243e-07
1.85862887113e-07
7.99870442194e-07
1.64086895578e-07
8.01360269901e-07
1.52566316876e-07
8.07097013513e-07
1.51292858035e-07
8.23547817677e-07
1.52631272056e-07
8.60124762537e-07
1.40188236104e-07
8.98908026754e-07
8.83984863643e-07
1.19138071885e-07
2.4933765127e-07
8.72944676656e-07
3.88198270584e-07
8.0095696984e-07
3.3175648938e-07
8.0699234808e-07
2.85736000811e-07
8.26609791456e-07
2.52109633983e-07
8.27542269255e-07
2.35821738872e-07
8.31343710736e-07
2.27512783215e-07
8.37170907542e-07
2.13099797603e-07
8.36894006695e-07
1.86416413203e-07
8.30510895007e-07
1.50132578985e-07
8.2133755547e-07
1.11866574913e-07
8.13695637296e-07
8.11658689641e-08
8.10953715053e-07
5.7401458826e-08
8.09485955939e-07
4.18634882997e-08
8.07338701801e-07
3.49912519194e-08
8.05488868261e-07
3.75024931171e-08
8.06235458041e-07
5.27879246611e-08
8.12515369145e-07
7.72936019031e-08
8.3545023906e-07
8.85668498404e-08
8.81561947276e-07
8.80600556398e-07
7.8446768044e-08
3.11497819161e-07
9.17894029158e-07
2.99396887475e-07
8.87378513229e-07
1.7641501978e-07
9.14521549604e-07
5.99713686846e-08
9.40192838602e-07
-1.46083940309e-08
9.18480165241e-07
-5.33008294017e-08
9.01990512664e-07
-7.16565726314e-08
8.88030121516e-07
-8.5479341505e-08
8.65774982395e-07
-1.01210309636e-07
8.40606506559e-07
-1.16679590447e-07
8.17989407028e-07
-1.25168375112e-07
8.02801889115e-07
-1.27658064517e-07
7.97092536529e-07
-1.25050596165e-07
7.94648989707e-07
-1.17643790814e-07
7.91842101843e-07
-1.05545404322e-07
7.89001443823e-07
-8.54107683603e-08
7.88153749836e-07
-5.36728105938e-08
7.90262070068e-07
-9.25555563047e-09
8.00821411743e-07
3.09076471401e-08
8.39845945081e-07
8.61843194047e-07
3.65055831504e-08
3.39357287035e-07
8.97001970436e-07
1.83956271984e-07
9.33745190968e-07
3.47378107667e-08
9.85344531519e-07
-1.11015521224e-07
1.01603834849e-06
-2.32934433451e-07
9.81913357727e-07
-3.2719119073e-07
9.52336645721e-07
-3.82850200221e-07
9.20414004826e-07
-4.0017004359e-07
8.73351219306e-07
-3.89306064343e-07
8.23579291294e-07
-3.66266759966e-07
7.85292946122e-07
-3.39407791131e-07
7.61633473599e-07
-3.11381136128e-07
7.52897981274e-07
-2.80888253414e-07
7.52152409343e-07
-2.48886410372e-07
7.51832242153e-07
-2.16174764865e-07
7.51207548038e-07
-1.79473420646e-07
7.52181778927e-07
-1.3500849967e-07
7.54761611203e-07
-7.61881306295e-08
7.60050405227e-07
-1.1950309613e-08
7.83217169525e-07
8.24298598172e-07
1.1546149371e-08
3.0267656854e-07
7.89142371047e-07
1.51923636522e-07
9.73287944503e-07
4.48701405713e-08
1.03139844074e-06
-6.87327106161e-08
1.06856531187e-06
-1.98548994982e-07
1.04226273973e-06
-3.28578952852e-07
1.005726514e-06
-4.32500666142e-07
9.53263935318e-07
-4.91098613988e-07
8.75796323729e-07
-4.9536247785e-07
7.95791512449e-07
-4.66794268191e-07
7.40608490731e-07
-4.28731881226e-07
7.09030532826e-07
-3.87647027957e-07
6.95425346059e-07
-3.43519484624e-07
6.96804222474e-07
-2.97847694899e-07
7.00686693392e-07
-2.5410972278e-07
7.03859319581e-07
-2.09276444306e-07
7.08222489491e-07
-1.59531194769e-07
7.13524283611e-07
-1.00153218109e-07
7.17836726163e-07
-3.01693318164e-08
7.29501871e-07
7.7346336844e-07
8.06294566777e-09
3.01412713916e-07
6.68852004768e-07
3.08419420695e-07
9.15175023807e-07
2.95004185646e-07
1.01031401762e-06
2.69691300514e-07
1.06578494064e-06
1.87932223633e-07
1.09453217882e-06
4.21840649791e-08
1.11443307052e-06
-1.57782338567e-07
1.10703965677e-06
-3.0089069681e-07
9.65054642939e-07
-3.55099008189e-07
7.99868797486e-07
-3.64062597003e-07
7.17468971487e-07
-3.4858125286e-07
6.73199291022e-07
-3.23771966583e-07
6.52662517496e-07
-2.89372545882e-07
6.51487788263e-07
-2.4895158975e-07
6.57737852376e-07
-2.09720698154e-07
6.63435444526e-07
-1.70025623076e-07
6.70187041002e-07
-1.25062452065e-07
6.77984644359e-07
-7.46205398545e-08
6.8295427923e-07
-1.56225262096e-08
6.88849941411e-07
7.22987748182e-07
2.79675680646e-08
2.54186855551e-07
6.09825567682e-07
2.63537611815e-07
8.72616067088e-07
2.75907424707e-07
9.80683459699e-07
2.86116664115e-07
1.04792121438e-06
2.77298328072e-07
1.09743298331e-06
2.44540897921e-07
1.13957090164e-06
1.68888327613e-07
1.16937698474e-06
-3.68982121104e-08
1.14861434659e-06
-1.27014398635e-07
8.62009612643e-07
-1.66537477931e-07
7.35484461507e-07
-1.76227595692e-07
6.69216879265e-07
-1.73796811778e-07
6.37463656875e-07
-1.59762696603e-07
6.29203392892e-07
-1.35783245962e-07
6.33793276469e-07
-1.10708786303e-07
6.39343031446e-07
-8.43921426996e-08
6.46320633989e-07
-5.14800537792e-08
6.54980883445e-07
-1.11882775627e-08
6.6089109515e-07
3.01423108187e-08
6.64274320651e-07
6.84851776444e-07
6.59107427004e-08
2.25221929197e-07
5.78568389806e-07
2.28652794138e-07
8.39460966432e-07
2.41328407303e-07
9.52666665898e-07
2.5553023705e-07
1.0256700896e-06
2.61613414104e-07
1.08723870658e-06
2.52593946109e-07
1.14554211408e-06
2.21135420799e-07
1.19794571347e-06
1.56326076866e-07
1.20646433344e-06
4.77314118174e-08
9.6342543611e-07
4.70747854376e-09
7.75494234865e-07
-1.11949657143e-08
6.87072746568e-07
-1.58616974768e-08
6.44218343922e-07
-1.36534130996e-08
6.28221347449e-07
-4.33952771293e-09
6.28518430838e-07
6.01167143903e-09
6.31883971493e-07
1.79613864882e-08
6.37446040785e-07
3.71635507359e-08
6.45505495921e-07
6.65471542908e-08
6.51758005128e-07
9.63169489132e-08
6.53787136964e-07
6.63589992189e-07
1.168705841e-07
2.1342830423e-07
5.54554157356e-07
2.11304790947e-07
8.11338462378e-07
2.21082697011e-07
9.25359539631e-07
2.36414246253e-07
1.0002354059e-06
2.50643272331e-07
1.0657734714e-06
2.61057185555e-07
1.12921628632e-06
2.661288683e-07
1.18785790835e-06
2.56945919766e-07
1.21180713779e-06
1.47913904031e-07
1.07383049852e-06
1.20838478635e-07
8.10264364393e-07
1.11868451127e-07
7.09763710943e-07
1.11329421463e-07
6.60320359168e-07
1.13056409311e-07
6.39350686952e-07
1.15463062701e-07
6.35725167578e-07
1.15907492472e-07
6.36454347839e-07
1.16762680691e-07
6.40118553183e-07
1.24197045186e-07
6.46990455523e-07
1.43258407174e-07
6.53079588753e-07
1.66966815555e-07
6.54624720949e-07
6.58170009414e-07
1.71354005036e-07
2.03572185746e-07
5.40620266888e-07
1.92287283584e-07
7.92964918998e-07
1.92792918747e-07
9.06910390841e-07
1.98877481604e-07
9.83054405419e-07
2.04146954834e-07
1.05169824088e-06
2.05816932681e-07
1.11985083301e-06
2.00605505212e-07
1.18547687815e-06
1.85881605932e-07
1.22006337859e-06
2.01239510421e-07
1.05999133647e-06
1.96498947549e-07
8.27678821831e-07
1.99062671552e-07
7.28518552247e-07
2.06646890995e-07
6.77965659476e-07
2.13213281119e-07
6.55670124695e-07
2.14011231114e-07
6.49742823162e-07
2.09296372402e-07
6.48395859398e-07
2.03017687566e-07
6.50488051958e-07
2.01767551194e-07
6.56300069931e-07
2.12342764022e-07
6.62219907186e-07
2.31795054592e-07
6.63718770373e-07
6.64881707992e-07
2.24840638616e-07
1.95344777539e-07
5.3176555618e-07
1.77743225646e-07
7.80745295483e-07
1.71440704348e-07
8.94590829264e-07
1.70628370908e-07
9.71938182164e-07
1.69914096146e-07
1.04263660761e-06
1.66711719718e-07
1.11373926334e-06
1.6070462351e-07
1.1822492402e-06
1.57807877738e-07
1.21597877659e-06
2.29841459698e-07
9.92278935955e-07
2.46980442441e-07
8.2886159602e-07
2.62873837192e-07
7.41391813262e-07
2.80887863806e-07
6.9472624052e-07
2.93458459746e-07
6.74403105697e-07
2.9384046619e-07
6.67542563782e-07
2.86311221693e-07
6.64896590854e-07
2.7532511295e-07
6.66000073149e-07
2.67755526455e-07
6.71097940839e-07
2.71452547642e-07
6.76922062604e-07
2.86731917502e-07
6.78627674373e-07
6.79545109289e-07
2.74084520936e-07
1.93739329469e-07
5.24593970083e-07
1.75053502079e-07
7.70563796571e-07
1.65809593274e-07
8.84829830886e-07
1.6278586589e-07
9.62667383214e-07
1.61107377125e-07
1.03377976098e-06
1.59839730381e-07
1.10466001392e-06
1.62196921186e-07
1.16885862951e-06
1.96168814046e-07
1.17914360833e-06
2.52206524568e-07
9.48327269767e-07
2.85712929968e-07
8.22044123998e-07
3.1500986218e-07
7.49886244856e-07
3.43205703337e-07
7.10535427363e-07
3.59144651661e-07
6.94183807021e-07
3.58492145981e-07
6.87377325283e-07
3.49548279804e-07
6.84325579592e-07
3.35223805783e-07
6.85048402983e-07
3.22673223136e-07
6.89731699554e-07
3.20798643383e-07
6.95529326789e-07
3.31461326858e-07
6.97612073982e-07
6.98946491018e-07
3.15004061917e-07
1.88273674828e-07
5.20701674725e-07
1.69001152673e-07
7.62787946696e-07
1.54584612507e-07
8.79931977627e-07
1.45560301892e-07
9.59182043943e-07
1.36810179526e-07
1.03132482647e-06
1.28049272541e-07
1.1015273773e-06
1.26987551134e-07
1.15735937531e-06
2.19207282339e-07
1.08981122692e-06
2.79952269368e-07
9.07291087699e-07
3.2366022325e-07
8.12904186007e-07
3.63428896882e-07
7.56382295512e-07
3.9790643331e-07
7.2637911782e-07
4.12945347366e-07
7.14416474894e-07
4.11308962339e-07
7.08498769818e-07
4.01245350936e-07
7.05880827602e-07
3.84002004283e-07
7.06748747439e-07
3.67262612877e-07
7.11266071297e-07
3.60449823432e-07
7.17001046653e-07
3.65629310782e-07
7.19481418656e-07
7.21098048611e-07
3.45400072326e-07
1.83592009218e-07
5.21539205693e-07
1.6402662951e-07
7.58210800985e-07
1.45007320383e-07
8.78444958695e-07
1.30029141007e-07
9.60871710654e-07
1.1449030954e-07
1.03398236414e-06
1.02668182247e-07
1.10007224293e-06
1.20422108149e-07
1.12942033054e-06
2.5286630261e-07
9.66778734819e-07
3.14357676532e-07
8.73280560696e-07
3.64016691804e-07
8.05148030204e-07
4.11158482107e-07
7.63480635867e-07
4.46173755958e-07
7.43595450909e-07
4.57022398441e-07
7.35472342593e-07
4.54990374729e-07
7.31305207567e-07
4.4292788003e-07
7.29703185258e-07
4.22435338382e-07
7.31015866983e-07
4.01458773995e-07
7.35439014186e-07
3.89571120825e-07
7.40874848411e-07
3.88220961001e-07
7.43419703062e-07
7.44617158336e-07
3.64176905966e-07
1.58508740693e-07
5.50337904466e-07
1.59342339981e-07
7.44526683319e-07
1.42984660152e-07
8.78899609264e-07
1.25762814463e-07
9.64958894113e-07
1.09008862599e-07
1.03719807282e-06
1.08485789456e-07
1.08765404615e-06
2.21633776814e-07
1.01876062751e-06
2.92804562932e-07
9.16418371039e-07
3.52799678399e-07
8.49414215956e-07
4.0680220821e-07
8.01443005031e-07
4.57439957835e-07
7.73745475819e-07
4.86729963629e-07
7.62874724128e-07
4.93264834214e-07
7.58365979827e-07
4.89797481642e-07
7.56553860984e-07
4.74435923755e-07
7.56318799843e-07
4.49746198343e-07
7.58160239899e-07
4.23706547198e-07
7.62281745808e-07
4.06285592013e-07
7.67034813952e-07
3.97652407818e-07
7.69090205248e-07
7.68861798955e-07
3.71076158711e-07
9.90720050623e-08
6.44890061272e-07
1.03881020235e-07
7.42971697624e-07
1.18280321399e-07
8.59861519404e-07
1.09905837735e-07
9.67015959667e-07
1.06906908514e-07
1.03223108582e-06
1.7191703586e-07
1.02111355355e-06
2.70014420552e-07
9.37491904593e-07
3.35366174117e-07
8.83371614343e-07
3.9367704641e-07
8.36164877208e-07
4.51133100283e-07
8.03813493773e-07
4.97536380263e-07
7.89016544912e-07
5.16568011389e-07
7.85007944548e-07
5.20773878371e-07
7.84443202592e-07
5.14291913998e-07
7.85258825326e-07
4.9398740718e-07
7.86412226478e-07
4.63585546231e-07
7.88461543154e-07
4.31549307834e-07
7.91907908149e-07
4.07810618506e-07
7.95201307765e-07
3.92469772387e-07
7.96099950522e-07
7.94256516596e-07
3.66061749465e-07
8.78240060916e-08
7.66537057944e-07
7.90491641321e-08
7.61674394658e-07
9.78232658486e-08
8.42454853837e-07
1.24311776423e-07
9.46807898909e-07
1.72968811385e-07
9.90713751684e-07
2.53229306371e-07
9.59176003754e-07
3.12412074887e-07
9.11138014603e-07
3.72374408185e-07
8.66360892469e-07
4.31179645258e-07
8.32197118811e-07
4.87833404828e-07
8.13456295279e-07
5.21593222722e-07
8.09100690409e-07
5.32126667892e-07
8.10554974229e-07
5.35003224039e-07
8.1423595144e-07
5.24341217857e-07
8.17737840785e-07
4.97923463622e-07
8.19992652854e-07
4.60934940578e-07
8.21673570462e-07
4.20566509227e-07
8.22819109407e-07
3.90853832934e-07
8.23613028622e-07
3.73944055513e-07
8.23633015715e-07
8.21288403861e-07
3.53484269301e-07
1.6451410717e-07
8.28472147151e-07
1.49225978728e-07
7.91938821068e-07
1.41785475593e-07
8.49752345896e-07
1.66361585975e-07
9.36331469609e-07
2.10082152538e-07
9.68960851816e-07
2.6754435349e-07
9.37588591423e-07
3.30217017329e-07
8.93370275253e-07
3.91024994347e-07
8.57053033984e-07
4.51453878239e-07
8.34292081479e-07
4.9742682053e-07
8.27847518975e-07
5.16716498891e-07
8.31149555266e-07
5.27483821868e-07
8.38423272228e-07
5.298313456e-07
8.46623713038e-07
5.15813945667e-07
8.53053301707e-07
4.83673908193e-07
8.56042293042e-07
4.34518906457e-07
8.5481275652e-07
3.8495747264e-07
8.50959560044e-07
3.57069878437e-07
8.50539977563e-07
3.47699213184e-07
8.51370548878e-07
8.49252022336e-07
3.36364060208e-07
2.27290633458e-07
8.50617627535e-07
2.1046648566e-07
8.24299977699e-07
1.75759535744e-07
8.71907994466e-07
1.73969095728e-07
9.4640362971e-07
2.02128973426e-07
9.64598778823e-07
2.56961377099e-07
9.24983671041e-07
3.19299830729e-07
8.81309955953e-07
3.81231096193e-07
8.50220441497e-07
4.35029606948e-07
8.38393264634e-07
4.6544295118e-07
8.41448798325e-07
4.83252461805e-07
8.51728929211e-07
4.99814484142e-07
8.6555838082e-07
5.05524600805e-07
8.79685858892e-07
4.90184888302e-07
8.90406992445e-07
4.44862797871e-07
8.92133689794e-07
3.77809596737e-07
8.81726932138e-07
3.31138337662e-07
8.72859108897e-07
3.16563850178e-07
8.73222215925e-07
3.18604434591e-07
8.75086768108e-07
8.72203630317e-07
3.14851797893e-07
2.5783741382e-07
8.65000622632e-07
2.37696945346e-07
8.52413349025e-07
1.87426993324e-07
8.9870058867e-07
1.63167305742e-07
9.65751585764e-07
1.74476668584e-07
9.66858750351e-07
2.19695677249e-07
9.14840372214e-07
2.7781843635e-07
8.68200362136e-07
3.3443273585e-07
8.4020190932e-07
3.76006248158e-07
8.37633269697e-07
4.03915626746e-07
8.48639987431e-07
4.34221892359e-07
8.66971601373e-07
4.62634538106e-07
8.90062884837e-07
4.75193407312e-07
9.14755389583e-07
4.47750054653e-07
9.30442982196e-07
3.69263466011e-07
9.21731239926e-07
3.00870776549e-07
8.97710706307e-07
2.75969867502e-07
8.84689717549e-07
2.76023980942e-07
8.84685578402e-07
2.85126689284e-07
8.86419569078e-07
8.83622229982e-07
2.90704654981e-07
2.774282389e-07
8.77418975412e-07
2.41851275804e-07
8.73947883217e-07
1.79685655084e-07
9.27104645891e-07
1.42085290757e-07
9.87526020208e-07
1.40198099598e-07
9.70282587394e-07
1.71875914329e-07
9.05048151275e-07
2.20851374373e-07
8.53430243252e-07
2.70551406044e-07
8.26694656946e-07
3.12381975058e-07
8.28817702796e-07
3.5614773114e-07
8.46758902079e-07
4.06002142088e-07
8.74122335421e-07
4.47636763927e-07
9.10561950591e-07
4.39062302893e-07
9.48179932778e-07
3.55406403243e-07
9.60049552115e-07
2.66040868898e-07
9.36562352163e-07
2.30788087e-07
8.99153729525e-07
2.28182610689e-07
8.79885649079e-07
2.40385949077e-07
8.78729670486e-07
2.59086934887e-07
8.81299568317e-07
8.80871990175e-07
2.7952808205e-07
2.76150070455e-07
8.70290488305e-07
2.13335748482e-07
8.79752025071e-07
1.61822187921e-07
9.38909965946e-07
1.33339075405e-07
9.91113677297e-07
1.29398499231e-07
9.61337794429e-07
1.48730260964e-07
8.89914210812e-07
1.90096743642e-07
8.33898891816e-07
2.40672360683e-07
8.06460356063e-07
2.94540670098e-07
8.07830467802e-07
3.56786569511e-07
8.28152930948e-07
4.12943238594e-07
8.618162271e-07
4.14546895834e-07
9.07509963366e-07
3.35051015989e-07
9.50481590425e-07
2.42807017672e-07
9.61906695303e-07
2.0198018119e-07
9.29005100992e-07
1.97352967058e-07
8.83932233485e-07
2.08871607992e-07
8.5896153424e-07
2.31149198536e-07
8.55925586363e-07
2.60830219726e-07
8.60194718578e-07
8.63301587876e-07
2.92970796532e-07
2.94989993258e-07
7.78842567681e-07
2.3384488107e-07
8.64425311349e-07
2.08279207726e-07
9.24931923396e-07
1.97406214083e-07
9.71317685351e-07
1.92501702394e-07
9.40198349241e-07
1.95255438199e-07
8.7111922029e-07
2.22463596391e-07
8.11071559181e-07
2.6671959804e-07
7.80116380821e-07
3.16488135889e-07
7.78204745357e-07
3.62889509136e-07
7.9640742927e-07
3.69331435034e-07
8.31059718061e-07
3.16284636769e-07
8.79659893712e-07
2.59903977051e-07
9.25215487365e-07
2.35069517775e-07
9.40088281976e-07
2.31371849168e-07
9.09482066782e-07
2.35101900922e-07
8.64803104207e-07
2.46799387882e-07
8.35826035142e-07
2.70893899552e-07
8.28189971266e-07
3.03983695084e-07
8.32876036022e-07
8.38914503252e-07
3.4032741989e-07
3.54496814117e-07
6.11912984284e-07
3.45576920617e-07
8.20414369831e-07
3.27953215514e-07
9.0540922741e-07
3.1168913674e-07
9.59097535341e-07
2.83170744533e-07
9.43547950155e-07
2.68541153685e-07
8.64288572268e-07
2.78434591367e-07
7.96076794825e-07
3.05620945289e-07
7.59365277596e-07
3.35399956222e-07
7.53540621379e-07
3.50867155615e-07
7.69611366298e-07
3.36007109377e-07
8.0473645546e-07
3.12788491776e-07
8.55335469662e-07
3.10591377359e-07
9.02284407635e-07
3.16574705384e-07
9.19137863266e-07
3.2251575479e-07
8.94541311787e-07
3.26561374739e-07
8.53743098824e-07
3.35414431108e-07
8.22547792132e-07
3.55951539443e-07
8.0975472303e-07
3.85567570875e-07
8.11932592788e-07
8.17913379461e-07
4.18714630584e-07
2.78355619859e-07
5.35849013575e-07
2.96292842508e-07
7.63861531066e-07
3.08413491906e-07
8.65439526649e-07
3.20467804036e-07
9.2795516734e-07
2.97305470206e-07
9.50828269369e-07
2.87227695694e-07
8.62023268667e-07
2.97973339139e-07
7.8566848368e-07
3.22062507521e-07
3.4786705005e-07
3.63464338868e-07
3.65627941393e-07
3.70201158525e-07
3.81867237948e-07
3.93881880508e-07
4.05404851843e-07
4.16355168842e-07
4.30011799017e-07
4.50908017827e-07
4.77774140327e-07
5.04288679769e-07
2.42901443424e-07
2.50602868258e-07
2.63434915498e-07
2.7832078906e-07
2.82483213629e-07
2.84241100169e-07
-1.80128189086e-07
4.54092946484e-07
-1.59457461133e-07
4.35613335352e-07
-1.41841876186e-07
4.16496817876e-07
-1.26379019649e-07
3.96612152114e-07
-1.12191698371e-07
3.75511810831e-07
-9.86004007906e-08
3.52796730515e-07
-8.54649663336e-08
3.28631625546e-07
-7.3040530083e-08
3.03855286513e-07
-6.14752329451e-08
2.79414170642e-07
-5.07792745397e-08
2.55914564307e-07
-4.09269053889e-08
2.33626085656e-07
-3.18907296298e-08
2.1260450391e-07
-2.36780971042e-08
1.92782247834e-07
-1.6424812186e-08
1.74029471185e-07
-1.03843780716e-08
1.56214567678e-07
-3.91104623217e-09
1.39365104154e-07
1.24145768363e-07
6.26669205733e-08
5.23204273002e-07
1.57366701063e-08
4.97062652764e-07
-1.82086443282e-07
4.65151796698e-07
-1.59708831743e-07
4.44913528857e-07
-1.41704267611e-07
4.27229806271e-07
-1.26134183622e-07
4.08713089105e-07
-1.12320500757e-07
3.89114763432e-07
-9.95034029462e-08
3.68025151556e-07
-8.71569646145e-08
3.45219301269e-07
-7.52983063447e-08
3.21102231372e-07
-6.41733231314e-08
2.96607087919e-07
-5.38689640582e-08
2.72607901027e-07
-4.43745401994e-08
2.49620467844e-07
-3.56637476918e-08
2.27861152848e-07
-2.77126377456e-08
2.0735896352e-07
-2.05202800243e-08
1.88033645756e-07
-1.41870827259e-08
1.69753813204e-07
-8.96881186689e-09
1.52397911096e-07
-3.74724032559e-09
1.35988130153e-07
1.21113586699e-07
1.04313389593e-07
5.28603205261e-07
7.62150569705e-08
5.00976070014e-07
-1.33643545106e-07
4.58564487738e-07
-1.25627368751e-07
4.3984224731e-07
-1.12178711873e-07
4.21988179086e-07
-1.00269595512e-07
4.03462792085e-07
-8.94751902308e-08
3.83671212836e-07
-7.9202835192e-08
3.6224327742e-07
-6.91406213512e-08
3.39135312638e-07
-5.94659484103e-08
3.14947863376e-07
-5.04205910642e-08
2.90639898515e-07
-4.20685310117e-08
2.66989881437e-07
-3.44057614036e-08
2.4442701584e-07
-2.74212879126e-08
2.23118259696e-07
-2.11056427791e-08
2.03066558586e-07
-1.54564751256e-08
1.84177458933e-07
-1.05436576642e-08
1.66315365715e-07
-6.6064277366e-09
1.49369416153e-07
-3.02901492595e-09
1.33364073109e-07
1.1880141745e-07
1.36745024761e-07
5.38061070242e-07
1.13494309248e-07
5.08237124846e-07
-5.12353091169e-08
4.61984054241e-07
-8.17937807185e-08
4.37673415728e-07
-7.41959578745e-08
4.19555936649e-07
-6.70453260486e-08
4.00606023838e-07
-6.02071817999e-08
3.8027298069e-07
-5.32976337442e-08
3.58256332613e-07
-4.62591478199e-08
3.34702565678e-07
-3.94123342423e-08
3.10357689237e-07
-3.30022627802e-08
2.8615342132e-07
-2.71012147984e-08
2.62763892942e-07
-2.17293239079e-08
2.40538854122e-07
-1.69002668559e-08
2.19600390581e-07
-1.26271863403e-08
1.99926632228e-07
-8.91339281585e-09