/*--------------------------------*- C++ -*----------------------------------*\
| =========                 |                                                 |
| \\      /  F ield         | OpenFOAM: The Open Source CFD Toolbox           |
|  \\    /   O peration     | Version:  2312                                  |
|   \\  /    A nd           | Website:  www.openfoam.com                      |
|    \\/     M anipulation  |                                                 |
\*---------------------------------------------------------------------------*/
FoamFile
{
    version     2.0;
    format      ascii;
    arch        "LSB;label=32;scalar=64";
    class       volScalarField;
    location    "0.27/water";
    object      epsilon.gas;
}
// * * * * * * * * * * * * * * * * * * * * * * * * * * * * * * * * * * * * * //

dimensions      [0 2 -3 0 0 0 0];

internalField   nonuniform List<scalar> 
6000
(
18.2519172825
2.84910651929
0.517257512344
0.118438367251
0.0382174935548
0.00761642741869
0.00201811621269
0.000917136198613
0.000609807786964
0.000500568587841
0.000455102177851
0.000434076175603
0.00042349082905
0.000417691955646
0.000414245124191
0.000412056605203
0.000410608257075
0.000409634264116
0.000408985081477
0.000408570608368
568.287681972
108.824461033
18.3341220816
3.78712787168
0.69564511215
0.197151045949
0.0449434877307
0.00828190562287
0.00204276433907
0.000899881294279
0.000601224522116
0.000496576191366
0.000452993810301
0.000432796880419
0.000422551652066
0.000416843956627
0.000413368049511
0.000411109643029
0.000409601509585
0.000408611792843
790.487555305
185.183536015
41.4683388388
8.81062417464
2.10797810091
0.480261521413
0.136907092997
0.0310818427593
0.00634237787806
0.00184693027193
0.000894943610425
0.000613816547776
0.000507017120974
0.000460141719359
0.000437670263417
0.000426040320518
0.000419485524097
0.000415461343505
0.000412837028017
0.000411102498552
1005.39402033
250.025456666
62.3203301597
15.2313408047
4.16898629587
0.925700959855
0.247628276745
0.0709178522833
0.015674593591
0.00370110181682
0.00138181551307
0.000790163933418
0.000585227272461
0.000498967117216
0.000458541462885
0.000438240721045
0.00042733809125
0.000421001253829
0.00041702583997
0.000414421905358
1089.9019283
287.057035624
76.8237463389
20.7497374946
5.36554297701
1.63763540089
0.354299335529
0.109376936452
0.0312473939049
0.0070152358925
0.00213585799449
0.00103293188437
0.000687164459239
0.000548610260377
0.000484871342706
0.000453226808747
0.000436612291427
0.000427322283694
0.000421730456815
0.000418154551377
1065.6414275
298.543655082
85.2165379848
24.7028724095
7.05787268601
1.86991876974
0.57188123637
0.130307876141
0.0477785783504
0.0126610718075
0.00331429146528
0.00136152312183
0.000814271375202
0.000608450061991
0.000516164042908
0.000470717330546
0.000447059335188
0.000434108905168
0.000426566595751
0.000421884630401
1037.07278982
301.803401321
89.5365372223
27.1010252359
8.26426137941
2.44618181836
0.650533634599
0.189935921105
0.0535640885961
0.0207343554401
0.00526402702011
0.00182360737327
0.000972864146707
0.000679030277717
0.000552282046283
0.0004906596832
0.000458709720507
0.00044137765275
0.000431490617018
0.000425513369631
1077.10516906
311.380039052
92.9796108455
28.802222945
9.19048283881
2.94187514276
0.890228396138
0.254680270434
0.0697065948419
0.0268326895752
0.00864917113548
0.00253905525192
0.00117941619457
0.000762864018153
0.000593580828255
0.000513147108008
0.000471683786625
0.000449257247705
0.000436592836411
0.000429076861276
1149.33360575
324.808251551
96.4376259378
30.3445377379
10.0063857778
3.39703207528
1.13851521886
0.351986486493
0.121582407579
0.0329703447629
0.0137791230624
0.00384438462498
0.00147879620786
0.00086679492499
0.000641305918884
0.000538473136957
0.000486136584598
0.000457887425404
0.000441984588058
0.000432660185947
1197.12506501
334.545558569
99.6694188568
31.8060364436
10.7620787898
3.81443704058
1.38415379059
0.492819956438
0.162323432475
0.0624513711245
0.0185712894916
0.00646926109913
0.00199499995569
0.00100758412546
0.000698413669701
0.000567304015337
0.000502283178042
0.000467383128009
0.000447761709793
0.000436334129395
1205.07867547
339.03906133
102.043223062
33.0491698978
11.4540815991
4.21436583349
1.63118406573
0.645628005317
0.253398786188
0.097018453346
0.032241045767
0.0103285746502
0.00305670067857
0.0012269948646
0.000771688994117
0.000601185195166
0.000520551462243
0.000477882036885
0.000453992781003
0.000440146196902
1195.7085734
339.639121127
103.348421584
33.9792130185
12.0469314997
4.58727382606
1.86515637745
0.800582753509
0.35496570729
0.163179351269
0.0735868100654
0.0146221878822
0.00507424889248
0.00162048875401
0.000875020482777
0.000643227227315
0.000541786426334
0.000489632257417
0.000460755682535
0.000444125073187
1189.560232
338.967804674
104.03781745
34.5834417698
12.4748143571
4.88760065919
2.06862390165
0.939181505752
0.452608089291
0.240781202487
0.116777852115
0.0330884987126
0.0070168271521
0.00234111113007
0.00103243405801
0.000698811538186
0.000567512182727
0.000503138516888
0.0004681897636
0.000448315335211
1190.49467661
339.919029156
104.414136254
34.900980549
12.7431001931
5.10178665862
2.22451555897
1.04629987307
0.535808576225
0.313769880962
0.187265831105
0.0659091493018
0.0090539112135
0.00336182257842
0.0012836082361
0.000777374071181
0.000600755696083
0.000519309733728
0.000476582138762
0.000452847346706
1208.26833465
343.531752728
105.078329982
35.0817996309
12.8852848196
5.23131935582
2.32565205434
1.12009934567
0.599995676881
0.377503902205
0.255304904646
0.11056265688
0.0189993921079
0.00440918424856
0.0017200732356
0.000899832295469
0.00064650376556
0.00053959286577
0.000486482230667
0.000458008750626
1238.81588889
351.272318595
106.86817631
35.5404120174
13.0515036277
5.31546677029
2.38006060483
1.16647062014
0.649608903188
0.434979921041
0.317320112589
0.170093719298
0.0473896990939
0.00636361957126
0.00261699263216
0.00110713773148
0.000712661565182
0.000566260937211
0.000498796928844
0.000464276421894
1287.88681452
363.296818544
110.115718174
36.5083540118
13.3434869911
5.39369144055
2.40800751133
1.19924659277
0.695671977212
0.491843209715
0.376625929486
0.233967752663
0.0817170702885
0.0133601627178
0.004664004659
0.00148897226665
0.000813353554555
0.000602826212971
0.000514831408722
0.000472296012253
1349.15870214
379.783364573
115.320784278
38.2074345058
13.816122037
5.47342607594
2.4133211434
1.22242027756
0.738907725409
0.541567109527
0.435785917968
0.303109295794
0.129899417984
0.0327548075594
0.00910105999853
0.00226161427
0.000975049545727
0.000654551248715
0.000536275306419
0.000482822636722
1391.49112298
398.855906876
122.987642451
40.6947925424
14.3432826052
5.48544519928
2.3835078064
1.23541039121
0.773541896327
0.572051783525
0.478329174149
0.376500064308
0.208836176842
0.0797011358342
0.0164003932002
0.00400809409738
0.0012548411094
0.000729829945691
0.000565270211237
0.000496674318008
1426.22988804
426.914212328
133.441021118
43.1705670683
14.6195822679
5.42628828986
2.3712425276
1.25591861188
0.790430586026
0.579715688778
0.486522101417
0.428342795963
0.301600167561
0.126905263168
0.0278744610587
0.00734984479125
0.00177495579749
0.000842582456606
0.000604599678426
0.000514730776111
1576.83645231
472.496498673
144.411224898
45.2993656393
15.1232741905
5.63137346617
2.47124544836
1.29678951141
0.801508883313
0.577532753853
0.4794973262
0.431740996338
0.364355285757
0.215168288208
0.0648768620289
0.00919039095639
0.00273463072462
0.0010140467838
0.000657572841299
0.000537914928554
1862.0354464
522.916412114
154.596193635
48.4657290231
16.4926116719
6.24453222662
2.71290565362
1.38074661459
0.82581676113
0.582359309882
0.47528917806
0.426315541877
0.377350368238
0.287203151793
0.111809407121
0.0130723837083
0.0038930350597
0.00127645997448
0.000728701384364
0.000567309451201
1989.12835748
550.05965348
162.914944312
52.0138836795
18.1162981221
6.95638496948
3.0021932611
1.48832719679
0.864577174809
0.60070498736
0.482773434505
0.426524684727
0.385603168177
0.321375503042
0.174994359797
0.0294062903621
0.00392856895467
0.0016584563647
0.000824594625287
0.000604282229211
2034.58956706
563.900815983
168.152468075
54.559436947
19.3363953291
7.5233938552
3.24757605707
1.58781968897
0.912516468614
0.631275943499
0.500105357425
0.435045752743
0.398600003767
0.345566314718
0.227514548473
0.0522642458385
0.0043195795455
0.00213249794547
0.000956164158504
0.000650761098567
2050.11878524
570.849297068
171.187500011
56.0496006332
20.0823362892
7.89832851374
3.42484164957
1.67562949922
0.970470621306
0.669766129717
0.524997140138
0.45370837056
0.419897404712
0.37698069815
0.275877224656
0.0917438461988
0.00759384656044
0.00265360192674
0.00114349976091
0.0007098595297
2069.41302347
576.473583453
173.793151096
57.0809916563
20.5519746671
8.14727989591
3.56316345356
1.76690637021
1.03695551102
0.711394593646
0.557518428476
0.485088749609
0.455031051301
0.424932782469
0.330481386041
0.140033657893
0.0170713156525
0.00338302379839
0.00142637050217
0.00078684369051
2079.41986584
582.67883347
176.497733542
58.0351850947
20.9749754653
8.3773623869
3.7049355599
1.87049087037
1.10585098095
0.754810556258
0.597478421297
0.529948895915
0.509343609507
0.494143142009
0.40245218981
0.199447742333
0.0373750862281
0.00457266281029
0.00187503424402
0.000890444257764
2121.86460914
591.862734169
179.412962308
59.106428009
21.4570081433
8.62364717452
3.85349226256
1.97381914684
1.16682109267
0.797903829995
0.643533873323
0.586598795786
0.580061585057
0.575751708713
0.477161333959
0.274332907721
0.0647985754204
0.00663899663127
0.00261779673611
0.00103698994324
2175.84345391
606.314560316
183.470146081
60.4828577117
21.994438415
8.86495872947
3.99020934467
2.05736033196
1.21231041274
0.837734732601
0.693263296759
0.651954500897
0.658037609292
0.650064720504
0.553665444488
0.368855887132
0.117832241936
0.0118066924896
0.00384408621946
0.00125712190626
2241.9486787
622.000075808
187.843355424
61.8125064078
22.4480296772
9.04564824901
4.08517517957
2.10313430891
1.23827890578
0.871544512101
0.743138504222
0.720739145024
0.729708373169
0.707330092823
0.623621049342
0.459406547425
0.191558992733
0.027277021243
0.0055301556819
0.00160075484332
2292.03947561
636.264661214
191.827110551
62.975212574
22.8054198594
9.15845090498
4.1222638031
2.10439606377
1.2445245545
0.897122045388
0.787867562954
0.782112109451
0.781535579532
0.751116246628
0.682993530402
0.519639301554
0.270284060478
0.0581370497074
0.00734299615609
0.00215722658442
2346.023577
647.112798759
194.582166838
63.8141836474
23.0348657978
9.17799975189
4.07834659427
2.06011743985
1.23217631449
0.910842954577
0.817660023228
0.817752219784
0.809618283943
0.784074120115
0.728563847279
0.571444923149
0.342703273645
0.0879745028687
0.0101372130352
0.00312271196267
2393.06209137
654.134165127
196.162607709
64.3459891324
23.0714136049
9.03084985583
3.92464461342
1.97052275953
1.19977337657
0.903761993546
0.814276817318
0.808239596764
0.811597275515
0.800138691547
0.757305807795
0.618297879169
0.409599037591
0.142478356626
0.0174921564121
0.00482903815539
2420.84487165
654.917433706
196.739212628
64.7476412265
22.9238724066
8.70986430501
3.68713990734
1.85286153601
1.14673132151
0.863915643022
0.765063345562
0.757514917693
0.783436788292
0.789776228675
0.764873882106
0.662228765697
0.486041019836
0.211314737752
0.036448136649
0.00754145662201
2264.44269932
632.081771912
195.161062802
64.996308073
22.5899240034
8.26746135174
3.43075549321
1.73681189563
1.07666446287
0.79355537844
0.689466317685
0.684203294096
0.722713114193
0.7456002954
0.745775159965
0.700973405194
0.563422341167
0.295501155318
0.0752354742592
0.011288423222
2017.71685014
603.017600085
195.199596631
66.0120215165
22.2295867178
8.02467612528
3.33600621203
1.67204794181
1.00777442683
0.717365204594
0.610100384212
0.598499577102
0.635221770009
0.667755570388
0.694545127819
0.716040781634
0.622272852737
0.385602161644
0.106573473966
0.0156668710523
1937.00428806
607.128635894
203.100374771
68.3983632097
23.3055454376
8.54377321748
3.51082546887
1.69458449302
0.968928856133
0.655239674624
0.536213261709
0.508561157258
0.533355326484
0.568114230941
0.61197711742
0.687991073193
0.63979800723
0.445177624972
0.171669460681
0.023629243632
2008.22500477
637.071833416
214.039174833
73.2447053768
26.1521796218
10.0067924199
4.07969213223
1.85611811452
0.981732756412
0.6204034954
0.479592455653
0.43263075349
0.435882218008
0.46730443901
0.51775225357
0.625354182026
0.620924493401
0.469494694625
0.237565804822
0.0490115321811
2130.13696794
668.350089077
222.496466358
79.8936038407
31.2469486137
12.62096251
5.12304674045
2.18159227006
1.05831230333
0.621474769502
0.452278611161
0.386183429765
0.368431377695
0.386163188142
0.436848637249
0.551620224765
0.582349230949
0.47953741735
0.289593994573
0.0713568518627
2214.15062651
685.839441629
228.322786166
85.9041154581
37.2013956309
16.3737261888
6.58882882884
2.64820023351
1.19386474649
0.657708134278
0.453670470385
0.369039590686
0.333859433375
0.337354337736
0.381569228936
0.487590400955
0.543225270295
0.483785367472
0.322340752655
0.115562643839
2240.72678027
692.710351075
232.592878251
90.3356807425
41.5831574683
19.7729203473
8.24244446867
3.20772274331
1.37354632818
0.721783205132
0.476857581588
0.37354243133
0.324335716243
0.315650340035
0.34883083138
0.442710358559
0.514512656435
0.490514437419
0.348968807097
0.163870650233
2271.38390913
698.139736501
235.444106377
92.898776513
44.2556678581
22.098235606
9.44012014099
3.70619862027
1.5665733556
0.801707191039
0.513256733309
0.391058002455
0.330606280054
0.312562391493
0.334146397574
0.41567532511
0.498322155652
0.506584064005
0.385819991296
0.214609975488
2340.41025331
708.623002735
237.72270531
94.0606529305
45.488210228
23.2636257203
10.021674063
3.98562258847
1.70181458649
0.870431950456
0.550458846312
0.413241418033
0.344775479251
0.320497255956
0.332524568706
0.400672358873
0.492378904494
0.532083636674
0.434752910698
0.268741835251
2404.53519758
723.921679879
241.418263819
94.9955578484
45.8722552475
23.2954604403
9.9589528278
4.01925471887
1.75947554983
0.917369045939
0.582276418407
0.43530315835
0.362120888103
0.333960765256
0.337712527186
0.392069374756
0.491288446578
0.56142494358
0.488459075304
0.325987804919
2468.75993899
743.362478438
245.763471179
95.7076473092
45.540998868
22.2031143309
9.3445120504
3.85653060256
1.75265413442
0.941926599252
0.605872111029
0.454396344293
0.380059493429
0.349748827216
0.344169699947
0.385510953765
0.491048384108
0.588804395463
0.543893710603
0.37017903697
2578.87704607
772.971832745
252.042716264
96.7551826196
44.4912387805
20.2432167388
8.42185168149
3.58735399226
1.70411222263
0.946308497823
0.619978883639
0.469048190076
0.396757915147
0.36414747301
0.347232599365
0.378304824151
0.491176679895
0.614138884007
0.595598528878
0.414942650891
2745.77570048
816.473753504
262.3870786
98.6179704548
42.4641801154
17.9341046442
7.45246038929
3.29250101075
1.63574888495
0.937017953784
0.625125824903
0.479059319878
0.409886768697
0.371853640293
0.343255588614
0.36703250474
0.490911574671
0.634581729693
0.638784600403
0.461875342476
3006.48797348
880.748400209
277.987676149
100.866905309
40.9267996668
16.1220071921
6.67271744209
3.03920824354
1.56595050012
0.920125032274
0.62337740842
0.48455300967
0.41612787014
0.367649754324
0.331016287835
0.349501145775
0.488404807201
0.645803183115
0.670259875798
0.511334082846
3370.68821946
986.380351511
306.165273807
108.997573294
41.256084724
15.6809050362
6.32159742113
2.9131661742
1.52647391762
0.909039011167
0.620884136942
0.486039184267
0.41151103748
0.353381515027
0.311260621058
0.329258127721
0.481692466458
0.644985608749
0.688750448089
0.563395574445
3867.42726777
1167.35639181
358.004656732
122.976168992
44.0565190475
16.5421710509
6.68781102785
3.03918557074
1.57745239726
0.930372942841
0.629512148452
0.486012603352
0.398434188561
0.336248923594
0.290372718409
0.311504397318
0.471807338797
0.634309659145
0.69532096731
0.61169003274
5238.77889889
1506.61877272
431.178216195
141.047654143
49.6345666771
18.982898238
7.8928849353
3.56748876815
1.79311534033
1.01797645172
0.663451804409
0.491446555486
0.38973688538
0.324468295268
0.27748310253
0.302524595179
0.464235963938
0.621560120544
0.695183617132
0.650799071746
8538.83226558
1982.84046504
530.396166082
167.692047258
59.4300001629
23.6122379868
10.0937813246
4.55033470883
2.20433770731
1.18812095374
0.730138351922
0.510618542123
0.393785239426
0.323997542528
0.278576411824
0.307150629815
0.466109437392
0.616485838777
0.698806507352
0.682724449682
10858.269374
2367.67575277
643.40678808
202.796232604
73.654043359
29.6015657945
12.6900740883
5.6963828753
2.70995580925
1.40653532181
0.818715325646
0.544198516569
0.411063258731
0.336607417394
0.295282290869
0.327184460152
0.482547432472
0.625799298173
0.715753475773
0.720684503835
11453.8207469
2576.15660361
711.674856784
232.716646989
85.0262735951
34.1105843855
14.6384898118
6.60812144235
3.14742685991
1.60603146408
0.903337347134
0.582837103038
0.437952969524
0.361941770961
0.326608155915
0.362694105227
0.513732087817
0.652936987524
0.751177618691
0.772512168424
11708.3413998
2693.8924347
763.663730181
248.207860753
90.1862264353
36.0483412699
15.5069181227
7.07511468595
3.40202810898
1.72796157714
0.95803247401
0.615405780587
0.470289797191
0.39895859443
0.370309236241
0.411153291726
0.556315418517
0.697321659588
0.806613245818
0.837981865063
12427.3900499
2708.73380005
777.244102497
252.74670625
90.9757823837
35.9915880182
15.4642482757
7.11307571665
3.43658728897
1.74091579785
0.968367475765
0.638074810596
0.508520727624
0.447385081233
0.422921530878
0.467841670429
0.605233589482
0.757342551399
0.881514857275
0.919484597353
13613.3227025
2879.24787966
809.391340144
256.438586698
89.8714321536
34.8282719877
14.8594668299
6.81817806899
3.26153708042
1.64852448036
0.940654869787
0.657025293259
0.55484500622
0.5055871609
0.481695218767
0.525549753559
0.656784005835
0.832020015301
0.976510022974
1.02032322512
13233.714394
2885.23118876
806.047031262
251.178604134
86.0145994612
32.7656127085
13.8326009577
6.24038891775
2.93562789141
1.49271233585
0.896382295207
0.680849656489
0.609293552645
0.568551881113
0.54368872999
0.575233218693
0.710612155268
0.923760566553
1.09363337993
1.14420090234
11881.3569246
2661.44373088
750.448844003
232.346639677
78.9101156489
29.8454659433
12.4096111887
5.50349849439
2.57898094527
1.33992570614
0.85828740426
0.71045728201
0.668503425048
0.632001156717
0.598996577717
0.615731311902
0.771043530724
1.03767610048
1.23459284015
1.28835275907
9806.04084008
2265.27784598
639.88530737
198.855465582
68.3922238257
26.0658984487
10.871006543
4.82444084364
2.27589747925
1.22550583289
0.840925145388
0.741135744422
0.722464248364
0.686532187029
0.645303424016
0.652700521384
0.842584275263
1.1764713662
1.39617728047
1.44795757871
7280.91214073
1713.61477814
488.107940797
157.832162205
56.9197933441
22.6851925278
9.68880105324
4.30113322589
2.04404655506
1.14836227421
0.835865883553
0.764920414008
0.760427928512
0.725374499725
0.682285501048
0.693627613003
0.925819418049
1.33762383487
1.57559408214
1.61700905487
4792.00616504
1165.80325998
356.21982639
126.20087214
49.4903812956
20.8290212361
8.94952990797
3.91150154032
1.8757102637
1.10014594985
0.831093789708
0.770018336979
0.77041623571
0.740423811502
0.703672825203
0.737693017091
1.00805522986
1.51164168909
1.7567817185
1.78646643583
3138.55522629
856.307132039
291.709050728
113.531736107
47.6916441581
20.3470113016
8.4908338172
3.63114890542
1.77455717218
1.07562954295
0.818355851634
0.747677206084
0.742711788248
0.726482478061
0.705349096129
0.767876488322
1.06274008056
1.6589390564
1.913426147
1.92526444983
2394.75519913
748.955528979
283.761875922
118.40948585
50.4983788593
20.8341275054
8.38923990077
3.56693345196
1.77210314499
1.0742725881
0.792964252863
0.695910782365
0.678828651856
0.683675051581
0.687101096338
0.7553166269
1.06301783905
1.69728159027
1.99397242288
2.00069875763
2063.36976823
780.691704901
325.505607753
139.139508413
58.0006976548
22.9245381199
8.96245953107
3.81094702111
1.89087063963
1.1075342363
0.765264244128
0.62392051277
0.585229420663
0.601739140231
0.630253784349
0.677623840763
0.982736582117
1.54828726076
1.95023455683
1.95876012927
2497.49754297
1030.60607314
430.677203894
176.589500722
70.1140149158
27.2397301165
10.8311167609
4.68578199092
2.27679706361
1.24697059353
0.776426540813
0.56156346993
0.479578940889
0.47838753917
0.517722116546
0.556047067829
0.741304876734
1.2357267923
1.71692836898
1.76389796002
3779.05599899
1466.1360237
549.55843499
213.656059254
86.1462427892
35.6950512677
15.2606330382
6.82357250511
3.22498737583
1.63168479697
0.901802563825
0.560408021634
0.406283702166
0.356298772076
0.372325516605
0.412329060906
0.478697783302
0.868840506662
1.29076701571
1.42032499901
5325.19748679
1819.49346015
660.944518633
260.049516536
111.422505763
50.0098219194
22.811266451
10.6028771379
4.99726865436
2.41390458373
1.22342280264
0.670437467985
0.409423302746
0.291479554611
0.257477093079
0.271099006293
0.304404606031
0.43958884215
0.829009250628
1.0295048576
5155.58067932
1776.70518364
695.284597771
304.051968448
144.563659295
71.9470007272
34.8221440301
16.234934705
7.60318503806
3.61827622331
1.7768164699
0.915828201123
0.505104173602
0.304586229345
0.214084436467
0.186976867724
0.192049785456
0.231970266473
0.494824613013
0.687888869536
4269.10562819
1527.34895081
628.747858435
294.512651097
152.419606436
83.7597443011
45.7401501074
22.760797217
10.8832287166
5.17395640205
2.51927743594
1.28022762986
0.682582900493
0.383574957706
0.233666799513
0.167055965343
0.144079999788
0.15128212885
0.250944449828
0.452985083504
3558.12576655
1259.42739604
527.139408025
257.979472079
142.225890952
84.1273007306
49.935786614
26.8859105102
13.522567301
6.64121391153
3.29571024488
1.69264399494
0.90452169675
0.501943751835
0.291111212869
0.186898285048
0.139688545573
0.125670113992
0.152514581176
0.321200044468
3130.83133378
1058.82565028
435.518289492
216.737486335
124.522091736
77.6024362772
48.7169018169
27.8925111744
14.6906095662
7.49914522681
3.83805999578
2.01840177211
1.10105205276
0.620162508877
0.35938167715
0.223519281275
0.156628259281
0.127745301609
0.13169085629
0.23225858286
3025.55896678
939.966827181
368.023077719
181.063404409
105.764509121
67.8437184044
43.9761187995
26.2140858705
14.4223106339
7.6613755457
4.06217782533
2.20262632892
1.23585134236
0.714480115044
0.422169769225
0.264276864923
0.183025497226
0.143595267398
0.136304544132
0.19265056078
2872.94308239
863.903496292
324.73979814
155.071989663
89.7039343518
57.7618683037
37.8060033364
23.052115227
13.1691526451
7.27579715512
4.00452654055
2.24850928556
1.3041135076
0.777902040477
0.472976081723
0.303962071744
0.214165315009
0.167824392601
0.154117207771
0.189986011005
2714.47308991
812.973138794
297.16437806
136.470030887
76.5829300854
48.4471181786
31.4235454426
19.4526760554
11.4672060713
6.57147910456
3.75510970033
2.19001188625
1.3183636629
0.813522150312
0.511472036241
0.34166422935
0.248873656056
0.198587714326
0.181179163741
0.208385062527
2642.013124
789.174485783
279.830073784
122.420095062
65.7766328263
40.3429332358
25.7086827148
16.0832767814
9.71809177285
5.75086245813
3.40916245298
2.06961952193
1.29629983843
0.827058790125
0.539995358064
0.378460519203
0.287242115483
0.235163295434
0.215266253203
0.238945496232
2759.64234698
805.503747338
274.223900721
112.514844443
57.2006702826
33.7143603095
21.0410947463
13.1675681167
8.09609088888
4.93073677839
3.035069885
1.92138522492
1.25114510883
0.823290628983
0.561969581867
0.416017990132
0.329450174318
0.276420122038
0.254127761581
0.274920652286
3398.3633907
893.994011782
284.679600507
107.618950709
50.7374791991
28.2898906091
17.1575079508
10.6825933105
6.66323855374
4.17950117914
2.67955234776
1.77049414946
1.18983024376
0.807714714743
0.581232606972
0.45567013228
0.375050966335
0.320252225067
0.293094324154
0.313128484307
4651.75129844
1116.09714944
327.594935661
111.022826714
47.0132575786
24.2401735936
14.1083396987
8.69411883211
5.4991337365
3.56343057986
2.38054820039
1.62927702974
1.11830704013
0.788090227754
0.600907587937
0.497250425088
0.422915053334
0.365302932233
0.333152421178
0.343984223996
5941.07243488
1421.14063822
403.930016658
125.407902834
47.1748263649
21.9727331863
12.0567985003
7.29656065118
4.67520690636
3.12521793136
2.15662196668
1.4980424733
1.04767474441
0.770675516902
0.620050553918
0.536490192132
0.469179464387
0.406166546401
0.36191896329
0.354808395082
6535.19213101
1629.5879483
468.01186864
143.355566715
50.395064791
21.4663503538
11.0366780136
6.51879789124
4.20691782192
2.86470424693
1.98762814646
1.38358315552
0.98846636847
0.753900668312
0.627536454826
0.554609356821
0.489518304478
0.421911601746
0.372232519294
0.355714244172
6036.43925153
1612.97581315
480.74465369
153.05371558
53.7935984421
22.0383099291
10.8665138736
6.28682187114
4.03774105966
2.72771851521
1.87358812335
1.30386257886
0.938788806208
0.720387470877
0.597548943633
0.527827669367
0.473310658057
0.415314447874
0.370304497758
0.350132062867
4983.54797659
1450.37349219
456.045624015
153.114517159
55.8478126912
23.1425851491
11.3267904656
6.47044226622
4.11010678341
2.73910353347
1.84858748226
1.25754826154
0.87910070569
0.653745598699
0.528902006474
0.462565785213
0.421822857477
0.38277290822
0.347983702732
0.325393585375
4087.17999449
1293.52791634
431.576392536
153.684272774
59.0518496871
25.3030884328
12.5482220491
7.20888548863
4.56003973967
2.9616224878
1.90583320407
1.22426645231
0.81303814242
0.577693552332
0.44849257272
0.378577865723
0.342089543036
0.318961491956
0.297574039604
0.27919638498
3909.11871793
1296.7525421
455.324496667
170.491407841
68.4009267417
30.1275081523
15.0654347493
8.60430228178
5.3240145025
3.28358910255
1.98312306136
1.20903462425
0.770697127988
0.523856174932
0.382955458777
0.30389414764
0.261367396265
0.240609729689
0.228508785332
0.218989343074
4191.05025149
1424.51670755
521.412448198
202.027816405
82.7653598187
36.3599623578
17.6983315168
9.80560489608
5.95302104022
3.5850812192
2.10947414834
1.25467757692
0.775983443391
0.506804860613
0.352662904876
0.261537610668
0.209456191389
0.181296298058
0.168143062731
0.163029616162
4330.44787466
1481.241359
526.892060862
202.015218861
83.6565898274
37.3406004658
18.479615343
10.4017027672
6.43622047076
3.89836585222
2.29018708879
1.35152186939
0.822609578731
0.52519228711
0.356197628586
0.255261549385
0.192941483163
0.155107846141
0.135168853051
0.127922191472
3809.4951804
1186.5176877
421.046519758
166.204479655
71.3972823006
33.3853667461
17.4619243456
10.3558947935
6.63679089622
4.07800990339
2.43302600018
1.44881278232
0.882003578979
0.559963225454
0.377181968578
0.268705440057
0.199321139715
0.153828801235
0.126990150472
0.115303724569
3389.53374472
1005.48406517
354.405082007
140.723459328
61.5251298077
29.6808412605
16.1748964067
9.9140921375
6.39923904399
3.97480592899
2.41972311995
1.46800668295
0.906798531803
0.583132761405
0.398142686548
0.287698734201
0.21527076212
0.165019971923
0.133373366688
0.118024116566
3094.02602484
900.859481351
316.382773857
126.082426548
55.7737294973
27.3208598031
15.066937356
9.17253778405
5.8031299566
3.64045835665
2.2596909234
1.40388230077
0.889823961548
0.588687689751
0.414017988109
0.306964274016
0.233880033123
0.180851829772
0.146774173204
0.129428589779
2766.55926818
814.127735071
289.469359607
117.723233493
53.3102033726
26.4979099881
14.5125880886
8.52200565022
5.23954133934
3.27315226988
2.05759974314
1.30892651924
0.856439102263
0.588458248766
0.428744986934
0.326370300166
0.252193269962
0.198004671247
0.163563450318
0.14562041159
2352.09407322
729.790995122
267.621322868
112.749078572
52.8363908575
26.7923445531
14.5077053102
8.22107856211
4.8855507761
3.00531009292
1.89666121776
1.23109790417
0.832618936504
0.594308788557
0.446364929455
0.344602014793
0.269081230845
0.216069604445
0.182655240408
0.164845597264
2047.98662316
656.907751237
247.815692365
108.218932745
52.5635510133
27.258494496
14.676953815
8.14584188541
4.70535889788
2.84078423817
1.79139720841
1.18407936443
0.826428806695
0.608437667635
0.463677567488
0.359896704744
0.285988309523
0.2360032439
0.204201411059
0.18657645091
1862.17555118
600.95243649
230.780487377
103.663508355
51.8087996233
27.3324683409
14.720591606
8.06492970283
4.56708380981
2.71875347538
1.71806502971
1.15919949232
0.832652178474
0.623100509449
0.476794407974
0.374443908386
0.304798776229
0.258703737926
0.228422288158
0.210627122422
1725.43604851
557.372779295
216.974214158
99.6082390142
50.6851375975
26.9118728022
14.4402021796
7.8196868793
4.36812002194
2.58514082388
1.65192609795
1.14332298273
0.839007129896
0.631889332422
0.487959411576
0.390353183898
0.326280015902
0.284148076687
0.254908457493
0.23631282419
1591.95638532
516.764124996
205.668755161
96.6021118513
49.5960498044
26.1579297897
13.8359061944
7.37777588555
4.07918516673
2.42352737074
1.58298874553
1.12702920628
0.838064107687
0.636888406306
0.499277292907
0.408095494434
0.349840226058
0.31125984832
0.282323623472
0.262531192331
1385.77308502
468.267040564
194.983258179
93.517163838
47.9332682543
24.9447494808
12.9388678434
6.77589742019
3.72542322777
2.24937472093
1.51720165149
1.10707398836
0.831818738029
0.640706434936
0.511215543116
0.426690186949
0.37372751546
0.33797704469
0.308994880407
0.286379051055
1162.35343854
413.160113574
179.199875671
87.8333806929
45.1875662
23.2397703078
11.8043554253
6.07757089453
3.35694433548
2.09087556875
1.46220784442
1.08415158772
0.823871922806
0.64417800954
0.522570442924
0.443836259937
0.395121963198
0.361778228002
0.331208589624
0.305806271279
1024.94552525
383.254270606
169.603560317
83.3706417874
42.3407325272
21.2964255249
10.5474371107
5.37368019268
3.03601609332
1.97291409452
1.41673120243
1.06053822199
0.815807078755
0.646045890674
0.530481508881
0.455894834215
0.410350523589
0.377759630932