/*--------------------------------*- C++ -*----------------------------------*\
| =========                 |                                                 |
| \\      /  F ield         | OpenFOAM: The Open Source CFD Toolbox           |
|  \\    /   O peration     | Version:  2312                                  |
|   \\  /    A nd           | Website:  www.openfoam.com                      |
|    \\/     M anipulation  |                                                 |
\*---------------------------------------------------------------------------*/
FoamFile
{
    version     2.0;
    format      ascii;
    arch        "LSB;label=32;scalar=64";
    class       volScalarField;
    location    "0.7/water";
    object      rhom;
}
// * * * * * * * * * * * * * * * * * * * * * * * * * * * * * * * * * * * * * //

dimensions      [1 -3 0 0 0 0 0];

internalField   nonuniform List<scalar> 
6000
(
914.894358206
948.455366293
985.252200724
996.20143244
999.264154298
999.884035404
999.985408284
999.998921125
999.999977936
999.999999806
999.999999999
1000
1000
1000
1000
1000
1000
1000
1000
1000
693.686392019
872.014324725
946.659759839
981.608504854
994.076259895
998.396569532
999.63807431
999.936628006
999.993585513
999.999850736
999.999999464
999.999999999
1000
1000
1000
1000
1000
1000
1000
1000
693.683635902
830.567343748
916.833071887
964.422186104
986.141191012
995.317930386
998.683834807
999.704658502
999.955393223
999.997463844
999.999986656
999.999999981
1000
1000
1000
1000
1000
1000
1000
1000
693.684368782
791.465223145
879.281026174
938.713526723
972.375876478
989.285841716
996.552485288
999.107151288
999.831158085
999.983512517
999.999726137
999.999999643
1000
1000
1000
1000
1000
1000
1000
1000
701.50249427
768.097302112
840.077050348
903.017422997
948.637649586
977.024970629
991.644455186
997.611004805
999.490914469
999.934601869
999.997417126
999.999994971
999.999999996
1000
1000
1000
1000
1000
1000
1000
714.793945492
759.324467214
810.16797141
864.845602263
915.336467451
955.068079723
980.753313354
993.709990086
998.521169475
999.78039505
999.986186346
999.999904861
999.999999937
1000
1000
1000
1000
1000
1000
1000
718.139831941
755.001282234
791.808595154
833.571365076
879.715627373
924.640387426
961.055521115
984.554011492
995.710559324
999.261839353
999.938952097
999.998804926
999.999999011
999.999999999
1000
1000
1000
1000
1000
1000
718.361316576
752.205260666
781.907938688
812.468166279
849.955056158
892.509011158
934.083088176
967.661128539
988.612329962
997.522967489
999.73177465
999.990310835
999.999973711
999.999999988
1000
1000
1000
1000
1000
1000
717.412522335
750.926217134
773.283437853
796.534131389
826.766827582
864.277457193
905.109944617
943.73311111
974.448379609
992.47899842
998.85696126
999.934156982
999.99921586
999.999999596
1000
1000
1000
1000
1000
1000
718.369505842
750.965849252
766.57463147
784.482056909
809.529677787
842.329525055
879.04451925
916.835486866
952.761446082
981.12643493
995.833272585
999.621597716
999.9903754
999.999980723
999.999999993
1000
1000
1000
1000
1000
717.144631284
752.545791465
765.333701245
779.822788531
800.142060521
827.59413644
858.651085157
891.891596772
927.247254403
962.453725619
988.222147981
998.341945831
999.926326523
999.999401481
999.999999788
1000
1000
1000
1000
1000
718.447046588
756.585602428
768.092839227
781.685899751
799.131297875
820.08793809
844.397977246
871.828364863
903.693494731
940.317210184
974.986526454
994.771253206
999.623247275
999.993885733
999.999992746
999.999999998
1000
1000
1000
1000
717.360614641
763.58557111
776.918632739
789.175365057
802.140048773
817.329301388
835.141799035
857.703271261
886.286251937
920.867119048
958.871332408
988.055525993
998.699010407
999.965215413
999.999874761
999.999999962
1000
1000
1000
1000
718.494016742
771.765965187
786.438839929
797.58754042
805.82009456
815.65617456
829.003714806
848.683263114
874.779439661
906.090807217
943.19912069
978.768890385
996.719285461
999.86413413
999.998988789
999.999999588
1000
1000
1000
1000
718.439904331
776.76846386
788.501249193
797.763351118
804.787149855
812.397482347
823.918016329
842.292888368
865.854119276
893.213312314
927.63070586
967.080361765
993.088962239
999.557241296
999.993793907
999.999995954
1000
1000
1000
1000
726.106263957
776.182364346
784.478379199
791.018558826
797.161519911
805.308200634
817.983222941
835.576923957
855.727987001
878.275318212
908.84589101
950.405943058
985.872214112
998.547406095
999.959956937
999.999842878
999.999999999
1000
1000
1000
728.250883152
764.281338247
768.608686213
772.556070635
780.890139971
794.037928494
809.819926119
826.206708581
842.238214022
859.816706627
884.878713299
924.557638581
969.963739224
994.868581441
999.722207622
999.996657656
999.999999745
1000
1000
1000
711.854573485
737.112972496
743.981416254
749.514019932
762.230561044
781.012315897
799.946055005
816.235344295
830.157425758
843.123011755
860.783805581
891.250712401
939.621192314
983.021570519
998.302935262
999.955923991
999.999868975
1000
1000
1000
689.268617839
715.595490142
721.270894854
730.0685414
746.931973738
769.826490688
792.222337052
811.695570189
828.252042296
839.836671582
845.764207352
860.64046139
899.400456675
956.623171248
992.423500789
999.612715867
999.995854608
999.999999758
1000
1000
690.096145771
709.637640048
709.39465663
717.751968869
736.880599616
763.243533766
789.254098833
811.627555303
829.812322291
842.123139629
844.382680165
844.489602432
865.809317518
920.758341324
977.668117415
997.951863838
999.955303447
999.999890061
999.99999999
1000
687.893909972
709.009630453
709.109764865
713.730104899
732.448049676
761.087718641
789.306931845
813.864638837
835.64599706
848.497136413
846.085628396
844.522806218
851.108210583
892.227055261
956.383354096
993.457162159
999.748942638
999.998248002
999.999999629
1000
690.080716116
710.457953943
709.180511306
713.823824372
732.528083214
761.827170662
792.277573235
821.435225201
846.40614656
852.457523367
851.088459533
845.337925829
847.328311654
877.698728701
938.215301153
986.576510238
999.188969765
999.990286223
999.999990015
999.999999997
687.885468226
714.644168307
711.073826936
716.804952212
736.252635377
767.213401153
801.58743283
834.980749809
852.457470791
852.573495086
852.457516462
850.105134672
848.425581481
871.120789343
926.62488537
979.91672652
998.317909914
999.970896893
999.999927081
999.999999966
690.080767355
720.834747776
716.090934116
724.214056312
746.259244618
779.862452342
817.171887843
849.118974187
852.577800872
852.457476803
852.795265504
852.457499904
850.810016138
866.960626617
918.70656263
974.403250382
997.302905667
999.939093121
999.999768674
999.999999826
688.181930683
727.738938782
723.492217773
735.178353049
761.587543515
798.015407228
835.198366248
852.517326848
852.457422932
852.94223167
852.457469336
852.897429061
848.180099126
859.499080665
910.181984836
968.482591518
995.955035841
999.884668502
999.999437233
999.999999452
690.095877598
734.247644527
732.613919476
748.165479373
778.530213343
815.973374141
848.967079486
852.457350074
852.919133819
852.457426664
853.208804507
852.457448611
831.162666042
844.308977668
895.78325415
958.401134675
993.377658423
999.756871602
999.99853678
999.999998343
688.793130459
740.764791794
744.710333488
763.227732129
793.833124707
828.519597776
852.457233986
852.730662767
852.457371496
853.208761027
852.457414598
839.416393694
821.073393783
823.921488685
870.467779391
939.462122667
987.704899372
999.385692341
999.995197445
999.999993802
690.190095093
749.615706581
760.462830463
779.763915594
806.591054613
835.669652978
852.53342067
852.457298818
853.18570847
852.457370268
849.68109808
821.073355678
820.606344717
821.073360206
845.727942331
910.958472772
976.323443619
998.326490568
999.981015415
999.999972416
689.972415747
761.428095143
772.873822169
790.226477736
812.88214991
837.77934649
852.457187945
852.949521572
852.457314461
852.982017835
824.00789808
820.606304767
821.073322274
820.802240596
824.71425308
879.501779911
958.300667872
995.64788822
999.918000855
999.99980581
705.499170737
771.221106221
774.544983
789.75421308
812.468011783
836.196404594
850.897742429
851.172034005
846.613836808
830.77131699
820.831600041
821.073278639
820.686804291
821.073282223
820.944509289
856.753783338
935.170900462
989.712580251
999.655854838
999.998369418
728.751897616
765.637519332
764.527856671
778.793142319
804.800860729
826.51375734
835.734667297
833.306765124
828.053975677
827.307235889
826.585638898
823.92809039
821.073238271
820.923642893
821.073240166
842.806018879
909.945302669
978.352149096
998.725490592
999.988149774
723.420014372
729.555392625
726.447687865
744.152725565
781.015197884
805.370551157
814.017505735
817.207727437
824.940562227
834.459667296
841.746015289
837.969990457
827.569604628
822.115149886
821.203477439
835.363027612
885.209609441
959.542670419
995.920952159
999.927059099
684.158411718
677.547908185
677.207796483
692.360432777
735.790746207
773.704552473
794.420614164
808.788912545
825.770300737
845.053073194
855.646203045
853.654832565
842.95001913
831.514462847
827.085481494
832.331538826
862.523792482
932.997239955
988.904878314
999.626679657
670.505862777
669.141181444
670.606206197
669.915918631
686.413947968
731.929070987
770.607900438
797.935317357
823.243209403
846.581625249
861.369941191
861.958688256
856.501717179
846.982052599
837.512805041
830.236865858
843.217744982
901.397601271
974.721768517
998.474872572
667.330917081
670.718711549
668.709580174
670.618546453
670.194231974
697.503763479
741.760780187
780.824830246
814.711959939
844.569236973
862.696432733
863.955552679
862.864558253
858.325538852
847.637625279
829.255036585
822.412586029
869.158985081
952.411255681
995.068415374
670.503566442
668.656448898
670.603348312
668.940739291
670.623258996
681.361117685
718.591368696
763.342792775
804.341740352
840.889247925
862.873567785
864.224934874
864.053330062
863.39386092
854.350561932
827.378843363
816.36572294
845.341316738
925.522644515
987.581090237
667.130350473
670.716996141
668.596968597
670.617334383
669.763472263
675.751128856
707.072242893
752.962073126
798.491074566
839.250530383
863.063632553
864.352199191
864.32507105
864.089467011
858.802410101
829.126368793
816.362307247
832.278842068
901.478684396
975.841990151
670.502893021
668.981572507
670.602959131
668.978763363
670.622881988
674.284446084
704.044340482
750.261916386
797.782027599
839.997278948
863.597406174
864.41357212
864.500717197
864.265614373
862.437237207
833.899401944
816.367663002
826.551945178
884.843206006
962.428905031
667.524113973
670.569396648
668.836017487
670.617386723
669.836465747
674.439428957
704.626398586
751.421631154
800.402135635
844.206827867
864.074391151
864.510194036
864.413574522
864.528229986
864.018672709
839.882466547
816.364875856
824.339439637
874.646904464
949.801106232
670.50254695
669.739303967
670.603318965
669.423662044
670.622947442
676.702538008
710.043077314
758.588902886
809.394354945
852.229871492
864.464203844
864.413542103
864.651840873
864.413567798
864.368316135
844.007156896
816.580679522
823.372014782
867.294710832
938.202066704
668.18960393
670.569892004
669.66035276
670.617761361
670.376789404
683.804154797
723.379864504
773.838249091
824.501686563
860.616034283
864.413501722
864.66540533
864.413546833
864.76166918
864.413554869
844.829383885
817.097394235
822.37226293
859.732855589
926.202775222
670.502594117
671.717435702
670.604155755
670.332134156
671.777790411
697.744009446
743.515215355
794.906348296
842.952022174
864.23388792
864.568271835
864.413516956
864.854116791
864.413539656
864.708216131
843.32521171
817.340506406
820.213065458
849.661223567
912.031187657
668.849236118
678.731400451
670.490651696
670.99977963
682.888613087
719.44627041
768.175192259
819.34729877
859.095067541
864.510241767
864.413479158
864.872042517
864.413519571
864.88840107
864.222414365
839.335923248
817.109258064
814.890753368
836.283453426
895.727618507
670.503255636
687.799993165
676.76727526
681.09873468
704.510189267
746.283377242
796.135510388
844.471216067
864.446123187
864.413434399
864.852123807
864.413491253
865.002234884
864.413508799
861.49802138
836.037037904
816.153768652
808.695705089
824.4887765
879.729251183
669.542084918
696.913993381
688.969792229
700.143620246
731.164118398
775.940112821
825.705890614
861.582830318
864.413380388
864.826404806
864.413454938
865.082670937
864.413488093
864.977616358
857.756900107
834.509754194
815.89921259
808.692715517
817.582623763
865.778138096
670.50372277
706.20695903
703.928275182
722.037562933
759.028166198
805.831254694
851.616360621
864.413309722
864.801938886
864.413410872
865.168248907
864.413459238
865.134426818
864.413472322
855.195567707
834.818781006
817.192325074
808.692797658
813.494370222
854.045929644
669.849066162
716.951207611
722.448592176
745.961149932
785.822919387
831.513536781
863.543293685
864.670038956
864.413357084
865.241682298
864.413422625
865.323544871
864.413449137
864.951990363
853.67510273
837.183271333
819.809437292
808.933992497
810.392470429
843.160765846
670.503701693
731.7835898
745.136832006
771.02266192
809.569562188
850.486347733
864.547527967
864.413287347
865.258690847
864.41337839
865.493344483
864.413417651
865.16420698
864.41342798
854.021150699
841.44523626
823.202253234
809.534024437
805.997749743
831.756484036
673.863497697
751.109494716
763.475352824
788.109169362
824.618699135
860.860061215
864.413180374
865.188076765
864.413324455
865.49994573
864.413378666
865.386210553
864.413399927
863.03103704
857.45169944
847.451561408
827.650238095
810.167923601
799.449446362
815.649353315
694.280579731
768.30970639
768.738417656
789.487760391
827.344686623
862.324687146
864.872465879
864.413254033
865.499889537
864.41332922
862.039745167
859.012108269
863.945575251
864.453700708
864.113594362
855.112348388
834.055729072
811.308535664
797.920441156
798.350632794
721.085180343
768.457576107
765.241110952
783.424557989
821.760407055
856.958588206
864.413141717
865.407565263
858.819764925
847.526049759
841.86696621
854.655437804
866.560359164
870.894091646
871.177583018
863.885593928
843.545107345
815.000441166
797.990139146
797.79174089
728.841745717
754.578865131
744.963579449
758.183708314
794.130431256
829.089560811
843.94774659
836.517991515
821.035596923
815.223448558
831.761755363
855.989972874
871.758836495
876.142989275
876.348849974
871.883838007
855.493648237
824.098930508
797.918535688
797.990093769
718.074952537
720.193643391
713.125112485
719.756563268
744.531077764
773.063923961
786.889101083
781.91833164
777.373653035
791.475233845
823.35682107
854.782903242
873.033339416
878.407883396
878.885777885
876.063034256
866.425153629
838.60691718
801.269306471
797.792213642
691.138297608
693.690159915
690.966806239
693.127883857
705.043462905
721.947105445
733.250887237
737.67448471
745.960734356
768.881241735
807.106816562
847.442501336
872.43723405
879.32423303
879.63159976
876.778822506
873.59756743
855.827142714
811.662572809
797.990007315
667.058856619
686.523360275
683.625626817
683.457668878
689.254948416
698.133610187
705.591677276
712.416554859
723.8868512
747.13680753
786.594719302
834.730592586
870.122589854
879.773790852
879.82559415
876.739458299
877.47341026
870.286309197
828.688055343
797.842711746
667.363003718
686.564931557
683.230752014
683.220789308
685.187291938
689.629922796
693.311302083
698.140338059
708.86397647
731.611221334
771.559679186
823.530032924
866.589814985
879.975384057
879.842422173
876.22423192
878.892290317
879.56650583
847.156326395
798.160597705
664.701741423
689.367462663
684.693403032
683.337912182
684.682299881
686.329112466
686.900034144
689.462815115
699.341358212
722.62992984
763.567943405
817.216343822
863.986608273
879.991818838
879.245920865
874.487247635
878.551054271
885.53048397
861.233505501
801.398705484
667.111109907
695.463955567
689.993840343
686.088992757
685.37733972
685.131584732
683.879738839
684.93222173
694.112541915
718.368653505
760.590661256
815.226886558
863.254135051
879.810825762
877.171245504
870.859577661
877.251197342
889.72716131
871.232801525
807.38065366
664.643224637
704.057189182
696.940994399
691.756668506
687.779255006
685.299409903
683.616674935
683.589306647
692.554353337
717.780632569
760.828718051
816.0140267
863.903625079
878.396920916
872.630522369
865.806090776
875.626269868
893.426909413
878.668506787
813.313004967
667.110388032
713.032479431
703.856791094
699.075931413
692.89998646
687.306116662
684.021200681
684.138826206
693.735730287
720.325180996
765.357739368
821.338963523
866.182716634
874.766998837
865.571147543
861.425094056
875.446000198
896.188180716
883.952772669
819.78400634
664.739347724
721.327957039
710.548722389
707.729823226
701.345506536
693.442824772
688.265824329
689.051469258
700.658733937
730.197324258
777.500907072
832.347271853
868.248323011
869.824409486
858.5290576
859.647389088
877.440378647
897.754365474
887.443047206
825.97633348
667.333680789
728.559197465
717.878426674
717.904973741
712.883195788
704.860385598
699.678808882
701.938105661
716.547438444
748.749930984
796.555078452
846.529517777
868.998168047
864.913797147
855.849117066
860.316625134
881.742590567
897.803642016
890.006937953
831.600799101
666.145852577
735.183926524
726.610062395
729.005201589
725.728997566
719.843338919
717.199535357
722.319281228
740.250812337
773.839427119
819.537542042
859.999631617
869.235246839
861.622745935
855.811779269
863.328171689
887.365556154
897.890529742
891.784364795
835.992645428
667.589967311
739.503033354
733.692763339
737.790050404
736.592494874
734.555234934
736.85471498
746.950724017
768.136172675
802.048515947
842.777809629
869.686490758
870.05349778
861.203249856
857.328708504
869.093942771
892.639709643
897.803611205
892.940338025
839.6134922
668.307053701
741.23196372
738.711725761
741.703428576
741.862751909
746.196304894
756.242808961
772.181000433
796.411199293
829.850973763
863.297994767
876.738808527
873.148889306
863.015156826
863.236886705
877.197012986
896.016434126
897.960793857
893.578575599
843.144510639
682.898166787
741.423310919
741.637237298
741.83107588
742.197207701
755.063876712
774.109584053
795.710931055
822.589854787
854.129862406
879.553688388
884.388939115
879.701772695
871.441011377
874.261490192
885.57780509
897.243971192
897.803571145
894.209145281
847.686522013
706.77551424
741.238038328
741.454260491
736.766958993
740.131432114
761.227172854
788.189840191
815.127738208
844.375807492
872.888808084
890.560464418
892.851617254
889.709186509
885.919403627
887.537747295
891.93266422
897.3039754
897.962672128
894.7223017
854.667883216
713.751654543
740.714148242
727.783818777
715.010878143
731.999476444
761.513564793
793.106603825
824.491871042
856.401144292
884.22355319
895.819286873
897.283526528
896.746067788
895.875385154
895.454762251
895.461254293
897.172149137
897.803522477
895.44546794
864.465928638
693.924911265
702.737198275
688.631140705
681.532528279
709.810301089
750.536692951
788.489894585
823.396875771
857.049070264
886.64173864
897.434589835
897.790651979
897.792576659
897.694724872
897.305485284
896.746370724
897.095086894
897.93458106
896.383351376
875.380068093
651.420952368
658.435432654
655.369420677
655.311296922
675.181450927
714.017717696
762.334064577
808.522718919
849.77712541
884.723228959
897.735704764
897.792517102
897.819788196
897.797743417
897.631498922
897.165705008
897.105389932
897.803475369
897.874461765
885.283367412
645.053306976
646.290261286
645.952921058
646.036145867
650.957229693
674.375145538
720.726768537
777.002368105
830.444973716
876.478301986
897.389998166
897.839919176
897.797697548
897.855974013
897.794452215
897.526662728
897.246278155
897.86030806
897.803457165
892.246445189
644.051872645
645.770019313
645.834019792
645.970027899
645.859786127
658.590673269
696.518161393
752.114298562
811.585173578
865.792084395
896.037333671
897.797650542
897.928007916
897.800777118
897.881026561
897.799983723
897.501451567
897.788736782
897.86382915
895.736909496
645.050208491
649.460534199
645.955213937
645.872499191
646.145754655
657.334677183
692.388288841
745.08471133
804.748509782
861.465524345
895.14088756
897.883219798
897.800741066
897.99962431
897.802702448
897.884506501
897.74415675
897.771041182
897.80343173
897.449309568
644.630895954
662.315497032
650.209694539
646.939944571
647.97092893
661.19802853
695.506866389
746.845714123
806.040202504
862.903062399
895.660301995
897.800703266
898.00829586
897.802676584
898.037235056
897.803418816
897.874328311
897.786308228
897.825837411
897.803422002
645.052985682
683.504117243
666.341914648
658.711961754
661.450352749
676.65814697
709.892034926
759.031274999
816.980242602
872.058869185
897.382277779
897.908515141
897.80264649
898.08962102
897.80340117
898.02704624
897.803415501
897.873719035
897.803416196
897.832871238
648.595104358
708.01615855
694.803069121
688.163187311
692.055422451
707.897897379
739.911564052
786.740388403
841.866247917
888.227424396
897.856953711
897.800694002
898.085659197
897.802660995
898.108009074
897.803402221
897.982001029
897.803408443
897.6100455
897.559015389
655.905775608
728.780443554
732.889882544
734.485340512
740.171961712
755.806231812
785.572735473
828.898320895
876.115988647
897.623951669
897.797587417
898.058602753
897.800710307
898.133016285
897.802664246
898.050193508
897.322087276
894.888764727
894.961215778
896.264106957
663.948778241
744.975788308
775.460990563
790.188353924
800.277059303
816.314825075
842.558278912
877.049982747
897.152447535
897.792372508
898.076120317
897.797602037
898.154501233
897.800711511
898.053838651
894.694651136
890.728221022
889.601652715
891.84820147
894.69416217
682.261041167
757.744637156
799.428721533
828.813053985
847.94209334
866.778237596
887.312587663
897.782002574
897.785272913
898.183256652
897.792382423
898.225215457
897.66204528
893.837499367
889.940534254
887.263932931
887.220034181
888.53835971
891.526088046
893.624176398
708.176997289
761.144980181
798.212825552
829.884932083
853.515347863
874.504808934
892.303722261
897.774353907
897.94594516
897.785274062
893.888784142
889.059263093
883.59603429
881.14693811
882.366576074
886.119622636
887.492134193
889.288723242
891.794623299
893.268965311
715.099212546
745.170518634
773.861973907
805.464559156
833.482102994
856.293404832
871.860550978
875.692716985
872.361333897
865.173142323
858.71099202
855.872873169
859.314441184
868.339898538
879.114197124
887.311397248
890.181534709
891.467467171
892.718530968
893.423135281
691.58853166
690.498722399
704.947614859
728.303898252
753.761599016
772.772548399
780.490443928
778.729783108
773.102472043
771.392885233
780.068141484
797.290973023
821.669156266
848.177741261
871.71282593
886.88620989
893.886949297
894.363527574
894.47288905
894.23891238
634.936066494
627.623289341
639.017341813
650.523084128
659.25174005
664.117042712
664.425214033
662.570826913
661.905142233
671.065683745
694.273156555
726.349702784
765.189758374
807.564840968
848.330200825
879.961013756
894.053881249
896.579735398
896.422031872
895.810186331
587.506543246
603.783328979
619.875111447
624.920114577
624.208383989
622.099831274
620.809998158
620.326882448
622.628607821
632.907723468
653.575026047
683.10277124
720.84604714
765.943414465
815.674071651
863.38829686
892.087493687
897.590782547
897.591891654
897.245140246
583.448071328
602.149759992
616.964439664
622.481915356
621.004154632
618.369434969
617.285607484
617.250064128
620.187047561
630.079745615
648.322995749
674.768136054
709.612289035
752.665525265
802.630063831
854.193924292
890.409024605
897.86424318
897.871770896
897.855900353
584.050675816
601.914385616
616.999276927
623.728615265
623.357555894
621.700441537
621.095393387
621.734647825
625.59816717
635.601610833
653.083524356
678.594853581
712.651506117
755.291972772
805.207270212
856.651003006
892.027609086
897.886813698
897.868847027
897.913080337
583.537481151
603.201406072
619.594679623
629.165504904
632.558380853
634.678008068
637.054297697
640.558225085
647.033262445
658.024741851
674.882503967
699.239050264
732.474126535
774.954077045
824.595266958
872.390715197
896.799128778
897.868829346
897.975036863
897.868843928
584.055716997
610.633726751
625.893052996
637.519430714
646.442340658
656.919874818
667.429340933
677.063660512
687.496657583
700.748063164
718.888040803
743.939495335
777.582685564
819.540157361
864.041468832
893.67339042
897.868812893
898.00126163
897.868832553
898.088790424
585.803399534
624.540247645
634.566747313
645.38550337
659.488403117
681.107057221
704.250580331
723.862454445
741.046997213
759.167934315
780.846962453
807.809823211
840.298464179
873.651816695
894.758373208
897.868795523
898.011756284
897.868820607
898.144011232
897.868825968
602.097650791
641.843925105
645.237171413
653.085376752
670.537512634
701.88502386
738.717521475
771.733445099
799.969642437
825.913464808
850.338191191
872.665720712
889.884059201
897.444261138
897.868776313
898.029250136
897.868806132
898.173293389
897.868818514
898.221788405
627.817553612
662.975421472
660.395451644
665.201214014
683.540941941
720.687989219
767.920638365
814.379439328
855.177009055
882.78213888
894.396814214
897.704336475
897.927001942
897.868756162
898.103931049
897.868789608
898.224910971
897.868808736
898.26244415
892.192847021
640.209561143
694.053042273
685.810516058
688.095240835
704.325785679
742.688793498
795.316204261
850.293826273
890.674941886
897.90373096
897.868688981
898.135156751
897.868736352
898.306818196
897.868772472
898.356560232
897.868795902
898.343302044
894.074995934
878.835277537
640.588836679
736.684204903
723.923287262
724.556199639
736.584298652
772.20555636
825.20900176
878.970727438
897.894180732
897.868661701
898.267402126
897.868715664
898.548704052
897.868754485
898.57224392
897.868780059
897.421525672
893.128420517
884.516206369
878.470286661
644.689840366
775.462415916
763.09726024
765.135640496
775.410769174
808.540285237
857.74947937
895.505827967
897.868627971
898.269767556
897.86869071
898.705530043
897.868732978
898.732911288
896.6784216
888.021951476
887.423022043
889.611995887
885.077935511
878.812655967
671.840108019
785.485589604
785.444929363
787.630093762
804.998900788
842.305776049
882.940322952
897.868583124
898.201163944
897.86865696
898.756115561
897.868702902
897.540852867
884.875589183
874.006344087
878.88521284
887.167723024
891.031346776
887.972705339
878.695913819
715.506131991
785.459135443
782.880115011
786.302503413
813.350724839
854.910685678
886.499167854
897.830312496
897.868604554
896.500101839
889.038735094
876.814484525
860.708160347
854.93895994
867.169374988
881.693832216
890.926387497
893.566715027
890.679281821
880.862075983
722.297526092
754.901631262
751.126965543
766.540757564
804.478019346
846.317689819
871.624888189
877.454455886
870.926964119
854.271243751
833.996250767
818.968221387
822.850312243
845.009276993
870.19296592
887.263769876
894.586117115
895.7634753
893.454262174
885.941192769
679.032818686
667.125094879
685.147157453
708.283007359
748.61931983
786.770297938
807.294913398
810.468741036
799.646428306
784.769322873
777.146674615
786.710835744
812.452785618
845.531709123
874.12332507
891.138651847
896.673759247
897.115887317
896.064416024
892.281066145
601.572158609
604.329801443
622.021964667
635.812313838
655.164219035
680.236567496
709.178335367
731.504306968
743.122066086
751.100090422
763.603251433
783.747691287
812.48978617
846.700136651
877.389843775
893.859355166
897.606434075
897.641019731
897.082165551
894.370319528
576.388021653
587.871790673
595.173976589
600.339530995
604.960526796
615.89605173
642.703679808
682.859849593
718.809795227
744.311720611
763.621768906
784.914109071
814.684257056
850.745702509
882.482304472
896.80736942
897.774360691
897.753784211
897.206973499
891.918558879
574.947305659
584.503091392
588.286980126
592.190869189
593.763738203
599.118655521
617.438601966
659.111739339
707.487892129
744.310898749
768.02470646
792.972931042
825.679973759
863.381530927
891.194678238
897.780992812
897.770672826
897.769334521
897.051056268
885.008970841
576.339181115
582.928106448
586.770840194
591.181936901
592.348677065
596.300458508
610.089853923
645.7145276
701.414042887
749.601276916
782.356576581
812.903257265
849.288555266
884.11752931
897.648455864
897.77063735
897.827314596
897.770681262
896.71696052
873.987610973
574.907791349
582.251717719
586.950111084
592.172190004
593.096800395
596.475189074
608.794279442
639.238365867
695.897097687
756.252590008
800.181093913
837.581176042
875.97036553
897.200230883
897.770598744
897.8729691
897.770651927
897.826856764
896.338815245
861.21369744
576.338367411
582.36213869
589.197246927
596.559445158
597.273188554
599.421656729
610.032959932
638.711526068
691.297529865
754.274275616
807.640593884
853.478799809
891.451568926
897.770558877
897.8879869
897.770616739
897.961579231
897.770658868
896.171782009
851.829821235
575.3774839
584.0692941
594.813971903
604.544084563
606.082280087
607.616542995
616.300843378
642.095618219
691.196807296
751.52189121
808.044234621
858.905138916
895.05171094
897.852630722
897.770579175
898.013159573
897.770628496
897.947893996
895.768453324
844.631234189
576.374028139
590.394023121
603.060789743
613.594089178
617.023519054
620.27834479
629.828137165
653.976721945
697.553526252
753.256357189
809.735597381
862.404547882
896.102136977
897.770542075
897.982148545
897.770594526
898.06701933
897.770631797
893.4373676
838.029126013
576.135031069
603.261459221
612.68060968
621.508891382
626.581598965
633.998494078
648.697928688
675.222694188
715.0225503
764.266490814
817.994438345
869.720589729
897.373250787
897.872560398
897.770560202
898.067291417
897.770601848
898.006251792
884.530596685
834.80942337
581.365011839
621.449374919
623.336097596
628.317064906
633.800620197
646.202219198
669.218282624
702.104535675
742.307889015
788.123688086
838.386695626
884.437105222
897.813766012
897.770525944
898.03609895
897.770570415
898.095459088
895.503315416
866.210717495
835.515575033
602.418407002