/*--------------------------------*- C++ -*----------------------------------*\
| =========                 |                                                 |
| \\      /  F ield         | OpenFOAM: The Open Source CFD Toolbox           |
|  \\    /   O peration     | Version:  2312                                  |
|   \\  /    A nd           | Website:  www.openfoam.com                      |
|    \\/     M anipulation  |                                                 |
\*---------------------------------------------------------------------------*/
FoamFile
{
    version     2.0;
    format      ascii;
    arch        "LSB;label=32;scalar=64";
    class       volScalarField;
    location    "0.14/water";
    object      T.gas;
}
// * * * * * * * * * * * * * * * * * * * * * * * * * * * * * * * * * * * * * //

dimensions      [0 0 0 1 0 0 0];

internalField   nonuniform List<scalar> 
1504
(
401.400137
336.930719401
313.276771081
304.832569307
301.849331528
300.796744449
300.408153875
300.241128768
300.150153541
300.09009275
300.048271525
300.020184583
300.0055331
300.001007385
300.000170204
300.000023919
300.000000105
300
300
300
401.20358329
336.634769927
313.003366305
304.663014723
301.76761488
300.764883386
300.396352592
300.236045926
300.147604627
300.089069664
300.048369446
300.021005421
300.006118768
300.001145654
300.000195672
300.000027813
300.000000504
300
300
300
401.182262154
336.508260848
312.855183871
304.564744643
301.711668703
300.737638844
300.383541457
300.229523633
300.144141207
300.087718358
300.048490296
300.021927152
300.006869046
300.001343882
300.000230332
300.000031329
300.000000849
300
300
300
401.103447313
336.385205854
312.703948698
304.475040943
301.661888377
300.711241785
300.36973279
300.222160886
300.140404875
300.086594312
300.049012666
300.023279654
300.007837113
300.001659015
300.000268429
300.000035048
300.000001089
300
300
300
400.599525478
335.886990668
312.308381663
304.258959754
301.55980708
300.665970707
300.349640727
300.213146522
300.136931561
300.086183339
300.050317046
300.025164489
300.009137275
300.002023589
300.000310838
300.000036819
300.000001294
300
300
300
396.336928282
334.77122626
311.906295173
303.988954246
301.406055369
300.596109422
300.321766575
300.203338678
300.134453972
300.086822783
300.052316254
300.027336218
300.010579875
300.002427938
300.000342384
300.00003694
300.000001241
300
300
300
389.167036604
333.027733711
311.36585579
303.639111509
301.199246975
300.509731084
300.293301132
300.19623555
300.134486076
300.089330957
300.055469851
300.0300891
300.012272876
300.002897303
300.000359605
300.000033959
300.000001355
300
300
300
385.64316451
332.465908653
311.164312553
303.44041722
301.070440363
300.458956542
300.281637174
300.197856435
300.13967362
300.094996856
300.060494227
300.033895352
300.014476871
300.003520152
300.000377516
300.000033387
300.00000175
300
300
300
388.763546057
333.978301724
311.909937898
303.832092312
301.239611856
300.510271048
300.30137784
300.212628837
300.152255589
300.105222452
300.068169486
300.039229774
300.017499508
300.004427833
300.000452074
300.000038797
300.000002917
300
300
300
398.600913387
336.9915767
313.228505076
304.646661036
301.671533392
300.67795037
300.361142674
300.241110435
300.17149777
300.119409176
300.078400661
300.04613048
300.021434176
300.005763247
300.000644831
300.000055237
300.000005009
300
300
300
402.430689687
339.362384871
314.638030898
305.402301369
302.083816786
300.876543979
300.444175973
300.279887308
300.1950775
300.135871287
300.089993095
300.053932972
300.026009027
300.007494389
300.00097376
300.000089018
300.00000924
300
300
300
403.746251563
340.559656577
315.47287731
305.894062384
302.340301674
301.020973412
300.517931977
300.317895788
300.218192546
300.151844752
300.101245559
300.061599456
300.030664026
300.009387443
300.001411922
300.000147004
300.000016703
300.0000004
300
300
404.407002101
341.00169028
315.897634919
306.149771711
302.485473697
301.106752437
300.568547478
300.347510641
300.237302433
300.165362128
300.110962591
300.068384538
300.034919292
300.011211461
300.001915902
300.000235435
300.000028857
300.000001439
300
300
404.656020856
341.169645554
315.9710417
306.222967929
302.531480893
301.142693917
300.59587077
300.366943118
300.251343541
300.175898366
300.118857803
300.074103969
300.038635832
300.012880256
300.002457627
300.000356523
300.000046034
300.000003386
300
300
404.978748688
340.709715156
315.642837185
306.048594875
302.468818418
301.128277422
300.600628077
300.376342558
300.260448005
300.18366442
300.125141644
300.078931687
300.041960512
300.014472641
300.003048914
300.000519674
300.000073032
300.000006799
300
300
404.88546735
340.478009073
315.293734974
305.823996567
302.348125086
301.079154733
300.587768979
300.377576756
300.265589161
300.189360302
300.130363983
300.083261758
300.045068507
300.016185674
300.003763634
300.000751837
300.000123421
300.000014037
300
300
404.952338038
340.058801934
314.924674189
305.522651046
302.181649514
301.001099152
300.560978994
300.372608313
300.267952621
300.193839075
300.135185797
300.087514474
300.048089026
300.018211627
300.004738753
300.001121955
300.000228558
300.000035407
300.000001879
300
404.631057753
339.763695436
314.4971594
305.222718506
302.001405513
300.913328144
300.528558217
300.364833326
300.269166252
300.198103657
300.140257013
300.092021454
300.05134234
300.020817119
300.006207115
300.00176595
300.000458066
300.000101764
300.000012343
300.000000077
404.462580605
339.369623162
314.215917508
304.993499476
301.87187963
300.847684293
300.503541353
300.359279356
300.271497257
300.2034123
300.146260323
300.097154405
300.055494815
300.024488476
300.008603151
300.002958912
300.00095681
300.000282428
300.000058771
300.00000592
403.983725462
339.02268238
313.927933642
304.88134096
301.818841414
300.826861741
300.496717487
300.360646213
300.277261486
300.211081701
300.153944176
300.103748962
300.061522842
300.030029201
300.012602903
300.005165811
300.002004077
300.000730279
300.000209459
300.000035842
403.743179635
339.155289914
314.183401028
305.017658857
301.891269805
300.864920726
300.514763866
300.372617388
300.288565275
300.222368939
300.164344132
300.113234816
300.070478002
300.038273601
300.018890977
300.00908709
300.004082783
300.001731051
300.00061185
300.000153693
403.458326898
339.801686749
314.737385042
305.394613761
302.080049602
300.962781921
300.559501196
300.396223777
300.306378653
300.238186849
300.178695259
300.126717347
300.083221572
300.049847666
300.028006497
300.015272101
300.007804435
300.003693713
300.00151993
300.000499997
403.640459735
340.492635038
315.545373235
305.907805758
302.367300136
301.115107018
300.63634397
300.434145354
300.33080966
300.258473791
300.197295409
300.14435574
300.099815855
300.064783153
300.040052884
300.023922649
300.013441944
300.006954541
300.003212367
300.001241144
403.84884714
341.370303534
316.322101576
306.488631935
302.698844299
301.291968127
300.737806408
300.489172607
300.363488528
300.283122818
300.219295943
300.165159565
300.119293076
300.082211576
300.054369417
300.034598394
300.020758641
300.01147679
300.005694893
300.002374676
404.508980482
341.847465965
316.917918518
306.950431279
303.015789893
301.473197439
300.846634663
300.55416647
300.402746529
300.310977541
300.243036228
300.186997117
300.139598155
300.100300533
300.069354059
300.046031497
300.028787999
300.01656771
300.00852981
300.003656045
405.100727301
342.638934443
317.459673799
307.356557701
303.26575438
301.621088036
300.934038212
300.610647732
300.439235418
300.337321789
300.265380669
300.207149034
300.157940807
300.116475469
300.082712653
300.056230205
300.035922384
300.02100234
300.010890249
300.00465959
406.023265395
343.096978512
317.788428418
307.525002875
303.378859339
301.684742995
300.97168768
300.638163254
300.460553393
300.354383923
300.280823227
300.221829753
300.171105239
300.127902841
300.091964093
300.063086488
300.040507828
300.023638397
300.011938623
300.004920395
406.661605035
343.224667332
317.705804851
307.445330106
303.317484809
301.654051594
300.957585015
300.635299054
300.463030514
300.358634723
300.285791624
300.227380784
300.17634259
300.132263272
300.095240612
300.065166335
300.041485574
300.023669368
300.011461688
300.004196147
407.247752572
342.575179693
317.106898635
307.024655672
303.085681778
301.5340153
300.898257993
300.604907483
300.447433224
300.349985062
300.280093989
300.223007152
300.172498056
300.128707986
300.091954692
300.062132454
300.038703239
300.021089055
300.009364478
300.002815712
407.102660433
340.58079063
315.638637434
306.254795041
302.714152439
301.358345216
300.807230279
300.554180603
300.417627261
300.330166834
300.26465033
300.209272596
300.160019054
300.117832534
300.082831555
300.054739217
300.032623052
300.016445151
300.006025325
300.00169173
406.692680195
338.902912195
314.291448787
305.529641663
302.367945435
301.188510812
300.716076119
300.50066663
300.38261815
300.303696161
300.241544528
300.187596924
300.140906437
300.101611496
300.069809974
300.044422757
300.024551355
300.010339308
300.003480015
300.0008593
406.160517057
338.642241535
313.91017458
305.253054172
302.209545901
301.098021213
300.65903521
300.459951211
300.349699868
300.274169272
300.213604466
300.16192581
300.118318841
300.083279205
300.055601505
300.032935945
300.015370835
300.005883804
300.00177358
300.00037851
406.229189364
339.758483599
314.669289571
305.609268575
302.348983769
301.141267955
300.66004964
300.443263006
300.325387763
300.246624141
300.185390345
300.135705018
300.096671372
300.066739405
300.042013693
300.021472673
300.009036666
300.003086247
300.000807542
300.000150681
406.722156038
341.241039477
315.788741567
306.277501865
302.693134178
301.295164377
300.716602021
300.450716665
300.310153061
300.222515304
300.160264138
300.114344356
300.080329793
300.053375015
300.030264141
300.013812015
300.005134032
300.001509974
300.000349207
300.000052313
407.224161797
341.783106437
316.211005523
306.60305789
302.890565363
301.393279153
300.752528733
300.450892428
300.294175867
300.202539995
300.142278888
300.100139361
300.068833257
300.043067039
300.021814161
300.008974235
300.002870918
300.000736508
300.000141652
300.000013332
404.963098117
340.747612167
315.649026937
306.324698814
302.737271853
301.316202753
300.707351728
300.418760882
300.269537872
300.184281931
300.128870596
300.089816238
300.059354485
300.034156344
300.015937567
300.005790539
300.001636475
300.00035153
300.000050584
300.000000192
397.560742815
337.405123984
314.094027495
305.561383955
302.355958574
301.122693962
300.606411537
300.364314285
300.239477711
300.165997889
300.116695704
300.079650211
300.049152371
300.025664165
300.010943007
300.003615414
300.000888515
300.000154654
300.000010165
300
387.586659344
332.286000451
312.001128081
304.619480558
301.895433798
300.893464157
300.490918863
300
300
300
300
300
300
300
300
300
300
300
300
300
300
300
300
300
300
300
300
300
300
300
300
300
300
300
300
300
300
300
300
300
300
300
300
300
300
300
300
300
300
300
300
300
300
300
300
300
300
300
300
300
300
300
300
300
300
300
300
300
300
300
300
300
300
300
300
300
300
300
300
300
300
300
300
300
300.000000066
300
300.000000002
300
300
300
300
300
300
300
300
300
300
300
300
300
300
300
300
300
300.000000231
300.000000028
300
300
300
300
300
300
300
300
300
300
300
300
300
300
300
300
300
300
300.000000213
300
300
300
300
300
300
300
300
300
300
300
300
300
300
300
300
300
300
300
300
300
300
300
300
300
300
300
300
300
300
300
300
300
300
300
300
300
300
300
300
300
300
300
300
300
300
300
300
300
300
300
300
300
300
300
300
300
300
300
300
300
300
300
300
300
300
300
300
300
300
300
300
300
300
300
300
300
300
300
300
300
300
300
300
300
300
300
300
300
300
300
300
300
300
300
300
300
300
300
300
300
300
300
300
300
300
300
300
300
300
300
300
300
300
300
300
300
300
300
300
300
300
300
300
300
300
300
300
300
300
300
300
300
300
300
300
300
300
300
300
300
300
300
300
300
300
300
300
300
300
300
300
300
300
300
300
300
300
300
300
300
300
300
300
300
300
300
300
300
300
300
300
300
300
300
300
300
300
300
300
300
300
300
300
300
300
300
300
300
300
300
300
300
300
300
300
300
300
300
300
300
300
300
300
300
300
300
300
300
300
300
300
300
300
300
300
300
300
300
300
300
300
300
300
300
300
300
300
300
300
300
300
300
300
300
300
300
300
300
300
300
300
300
300
300
300
300
300
300
300
300
300
300
300
300
300
300
300
300
300.000000074
300
300
300
300
300
300
300
300
300
300
300
300
300
300
300
300
300
300
300
300.000003466
300
300
300
300
300
300
300
300
300
300
300
300
300
300
300
300
300
300
300
300.000020987
300.00000135
300
300
300.000000042
300
300
300
300
300
300
300
300
300
300
300
300
300
300
300
300.000102654
300.000013297
300.000000449
300.000000258
300.000000954
300.000000371
300
300
300
300
300
300
300
300
300
300
300
300
300
300
300.00034234
300.000056713
300.000006141
300.000002224
300.000002522
300.000001249
300
300
300
300
300
300
300
300
300
300
300
300
300
300
300.000770631
300.00015779
300.000020459
300.000005758
300.000003875
300.000001506
300
300
300
300
300
300
300
300
300
300
300
300
300
300
300.001257127
300.000255763
300.000036349
300.000009094
300.000004396
300.000001044
300
300
300
300
300
300
300
300
300
300
300
300
300
300
300.001533394
300.000287132
300.000038938
300.000009531
300.000005292
300.000001326
300
300
300
300
300
300
300
300
300
300
300
300
300
300
300.001354602
300.000249567
300.000030881
300.000008703
300.000005538
300.000001249
300
300
300
300
300
300
300
300
300
300
300
300
300
300
300.000983417
300.000170562
300.00001786
300.000008295
300.000005535
300.000000836
300
300
300
300
300
300
300
300
300
300
300
300
300
300
300.000626005
300.000095083
300.000007914
300.000008773
300.000005208
300.000000492
300
300
300
300
300
300
300
300
300
300
300
300
300
300
300.000329372
300.000039577
300.000004575
300.000009501
300.000004459
300.000000157
300
300
300
300
300
300
300
300
300
300
300
300
300
300
300.000143334
300.000010202
300.00000666
300.000009757
300.000003446
300
300
300
300
300
300
300
300
300
300
300
300
300
300
300
300.000051224
300.00000021
300.000010423
300.00000917
300.000002409
300
300
300
300
300
300
300
300
300
300
300
300
300
300
300
300.000012599
300
300.000012811
300.000007993
300.000001519
300
300
300
300
300
300
300
300
300
300
300
300
300
300
300
300.000000645
300.000004827
300.000013796
300.000006634
300.000000788
300
300
300
300
300
300
300
300
300
300
300
300
300
300
300
300
300.000012873
300.000013629
300.000005105
300.000000194
300
300
300
300
300
300
300
300
300
300
300
300
300
300
300
300
300.00001856
300.000011983
300.000003364
300
300
300
300
300
300
300
300
300
300
300
300
300
300
300
300
300.000002142
300.000018971
300.000009081
300.000001665
300
300
300
300
300
300
300
300
300
300
300
300
300
300
300
300
)
;

boundaryField
{
    emptyPatch
    {
        type            empty;
    }
    minY
    {
        type            fixedValue;
        value           nonuniform List<scalar> 0();
    }
    maxY
    {
        type            inletOutlet;
        inletValue      nonuniform List<scalar> 0();
        value           nonuniform List<scalar> 0();
    }
    water_to_cooler
    {
        type            copiedFixedValue;
        sourceFieldName T.liquid;
        value           nonuniform List<scalar> 
38
(
300
300
300
300
300
300
300
300
300
300
300
300
300
300
300
300
300
300
300
300
300
300
300
300
300
300
300
300
300
300
300
300
300
300
300
300
300
300
)
;
    }
    water_to_heater
    {
        type            copiedFixedValue;
        sourceFieldName T.liquid;
        value           nonuniform List<scalar> 
60
(
796.832908747
796.826574297
796.826790836
796.822573812
796.822727
796.820752777
796.820632175
796.820278329
796.820912507
796.821612027
796.825253528
796.826311559
796.823226538
796.821481827
796.817606462
796.815395865
796.816004256
796.815181275
796.815492413
796.817078333
796.81717646
796.819602955
796.819632348
796.822214032
796.822237039
796.825497824
796.825472214
796.830292368
796.830211792
796.838346905
796.838294386
796.855835606
796.855739308
796.883732761
796.883729982
796.917922948
796.918037164
796.957808739
796.95788536
797.000236717
797.000433806
797.03810005
797.038233017
797.068038491
797.068111988
797.0815444
797.081564988
797.08501023
797.084881266
797.081802449
797.081740479
797.081773022
797.081924818
797.09135622
797.091446094
797.106159611
797.105807418
797.12545097
797.126406666
797.156180385
)
;
    }
    procBoundary3to1
    {
        type            processor;
        value           nonuniform List<scalar> 
41
(
300.306046453
300.208356037
300.147348252
300.102544151
300.066333579
300.036660737
300.017560114
300.006823897
300.002015321
300.000435568
300.000051966
300
300
377.084116062
326.950580487
309.679610201
303.586537692
301.420275654
300.673145433
300.306046453
300.386220109
300.00001373
300.000016221
300.000005961
300.00000038
300
300
300
300
300
300
300
300
300
300
300
300
300
300
300
300
)
;
    }
    procBoundary3to2
    {
        type            processor;
        value           nonuniform List<scalar> 
41
(
401.401131081
337.510275917
313.718981736
305.066650522
301.941826775
300.825512676
300.416074949
300.243645059
300.151218264
300.090373654
300.047850065
300.019365987
300.004985269
300.000900716
300.000148824
300.000020927
300.000000012
300
300
300
300
300
300
300
300
300
300
300
300
300
300
300
300
300
300
300
300
300
300.00000001
300
300
)
;
    }
}


// ************************************************************************* //
