/*--------------------------------*- C++ -*----------------------------------*\
| =========                 |                                                 |
| \\      /  F ield         | OpenFOAM: The Open Source CFD Toolbox           |
|  \\    /   O peration     | Version:  2312                                  |
|   \\  /    A nd           | Website:  www.openfoam.com                      |
|    \\/     M anipulation  |                                                 |
\*---------------------------------------------------------------------------*/
FoamFile
{
    version     2.0;
    format      ascii;
    arch        "LSB;label=32;scalar=64";
    class       volScalarField;
    location    "0.98/water";
    object      d.gas;
}
// * * * * * * * * * * * * * * * * * * * * * * * * * * * * * * * * * * * * * //

dimensions      [0 1 0 0 0 0 0];

internalField   nonuniform List<scalar> 
1496
(
0.0049952857299
0.00499527103412
0.00499519950827
0.00499514426499
0.00499508829349
0.00499506343514
0.00499500692452
0.00499495723697
0.00499492977621
0.00499492223042
0.00499492228861
0.00499492982218
0.00499494636168
0.00499497271333
0.00499500143951
0.00499503057241
0.00499506848687
0.00499507433415
0.00499503195194
0.00499499072451
0.00499578155982
0.00499577228697
0.00499569734925
0.00499567607518
0.00499563235099
0.00499561510986
0.00499555694591
0.00499546443998
0.00499538631587
0.00499533746836
0.00499530591701
0.00499529074486
0.00499528855667
0.00499529465153
0.00499530971052
0.00499532826615
0.00499531452383
0.00499526690796
0.00499522245971
0.0049951854464
0.00499583866344
0.00499583014924
0.004995829008
0.00499582763242
0.00499583037842
0.00499583509147
0.00499584579862
0.00499582524312
0.00499577543315
0.00499572183215
0.00499567376465
0.00499563596484
0.00499560880456
0.00499559483255
0.00499558025399
0.00499553955139
0.00499548690837
0.00499543774851
0.00499539859102
0.0049953597217
0.00499586607036
0.00499586632218
0.00499586674461
0.00499586748275
0.00499586923416
0.00499587111701
0.00499588541668
0.00499590399417
0.00499590889992
0.00499589231225
0.00499586190882
0.00499583127639
0.00499580166327
0.00499576554367
0.00499571550301
0.00499566724384
0.004995623611
0.00499558518926
0.00499554538971
0.00499550688346
0.00499588844588
0.00499588862162
0.00499588872111
0.00499588905498
0.00499589015638
0.00499589136646
0.00499589263851
0.0049958959064
0.00499590567329
0.00499591288074
0.00499591053505
0.00499589419799
0.00499586424851
0.00499582661873
0.00499579011136
0.00499575798036
0.00499572514273
0.00499569006523
0.00499565317704
0.00499562639602
0.00499590431552
0.00499590439509
0.00499590441379
0.00499590449547
0.00499590490458
0.00499590548472
0.00499590612684
0.00499590685677
0.00499590754351
0.00499590854841
0.00499590434208
0.0049958925287
0.00499587540683
0.0049958553326
0.00499583546478
0.00499581201779
0.00499578369188
0.0049957515659
0.00499572877339
0.00499573327947
0.00499591804749
0.00499591809312
0.00499591802546
0.00499591792569
0.00499591794377
0.00499591804336
0.0049959182026
0.00499591840696
0.00499591868394
0.00499591905505
0.00499591587885
0.00499590611887
0.00499589363492
0.00499587937783
0.00499586208865
0.00499583935545
0.00499581255975
0.00499579501157
0.00499580422766
0.00499583407756
0.00499593160192
0.00499593160659
0.00499593146799
0.00499593123318
0.00499593100092
0.00499593078879
0.00499593060033
0.00499593044375
0.0049959303103
0.0049959300891
0.00499592681897
0.00499591951303
0.00499590892383
0.00499589442293
0.00499587483893
0.00499585174079
0.00499583755577
0.00499584845711
0.00499587613591
0.00499590752396
0.00499594628344
0.00499594626335
0.00499594605715
0.00499594567279
0.00499594516084
0.00499594459792
0.00499594398397
0.0049959433089
0.00499594290908
0.00499594117134
0.00499593639576
0.00499592789965
0.0049959154135
0.00499589831416
0.00499587804949
0.00499586504436
0.00499587520907
0.00499589907566
0.00499592364114
0.00499595833521
0.00499596463034
0.00499596456851
0.00499596430484
0.00499596378956
0.00499596290676
0.00499596158456
0.00499596061048
0.00499595975233
0.00499595736016
0.00499595290994
0.00499594482814
0.00499593322553
0.00499591772077
0.00499589950186
0.00499588665289
0.00499589511052
0.00499591651898
0.00499593688777
0.00499596822858
0.00499602589047
0.00499598985146
0.00499598988459
0.00499598994792
0.00499598999933
0.00499598997167
0.00499598896928
0.00499598868002
0.00499598807094
0.0049959803801
0.00499597063116
0.00499595816883
0.00499594266288
0.00499592518772
0.00499591215477
0.00499591813867
0.0049959375881
0.00499595458467
0.00499598233959
0.00499604358814
0.00499613009465
0.00499601827191
0.00499601833617
0.00499601852527
0.0049960187984
0.00499601907207
0.00499601799038
0.00499601732036
0.00499601279877
0.00499600375412
0.00499599168376
0.00499597655062
0.00499596002545
0.00499594837286
0.00499595234905
0.00499596837155
0.00499597960034
0.00499599752886
0.0049960513179
0.00499613467666
0.00499616283995
0.00499604643922
0.00499604651396
0.00499604674648
0.00499604709251
0.00499604748745
0.00499604853535
0.00499605431952
0.00499605156913
0.00499604056256
0.00499602559647
0.00499600995834
0.00499600175868
0.00499600519126
0.00499601476165
0.00499601765392
0.00499602505389
0.00499605527308
0.00499614294579
0.0049961630725
0.00499615564124
0.00499607283869
0.00499607301684
0.00499607332987
0.00499607372429
0.00499607416828
0.00499607540927
0.00499608493052
0.0049960881066
0.00499608029271
0.00499606965075
0.00499606666746
0.00499607077909
0.00499607282137
0.00499606580314
0.00499606490163
0.00499607481403
0.00499614336874
0.00499618791376
0.00499615587285
0.00499616140845
0.00499609712109
0.00499609750483
0.00499609787539
0.00499609826065
0.00499609869232
0.00499609959586
0.00499610822311
0.00499611466904
0.00499611259417
0.0049961140189
0.00499612005528
0.00499611996346
0.0049961101546
0.00499610512496
0.00499610292138
0.00499612776807
0.00499622088494
0.00499619098773
0.00499616215528
0.00499618039761
0.00499612050833
0.00499612051979
0.00499612060171
0.00499612079988
0.00499612111001
0.00499612122956
0.00499612719442
0.0049961321162
0.00499613296222
0.00499614031012
0.00499614955341
0.00499614549717
0.00499614234418
0.00499613687811
0.00499614321632
0.00499624046505
0.00499626304892
0.00499620719641
0.00499619385363
0.0049962165803
0.00499615588234
0.00499615125867
0.00499614031864
0.00499614030331
0.00499614045976
0.00499614070156
0.00499614555763
0.00499614963323
0.00499615300224
0.00499616786422
0.00499618304254
0.00499619200599
0.00499619412226
0.00499620443641
0.00499624684692
0.00499634484157
0.00499629959547
0.0049962616462
0.00499625374668
0.004996271053
0.00499620797736
0.00499620263687
0.00499617586373
0.00499617335318
0.00499617330658
0.00499617433923
0.00499617775746
0.00499618066422
0.00499618791725
0.00499621334525
0.00499624423444
0.00499625713827
0.00499627583584
0.00499630388301
0.00499643241897
0.00499643686202
0.00499638185252
0.00499636258013
0.0049963530134
0.0049963615271
0.00499626371781
0.00499625672924
0.00499621978764
0.00499621535527
0.00499621733875
0.00499622147828
0.00499622573348
0.00499623095146
0.00499624914703
0.00499629418517
0.00499633640863
0.00499637495431
0.00499641600359
0.00499651476614
0.00499658042015
0.0049965371526
0.00499651924509
0.00499650880458
0.00499651112975
0.00499650676524
0.00499632248436
0.00499632568925
0.00499629692879
0.00499629092837
0.00499629590152
0.00499630293924
0.00499630852721
0.0049963188987
0.00499635708191
0.00499641828518
0.00499647632445
0.00499652517601
0.0049966068228
0.00499675048104
0.00499674209892
0.00499670436149
0.00499670323097
0.00499670666741
0.00499671017058
0.00499670934855
0.0049963836989
0.00499642793901
0.00499639965474
0.00499639791901
0.00499641167943
0.00499642332478
0.0049964337821
0.00499646242534
0.00499652940754
0.00499660694733
0.00499666838427
0.00499674885026
0.00499692173616
0.00499695207506
0.00499689381679
0.00499689405083
0.00499690546177
0.0049969098968
0.00499691622324
0.00499693102492
0.00499644191987
0.004996548737
0.00499653898502
0.00499654759745
0.00499656959695
0.00499658953763
0.00499662111626
0.00499668405986
0.00499676316002
0.00499684062276
0.00499695053765
0.00499710117123
0.00499714909134
0.00499709492281
0.00499709006065
0.00499710138836
0.00499710704296
0.00499711571719
0.00499711718798
0.00499712532618
0.00499662049301
0.00499678491645
0.00499676915124
0.00499677629878
0.00499680543955
0.00499684938602
0.00499691786752
0.00499700441161
0.0049971020741
0.00499720899673
0.00499730306483
0.0049973361617
0.00499730945383
0.00499729816334
0.00499730550632
0.00499731020946
0.00499731467264
0.00499731058123
0.00499731003421
0.00499730019366
0.00499715788065
0.00499734918986
0.00499727537151
0.0049972432232
0.00499725542779
0.00499729759471
0.00499736409814
0.00499743809503
0.00499749390542
0.00499752084963
0.00499752839279
0.00499752861156
0.00499752511844
0.0049975274267
0.00499753015419
0.00499753024952
0.00499752402378
0.00499752030585
0.00499750629196
0.00499749370119
0.00499816963199
0.00499826776757
0.00499816175085
0.00499808689471
0.00499802497629
0.00499797538844
0.0049979403927
0.00499791287889
0.00499788099156
0.00499784984237
0.00499782179967
0.00499779866438
0.0049977803958
0.00499777362352
0.00499776750886
0.00499775661479
0.00499774598087
0.00499772796834
0.00499771454615
0.00499768586732
0.0049986986643
0.00499869998306
0.00499870041228
0.00499867926428
0.00499864255667
0.00499858292831
0.00499848511394
0.00499838247834
0.00499829634167
0.00499822297211
0.00499815640261
0.00499809906947
0.00499805414338
0.00499802086838
0.00499799899913
0.00499797836677
0.00499795634489
0.00499793802332
0.00499790698145
0.00499786819981
0.00499873210056
0.00499873247865
0.00499873304173
0.0049987340391
0.00499873465389
0.00499873722457
0.00499872309235
0.00499866072118
0.00499858116779
0.00499850679569
0.00499844176278
0.00499837877877
0.00499831818553
0.00499825550612
0.00499820760652
0.0049981797889
0.0049981573112
0.0049981269643
0.00499808940359
0.00499804492233
0.00499875283012
0.00499875306164
0.00499875330268
0.00499875361577
0.00499875406535
0.00499875465277
0.00499876120533
0.00499875591445
0.00499872125876
0.00499867610168
0.00499862966644
0.00499857947948
0.00499852042907
0.00499846235657
0.00499840118743
0.0049983613332
0.00499833152546
0.0049983024475
0.00499825794172
0.00499821892267
0.00499877007035
0.00499877020677
0.00499877033576
0.0049987705217
0.00499877073375
0.00499877098189
0.0049987748099
0.00499878251684
0.00499877293814
0.00499875052585
0.00499872697048
0.00499869212376
0.00499865511961
0.00499861230983
0.00499856904268
0.00499852444981
0.0049984888933
0.00499845229037
0.00499841526322
0.00499839165373
0.00499878587601
0.00499878594622
0.00499878609723
0.00499878628095
0.00499878650063
0.00499878677026
0.00499878919486
0.00499879577141
0.00499879268495
0.0049987854536
0.00499877978101
0.00499876814919
0.00499874378443
0.00499872199089
0.00499870571888
0.00499866972951
0.00499863463343
0.00499860053671
0.00499858302745
0.00499857957016
0.00499880166522
0.004998808423
0.00499880180079
0.00499880163903
0.00499880161054
0.00499880168474
0.00499880410412
0.00499880938845
0.00499880956305
0.00499881385144
0.00499882644998
0.00499881978714
0.00499881833443
0.00499880941926
0.00499880347167
0.00499881279753
0.00499879244592
0.00499877327349
0.00499877320433
0.00499879294386
0.00499883087518
0.00499888081474
0.0049988386891
0.00499883074003
0.00499882992446
0.00499883032397
0.00499883288031
0.00499883591002
0.0049988367771
0.00499884957733
0.00499886808324
0.00499888292662
0.00499888193704
0.00499889689082
0.00499891430472
0.00499892616328
0.00499893885118
0.00499894023819
0.00499895705397
0.00499901043977
0.00499887239087
0.00499894975264
0.00499888849836
0.00499887335247
0.0049988728161
0.00499887243454
0.00499887104449
0.00499886919724
0.00499887367889
0.00499890296004
0.00499893676303
0.00499894041941
0.00499896075332
0.00499897308512
0.00499899589975
0.0049990350915
0.00499905119284
0.004999075355
0.00499911641949
0.00499920774189
0.00499892075544
0.00499901306642
0.00499895721192
0.00499894097828
0.00499894093381
0.0049989380886
0.00499893570459
0.00499894337329
0.00499897702546
0.00499902336115
0.00499903493711
0.00499905456835
0.00499905602638
0.00499907509495
0.00499910071714
0.00499913745678
0.00499918437891
0.004999201798
0.00499927116234
0.00499938051853
0.00499906286498
0.00499918423532
0.00499917490401
0.00499918040294
0.00499918977039
0.00499918695226
0.00499918708076
0.00499920469415
0.00499923652372
0.00499924686386
0.00499925453121
0.0049992421948
0.00499923216121
0.00499926476703
0.00499931290992
0.00499938028619
0.00499935818037
0.00499938237228
0.00499945357002
0.00499954756155
0.00499954811575
0.00499967386472
0.00499965643097
0.00499966073921
0.00499966853792
0.00499966324356
0.00499965289495
0.00499964767726
0.00499964672369
0.00499964630825
0.00499964499012
0.0049996507663
0.00499973004623
0.00499979261653
0.00499978973048
0.00499970890501
0.00499966988391
0.00499967129589
0.0049996943261
0.00499973527438
0.00499991800669
0.00499999100855
0.00499995933974
0.00499994898418
0.00499994446703
0.00499993862751
0.00499993582579
0.00499993921833
0.00499994636773
0.00499995863916
0.00499997715761
0.00500000831461
0.00500000727121
0.00499997432243
0.00499994431831
0.00499992432123
0.00499992122602
0.00499992394109
0.004999924273
0.00499992697216
0.00499455676059
0.00499452344274
0.00499450317345
0.00499448664505
0.00499444547346
0.00499440810138
0.00499438680545
0.00499436941603
0.00499435291552
0.00499434302948
0.00499445946703
0.00499445461079
0.00499441408739
0.00499440658715
0.00499440836393
0.00499441177286
0.00499495363813
0.00499491083702
0.00499485991711
0.00499480714696
0.00499475819811
0.00499471568065
0.00499468373006
0.00499465921453
0.00499461612482
0.00499457221071
0.00499454847927
0.00499453283525
0.00499452540121
0.00499462888423
0.00499469782728
0.00499462894703
0.00499462146453
0.00499462207548
0.00499462599482
0.00499462939935
0.00499514880627
0.00499510524813
0.004995052048
0.00499499369159
0.00499493599196
0.00499488148694
0.00499483288916
0.00499479201332
0.00499474187784
0.0049946861972
0.00499465466918
0.0049946519343
0.00499479651668
0.00499497449911
0.0049948884273
0.00499487252611
0.00499487751035
0.00499487998273
0.00499488629657
0.00499489002825
0.00499532167634
0.00499528125383
0.00499523537778
0.00499518472352
0.00499513078582
0.00499507361518
0.0049950141557
0.00499495984025
0.00499491727351
0.00499488778989
0.00499492680076
0.00499516722485
0.00499530736935
0.00499522167639
0.00499519857576
0.00499519963441
0.00499520520152
0.00499521167869
0.00499522094292
0.00499522563671
0.00499547681325
0.00499545808371
0.00499544658308
0.00499543806037
0.00499542946321
0.00499542828713
0.00499548178238
0.0049956072117
0.00499574838863
0.00499587784256
0.00499595648975
0.00499589470805
0.00499580636952
0.00499574972329
0.00499571405476
0.00499569098612
0.00499567682814
0.00499567070233
0.00499567242214
0.00499567253632
0.00499562417505
0.00499564373322
0.0049956766039
0.0049957161808
0.00499578415043
0.00499598924516
0.00499618194898
0.0049962031787
0.00499619607936
0.00499619529664
0.00499619520128
0.00499619456511
0.00499619384366
0.00499617703148
0.00499613986498
0.00499610141441
0.00499607194742
0.00499605295381
0.00499604510553
0.00499604020273
0.00499576177589
0.00499580126539
0.00499585284339
0.00499596726704
0.0049962144815
0.00499623315335
0.00499621167167
0.00499621156424
0.00499621102248
0.00499621037712
0.00499620998212
0.00499620983529
0.00499620985435
0.00499620997653
0.00499620561863
0.00499619767387
0.00499618911649
0.00499618132477
0.00499617810874
0.00499617569213
0.00499586986715
0.00499591646645
0.0049960295972
0.00499625337456
0.00499622367316
0.00499622353169
0.00499622287944
0.00499622251634
0.00499622231467
0.0049962221502
0.00499622198969
0.00499622183511
0.00499622178675
0.0049962218498
0.00499622125272
0.00499621986623
0.00499621787504
0.00499621536269
0.00499621480466
0.00499621422913
0.00499594879404
0.00499601789892
0.00499623673286
0.00499623360186
0.0049962335969
0.00499623352852
0.00499623360633
0.00499623364571
0.00499623358262
0.00499623341327
0.00499623315605
0.00499623285378
0.0049962326151
0.00499623257929
0.00499623201512
0.00499623107144
0.00499623007942
0.00499622874701
0.00499622875678
0.00499622876755
0.00499601271256
0.00499617706383
0.00499628118226
0.00499624329772
0.00499624403103
0.00499624469368
0.00499624516358
0.00499624540595
0.00499624541482
0.00499624520428
0.0049962448732
0.00499624452361
0.00499624422692
0.00499624443033
0.00499624353829
0.00499624251566
0.00499624181074
0.00499624067283
0.00499624077557
0.00499624098461
0.00499612779102
0.00499625043761
0.00499627548895
0.00499625467497
0.00499625705769
0.00499625838691
0.00499625906447
0.00499625934487
0.00499625926978
0.00499625886774
0.00499625829514
0.00499625777663
0.00499625776819
0.00499625855686
0.00499625740765
0.00499625649709
0.00499625635537
0.00499625542216
0.00499625573467
0.00499625612595
0.004996194261
0.00499625062962
0.00499629020488
0.00499628721007
0.00499627696608
0.00499627740912
0.00499627759308
0.00499627758073
0.00499627714669
0.00499627644182
0.00499627575366
0.00499627629158
0.00499627725625
0.00499627740528
0.00499627602716
0.00499627551199
0.00499627585249
0.00499627520594
0.00499627585103
0.00499627624355
0.00499618648319
0.00499623601813
0.0049962984827
0.00499632612482
0.00499629888276
0.004996299104
0.00499629928964
0.00499629941648
0.00499629936923
0.00499629907345
0.00499629909083
0.00499630105014
0.00499630202101
0.00499630146998
0.00499630001571
0.00499629993234
0.00499630059566
0.00499630020451
0.00499630110153
0.00499630114348
0.00499618642441
0.00499624606068
0.00499633344388
0.00499636565853
0.00499632049159
0.00499632056985
0.00499632087119
0.00499632130344
0.00499632165834
0.00499632638357
0.00499633184542
0.0049963349408
0.00499633527546
0.00499633322168
0.00499633099934
0.00499633005454
0.00499632981134
0.00499632898579
0.0049963300536
0.00499632942793
0.00499620335218
0.00499627511802
0.00499636368314
0.00499638022472
0.00499633917848
0.00499633936607
0.00499633984552
0.00499634037155
0.00499634106819
0.00499634977473
0.00499636214477
0.00499636822388
0.00499636836666
0.00499636522384
0.00499636203781
0.00499635968153
0.00499635781022
0.00499635640379
0.00499635787663
0.00499635639276
0.00499623201496
0.00499630677222
0.0049963815335
0.0049963769338
0.00499635443789
0.00499635477841
0.00499635528283
0.00499635591806
0.00499635693076
0.00499636525551
0.00499638075466
0.00499639064007
0.00499639299399
0.00499639006227
0.00499638472099
0.00499638020137
0.00499637740247
0.00499637572157
0.00499637733906
0.00499637542301
0.00499626440464
0.00499633025994
0.00499638872863
0.0049963781946
0.00499636591308
0.00499636646524
0.00499636718118
0.00499636798979
0.00499636935715
0.00499637542351
0.00499639216825
0.00499640534205
0.00499640621089
0.00499639431169
0.00499638643031
0.00499638319353
0.00499638174367
0.00499638073106
0.0049963823465
0.00499638101761
0.00499630627267
0.00499635428747
0.00499639126135
0.00499638010481
0.00499637442324
0.00499637536047
0.00499637638766
0.00499637747323
0.00499637704142
0.0049963836828
0.00499640198911
0.00499641101315
0.00499639083246
0.00499637925057
0.00499637498744
0.0049963825548
0.00499637881394
0.0049963776263
0.00499637903488
0.00499637922322
0.00499637970815
0.004996400589
0.00499640687381
0.00499639337837
0.00499638584296
0.0049963857434
0.00499638645951
0.00499638503004
0.00499638358177
0.00499640048075
0.00499641973539
0.00499640936248
0.00499639432544
0.00499638774598
0.00499638575017
0.00499639652898
0.00499639364028
0.00499638781876
0.00499638872329
0.00499639006347
0.00499650448981
0.00499649786306
0.00499647811139
0.00499645087674
0.00499644113669
0.00499644511289
0.00499643518795
0.00499642730611
0.0049964456247
0.00499648181866
0.00499648172889
0.00499646460507
0.00499645300491
0.00499644791559
0.00499644780159
0.00499645840574
0.00499647105515
0.00499644199539
0.00499644106469
0.00499644234937
0.00499669628221
0.00499666676842
0.00499663307582
0.00499658344058
0.00499654808669
0.00499652819936
0.0049965151888
0.00499652797341
0.0049966038525
0.00499662111259
0.00499659391495
0.00499657348741
0.00499656087085
0.00499655642528
0.00499656106797
0.00499657263709
0.00499659271891
0.00499657236467
0.00499655843136
0.00499655807125
0.0049969299247
0.00499689988754
0.0049968524125
0.00499680521487
0.00499675323933
0.00499670969468
0.00499668332265
0.0049967208611
0.00499682868306
0.00499678689313
0.00499675222328
0.00499672783608
0.00499671225446
0.00499670956891
0.00499671681794
0.00499672790689
0.00499673842098
0.00499673038782
0.00499671811617
0.00499671636547
0.00499712695331
0.00499711730743
0.0049970765699
0.00499703137152
0.00499699373688
0.00499695435644
0.00499691944026
0.00499699075982
0.00499705981752
0.0049969826201
0.00499694474399
0.00499691641911
0.00499690135643
0.0049969002942
0.00499690711649
0.00499691587233
0.00499692088759
0.004996905241
0.00499689802147
0.0049968969104
0.00499729517255
0.00499728719599
0.00499726503681
0.00499722362446
0.00499718705092
0.00499715232317
0.00499712994597
0.00499724479767
0.00499726127792
0.00499719308556
0.00499715218229
0.00499712307237
0.0049971076699
0.0049971075928
0.00499711603563
0.00499712271307
0.00499711636769
0.00499710286364
0.00499709904858
0.00499709890014
0.00499747657358
0.00499746133993
0.0049974400298
0.00499740305616
0.00499736499666
0.00499733337361
0.00499732180207
0.00499754497795
0.00499748062591
0.0049974357715
0.00499739637028
0.0049973634194
0.00499734227174
0.00499733889782
0.00499734893972
0.00499736174593
0.00499733976951
0.0049973265922
0.00499732405834
0.00499732379418
0.00499766230913
0.00499764366495
0.00499762069983
0.00499759364532
0.004997569275
0.00499755410015
0.00499770715646
0.00499783582066
0.00499775493736
0.00499772852388
0.00499769790591
0.00499765854856
0.00499762403619
0.00499760816539
0.00499762346634
0.0049976417756
0.00499757926064
0.00499756184641
0.00499756058781
0.0049975614422
0.00499783912421
0.00499781603005
0.00499779300448
0.00499777934401
0.00499776574497
0.0049978334911
0.00499816449854
0.00499808603612
0.00499804475905
0.00499802801743
0.00499801273489
0.00499798629818
0.00499795190877
0.00499792853499
0.00499793947399
0.00499798056416
0.00499793082616
0.00499787322262
0.00499787073363
0.0049978706897
0.00499801331415
0.00499798577648
0.00499797091343
0.00499796721899
0.00499799252151
0.00499836885664
0.00499834892243
0.0049982841045
0.00499825897309
0.00499824774556
0.00499824230132
0.00499824326576
0.00499825661009
0.0049982774971
0.00499830225534
0.00499833339861
0.00499836051351
0.00499835016678
0.0049983268374
0.00499831210727
0.00499818916575
0.00499816939912
0.00499816467756
0.00499817174113
0.00499849178917
0.00499854190092
0.00499845403885
0.00499841965928
0.00499839783338
0.00499838755547
0.00499840244999
0.00499844642672
0.00499848661818
0.00499849007977
0.00499849061035
0.00499849614663
0.00499850390582
0.00499850934646
0.00499850625091
0.00499850256712
0.00499837409598
0.00499836714651
0.00499836904375
0.00499858875417
0.00499872139713
0.00499861714768
0.00499857069452
0.00499853657671
0.00499850772683
0.0049985081269
0.00499854190814
0.00499856262232
0.0049985574308
0.0049985502806
0.00499854278297
0.00499853889197
0.00499853969308
0.00499854210185
0.00499854617608
0.00499855167843
0.00499859021269
0.00499860791312
0.0049987224294
0.00499891206057
0.00499884080685
0.00499878190266
0.00499873099637
0.00499868494831
0.00499866091741
0.00499867428602
0.00499869510424
0.00499869788037
0.00499869533584
0.00499868991367
0.00499867071622
0.00499865059882
0.00499864522977
0.00499864533645
0.00499865027767
0.00499865738163
0.00499883858968
0.00499891859032
0.00499910110789
0.00499910819419
0.00499905890424
0.00499902854954
0.00499898365426
0.00499894068626
0.00499891543807
0.00499890727153
0.00499890222783
0.004998902154
0.00499891164268
0.00499892151746
0.00499891268019
0.00499887554325
0.00499885719824
0.00499885402134
0.0049988596029
0.00499886307083
0.00499910380694
0.00499924267618
0.00499933014858
0.00499931299807
0.00499930546708
0.00499930291886
0.00499928155756
0.00499924995066
0.00499921881145
0.00499919351252
0.004999172731
0.0049991679196
0.00499918608172
0.00499921055299
0.00499921366671
0.00499918203277
0.00499915641564
0.00499914709095
0.0049991459073
0.00499914486032
0.00499933019291
0.00499945506469
0.00499950834257
0.00499951967583
0.00499952977606
0.00499954056447
0.00499953862001
0.00499952162538
0.00499949583534
0.00499946674644
0.00499944118477
0.00499942477682
0.00499943001
0.00499944791023
0.00499944254052
0.00499942654465
0.00499940956984
0.00499940075742
0.00499939586382
0.00499939348532
0.00499950463784
0.00499961985114
0.00499967584401
0.00499969984168
0.00499971008116
0.00499972004806
0.00499972585846
0.00499971739711
0.00499969750462
0.00499967264328
0.00499964717027
0.00499962279342
0.00499961066542
0.00499962164355
0.00499962038931
0.00499961213655
0.00499960064786
0.00499959076513
0.00499958540176
0.00499958295697
0.00499965399755
0.00499975167711
0.00499980018687
0.00499982543875
0.00499982857539
0.00499982964388
0.00499982961505
0.00499982422545
0.00499981238794
0.00499979606904
0.00499977514983
0.00499975049887
0.00499973407967
0.00499974578197
0.00499975044445
0.00499975076206
0.00499973998844
0.00499972936883
0.00499972408069
0.00499972150601
0.00499979249041
0.00499985375699
0.00499988756027
0.00499991430809
0.00499991314061
0.00499990798987
0.00499990214697
0.00499989554382
0.00499988708874
0.00499987650773
0.00499986350531
0.0049998476194
0.00499983251772
0.00499983975587
0.00499984790857
0.00499985097288
0.00499984214937
0.0049998321533
0.00499982713507
0.00499982461541
0.00499994063181
0.00499996237974
0.00499998020468
0.00499999445549
0.00499998799303
0.00499998011433
0.00499997225648
0.00499996427301
0.00499995617574
0.00499994841113
0.00499994202467
0.004999937532
0.00499993324204
0.00499993947614
0.0049999454365
0.00499994367403
0.00499993440082
0.00499992457404
0.00499991935394
0.00499991646851
)
;

boundaryField
{
    emptyPatch
    {
        type            empty;
    }
    minY
    {
        type            calculated;
        value           nonuniform List<scalar> 0();
    }
    maxY
    {
        type            calculated;
        value           uniform 0.005;
    }
    maxX
    {
        type            calculated;
        value           nonuniform List<scalar> 
38
(
0.00499441177286
0.00499462939935
0.00499489002825
0.00499522563671
0.00499567253632
0.00499604020274
0.00499617569214
0.00499621422914
0.00499622876756
0.00499624098462
0.00499625612596
0.00499627624359
0.00499630114353
0.00499632942801
0.00499635639288
0.00499637542318
0.00499638101778
0.00499637922331
0.00499639006349
0.0049964423494
0.00499655807127
0.00499671636549
0.00499689691043
0.00499709890017
0.00499732379422
0.0049975614424
0.00499787069046
0.00499831210814
0.0049985025679
0.00499855167878
0.00499865738166
0.00499886307086
0.00499914486036
0.00499939348535
0.004999582957
0.00499972150603
0.00499982461543
0.00499991646852
)
;
    }
    water_to_heater
    {
        type            calculated;
        value           nonuniform List<scalar> 
59
(
0.00499527181162
0.00499531042793
0.004995777226
0.00499583436023
0.00499584642012
0.0049958678531
0.00499587679704
0.00499589428323
0.00499589725099
0.0049959150117
0.00499591549756
0.00499592903851
0.00499593043957
0.00499594795451
0.0049959529027
0.00499597066382
0.00499598260671
0.00499600019935
0.00499601542132
0.00499604356424
0.00499605487525
0.00499607466323
0.00499608125447
0.00499610545389
0.00499610939155
0.00499613663141
0.00499615127526
0.00499620320805
0.00499623808425
0.00499626577107
0.00499630366442
0.00499633143943
0.00499637177584
0.00499639951705
0.00499643683049
0.00499661548314
0.00499711879633
0.00499716450126
0.00499814329136
0.00499818590075
0.00499868583118
0.00499871675035
0.0049987278479
0.00499874914006
0.00499875128985
0.00499877167441
0.00499877225666
0.00499879251662
0.00499879286759
0.00499881325353
0.00499882704428
0.00499886815545
0.00499889590659
0.00499892244842
0.0049990404008
0.0049990746859
0.00499953303077
0.00499957138491
0.00499991243097
)
;
    }
    procBoundary0to1
    {
        type            processor;
        value           nonuniform List<scalar> 
41
(
0.00499480491938
0.00499480697009
0.00499475129783
0.00499473558353
0.00499472128117
0.00499471918365
0.00499471148621
0.00499470439319
0.00499470009214
0.00499470044601
0.00499470847122
0.00499472054863
0.00499473410422
0.00499475205293
0.0049947723627
0.00499478683781
0.00499479982795
0.00499482356592
0.00499481554757
0.00499477402816
0.00499433108116
0.0049943039389
0.00499429169424
0.00499428062509
0.00499424434283
0.00499421570199
0.00499420017091
0.00499418779581
0.00499417571763
0.00499416630518
0.00499416919038
0.0049942468861
0.00499420188963
0.00499418798239
0.00499418893355
0.00499419399698
0.0049947350004
0.00499469225975
0.00499464442076
0.00499459794959
0.00499459794959
)
;
    }
}


// ************************************************************************* //
