/*--------------------------------*- C++ -*----------------------------------*\
| =========                 |                                                 |
| \\      /  F ield         | OpenFOAM: The Open Source CFD Toolbox           |
|  \\    /   O peration     | Version:  2312                                  |
|   \\  /    A nd           | Website:  www.openfoam.com                      |
|    \\/     M anipulation  |                                                 |
\*---------------------------------------------------------------------------*/
FoamFile
{
    version     2.0;
    format      ascii;
    arch        "LSB;label=32;scalar=64";
    class       volVectorField;
    location    "0.17/water";
    object      U.gas;
}
// * * * * * * * * * * * * * * * * * * * * * * * * * * * * * * * * * * * * * //

dimensions      [0 1 -1 0 0 0 0];

internalField   nonuniform List<vector> 
750
(
(-0.0235638927601 2.33765007165 0)
(-0.0316880869395 2.44313194276 0)
(-0.0439030972531 2.73693903745 0)
(-0.0353323897968 3.16338571152 0)
(0.00980267484223 3.48711566956 0)
(0.0225941568643 3.5915302138 0)
(0.0262114356532 3.52499014282 0)
(0.0317927564144 3.38493718922 0)
(0.0331823946318 3.18193209369 0)
(0.0282782577751 2.97142462331 0)
(0.00921756533933 2.29803830231 0)
(0.0117016206214 2.4513971928 0)
(0.0145194669038 2.57659150811 0)
(0.0185057148108 2.23458191906 0)
(0.0281015785275 1.42905849608 0)
(0.0525485019975 0.864029487562 0)
(0.0789763266273 0.542879989001 0)
(0.0985649398506 0.391565836116 0)
(0.118736901321 0.310585534337 0)
(0.139449571951 0.260469384985 0)
(0.148458570613 0.21316307788 0)
(0.13392968939 0.184549718905 0)
(0.107139266919 0.257322109293 0)
(0.0818057172458 0.461423935605 0)
(0.0538151086007 0.718669377094 0)
(0.02747870524 0.952720255587 0)
(0.0102367744867 1.11297835222 0)
(0.000869314162541 1.15248454215 0)
(-0.00227698798278 1.01765445654 0)
(-0.00120576197512 0.578739935407 0)
(0.0141567915206 2.1883543012 0)
(0.0243172054372 2.40941367708 0)
(0.0368752586374 2.50228821724 0)
(0.0496269914251 2.1616215198 0)
(0.0613430743399 1.30116431051 0)
(0.0766656692083 0.672567794072 0)
(0.0960086650131 0.407803388457 0)
(0.117780825226 0.301105766006 0)
(0.14313270608 0.247247360082 0)
(0.162698553553 0.202226056852 0)
(0.155267693141 0.157739336981 0)
(0.122436613849 0.181088088872 0)
(0.0883430409674 0.389069181314 0)
(0.058749630717 0.738260595845 0)
(0.0351955129276 1.0116256296 0)
(0.0199427007923 1.16871783315 0)
(0.00949740217509 1.24705693425 0)
(0.00322753428942 1.21759228905 0)
(0.00048236796972 1.01927401342 0)
(-3.69595829609e-05 0.557936804146 0)
(0.0164939346617 2.10861719151 0)
(0.026977350266 2.32918312691 0)
(0.0409431571737 2.39352905226 0)
(0.0546345539638 2.05970723131 0)
(0.0649601563371 1.21801285547 0)
(0.0784871832146 0.55843044416 0)
(0.0986798702922 0.315895115149 0)
(0.124298451841 0.229739601415 0)
(0.151761348953 0.184018120982 0)
(0.164363267695 0.143788338393 0)
(0.142519109177 0.123597475645 0)
(0.103395318411 0.227523812119 0)
(0.0710951728563 0.614126982746 0)
(0.0479284467317 0.998968434993 0)
(0.03339819581 1.21229175061 0)
(0.0222382159639 1.32849211547 0)
(0.0136430298166 1.36418815391 0)
(0.00736698498514 1.2941801804 0)
(0.00312554753229 1.05759927907 0)
(0.000731991345776 0.576662868033 0)
(0.0163389491972 2.04400908576 0)
(0.027100044119 2.24264709543 0)
(0.0409901268385 2.27783800181 0)
(0.0545849824766 1.95207866821 0)
(0.0637321964954 1.13059609206 0)
(0.073817980103 0.453072663945 0)
(0.0926776918306 0.235837969701 0)
(0.120839134087 0.166737169341 0)
(0.15027645685 0.129903174155 0)
(0.15816713886 0.106172220812 0)
(0.129576565053 0.11842698009 0)
(0.0911588730805 0.31200471787 0)
(0.066227098502 0.841539058457 0)
(0.0495758325749 1.19408169853 0)
(0.0370283966777 1.38316440041 0)
(0.0264522022064 1.47349088005 0)
(0.0175917400386 1.483541682 0)
(0.0104794717543 1.38786617963 0)
(0.00497183005669 1.12709985443 0)
(0.00129257929855 0.617593315291 0)
(0.0133131788288 1.98090694857 0)
(0.0247514987538 2.15131891394 0)
(0.0396864978099 2.15633281272 0)
(0.0542796496658 1.83450806563 0)
(0.0625618638033 1.02721388685 0)
(0.0674389952012 0.370396508358 0)
(0.0846569422361 0.178936782147 0)
(0.117197181645 0.127806020143 0)
(0.148866111336 0.105786019678 0)
(0.152608860265 0.0976579146208 0)
(0.120315448591 0.134766776084 0)
(0.0842728021312 0.420787147769 0)
(0.0626615917707 1.02016028501 0)
(0.0482921737435 1.36804074408 0)
(0.0368255384068 1.54120103151 0)
(0.0267798335485 1.61463759804 0)
(0.0182080700542 1.60604571584 0)
(0.0111194802304 1.49162167978 0)
(0.00538569109394 1.21095362192 0)
(0.00141820087586 0.669069287871 0)
(0.00903646449422 1.91671330635 0)
(0.0211063244576 2.05032085679 0)
(0.0374366897951 2.02144438639 0)
(0.0544970810055 1.69399758218 0)
(0.0651315118659 0.907064561045 0)
(0.0693947072243 0.323168758756 0)
(0.0865966128786 0.159701790502 0)
(0.121181348571 0.120578133959 0)
(0.152580648383 0.107322913403 0)
(0.151849257817 0.106247999201 0)
(0.116555511653 0.164671051809 0)
(0.0818027599186 0.545017152714 0)
(0.0613050979784 1.19100941654 0)
(0.0473995529017 1.5315891395 0)
(0.0361503189591 1.69182333912 0)
(0.026378921223 1.75006347078 0)
(0.0181261405317 1.72520430326 0)
(0.0112121530031 1.59596545067 0)
(0.00548356710399 1.29731330568 0)
(0.00146351232155 0.722442022692 0)
(0.0019469489089 1.86564628938 0)
(0.0110886811979 1.9501995494 0)
(0.026611636259 1.8760019984 0)
(0.0480927820032 1.50567525181 0)
(0.0673703724135 0.759128578059 0)
(0.0796023767215 0.295853008769 0)
(0.0995394412069 0.166562487677 0)
(0.132593749485 0.132199157278 0)
(0.16146073254 0.121895551504 0)
(0.155346381503 0.125131475493 0)
(0.115719335782 0.208245174841 0)
(0.078550755952 0.702818140527 0)
(0.0559527405564 1.37236450338 0)
(0.0416212134412 1.69356661814 0)
(0.0308312863162 1.83470935378 0)
(0.022114850406 1.87427345475 0)
(0.0150885355828 1.8336284679 0)
(0.00926260545939 1.69137142106 0)
(0.00450776186577 1.3758458598 0)
(0.00120573944608 0.771346340749 0)
(-0.00989866932242 1.86886589758 0)
(-0.0105637787635 1.88642608135 0)
(-0.00147647068629 1.74420768021 0)
(0.0259855259574 1.22674432974 0)
(0.0625522503108 0.533661999909 0)
(0.0899724230503 0.270139398918 0)
(0.115781249806 0.179315391812 0)
(0.147505316363 0.150354722736 0)
(0.171616324778 0.145216157704 0)
(0.15497969849 0.154145887387 0)
(0.106141708187 0.295449444707 0)
(0.060974452492 0.967073249798 0)
(0.0337695849592 1.56530363799 0)
(0.0216277049859 1.83846201178 0)
(0.0139706867327 1.94680071136 0)
(0.0089749701497 1.9627819386 0)
(0.00552484598106 1.90714876348 0)
(0.00299571306827 1.75248675482 0)
(0.00125109349256 1.42280212643 0)
(0.000283212135841 0.798789576629 0)
(-0.0240410900417 1.97230961775 0)
(-0.0359046613553 1.87232677847 0)
(-0.0279950715767 1.61341721287 0)
(0.0199790618883 0.734616832151 0)
(0.0677216774621 0.358649352762 0)
(0.095248768928 0.245009022362 0)
(0.13061756963 0.190369211571 0)
(0.161630943458 0.170942423429 0)
(0.171135277888 0.171391484474 0)
(0.13278477688 0.213116770256 0)
(0.0719121489137 0.513013974789 0)
(0.0282978391698 1.29530519245 0)
(0.00681187364693 1.7375426861 0)
(-0.00134181839778 1.93425733241 0)
(-0.00425205292548 2.0000253667 0)
(-0.00475611492354 1.99350672133 0)
(-0.00425813425474 1.92495995416 0)
(-0.00319064050492 1.75980485408 0)
(-0.00178898763576 1.42179006741 0)
(-0.000519617511955 0.794817020348 0)
(-0.0317702109193 2.1709204621 0)
(-0.0562658225863 1.93284259238 0)
(-0.0163435474949 1.15046829492 0)
(0.0331548428556 0.378385460921 0)
(0.0622533059507 0.2795101431 0)
(0.106509413643 0.225281207066 0)
(0.141372138794 0.197920857189 0)
(0.16439286708 0.189813773237 0)
(0.139961223783 0.193420945205 0)
(0.0811281593832 0.361731006793 0)
(0.0213177777453 0.932594505492 0)
(-0.0159211313344 1.53716999485 0)
(-0.0252472764088 1.82838688933 0)
(-0.0253842257686 1.95067192762 0)
(-0.0221928721702 1.98258397084 0)
(-0.0180133324063 1.96173535564 0)
(-0.0136124695371 1.88503289083 0)
(-0.00918601491521 1.71379542883 0)
(-0.00490595604929 1.37420372182 0)
(-0.00141565194625 0.759602675437 0)
(-0.0160039646824 2.27700025021 0)
(-0.00573679094653 1.92977766422 0)
(0.0152201425222 0.611780625719 0)
(0.0394057459693 0.301931082242 0)
(0.0798236023781 0.231211391646 0)
(0.125114538977 0.21681755473 0)
(0.151486578147 0.206141429316 0)
(0.146932598077 0.203668403325 0)
(0.101551279125 0.218915290679 0)
(0.0415160648492 0.684398902418 0)
(0.000777401099855 1.28474927858 0)
(-0.0117619555137 1.65756667734 0)
(-0.0151206568242 1.84580045654 0)
(-0.0143306675731 1.92176950697 0)
(-0.011997241645 1.9367283222 0)
(-0.00936435146183 1.9101258764 0)
(-0.00679820050763 1.83119656003 0)
(-0.00442172975531 1.65913243714 0)
(-0.00226872539451 1.32179119795 0)
(-0.000623805812399 0.72134989523 0)
(-0.00637917841497 2.18890377797 0)
(0.0204367154618 1.80115828239 0)
(0.0320086096227 0.419867958201 0)
(0.0524995159944 0.254060008639 0)
(0.0939508765788 0.232939370761 0)
(0.129641975722 0.222816302692 0)
(0.143858301093 0.218960872567 0)
(0.11808423188 0.214746116805 0)
(0.0706416408313 0.253594345459 0)
(0.0395345001306 0.956528663176 0)
(0.0248868881028 1.41445107787 0)
(0.0191848831086 1.7116088747 0)
(0.0162348411141 1.86204869251 0)
(0.0139735956359 1.92086484071 0)
(0.0118849382795 1.93136673894 0)
(0.00973661227334 1.90493451925 0)
(0.00747096780659 1.82806588425 0)
(0.00508626796279 1.65848852371 0)
(0.00276470785416 1.32244377204 0)
(0.000831163527215 0.721707644946 0)
(-0.00455502015609 1.99833275979 0)
(0.0158034244995 1.71772780258 0)
(0.0205215953271 0.35188693021 0)
(0.0466983765331 0.25326741629 0)
(0.0808552220793 0.245571931878 0)
(0.109226651507 0.238458424527 0)
(0.110148176956 0.232602504203 0)
(0.0799749046548 0.22712583633 0)
(0.0455203989126 0.282558213804 0)
(0.0323777598329 1.0064219725 0)
(0.0347599377193 1.42367986967 0)
(0.0386167488559 1.72383442637 0)
(0.0383563660078 1.88944836451 0)
(0.0350072161446 1.96172456273 0)
(0.029994724256 1.98105419579 0)
(0.0242606579992 1.96139863175 0)
(0.018185871333 1.89029037018 0)
(0.0120197654483 1.72454037178 0)
(0.00625397378565 1.38516770411 0)
(0.00178238179987 0.76364389145 0)
(-0.0675478273378 2.16123130397 0)
(-0.0641056218811 1.29812305638 0)
(-0.0169698208129 0.335138317897 0)
(0.0180070540073 0.266118407692 0)
(0.048596339961 0.265106415147 0)
(0.0704820337073 0.256672028051 0)
(0.0664236501476 0.246710212742 0)
(0.0429344389292 0.244829535969 0)
(0.021871979728 0.30098249424 0)
(0.0346876868899 0.773811217455 0)
(0.0575749712297 1.35270212322 0)
(0.063287665565 1.69106487399 0)
(0.0644778957573 1.91908451889 0)
(0.0596899919572 2.03672823676 0)
(0.0513234959114 2.0816280174 0)
(0.0413396849821 2.07687028731 0)
(0.030805646871 2.01522819848 0)
(0.0202974744548 1.85356587435 0)
(0.0105923197041 1.50505281474 0)
(0.00303800586063 0.843748306787 0)
(-0.0153701366695 2.43976121901 0)
(-0.0448884718402 0.834308489662 0)
(-0.0680985594933 0.346679129481 0)
(-0.0277620221116 0.281643595682 0)
(0.000537413383709 0.282602845652 0)
(0.0181090743937 0.274023247841 0)
(0.014504700717 0.263438064958 0)
(0.00121552463934 0.268699036015 0)
(-0.00737565548612 0.318702924116 0)
(-0.00611158772336 0.511524053828 0)
(0.0180577959869 1.08888958089 0)
(0.0448541801413 1.60557178505 0)
(0.052806513328 1.9175254465 0)
(0.0539279791843 2.10207504451 0)
(0.0495446144682 2.19395368235 0)
(0.041510997443 2.2179590869 0)
(0.031524580878 2.17396703791 0)
(0.0208242335835 2.01903855412 0)
(0.010787172496 1.65781565005 0)
(0.00306747423517 0.945814078314 0)
(0.0184759983996 2.48965352798 0)
(-0.0451880045066 0.739860574561 0)
(-0.096644413535 0.339576892141 0)
(-0.0629370618217 0.296072270494 0)
(-0.0379564463023 0.297460729134 0)
(-0.024643866245 0.290510514206 0)
(-0.0259658224491 0.283393028171 0)
(-0.0316000920532 0.293297729484 0)
(-0.033361130686 0.334988729195 0)
(-0.0298973291977 0.456423189274 0)
(-0.0168356794171 0.76707395213 0)
(0.00314934468855 1.45792840839 0)
(0.0206664999437 1.8287621685 0)
(0.0321139640256 2.08817566446 0)
(0.0366943427572 2.24511419948 0)
(0.0354278973281 2.32078001817 0)
(0.0296076317152 2.31484856348 0)
(0.0207844238007 2.18183554663 0)
(0.0110963225684 1.81402481816 0)
(0.00318595682813 1.04977876432 0)
(0.0193096255111 2.65859215289 0)
(-0.0684874458195 0.687515519822 0)
(-0.140381240165 0.325051051189 0)
(-0.108584392178 0.311144420467 0)
(-0.079465581749 0.312328458685 0)
(-0.0672450544846 0.307036646926 0)
(-0.065395143443 0.303307509568 0)
(-0.0649848973601 0.313425108037 0)
(-0.0614068990908 0.347134217879 0)
(-0.0555109094298 0.43066265381 0)
(-0.0467678073594 0.62859305444 0)
(-0.019126095563 1.13783787915 0)
(0.0106269094698 1.69671100182 0)
(0.0243010593217 2.00713188941 0)
(0.0337055772384 2.23200738479 0)
(0.0373035641976 2.37287441988 0)
(0.0350285203576 2.43019606631 0)
(0.0271308323545 2.34936482908 0)
(0.0156828599002 1.99738963741 0)
(0.00474835166872 1.18249911461 0)
(0.00956201180269 2.87122569164 0)
(-0.0999525559844 0.767130446357 0)
(-0.189518201903 0.326520944867 0)
(-0.156799322613 0.323517156319 0)
(-0.118257467551 0.324740968763 0)
(-0.105107675854 0.320978555565 0)
(-0.0999180925874 0.318986772137 0)
(-0.0950368099677 0.328158433124 0)
(-0.087502063843 0.355734848816 0)
(-0.0790548157259 0.418712352223 0)
(-0.0697438709359 0.560146831379 0)
(-0.0566222934911 0.836028116049 0)
(-0.0261417217428 1.39868669948 0)
(0.00380043817156 1.90653922443 0)
(0.0175775216558 2.17501255176 0)
(0.0273964056433 2.37909426284 0)
(0.0308614585695 2.51292702338 0)
(0.0269832654436 2.51408976308 0)
(0.0170392598078 2.20976350577 0)
(0.00547108320128 1.35425092209 0)
(0.0234621738769 2.95883541704 0)
(-0.0912629794416 1.14727134588 0)
(-0.224900878044 0.345160926277 0)
(-0.206107084027 0.333576369115 0)
(-0.148083593903 0.334417192548 0)
(-0.132059487357 0.331888668119 0)
(-0.124281414686 0.330449077231 0)
(-0.117050850971 0.338104412628 0)
(-0.107356334663 0.360514812841 0)
(-0.0971621988574 0.409177898996 0)
(-0.0874775390088 0.513905423168 0)
(-0.0764950705605 0.718425490677 0)
(-0.05991554843 1.06389890618 0)
(-0.0295345448364 1.64418540702 0)
(-0.00170814787788 2.08260183195 0)
(0.0122350053257 2.33321017336 0)
(0.0205334249381 2.54581617407 0)
(0.0208946573251 2.63987572114 0)
(0.0145647377667 2.40313499709 0)
(0.00503005594627 1.52932739187 0)
(0.0438087275522 2.86811711419 0)
(-0.0526661867317 1.79467190906 0)
(-0.23889147896 0.403387661359 0)
(-0.251977861257 0.346294606991 0)
(-0.16872038088 0.34349833347 0)
(-0.14653210939 0.341453489934 0)
(-0.136782767963 0.339493145607 0)
(-0.129139708469 0.344788951381 0)
(-0.119219099548 0.362260213506 0)
(-0.108531690511 0.400475297631 0)
(-0.0985739056766 0.480561957556 0)
(-0.0890135693235 0.637584937021 0)
(-0.0778671533363 0.904330268848 0)
(-0.0598010348273 1.31388255198 0)
(-0.0317463359508 1.85851231692 0)
(-0.00808391981587 2.2419140695 0)
(0.00302878532111 2.52677181083 0)
(0.00746923956219 2.69835891279 0)
(0.00672288607538 2.5231495973 0)
(0.00265218120786 1.65502827952 0)
(0.0336600073034 2.73912252453 0)
(-0.0101578548306 2.36446796589 0)
(-0.187289594954 0.611801860593 0)
(-0.270377915257 0.36073792743 0)
(-0.194943430195 0.352719565624 0)
(-0.156496172896 0.350227699927 0)
(-0.143607537404 0.347043597482 0)
(-0.135759238775 0.349154029195 0)
(-0.126144672878 0.36156031942 0)
(-0.115125491522 0.391068281371 0)
(-0.104719220886 0.452855301542 0)
(-0.0953313612953 0.57775134794 0)
(-0.0861517084337 0.796479247728 0)
(-0.0753562827825 1.12634128017 0)
(-0.0590563681567 1.57982240802 0)
(-0.0404112491141 2.10608713444 0)
(-0.0255968278096 2.43643341212 0)
(-0.014674991613 2.6496544765 0)
(-0.00684344100154 2.51153843501 0)
(-0.0017974721878 1.6663042558 0)
(0.0471836302007 2.54401308308 0)
(0.0636366701132 2.57832346801 0)
(-0.088782069865 1.2480544793 0)
(-0.243641925821 0.37668137466 0)
(-0.209741854929 0.362900410262 0)
(-0.158310048359 0.358786327941 0)
(-0.1418497262 0.354338959112 0)
(-0.133988679166 0.352686883394 0)
(-0.125766739779 0.359597740419 0)
(-0.11527122573 0.380989306685 0)
(-0.104649658895 0.428215189413 0)
(-0.0950453230809 0.52672503464 0)
(-0.0863417451678 0.71082709624 0)
(-0.0775699666901 1.0050523894 0)
(-0.0671663938956 1.41130483567 0)
(-0.0538162088163 1.94494212002 0)
(-0.0394904478436 2.28398241786 0)
(-0.0263530856336 2.50078179328 0)
(-0.0142207859677 2.37322610149 0)
(-0.00421291405745 1.56257132692 0)
(0.0265853718393 2.34691644013 0)
(0.0167801301968 2.67442338805 0)
(-0.090204175174 1.91172399663 0)
(-0.210360904388 0.398794425714 0)
(-0.206007194449 0.375035610039 0)
(-0.159353895515 0.367810043032 0)
(-0.139051811093 0.362445483672 0)
(-0.130244956007 0.356941127655 0)
(-0.123131521633 0.358038806618 0)
(-0.113314264992 0.371565193816 0)
(-0.102564981835 0.406418742742 0)
(-0.0926146662603 0.483795912871 0)
(-0.0840041321231 0.639836565812 0)
(-0.0761027619754 0.907347164651 0)
(-0.0674755532743 1.29831895949 0)
(-0.0567948511465 1.78911830155 0)
(-0.0444902739475 2.10943659444 0)
(-0.0311160706878 2.30116291023 0)
(-0.0170403740873 2.16589654924 0)
(-0.00500273690294 1.4014738255 0)
(0.0172412426042 2.30080044575 0)
(0.00174015826134 2.85312586925 0)
(-0.0843253421871 2.25782629525 0)
(-0.183245426557 0.427407964089 0)
(-0.192160881812 0.38779681085 0)
(-0.158636860641 0.376897341412 0)
(-0.136599945352 0.371234829378 0)
(-0.126606838112 0.362587805308 0)
(-0.119350428972 0.358541338341 0)
(-0.109794193963 0.3650240153 0)
(-0.0993745152793 0.389461208981 0)
(-0.0897293480517 0.450421034076 0)
(-0.0816021624272 0.583953226549 0)
(-0.0747682894834 0.830283382337 0)
(-0.0682922621184 1.21582785776 0)
(-0.0599365800429 1.64439083033 0)
(-0.0484934919188 1.92536584664 0)
(-0.0343001163025 2.0723846711 0)
(-0.0185420169737 1.92196070731 0)
(-0.00529093248061 1.21775218562 0)
(0.0110757135851 2.3297966621 0)
(-0.0102601706187 3.04940599744 0)
(-0.091464391627 2.53376128577 0)
(-0.175420750763 0.458608716282 0)
(-0.184833016799 0.401084471199 0)
(-0.160971488755 0.386653754001 0)
(-0.13866219495 0.3804530656 0)
(-0.127235286774 0.369679712067 0)
(-0.118627338189 0.362190029069 0)
(-0.108805422621 0.363313011536 0)
(-0.0987002098865 0.379483582147 0)
(-0.0894474192086 0.427375935129 0)
(-0.0816725383805 0.541584004702 0)
(-0.0753701140303 0.770797441045 0)
(-0.0710278867019 1.17733496572 0)
(-0.0645925326065 1.50647089138 0)
(-0.0527553772578 1.73082228324 0)
(-0.0372157113912 1.82366727388 0)
(-0.0196743266936 1.65652572815 0)
(-0.00536559728779 1.02851012046 0)
(0.0115362027408 2.39619802724 0)
(-0.00871377065355 3.24837831321 0)
(-0.0845931214649 2.78472735092 0)
(-0.164945743642 0.494111429818 0)
(-0.180164507616 0.415312144542 0)
(-0.163734159166 0.396309626613 0)
(-0.142074613294 0.389184151013 0)
(-0.129187422125 0.377644395648 0)
(-0.119727189709 0.368625776432 0)
(-0.110326989785 0.366282482076 0)
(-0.10077718364 0.376002574643 0)
(-0.0915195063942 0.411981775124 0)
(-0.0832079370479 0.5053145599 0)
(-0.0757774461193 0.709458777732 0)
(-0.0688480230562 1.13663757626 0)
(-0.0615487399866 1.38589903171 0)
(-0.05186389177 1.55122701546 0)
(-0.0375057536385 1.57747881699 0)
(-0.0197407289722 1.39850404981 0)
(-0.00528266956873 0.851547447184 0)
(0.0182951694617 2.44588976662 0)
(0.00656458970441 3.39003324895 0)
(-0.058679892381 3.07598323948 0)
(-0.144764510957 0.616155535389 0)
(-0.17492995401 0.430394780533 0)
(-0.165365670992 0.406117309033 0)
(-0.145053412354 0.398258173675 0)
(-0.131551333601 0.387104904 0)
(-0.121654960741 0.377639773964 0)
(-0.112103508717 0.373019689823 0)
(-0.102433204689 0.377243389687 0)
(-0.0928169565618 0.401139365638 0)
(-0.0834560371211 0.467863145445 0)
(-0.0735489274069 0.622605993545 0)
(-0.0578156316482 0.965737786328 0)
(-0.0464645451202 1.32146827985 0)
(-0.0436583379232 1.44591878868 0)
(-0.0360000192338 1.38306722075 0)
(-0.019957342295 1.15177161061 0)
(-0.00482237314069 0.70651087921 0)
(0.0318422570667 2.42231285262 0)
(0.0356272706651 3.41022601398 0)
(0.0121693441419 3.35798620869 0)
(-0.0727288401634 0.974979807569 0)
(-0.151684652788 0.456285670504 0)
(-0.159551191842 0.421128731418 0)
(-0.138779086826 0.408995247622 0)
(-0.124686299987 0.398575572893 0)
(-0.1147109837 0.388710558722 0)
(-0.10572050735 0.382311307663 0)
(-0.0968764978059 0.381631614733 0)
(-0.0877547794628 0.39389120322 0)
(-0.0782106299608 0.433032075739 0)
(-0.0674923743648 0.524405712722 0)
(-0.0531440879502 0.723295458717 0)
(-0.0428003728354 1.29792567163 0)
(-0.0421009900465 1.43935714784 0)
(-0.045298479399 1.32046496482 0)
(-0.0330253189069 0.803381233546 0)
(-0.00934709815801 0.509312527378 0)
(0.0575070227468 2.21139587086 0)
(0.0955018324838 3.22196157088 0)
(0.120301682523 3.44801714217 0)
(0.0351241663936 1.7499455779 0)
(-0.107062889637 0.608354751146 0)
(-0.146972743793 0.445051816542 0)
(-0.126117900415 0.423931649759 0)
(-0.109316099759 0.412963961818 0)
(-0.0985688459833 0.401441322861 0)
(-0.0907713901276 0.392998712218 0)
(-0.0833843549897 0.387908463612 0)
(-0.0757854117372 0.39029237505 0)
(-0.0674133351545 0.407980823877 0)
(-0.0578157496473 0.453128681647 0)
(-0.0463222584271 0.555798249955 0)
(-0.0179473225117 0.974654235509 0)
(0.00189813125001 1.49335807019 0)
(-0.00630514753803 1.38575742446 0)
(-0.0100917140804 0.564732056854 0)
(-0.00391790839859 0.3516612916 0)
(0.058064533213 1.85616830951 0)
(0.0964188541633 2.90458404583 0)
(0.114232634845 3.38735682396 0)
(0.0819665679501 2.46807838273 0)
(-0.0271713301607 1.00822374807 0)
(-0.120440843805 0.465338391477 0)
(-0.12102705086 0.442230677698 0)
(-0.0916458083969 0.430854960641 0)
(-0.073616003672 0.416049951746 0)
(-0.0655890236923 0.404058430386 0)
(-0.0603594546313 0.394798506135 0)
(-0.055478725378 0.389356127171 0)
(-0.0508511560146 0.391999583439 0)
(-0.0457398755684 0.410969707615 0)
(-0.0377307422264 0.460327798166 0)
(-0.0277007290817 0.591195524906 0)
(-0.00473051860579 1.27397125413 0)
(0.00813228694124 1.49686370697 0)
(-0.000157858286546 0.618537988661 0)
(-0.0015924197018 0.367618716279 0)
(0.053085609668 1.4990493884 0)
(0.0902052462554 2.59903170256 0)
(0.113118575661 3.28857457365 0)
(0.105615961633 2.75780094351 0)
(0.0115565404609 1.60613028879 0)
(-0.105987771239 0.472228809445 0)
(-0.122396564478 0.461922151599 0)
(-0.0789631129976 0.449726587882 0)
(-0.0432439861221 0.433112532237 0)
(-0.0263380369198 0.415115454605 0)
(-0.0204163055791 0.40115464692 0)
(-0.0159018441531 0.389176775082 0)
(-0.013306335166 0.381004091697 0)
(-0.0157689391607 0.381260125977 0)
(-0.021741151973 0.402161929063 0)
(-0.0199428951663 0.468010777052 0)
(-0.00160450376237 0.80757789586 0)
(0.0176441535992 1.4812355862 0)
(0.0149362220791 0.802343624745 0)
(0.00328095414211 0.511105433093 0)
(0.0328943919714 1.24776618193 0)
(0.0475825761028 2.38597570062 0)
(0.0573155893289 3.19076941989 0)
(0.0525211591706 2.90470924589 0)
(0.0158058648211 2.08034616727 0)
(-0.0503721086942 0.490451470559 0)
(-0.0986726741266 0.477461874707 0)
(-0.0788484196295 0.466093475978 0)
(-0.0251335521055 0.45018677409 0)
(0.00490429228523 0.425384822882 0)
(0.016394776097 0.406984913914 0)
(0.0239119509905 0.390145962974 0)
(0.0292454126754 0.375216085426 0)
(0.0295161877337 0.364025892553 0)
(0.0150225106739 0.364058279419 0)
(-0.00328051215919 0.387294833658 0)
(-0.00681549906162 0.530873058805 0)
(0.00894798445032 1.21781498163 0)
(0.015173426567 1.00159289866 0)
(0.00389226916811 0.669774180762 0)
(0.0235531403322 1.12538952505 0)
(0.0336854663174 2.27122825117 0)
(0.0448336364724 3.11912164249 0)
(0.0510531217139 2.9538074015 0)
(0.0511447576499 2.23052544897 0)
(-0.00176601956864 0.754721545363 0)
(-0.0782546626891 0.489856956631 0)
(-0.0725175067996 0.482986504252 0)
(-0.0147512659633 0.46813974056 0)
(0.0223080523198 0.436908258676 0)
(0.038155785641 0.414752362181 0)
(0.0491187405001 0.394735946207 0)
(0.0569707584228 0.376465319926 0)
(0.0605682230227 0.360331312985 0)
(0.0475591906841 0.349136162379 0)
(0.0160354623934 0.349121008076 0)
(-0.00391212002541 0.452302850767 0)
(-0.00483840505003 1.02299485837 0)
(-0.00347065856266 1.05893476804 0)
(-0.00147304533851 0.697281224387 0)
(0.00853198187798 1.11817817596 0)
(-0.00166158243099 2.24646303514 0)
(-0.00654997274599 3.08781632565 0)
(-0.0116787455579 2.97378199192 0)
(-0.0266674606988 2.28267205599 0)
(-0.0499600189237 0.807965179126 0)
(-0.0848963037514 0.505183815429 0)
(-0.0730230968699 0.502631082605 0)
(-0.00898176238305 0.48816589615 0)
(0.0313623346781 0.45062100406 0)
(0.0502148212505 0.424602238032 0)
(0.0634829829507 0.401840737021 0)
(0.0730854798088 0.381375504999 0)
(0.0781219766686 0.363160249713 0)
(0.0653597135051 0.34881906865 0)
(0.0284432751352 0.341041554548 0)
(-0.000358660962558 0.470286166818 0)
(-0.00594829505767 1.00969564716 0)
(-0.00457054116028 1.00412619824 0)
(-0.00166181551938 0.644443363305 0)
(0.00187281257042 1.21055957297 0)
(-0.0117642145095 2.31656058417 0)
(-0.0176325413403 3.101840859 0)
(-0.0150297225865 2.97647861644 0)
(-0.0192971142956 2.29041455877 0)
(-0.0581424317522 0.587154906039 0)
(-0.104338558111 0.518145472818 0)
(-0.0768029508536 0.519783433531 0)
(-0.00606860625652 0.503257803109 0)
(0.0346807549314 0.462561102042 0)
(0.0553479221993 0.432850182492 0)
(0.0700586534363 0.407679314232 0)
(0.0806399522911 0.385627689205 0)
(0.0863651958578 0.366409758367 0)
(0.0732792193839 0.351134094508 0)
(0.0330176096656 0.34243472943 0)
(-0.00658275073443 0.658102400048 0)
(-0.0175072562769 0.958606259318 0)
(-0.0106713105047 0.90692363007 0)
(-0.00332428990664 0.559912270914 0)
(-0.00218194160684 1.33260143147 0)
(-0.0216141854161 2.43895834442 0)
(-0.0377848642065 3.15337969738 0)
(-0.0455615326571 2.95291422883 0)
(-0.0429712287784 2.07963953839 0)
(-0.0729942885331 0.552826331611 0)
(-0.102325035947 0.528845013667 0)
(-0.0580996639383 0.536816375696 0)
(0.00756379483611 0.516155182685 0)
(0.0452950836691 0.473417454821 0)
(0.0659845101312 0.440133037351 0)
(0.0815089019204 0.412887372962 0)
(0.0927369025174 0.389558607363 0)
(0.0982779206585 0.369961707004 0)
(0.0806226597343 0.355578851977 0)
(0.0351412630573 0.343935852321 0)
(0.0029653176006 0.832760089389 0)
(-0.00218311750807 0.916547997621 0)
(-0.00166919079045 0.82482881173 0)
(-0.00048365234099 0.492547345886 0)
(0.00246288697698 1.43045663143 0)
(-0.0070139329833 2.55838240596 0)
(-0.0167220520057 3.23778480368 0)
(-0.0270698403951 2.9659388025 0)
(-0.0555543343525 1.81324307568 0)
(-0.111343509809 0.546810283983 0)
(-0.10738488078 0.543968069363 0)
(-0.0375415760388 0.556361924349 0)
(0.0188402408737 0.531912285692 0)
(0.0542707904752 0.485321291158 0)
(0.0750944456683 0.448945301352 0)
(0.0905783926394 0.419492432214 0)
(0.102414218656 0.394507782782 0)
(0.10482748441 0.373924754466 0)
(0.0686222297163 0.359386363188 0)
(0.0212844163917 0.345565059666 0)
(0.00351055144724 0.858381018364 0)
(-0.000102787235254 0.915645022804 0)
(0.000100684372506 0.807724555853 0)
(0.000173975891556 0.479750511699 0)
)
;

boundaryField
{
    emptyPatch
    {
        type            empty;
    }
    minY
    {
        type            fixedValue;
        value           nonuniform List<vector> 0();
    }
    maxY
    {
        type            zeroGradient;
    }
    maxX
    {
        type            fixedValue;
        value           uniform (0 0 0);
    }
    water_to_heater
    {
        type            fixedValue;
        value           nonuniform List<vector> 0();
    }
    procBoundary2to1
    {
        type            processor;
        value           nonuniform List<vector> 
20
(
(0.0355846871372 2.50012062501 0)
(0.0116359893301 2.39351613063 0)
(-0.0234308912002 2.54480679248 0)
(-0.0481848076581 2.24607849992 0)
(-0.0468786635732 1.67279024776 0)
(-0.00790655615114 1.26353139416 0)
(0.0351465334231 0.807751421438 0)
(0.0602261630219 0.548282954376 0)
(0.0755788809909 0.39064945104 0)
(0.0883452116742 0.321416747242 0)
(0.0995086914994 0.27471491533 0)
(0.103445006228 0.231754284631 0)
(0.0966776120892 0.226744343043 0)
(0.0863929859928 0.306819843023 0)
(0.0778118576002 0.462164082543 0)
(0.0653708474394 0.687101406739 0)
(0.045018420039 0.887107926356 0)
(0.0229988784159 1.00688870491 0)
(0.00841099347361 1.03120874792 0)
(0.00193016813601 0.5902236023 0)
)
;
    }
    procBoundary2to3
    {
        type            processor;
        value           nonuniform List<vector> 
39
(
(0.0055531847537 2.66980669133 0)
(0.00863405403024 2.44516550454 0)
(0.0113349891401 2.27015188797 0)
(0.011082988932 2.12920838131 0)
(0.00808087181912 2.02151897944 0)
(0.00393744351101 1.94951966497 0)
(-0.000862505924471 1.92097368339 0)
(-0.00659402802572 1.94667937001 0)
(-0.0119993668784 2.03043793326 0)
(-0.0156422557366 2.14704026751 0)
(-0.0197278996353 2.25621485047 0)
(-0.0197278996353 2.25621485047 0)
(-0.0235794593332 2.37846486104 0)
(-0.0317488275353 2.54843449219 0)
(-0.0419615632947 2.8782000923 0)
(-0.0350077327974 3.30804590199 0)
(0.00623808978131 3.62592989633 0)
(0.0213409859726 3.7142348797 0)
(0.0266411425118 3.62028688598 0)
(0.0299200461862 3.44992634736 0)
(0.0301846269023 3.23755925298 0)
(0.025730657637 3.02470795871 0)
(0.0261961093396 2.77610763061 0)
(0.0261961093396 2.77610763061 0)
(0.0206968152886 2.61208679379 0)
(0.0176755287943 2.50917887894 0)
(0.0164098245675 2.4434599378 0)
(0.0178952133991 2.38670930336 0)
(0.022543419332 2.3046026513 0)
(0.0295310377191 2.1652105193 0)
(0.0364466537745 1.94581730428 0)
(0.0351519872456 1.67905399905 0)
(0.0309675463069 1.42618985491 0)
(0.0241045358461 1.23090939495 0)
(0.0189954201141 1.11254265447 0)
(0.015563972904 1.06516978127 0)
(0.0103263670755 1.06876897367 0)
(0.00762136341221 1.09381325032 0)
(0.00683028757518 1.11724137785 0)
)
;
    }
}


// ************************************************************************* //
