/*--------------------------------*- C++ -*----------------------------------*\
| =========                 |                                                 |
| \\      /  F ield         | OpenFOAM: The Open Source CFD Toolbox           |
|  \\    /   O peration     | Version:  2312                                  |
|   \\  /    A nd           | Website:  www.openfoam.com                      |
|    \\/     M anipulation  |                                                 |
\*---------------------------------------------------------------------------*/
FoamFile
{
    version     2.0;
    format      ascii;
    arch        "LSB;label=32;scalar=64";
    class       volScalarField;
    location    "75";
    object      alphat.water;
}
// * * * * * * * * * * * * * * * * * * * * * * * * * * * * * * * * * * * * * //

dimensions      [1 -1 -1 0 0 0 0];

internalField   nonuniform List<scalar> 
1875
(
0.745247
0.843292
0.948188
1.03756
1.11508
1.1781
1.22916
1.26999
1.30369
1.33251
1.35787
1.37917
1.39715
1.41328
1.42142
1.42242
1.41369
1.3896
1.3447
1.27916
1.1924
1.08255
0.939988
0.739142
0.48024
0.988485
1.15929
1.29684
1.39186
1.45333
1.49063
1.51399
1.52531
1.52782
1.52325
1.51663
1.50621
1.49539
1.48573
1.478
1.47471
1.47247
1.45775
1.43519
1.38435
1.30571
1.19912
1.05435
0.865206
0.658852
1.39535
1.59693
1.72779
1.79966
1.83129
1.83664
1.82482
1.80292
1.77437
1.74176
1.70817
1.67409
1.64014
1.61031
1.5831
1.55543
1.527
1.49739
1.46633
1.41986
1.34754
1.25089
1.12293
0.970486
0.826661
1.84568
1.99115
2.04864
2.05591
2.03408
1.99645
1.95127
1.90461
1.86083
1.81896
1.77887
1.73855
1.69833
1.65879
1.61974
1.58106
1.54235
1.50309
1.4627
1.41011
1.33852
1.24946
1.14065
1.01569
0.893774
2.22991
2.25747
2.23021
2.17559
2.10647
2.03389
1.96489
1.90303
1.84933
1.80255
1.76029
1.72054
1.68132
1.64156
1.60215
1.56305
1.52345
1.48475
1.4399
1.3845
1.31767
1.2368
1.14143
1.04106
0.938669
2.4363
2.43391
2.34965
2.23528
2.11394
2.0016
1.90671
1.8306
1.77125
1.72474
1.68546
1.64954
1.6152
1.58172
1.54766
1.51146
1.47483
1.43837
1.39233
1.33985
1.27891
1.20603
1.12124
1.02719
0.92265
2.70374
2.60734
2.43967
2.26015
2.09019
1.94335
1.82416
1.73351
1.66878
1.6232
1.58735
1.55574
1.52701
1.49955
1.47138
1.44306
1.41715
1.38301
1.34131
1.29228
1.23691
1.17031
1.09758
1.01965
0.935472
2.99599
2.77833
2.51757
2.27233
2.05974
1.87888
1.73907
1.6391
1.57421
1.535
1.49971
1.47025
1.44909
1.43029
1.41046
1.39343
1.36732
1.33445
1.29637
1.2543
1.20554
1.14598
1.08238
1.01114
0.930655
3.31041
2.94192
2.58445
2.28341
2.03299
1.82216
1.66714
1.56372
1.5078
1.47028
1.44808
1.43601
1.42518
1.41304
1.40003
1.38211
1.36148
1.33751
1.30775
1.27013
1.22321
1.16746
1.1049
1.03543
0.960339
3.50723
3.03004
2.61595
2.28898
2.02054
1.80403
1.65288
1.55882
1.51201
1.49027
1.47842
1.47559
1.47522
1.475
1.47319
1.46652
1.4536
1.43306
1.40407
1.36489
1.3169
1.25912
1.19145
1.11341
1.02999
3.47083
2.99818
2.60239
2.28821
2.0299
1.82411
1.68374
1.604
1.57228
1.56894
1.57855
1.59308
1.60919
1.62243
1.63179
1.63348
1.62557
1.60805
1.57899
1.53782
1.48419
1.41767
1.33848
1.24707
1.15293
3.21365
2.87005
2.55327
2.2847
2.05952
1.87934
1.75931
1.69701
1.68212
1.69579
1.72219
1.75199
1.78158
1.80684
1.82426
1.83206
1.83023
1.81588
1.78769
1.74446
1.68501
1.60835
1.51488
1.40044
1.28032
2.91192
2.70815
2.48698
2.27963
2.09606
1.9478
1.85018
1.80448
1.80171
1.8266
1.86444
1.90526
1.94502
1.97979
2.00611
2.02285
2.02898
2.02133
1.99836
1.95797
1.89746
1.81418
1.70541
1.56707
1.40946
2.71454
2.59007
2.43795
2.28314
2.1393
2.02135
1.94358
1.90984
1.91298
1.94208
1.98502
2.0319
2.07845
2.12109
2.15722
2.18383
2.20068
2.20466
2.19342
2.16437
2.11407
2.03852
1.93305
1.79004
1.60878
2.66803
2.55422
2.42971
2.30547
2.19091
2.09652
2.03306
2.00576
2.01025
2.03756
2.07911
2.12727
2.17727
2.22538
2.26876
2.30568
2.33398
2.35259
2.35774
2.34599
2.31435
2.25963
2.17879
2.06613
1.91037
2.64835
2.54844
2.44482
2.34415
2.2508
2.17251
2.11729
2.09201
2.09363
2.11651
2.15398
2.19992
2.24967
2.30009
2.34862
2.39284
2.43056
2.45955
2.47817
2.48343
2.47112
2.43712
2.37891
2.29767
2.19208
2.64785
2.56192
2.47794
2.39613
2.31855
2.25229
2.20207
2.17474
2.17001
2.18504
2.21534
2.25625
2.30371
2.35431
2.40594
2.45625
2.50281
2.54289
2.57317
2.58985
2.58924
2.568
2.52141
2.44957
2.35297
2.66798
2.5825
2.51208
2.44738
2.38717
2.3326
2.28637
2.25611
2.24404
2.24973
2.27094
2.30454
2.34741
2.39649
2.44948
2.50452
2.55872
2.60912
2.65207
2.68295
2.6966
2.68677
2.64707
2.57772
2.47851
2.53242
2.5158
2.48925
2.45656
2.42202
2.38661
2.3513
2.32454
2.30952
2.30819
2.32116
2.3476
2.38565
2.43259
2.48615
2.5452
2.60642
2.66671
2.72212
2.76763
2.79698
2.80405
2.77981
2.72182
2.63074
2.23986
2.34401
2.39249
2.41083
2.41009
2.40055
2.38501
2.36883
2.35799
2.35584
2.3654
2.38716
2.42108
2.46544
2.52028
2.58336
2.6516
2.72177
2.78978
2.8504
2.89711
2.92275
2.91955
2.88273
2.81689
2.2257
2.2951
2.34479
2.37897
2.3972
2.40418
2.4041
2.39968
2.39518
2.39538
2.40439
2.42479
2.45707
2.49955
2.55636
2.62383
2.69936
2.77959
2.86032
2.93625
3.00079
3.04635
3.06472
3.05043
3.00305
2.17574
2.26622
2.33441
2.38148
2.41038
2.42687
2.4351
2.43877
2.44073
2.44405
2.45147
2.46913
2.50104
2.54417
2.60263
2.67445
2.75701
2.847
2.94018
3.03138
3.11428
3.18193
3.22594
3.24486
3.23909
2.15829
2.28558
2.38226
2.44913
2.49162
2.51379
2.52285
2.52465
2.52399
2.52576
2.53259
2.54666
2.5731
2.61597
2.67466
2.74835
2.83563
2.93333
3.0372
3.14214
3.24204
3.33035
3.39924
3.44565
3.46941
2.254
2.40711
2.52639
2.6101
2.66068
2.68606
2.69163
2.68659
2.67689
2.66803
2.6658
2.67304
2.69267
2.72932
2.78379
2.85687
2.94596
3.04841
3.16028
3.27673
3.39222
3.50095
3.59667
3.68141
3.75612
2.44658
2.63149
2.77145
2.8675
2.92389
2.94711
2.94585
2.9281
2.90352
2.87953
2.86238
2.85687
2.86655
2.89444
2.94252
3.01037
3.09734
3.20092
3.31711
3.44143
3.56868
3.69342
3.81037
3.923
4.02487
2.76968
2.97495
3.1208
3.21589
3.26686
3.28066
3.26698
3.23373
3.19168
3.14981
3.11557
3.09472
3.0913
3.10858
3.14804
3.20956
3.2924
3.3943
3.51183
3.641
3.77742
3.91702
4.05689
4.20413
4.35523
3.29678
3.46338
3.57385
3.64336
3.67194
3.66585
3.63331
3.58216
3.52237
3.46315
3.41258
3.37694
3.36067
3.3671
3.39746
3.45159
3.5288
3.62719
3.74355
3.8746
4.01657
4.16578
4.3195
4.48268
4.64692
3.95208
4.04177
4.09024
4.11434
4.10836
4.07492
4.02001
3.95082
3.87563
3.80246
3.73896
3.69161
3.66508
3.66239
3.68486
3.73227
3.80387
3.89766
4.01103
4.14133
4.28577
4.44209
4.60923
4.79383
4.99307
4.65025
4.63335
4.609
4.58172
4.53929
4.47969
4.40568
4.32213
4.23565
4.15314
4.08155
4.0268
3.9933
3.98411
4.00029
4.04165
4.1073
4.19557
4.30426
4.43113
4.57399
4.73103
4.90091
5.08732
5.28267
5.17098
5.10933
5.05218
4.9996
4.93718
4.86239
4.77698
4.68521
4.59279
4.50593
4.43071
4.37244
4.33523
4.32175
4.33288
4.36873
4.42838
4.5104
4.613
4.73443
4.8732
5.02862
5.20074
5.39471
5.60796
5.51374
5.47401
5.42353
5.36883
5.30107
5.22101
5.13147
5.03707
4.94333
4.85588
4.7803
4.72129
4.68249
4.66619
4.67308
4.70339
4.75641
4.83085
4.92524
5.03808
5.16829
5.31574
5.48084
5.6682
5.8749
5.87194
5.82916
5.7767
5.71886
5.64781
5.56528
5.47442
5.37999
5.28727
5.2015
5.12732
5.06853
5.02888
5.00994
5.0126
5.03686
5.08215
5.14734
5.23102
5.33176
5.44863
5.58178
5.7304
5.89667
6.07823
6.23599
6.18427
6.12569
6.06282
5.98792
5.90296
5.81116
5.71718
5.62584
5.54174
5.46894
5.41067
5.37002
5.34806
5.3457
5.36302
5.39932
5.45364
5.52459
5.61075
5.71138
5.8258
5.95144
6.08565
6.21911
6.59083
6.53762
6.47471
6.40688
6.32755
6.23937
6.14591
6.05161
5.96073
5.87717
5.80446
5.74626
5.70372
5.67779
5.66935
5.67844
5.70451
5.74663
5.80365
5.87484
5.96008
6.0599
6.17446
6.30507
6.45086
6.98772
6.91444
6.83643
6.75847
6.67186
6.57853
6.48192
6.38591
6.29414
6.20998
6.13661
6.07625
6.03
5.99859
5.98266
5.98211
5.99635
6.02446
6.06554
6.11897
6.18446
6.26258
6.35359
6.45626
6.56636
7.39132
7.30116
7.20656
7.11635
7.02078
6.921
6.82003
6.72121
6.62758
6.54175
6.46615
6.40159
6.34998
6.3117
6.28694
6.27543
6.27641
6.28884
6.31168
6.34403
6.38541
6.43565
6.49471
6.55961
6.62655
7.81851
7.70066
7.58529
7.47965
7.3733
7.26604
7.15986
7.05722
6.96049
6.87169
6.79202
6.72296
6.66535
6.61954
6.58536
6.56232
6.54945
6.54554
6.54925
6.55931
6.57432
6.59284
6.61318
6.62868
6.63111
8.21075
8.08459
7.95769
7.84074
7.72539
7.61135
7.49998
7.39319
7.29276
7.20016
7.11648
7.04254
6.97884
6.92554
6.8823
6.84837
6.82263
6.8037
6.79014
6.78024
6.77203
6.76318
6.75112
6.72704
6.68079
8.62383
8.47499
8.33145
8.20166
8.07704
7.95627
7.83977
7.72882
7.62468
7.52838
7.44068
7.36209
7.29286
7.23291
7.18187
7.13878
7.10252
7.07171
7.04486
7.02023
6.99569
6.96871
6.93681
6.89135
6.82173
8.99713
8.84479
8.69389
8.55599
8.42461
8.29851
8.17771
8.06315
7.95575
7.85621
7.76505
7.68257
7.60886
7.54371
7.48665
7.43681
7.39304
7.3542
7.31886
7.28543
7.25206
7.2165
7.17655
7.12564
7.0536
9.38718
9.21639
9.05296
8.90578
8.76782
8.63697
8.51254
8.39502
8.28502
8.18297
8.0892
8.00387
7.92697
7.85824
7.79721
7.74306
7.69482
7.65146
7.61196
7.57504
7.53911
7.50121
7.46015
7.41156
7.3436
9.72993
9.5613
9.39544
9.24427
9.10269
8.96891
8.84211
8.72266
8.61095
8.5073
8.41189
8.32482
8.24602
8.17525
8.11209
8.05582
8.0057
7.96096
7.92082
7.88385
7.84871
7.81385
7.77813
7.74058
7.68856
10.0858
9.90384
9.73028
9.57395
9.42907
9.29316
9.16499
9.04448
8.93183
8.82739
8.73128
8.64355
8.56383
8.49219
8.42823
8.37135
8.32096
8.27658
8.23768
8.20348
8.17327
8.1456
8.1197
8.09764
8.06595
10.3884
10.2154
10.0447
9.88853
9.74331
9.60715
9.47876
9.35812
9.24542
9.14108
9.04517
8.95733
8.87749
8.80582
8.74194
8.68533
8.63568
8.59221
8.55454
8.52364
8.49943
8.47993
8.46611
8.4626
8.4603
10.7084
10.5256
10.35
10.192
10.0459
9.90944
9.7809
9.66092
9.54952
9.44615
9.35065
9.2631
9.18439
9.11333
9.04967
8.99357
8.9441
8.90141
8.86535
8.83568
8.81208
8.79491
8.78439
8.7841
8.78721
10.9861
10.8081
10.6355
10.4787
10.3339
10.1985
10.072
9.95363
9.84329
9.74075
9.64601
9.55997
9.48179
9.41127
9.34826
9.29192
9.24225
9.19978
9.16435
9.13443
9.10966
9.0893
9.07297
9.06255
9.0507
11.2603
11.0765
10.9037
10.7484
10.6065
10.4741
10.3501
10.2337
10.1249
10.0237
9.93108
9.84602
9.76796
9.69798
9.63575
9.57996
9.53139
9.48877
9.45173
9.42069
9.39489
9.37179
9.3509
9.33349
9.31325
11.4444
11.2964
11.1422
10.9979
10.862
10.7344
10.6132
10.4996
10.3937
10.2956
10.2046
10.1205
10.0445
9.97551
9.91332
9.8587
9.81033
9.7678
9.73089
9.69947
9.6729
9.65125
9.63304
9.6213
9.61556
11.7254
11.5535
11.3915
11.2453
11.1104
10.9845
10.8667
10.756
10.6523
10.5558
10.466
10.3843
10.3095
10.2415
10.18
10.125
10.0758
10.0333
9.99723
9.96632
9.9405
9.91966
9.90343
9.89485
9.89501
11.9338
11.7716
11.6159
11.4741
11.344
11.2222
11.1075
10.9995
10.898
10.8032
10.7159
10.6353
10.561
10.4936
10.4332
10.3784
10.3302
10.2873
10.2496
10.2179
10.1918
10.17
10.1527
10.1425
10.1401
12.098
11.9611
11.8199
11.6878
11.5631
11.4461
11.3346
11.2293
11.1308
11.0391
10.9535
10.8738
10.8012
10.7349
10.6746
10.6205
10.5721
10.5289
10.4908
10.4576
10.4289
10.4052
10.385
10.3703
10.3604
12.3254
12.176
12.0316
11.8993
11.7763
11.6608
11.5524
11.4501
11.3538
11.2635
11.1789
11.1013
11.0294
10.9641
10.9042
10.85
10.8007
10.757
10.7189
10.685
10.6554
10.6302
10.6091
10.5945
10.5869
12.5311
12.3749
12.2291
12.0978
11.9778
11.8653
11.7589
11.659
11.5646
11.4756
11.3934
11.3169
11.2459
11.1803
11.121
11.0673
11.0184
10.974
10.9339
10.8987
10.868
10.8405
10.8156
10.7948
10.7795
12.6325
12.521
12.3978
12.2789
12.165
12.0573
11.9539
11.8555
11.7629
11.6765
11.5954
11.5195
11.45
11.3857
11.3267
11.2726
11.224
11.1796
11.1393
11.1031
11.0704
11.042
11.0165
10.9958
10.9814
12.8755
12.7286
12.591
12.4661
12.3504
12.2418
12.1398
12.0429
11.9513
11.8653
11.7845
11.71
11.6408
11.5777
11.5194
11.4657
11.4165
11.3723
11.3328
11.2966
11.2636
11.2336
11.2061
11.1809
11.1531
13.032
12.8945
12.7605
12.6367
12.5225
12.4149
12.3127
12.2167
12.1257
12.04
11.9607
11.887
11.8184
11.7551
11.6978
11.6459
11.5984
11.555
11.5156
11.4801
11.4488
11.4206
11.3968
11.3797
11.3746
13.1591
13.0399
12.9144
12.795
12.6815
12.5746
12.4724
12.3752
12.2842
12.1995
12.1204
12.0467
11.9796
11.918
11.8619
11.8109
11.7653
11.724
11.6867
11.6535
11.6235
11.5975
11.5743
11.5559
11.5449
13.3473
13.2105
13.0759
12.9502
12.8323
12.7212
12.6169
12.5183
12.4259
12.3399
12.2599
12.1871
12.1204
12.0605
12.0063
11.9574
11.9138
11.8757
11.8428
11.814
11.7885
11.7664
11.7465
11.7294
11.713
13.5357
13.3807
13.2309
13.0933
12.9671
12.8496
12.7395
12.6375
12.5425
12.4546
12.3748
12.3021
12.2361
12.1773
12.1256
12.0807
12.042
12.0087
11.9807
11.9576
11.9396
11.925
11.9135
11.9025
11.8876
13.6661
13.5138
13.3573
13.2104
13.074
12.9486
12.8321
12.7244
12.626
12.537
12.4562
12.3834
12.3194
12.2638
12.2157
12.1749
12.1411
12.114
12.0934
12.0799
12.0724
12.0716
12.0771
12.0908
12.1134
13.8379
13.6485
13.465
13.2976
13.1454
13.0072
12.8822
12.7689
12.6671
12.576
12.4946
12.4236
12.3618
12.3089
12.2644
12.2281
12.1998
12.1805
12.1702
12.1679
12.1736
12.1875
12.2081
12.2349
12.2642
13.9508
13.7379
13.5252
13.3314
13.1591
13.0066
12.8718
12.7535
12.6499
12.5586
12.4794
12.4109
12.3518
12.3015
12.2609
12.2297
12.2085
12.197
12.1962
12.2066
12.2299
12.266
12.3147
12.3746
12.4393
14.0881
13.7945
13.5199
13.2843
13.0857
12.9194
12.7792
12.6607
12.5599
12.4744
12.4007
12.3369
12.2826
12.2371
12.1998
12.1712
12.1523
12.1447
12.1506
12.1735
12.2153
12.2786
12.3648
12.4726
12.5885
14.1096
13.7063
13.358
13.0825
12.8681
12.7021
12.5723
12.4691
12.3853
12.3156
12.2557
12.203
12.1557
12.1132
12.0754
12.0432
12.0187
12.0054
12.0076
12.0307
12.0819
12.1701
12.3048
12.4952
12.7368
13.8841
13.3163
12.9017
12.6216
12.4355
12.3122
12.2293
12.1713
12.1277
12.0909
12.0568
12.022
11.9846
11.9437
11.9002
11.8552
11.8112
11.7721
11.744
11.7355
11.7597
11.8348
11.9853
12.2427
12.6258
12.7939
12.2229
11.9204
11.7871
11.7458
11.7508
11.7756
11.8049
11.8297
11.8452
11.8482
11.8374
11.8119
11.7717
11.7167
11.6476
11.566
11.4745
11.3778
11.2841
11.2065
11.169
11.2107
11.3983
11.822
10.0999
10.1582
10.3961
10.6717
10.9306
11.1538
11.3368
11.4811
11.5893
11.664
11.7076
11.7218
11.7078
11.6661
11.5965
11.4986
11.371
11.2121
11.0195
10.7908
10.5266
10.232
9.92627
9.65721
9.55828
6.379
7.89702
9.01545
9.80389
10.3732
10.7925
11.1042
11.3356
11.5041
11.6208
11.6927
11.7243
11.7182
11.6755
11.5959
11.478
11.3185
11.111
10.8448
10.5046
10.0693
9.5035
8.73613
7.64092
6.14864
9.3334
9.64722
10.0289
10.41
10.7741
11.1014
11.3775
11.5996
11.7705
11.8937
11.9723
12.0092
12.0063
11.9645
11.884
11.7649
11.606
11.4041
11.1549
10.859
10.5298
10.1961
9.86073
9.53081
9.31952
21.3762
13.9043
12.0469
11.4864
11.4174
11.5568
11.754
11.9434
12.1008
12.2188
12.2957
12.3322
12.3299
12.2894
12.2117
12.0975
11.9469
11.7608
11.5472
11.3374
11.2083
11.3097
11.9114
13.8156
21.1899
51.3113
22.9224
15.1933
12.9611
12.3043
12.1694
12.2474
12.3894
12.5238
12.6272
12.6942
12.7244
12.7206
12.6827
12.6124
12.5112
12.3798
12.2243
12.0697
11.9919
12.1521
12.8686
15.2549
23.5479
54.934
59.5256
31.1821
18.3943
13.9119
12.6966
12.331
12.1838
11.9784
11.7904
11.6667
11.5501
11.4288
11.3748
11.401
11.474
11.5001
11.4588
11.405
11.4174
11.5854
11.9655
13.3591
17.3297
30.7871
60.9675
44.3127
27.052
16.9357
12.0902
10.3233
9.39916
8.24794
6.81933
5.78368
5.26328
4.76261
4.15784
3.83201
3.8486
4.09795
4.37838
4.48785
4.53942
4.70274
5.31596
7.16001
10.6513
16.2567
25.5796
40.6192
23.4673
17.9158
9.71328
6.10341
4.96825
4.48873
3.63479
1.85036
0.873502
0.506694
0.275921
0.123168
0.0955638
0.0931741
0.10809
0.13289
0.178467
0.231382
0.321032
0.568521
1.48442
4.08566
10.4551
19.096
23.5857
10.4932
9.04988
4.08829
1.54545
1.03854
0.938608
0.742134
0.221254
0.057343
0.0205414
0.00311719
0.000855133
0.000997886
0.00120241
0.00172552
0.00473407
0.0213118
0.0949539
0.218249
0.426064
0.852731
2.20283
6.38881
11.1353
10.9767
)
;

boundaryField
{
    inlet
    {
        type            calculated;
        value           nonuniform List<scalar> 
25
(
0.000866617
0.000866617
0.000866617
0.000866617
0.000866617
0.000866617
0.000866617
0.000866617
0.000866617
0.000866617
0.000866617
0.000866617
0.000866617
0.000866617
0.000866617
0.000866617
0.000866617
0.000866617
0.000866617
0.000866617
0.000866617
0.000866617
0.000866617
0.000866617
0.000866617
)
;
    }
    outlet
    {
        type            calculated;
        value           nonuniform List<scalar> 
25
(
0.000866612
0.000866612
0.000866612
0.000866612
0.000866612
0.000866612
0.000866612
0.000866612
0.000866612
0.000866612
0.000866612
0.000866612
0.000866612
0.000866612
0.000866612
0.000866612
0.000866612
0.000866612
0.000866612
0.000866612
0.000866612
0.000866612
0.000866612
11.1353
10.9767
)
;
    }
    walls
    {
        type            compressible::alphatWallFunction;
        value           nonuniform List<scalar> 
150
(
0.0203744
0.0237033
0.0245146
0.0247928
0.0250906
0.0256241
0.0261961
0.0267497
0.0271526
0.0273974
0.0275474
0.0275199
0.0274625
0.0273918
0.027332
0.0273309
0.0273603
0.0273819
0.0273797
0.0272981
0.0270531
0.0269381
0.0270633
0.0274445
0.0280385
0.0287545
0.0295033
0.0302119
0.0308503
0.0314178
0.0319285
0.032398
0.0328432
0.0332693
0.0336662
0.0340301
0.0343712
0.0346978
0.0350093
0.0353081
0.0355934
0.0358673
0.0361287
0.0363797
0.0366201
0.0368503
0.0370672
0.0372764
0.0374749
0.0376634
0.0378465
0.0380229
0.0381917
0.0383598
0.0385244
0.0386878
0.038855
0.0390275
0.0392071
0.0394011
0.039615
0.0398575
0.0401359
0.0404661
0.0408721
0.0414056
0.0421578
0.0432304
0.043403
0.0428763
0.0411865
0.0392271
0.0370298
0.0339942
0.0308716
0.0162265
0.0200911
0.0214235
0.0220834
0.0224292
0.0225769
0.0225363
0.0224953
0.0225721
0.0230058
0.0238508
0.0247494
0.0254516
0.0259383
0.0263369
0.0266891
0.0269834
0.0272563
0.0275408
0.0278526
0.028191
0.0285312
0.0288622
0.029182
0.029507
0.0298343
0.0301774
0.0305348
0.0309045
0.031273
0.0316291
0.0319728
0.0322962
0.0325917
0.0328813
0.0331632
0.0334443
0.0337331
0.0340339
0.0343465
0.0346701
0.0349945
0.0353085
0.035615
0.0359148
0.0362013
0.0364689
0.0367081
0.0369272
0.0371387
0.037342
0.0375374
0.0377271
0.0379086
0.0380879
0.0382667
0.0384455
0.0386296
0.0388232
0.0390299
0.0392596
0.0395185
0.0398176
0.0401739
0.040616
0.0411953
0.04201
0.0431718
0.043374
0.0428446
0.0411092
0.0392848
0.0377595
0.0362832
0.0341213
)
;
    }
    defaultFaces
    {
        type            empty;
    }
}


// ************************************************************************* //
