/*--------------------------------*- C++ -*----------------------------------*\
| =========                 |                                                 |
| \\      /  F ield         | OpenFOAM: The Open Source CFD Toolbox           |
|  \\    /   O peration     | Version:  2312                                  |
|   \\  /    A nd           | Website:  www.openfoam.com                      |
|    \\/     M anipulation  |                                                 |
\*---------------------------------------------------------------------------*/
FoamFile
{
    version     2.0;
    format      ascii;
    arch        "LSB;label=32;scalar=64";
    class       volVectorField;
    location    "0.05/water";
    object      U.gas;
}
// * * * * * * * * * * * * * * * * * * * * * * * * * * * * * * * * * * * * * //

dimensions      [0 1 -1 0 0 0 0];

internalField   nonuniform List<vector> 
750
(
(0.00730701933194 0.0286534248255 0)
(0.0143504954555 0.084408658573 0)
(0.01382590361 0.139289740552 0)
(0.0133141373451 0.191701551447 0)
(0.0128178252793 0.239966538292 0)
(0.0123592977864 0.28252627279 0)
(0.0119808370061 0.318070565563 0)
(0.0116896602333 0.345641975514 0)
(0.0115019981043 0.364831990699 0)
(0.0114503338976 0.377458890086 0)
(0.0115557750565 0.384853031801 0)
(0.0118133017645 0.390658134623 0)
(0.0121702648765 0.397580598388 0)
(0.0125393032187 0.406443210687 0)
(0.0128213444242 0.415045450255 0)
(0.0128712088995 0.424044311322 0)
(0.0125096925723 0.433831292905 0)
(0.011671441392 0.457563961781 0)
(0.0103575541187 0.504295424996 0)
(0.00881059507082 0.587522984401 0)
(0.0119827987199 0.0256008099287 0)
(0.0235167848803 0.0759991223164 0)
(0.0226145315677 0.125671739373 0)
(0.0217290619335 0.172705193186 0)
(0.0208899051354 0.215167002959 0)
(0.0201169488359 0.251280819974 0)
(0.019435663559 0.279395955727 0)
(0.0188601848943 0.297933854518 0)
(0.0184025629919 0.304477770863 0)
(0.0181401607569 0.294770415815 0)
(0.0181074204245 0.283616081613 0)
(0.0182631610427 0.272728400818 0)
(0.0186046823883 0.267830059724 0)
(0.0190455394113 0.281011247958 0)
(0.0193258459739 0.313272452935 0)
(0.0194296711 0.338742257824 0)
(0.019508782396 0.372800878101 0)
(0.0194528157331 0.426951769073 0)
(0.0191722277296 0.500313378266 0)
(0.0186342046194 0.596471589275 0)
(0.0212857837602 0.0227268715055 0)
(0.041776643587 0.0684427207953 0)
(0.0402274046516 0.113788692922 0)
(0.0387847924684 0.156376729059 0)
(0.0374969582886 0.194119097048 0)
(0.0364386269348 0.225176147733 0)
(0.0357129645459 0.247837165609 0)
(0.0353735526135 0.260616682758 0)
(0.0352612682036 0.262731563004 0)
(0.0349005005826 0.242706770002 0)
(0.0339261846353 0.220078699588 0)
(0.0324567584881 0.195285097286 0)
(0.0307182773363 0.174997686433 0)
(0.0288177696435 0.17304192125 0)
(0.0271889460758 0.193228420254 0)
(0.0263797737796 0.207939853553 0)
(0.0266249353628 0.233885544763 0)
(0.0276694887947 0.30180263017 0)
(0.0281548938126 0.446639672753 0)
(0.0275867180042 0.568024558914 0)
(0.0167416583525 0.0222695602341 0)
(0.0328308950175 0.0661581388169 0)
(0.0315380344348 0.109042680551 0)
(0.0302818801646 0.148935530085 0)
(0.0290577344588 0.18396248266 0)
(0.0278528052541 0.212457853622 0)
(0.0266780281692 0.232954381474 0)
(0.0255375091818 0.244437529793 0)
(0.0244296831487 0.247237609197 0)
(0.023331289493 0.23553463183 0)
(0.0222938855262 0.211633274234 0)
(0.0215305535191 0.182545798755 0)
(0.0212201811847 0.155658097147 0)
(0.0209600955096 0.137228775038 0)
(0.0201518411606 0.129062144676 0)
(0.018815927609 0.129327641696 0)
(0.0170852362846 0.140519993892 0)
(0.0154067747302 0.205961289699 0)
(0.0144927531594 0.407508123309 0)
(0.0142276501263 0.542292950237 0)
(0.0506365382523 0.0225728401295 0)
(0.0995667329854 0.0656013368383 0)
(0.0961351580465 0.106990300484 0)
(0.0926560180847 0.145278198742 0)
(0.0890862971766 0.17893327671 0)
(0.0854257273627 0.206614368684 0)
(0.0817461794407 0.227191264973 0)
(0.0781079571972 0.239809051532 0)
(0.0745595794409 0.243367059609 0)
(0.0712095877451 0.237539609707 0)
(0.0681898890832 0.220612350836 0)
(0.0655333214768 0.199049231387 0)
(0.0630618300625 0.179906540886 0)
(0.0603879256189 0.168929367182 0)
(0.0571628987503 0.169036453014 0)
(0.0532648980389 0.180174947632 0)
(0.0486161796754 0.207767554747 0)
(0.0432298754613 0.277095047369 0)
(0.0383856833061 0.421536669049 0)
(0.0353573232623 0.543086031776 0)
(0.0416239693855 0.021608064134 0)
(0.0818429081405 0.0627303158041 0)
(0.0789808901005 0.102373845105 0)
(0.0760224253955 0.1390583457 0)
(0.0729709643802 0.171424560762 0)
(0.0697907068817 0.198391436564 0)
(0.0663856629022 0.219072838037 0)
(0.0627017205593 0.232712883656 0)
(0.0589004364292 0.238758531576 0)
(0.0553597129409 0.236968928006 0)
(0.0524062936186 0.228788248243 0)
(0.0499756480036 0.217396891591 0)
(0.0477494280748 0.207146691223 0)
(0.0455472533549 0.203764153289 0)
(0.0433264783427 0.212781344858 0)
(0.0410289763485 0.240787545974 0)
(0.038649876325 0.289280889691 0)
(0.0362811356571 0.364965634426 0)
(0.0340029717613 0.455813921251 0)
(0.0319446387505 0.560070029885 0)
(0.0324085049669 0.0203975833851 0)
(0.0636693675514 0.0595390014484 0)
(0.061326485317 0.0973367388466 0)
(0.0589006010957 0.132324840293 0)
(0.0564164888936 0.163244604746 0)
(0.0539116474556 0.189170652874 0)
(0.0514133516136 0.209364054789 0)
(0.0489386941923 0.223167267137 0)
(0.0465424165692 0.22993319537 0)
(0.0443112458535 0.229118653056 0)
(0.0423088741509 0.220375919508 0)
(0.0405650554002 0.203664175044 0)
(0.0390340861986 0.188542123957 0)
(0.037623929224 0.180260945111 0)
(0.0363175627829 0.184033434645 0)
(0.0351586329021 0.210154765623 0)
(0.0338851844899 0.282324500118 0)
(0.0324387184386 0.361285542196 0)
(0.0310767097561 0.451733242412 0)
(0.0297094556901 0.554689592177 0)
(0.0223387216547 0.019229401614 0)
(0.0438384741175 0.0565092600246 0)
(0.0421409644208 0.0924870400904 0)
(0.040419882668 0.125640845199 0)
(0.0386829579681 0.154827520731 0)
(0.0369435279491 0.179247701454 0)
(0.0352503940885 0.198260077635 0)
(0.0336710166398 0.211232831892 0)
(0.0322994807307 0.217367785714 0)
(0.0312638898175 0.215519695313 0)
(0.0306975456629 0.204264810132 0)
(0.0305803767176 0.182273141724 0)
(0.0305555361798 0.162515503224 0)
(0.0299658799101 0.148354615875 0)
(0.0283839805859 0.143719094611 0)
(0.0260189671172 0.155670867895 0)
(0.0240056435395 0.20927237336 0)
(0.0232265077991 0.270438505582 0)
(0.0231050758745 0.384187730433 0)
(0.0228224986638 0.512283755357 0)
(0.0147723056835 0.0189909346653 0)
(0.0289539625801 0.0551764115414 0)
(0.0277462290704 0.0895360268447 0)
(0.0265136112599 0.120830537358 0)
(0.0252766404572 0.148122738331 0)
(0.0240370620978 0.170759861528 0)
(0.0228123895636 0.188230100408 0)
(0.0216210981891 0.200003890612 0)
(0.020477389653 0.205395040697 0)
(0.0193869605559 0.203307576877 0)
(0.0183505870559 0.192383466965 0)
(0.0173874141508 0.171657272152 0)
(0.0165603253297 0.152898620387 0)
(0.0158614392414 0.140026898158 0)
(0.0148946538461 0.13576236074 0)
(0.0134086523514 0.140492185503 0)
(0.0117969791471 0.153091264363 0)
(0.0108020619749 0.186021095376 0)
(0.0112657430069 0.300419432435 0)
(0.0125290762565 0.456102232576 0)
(0.0147723325926 0.0189950896612 0)
(0.0289448175696 0.05402199671 0)
(0.027708597549 0.0864987959744 0)
(0.0264334774222 0.115634727697 0)
(0.0251509934682 0.140701440416 0)
(0.0238736038905 0.161159435503 0)
(0.0226267163271 0.176602036308 0)
(0.0214255572688 0.186803457899 0)
(0.0202711376833 0.191402777181 0)
(0.0191455225479 0.19015679974 0)
(0.0180104752729 0.182590756572 0)
(0.0167815852115 0.168105470397 0)
(0.0153757396414 0.153547096901 0)
(0.0137734170392 0.141491044886 0)
(0.0119386401932 0.139927162513 0)
(0.00995876762078 0.145902691454 0)
(0.00810301000088 0.158256706492 0)
(0.00663653756603 0.187088359016 0)
(0.00613767374577 0.273695427663 0)
(0.00689961841444 0.428464436141 0)
(0.020861177028 0.0175804682114 0)
(0.0409406223251 0.0497790756569 0)
(0.0393486013441 0.079326300636 0)
(0.0377223968498 0.105467087312 0)
(0.0360852834552 0.127531603401 0)
(0.0344600184192 0.144974698597 0)
(0.0328876420574 0.157343459693 0)
(0.0314059730157 0.164252363905 0)
(0.0300409566612 0.166702200361 0)
(0.028800287743 0.164794648217 0)
(0.027661521607 0.159925878524 0)
(0.0265714360696 0.153569993669 0)
(0.025458463412 0.146648068693 0)
(0.0242284400423 0.142107483928 0)
(0.0228257253612 0.150235064012 0)
(0.021225505632 0.168008538676 0)
(0.0193193348248 0.198998325102 0)
(0.0170217717843 0.245897363381 0)
(0.0145275483382 0.327135282222 0)
(0.0125389798608 0.447642106604 0)
(0.0304086980121 0.0151044854996 0)
(0.0597550710345 0.0430250575537 0)
(0.05761082212 0.0685974930915 0)
(0.0554505419876 0.0908763319458 0)
(0.0532899053845 0.109143030251 0)
(0.0511529654444 0.122793716374 0)
(0.0491047065902 0.131122982205 0)
(0.0472071507214 0.133426547373 0)
(0.0455359228727 0.126754102778 0)
(0.0440737460293 0.120569245621 0)
(0.0426761975728 0.115678163879 0)
(0.0412244726833 0.110747773709 0)
(0.0397097597481 0.106850438016 0)
(0.0381914767594 0.107401850522 0)
(0.0366049507791 0.124041360644 0)
(0.0345512232845 0.176343606061 0)
(0.0320721390507 0.230025860267 0)
(0.0296263742856 0.299713338829 0)
(0.0274243361251 0.381577544243 0)
(0.0255875612803 0.473520282291 0)
(0.0427144031674 0.012818321287 0)
(0.0840923558034 0.0361306868101 0)
(0.0814600552273 0.0571956017213 0)
(0.0789578061205 0.0750752678714 0)
(0.076621933828 0.0890321706194 0)
(0.0745048006522 0.0983855048348 0)
(0.0727886936502 0.102672802207 0)
(0.0718427714404 0.10025573781 0)
(0.0722798493079 0.0926368745165 0)
(0.0750729274931 0.0881201074964 0)
(0.0808518343496 0.0847039531658 0)
(0.0873785773066 0.0806987531901 0)
(0.088562976157 0.0768895844165 0)
(0.0779354445515 0.0742940028659 0)
(0.0599742975814 0.0823503057001 0)
(0.046929649909 0.125615459168 0)
(0.0412293664462 0.215312623526 0)
(0.0387544836121 0.294598420623 0)
(0.0373399403223 0.380899985827 0)
(0.0347846219469 0.0106274412882 0)
(0.0684696079068 0.0295599279769 0)
(0.0663640719777 0.0459705288984 0)
(0.0645022589042 0.059053848746 0)
(0.0629141765371 0.0684153583719 0)
(0.0615728937347 0.0734451459251 0)
(0.0604834351789 0.0727865530922 0)
(0.0596511295729 0.0694443456569 0)
(0.0592312238121 0.0702668723539 0)
(0.0598197095786 0.0721387703096 0)
(0.062710020879 0.0728433712783 0)
(0.0691585308668 0.0723436903947 0)
(0.0765472366385 0.0711152376337 0)
(0.0804529989989 0.0699970234234 0)
(0.0760309502811 0.0702458388172 0)
(0.0592199538536 0.0769869559872 0)
(0.0416092335022 0.14780855455 0)
(0.0337510518469 0.261700173613 0)
(0.0312722630956 0.358621087314 0)
(0.0566813170153 0.00885891249944 0)
(0.111760094263 0.0241753482011 0)
(0.108803333704 0.0363830087165 0)
(0.106393583348 0.0436248828526 0)
(0.104489941664 0.0466592482532 0)
(0.102874681383 0.0484490871166 0)
(0.101253551476 0.0480160061135 0)
(0.0993889010403 0.0489531008618 0)
(0.0973068112458 0.0520551795016 0)
(0.095392400089 0.0558998503767 0)
(0.0944548317407 0.0608879573211 0)
(0.0956915552728 0.064050150281 0)
(0.0997471023692 0.065716576565 0)
(0.104601117887 0.0669510702206 0)
(0.104998792466 0.0685732127455 0)
(0.0947192050939 0.0725134831616 0)
(0.0756122336231 0.0930264051814 0)
(0.0592887358038 0.227837317732 0)
(0.051284981444 0.329983193081 0)
(0.069574980736 0.00795982474008 0)
(0.137807073562 0.0209150254679 0)
(0.136379229607 0.0305055910863 0)
(0.137837071331 0.0346646063851 0)
(0.142083323413 0.0344524697965 0)
(0.146690906689 0.0352045490105 0)
(0.147732718912 0.0377646545898 0)
(0.143795919424 0.0409793421006 0)
(0.134344401099 0.0440002618388 0)
(0.118716319451 0.0470659696206 0)
(0.102667062553 0.0510733285733 0)
(0.0926864202442 0.0536320686703 0)
(0.0875652791505 0.0558655563484 0)
(0.083841189395 0.0602353697502 0)
(0.0803334666523 0.0716578652342 0)
(0.0767273048063 0.0844707314002 0)
(0.0722925033329 0.115276408219 0)
(0.0670414014378 0.207237253504 0)
(0.0620998723626 0.298521950814 0)
(0.0494846251018 0.00790416856405 0)
(0.0975584351492 0.0201362557227 0)
(0.0950060203387 0.0290642176244 0)
(0.0931218395913 0.034212469748 0)
(0.0921313273011 0.0359930203133 0)
(0.0923685910268 0.036187961691 0)
(0.0943927906284 0.0368148568002 0)
(0.0986314819584 0.0387081640272 0)
(0.103987160838 0.0408110382764 0)
(0.107062007836 0.0425752596441 0)
(0.105686887079 0.0436403458563 0)
(0.098420416183 0.044581482034 0)
(0.0843033522755 0.046414008447 0)
(0.0691761851481 0.0518108122677 0)
(0.0592597678474 0.0658781533851 0)
(0.0537379266331 0.0821072650597 0)
(0.0501336149186 0.111208692412 0)
(0.0473414076303 0.165815306931 0)
(0.0448518248181 0.261019331128 0)
(0.0551224229578 0.00726510821489 0)
(0.108775787236 0.0184525592518 0)
(0.106131127124 0.0268227629942 0)
(0.10420423502 0.0323171189995 0)
(0.103125611679 0.0351200866866 0)
(0.102921644302 0.0351421149503 0)
(0.1036179917 0.0340401317704 0)
(0.10515861657 0.0349659877484 0)
(0.107280630692 0.036599114516 0)
(0.109328170757 0.038312339938 0)
(0.11043014204 0.0399952994789 0)
(0.110361939639 0.0417824027992 0)
(0.110375256818 0.0442202835446 0)
(0.11223920868 0.0484118760509 0)
(0.114390065053 0.0553285952202 0)
(0.109744586792 0.0654486759377 0)
(0.091170912636 0.080405175642 0)
(0.0670271567421 0.117393777187 0)
(0.0521640686871 0.200506133346 0)
(0.0471999193436 0.00531295019099 0)
(0.0931169449779 0.0140535103135 0)
(0.0907896313335 0.0209192956443 0)
(0.089056508629 0.0253780320363 0)
(0.0880285614872 0.0267994476152 0)
(0.0877201649002 0.0263470247488 0)
(0.0881111615978 0.0266203082382 0)
(0.0891140384031 0.0283017914043 0)
(0.0906016411769 0.0305506748701 0)
(0.0923121341562 0.0329019016948 0)
(0.0938185688042 0.0353480216428 0)
(0.0948311523772 0.0383258264009 0)
(0.0958648813331 0.0423848769144 0)
(0.0988676384155 0.0477474327561 0)
(0.106388911489 0.0552002218731 0)
(0.11624275975 0.06536729046 0)
(0.117190750714 0.0794200064694 0)
(0.0946983741347 0.101930127005 0)
(0.0622293685643 0.152746467919 0)
(0.0610134937642 0.00354659435237 0)
(0.120505250222 0.0101593689927 0)
(0.117975309062 0.0157207036103 0)
(0.116788521307 0.01932154272 0)
(0.11752350435 0.0199726273397 0)
(0.120720152148 0.0193585516067 0)
(0.126346105195 0.020789710249 0)
(0.132182746694 0.0232083323153 0)
(0.134521710396 0.0259466673941 0)
(0.132617439662 0.028655974231 0)
(0.12548254841 0.0314697764108 0)
(0.110783060375 0.0349964968694 0)
(0.0946231271671 0.0404656859008 0)
(0.084782840594 0.0480635602156 0)
(0.0812246750233 0.0582871672078 0)
(0.0816640873914 0.071765469452 0)
(0.0827707734259 0.0886195180113 0)
(0.0799464434768 0.109766521561 0)
(0.0713610088841 0.148966948629 0)
(0.0493403460843 0.0042152510202 0)
(0.0969455749172 0.01154830258 0)
(0.0933620041702 0.0173301168616 0)
(0.0896921864203 0.0209254607054 0)
(0.0860482927058 0.0224866831756 0)
(0.0824126754207 0.0231669019676 0)
(0.0788000636775 0.024312368937 0)
(0.0752374605581 0.0261789708808 0)
(0.0717462614317 0.0284409865044 0)
(0.0683277193506 0.0314623434371 0)
(0.0649781848041 0.0356950980118 0)
(0.0616988688528 0.0411263967232 0)
(0.0584963605771 0.0491689841203 0)
(0.0553837916973 0.0605135586603 0)
(0.0523852700036 0.0753621088574 0)
(0.0495573191015 0.09391204421 0)
(0.0469776460681 0.116104332968 0)
(0.0446528543906 0.142985073947 0)
(0.0424789524633 0.181997905809 0)
(0.0723508912799 0.00748851045303 0)
(0.142970846759 0.0177382502142 0)
(0.140148714641 0.0246051111439 0)
(0.13840106479 0.0284202736222 0)
(0.136759788846 0.0280941452363 0)
(0.133783841721 0.0279101016498 0)
(0.128802041599 0.0285762523324 0)
(0.122074835763 0.029968537147 0)
(0.114084554404 0.0321088455154 0)
(0.105599684668 0.0357090476582 0)
(0.0977105611231 0.0413990368977 0)
(0.0911420097106 0.049288206979 0)
(0.0859358576454 0.0605610465475 0)
(0.0816893386025 0.0765035339389 0)
(0.078018353533 0.097892555953 0)
(0.0748245426305 0.123559112929 0)
(0.0721104024866 0.150049272692 0)
(0.0698734907286 0.177301543328 0)
(0.0681064665422 0.214651971819 0)
(0.0594124094285 0.00719233169502 0)
(0.117409275487 0.0166248545055 0)
(0.114952550407 0.022751380377 0)
(0.113411003544 0.0259338174991 0)
(0.112883010393 0.0253488863565 0)
(0.113298591029 0.0240924679339 0)
(0.114600026197 0.025041450991 0)
(0.1166747367 0.0271748769148 0)
(0.119237518653 0.0301597891832 0)
(0.121406246856 0.0342350531266 0)
(0.121596230036 0.0398993067495 0)
(0.11871100923 0.0478960469923 0)
(0.113717664339 0.0594908810844 0)
(0.109695234319 0.0763057072611 0)
(0.110587057147 0.0992421535439 0)
(0.1177297611 0.126684243134 0)
(0.123164730954 0.154218659238 0)
(0.10947072214 0.180068450123 0)
(0.0804260027978 0.214483646134 0)
(0.0600296557472 0.284752100394 0)
(0.0563606096015 0.00302087438586 0)
(0.111387251149 0.00756323167481 0)
(0.10906477282 0.0109482821202 0)
(0.107604801324 0.0128969428521 0)
(0.107133212392 0.0128350361612 0)
(0.107551947166 0.013924214813 0)
(0.10873417087 0.017063279676 0)
(0.110538070732 0.0210851520772 0)
(0.112740874377 0.025674105773 0)
(0.114835245856 0.0309250704575 0)
(0.115977569393 0.0371784424684 0)
(0.115537795236 0.0453387421058 0)
(0.114213412493 0.0569239745309 0)
(0.115047566583 0.0734902685663 0)
(0.122974191522 0.0955962186425 0)
(0.136267129913 0.121447411702 0)
(0.145139015076 0.148495320124 0)
(0.130329626828 0.176704608666 0)
(0.0901556297285 0.214245598992 0)
(0.0593045931005 0.295092635106 0)
(0.0650317052531 -0.00158622322476 0)
(0.128499736377 -0.00191223470578 0)
(0.125796005959 -0.000849517027305 0)
(0.12419810307 0.000384982326365 0)
(0.124095180042 0.00100824606715 0)
(0.125937524059 0.00509817061782 0)
(0.13024920972 0.0104196332826 0)
(0.13626926053 0.0161348373133 0)
(0.140297943111 0.0220880539473 0)
(0.139383597437 0.0284036337548 0)
(0.132970011835 0.0355843742733 0)
(0.120775085375 0.0446153272984 0)
(0.107282682548 0.0577248515065 0)
(0.0983630318106 0.0769249876006 0)
(0.0955345418374 0.102803938842 0)
(0.0991574841224 0.134469674436 0)
(0.105240893947 0.166651020007 0)
(0.103439789873 0.196368639444 0)
(0.0873065453968 0.230320605513 0)
(0.0692108507251 0.296504028846 0)
(0.0734441472181 -4.97688695131e-05 0)
(0.144684364005 0.00117531963877 0)
(0.140022517782 0.00285311193101 0)
(0.1348565937 0.00482220472656 0)
(0.129307323467 0.0084070764501 0)
(0.123673812571 0.0124192701718 0)
(0.118142004934 0.0168430752171 0)
(0.112722005167 0.0216521179779 0)
(0.107423450185 0.0273475165059 0)
(0.102257851201 0.0347553093507 0)
(0.0972212044887 0.0449700031838 0)
(0.0922921341648 0.0589614978178 0)
(0.0874786583003 0.0784200605514 0)
(0.0829321143795 0.104381025312 0)
(0.0790505749873 0.136081242657 0)
(0.0764276039758 0.169994844309 0)
(0.0755101150156 0.202605584437 0)
(0.075621790802 0.23101652326 0)
(0.0744229319379 0.258434347675 0)
(0.0705956828326 0.301938126576 0)
(0.0730421853876 0.00699010050697 0)
(0.144445241386 0.0144684306011 0)
(0.141981788714 0.0182869490074 0)
(0.141183001318 0.0188731214659 0)
(0.141375362659 0.0200106609309 0)
(0.140645350558 0.0220372476267 0)
(0.137128495031 0.0246059562188 0)
(0.130640238905 0.0280473435433 0)
(0.122161250133 0.0333551941927 0)
(0.112751252897 0.0419170796273 0)
(0.103806740806 0.0551063642989 0)
(0.096425007297 0.0738657974281 0)
(0.0905499912076 0.0987553294079 0)
(0.0857571058077 0.129405592442 0)
(0.0821351785879 0.163692728934 0)
(0.0800902716155 0.196036669665 0)
(0.0796884814168 0.224287255324 0)
(0.0793850911841 0.248672038057 0)
(0.0765890668113 0.275164127954 0)
(0.0707889037353 0.318577166844 0)
(0.0643129447801 0.00595071586854 0)
(0.127322740964 0.0121894215789 0)
(0.125214865284 0.0153199463266 0)
(0.12431480321 0.0154588601872 0)
(0.124710081701 0.0145966083966 0)
(0.126176678618 0.0171383018162 0)
(0.128456695061 0.0206713215389 0)
(0.131134929151 0.0250724811338 0)
(0.133485793038 0.0311583291155 0)
(0.134446603377 0.0400760720901 0)
(0.133143934316 0.0530495812433 0)
(0.129755841304 0.0711267176362 0)
(0.12587636558 0.0949405299183 0)
(0.124339505514 0.124113058341 0)
(0.128895274696 0.15649233701 0)
(0.141666794354 0.188646992313 0)
(0.153723148071 0.217348921741 0)
(0.139430280966 0.242498666029 0)
(0.0987460202986 0.273685264134 0)
(0.0675948343223 0.368368208303 0)
(0.0632320828966 -0.00230608005774 0)
(0.125204075654 -0.00392247541792 0)
(0.123165889819 -0.00364227844066 0)
(0.122332733747 -0.00199229519945 0)
(0.122785725117 0.00246350366738 0)
(0.124292319334 0.008192960219 0)
(0.126655751902 0.0139103648982 0)
(0.129568505857 0.0200378412279 0)
(0.132473308427 0.0274511853788 0)
(0.134420971779 0.0371654496653 0)
(0.134448592242 0.0504314265862 0)
(0.132599385082 0.0686953826991 0)
(0.130755283593 0.0928409089748 0)
(0.132688319309 0.122442228318 0)
(0.142891799046 0.155220233108 0)
(0.158182710865 0.187813061139 0)
(0.168411726303 0.217784501853 0)
(0.155324173561 0.245964983989 0)
(0.110068806625 0.278120203564 0)
(0.0709660489492 0.390315392427 0)
(0.0679828412272 -0.00520241558929 0)
(0.134407615389 -0.00821060871387 0)
(0.131830804413 -0.00694793380845 0)
(0.130658079846 -0.00457720291972 0)
(0.131370472523 -0.00200841497446 0)
(0.134220066417 0.00359932257613 0)
(0.13896736081 0.0100405439136 0)
(0.143669857363 0.0172261892615 0)
(0.144379611231 0.0258257047935 0)
(0.138246166478 0.0367785471311 0)
(0.126252788012 0.0515320043062 0)
(0.112569768298 0.0719208513816 0)
(0.1014906807 0.0991364167511 0)
(0.0944519484375 0.132468939948 0)
(0.0913496057945 0.169699825032 0)
(0.0919735413014 0.207707639632 0)
(0.0931634695042 0.243185106152 0)
(0.0887225789478 0.274529630153 0)
(0.075942190959 0.306164406727 0)
(0.0628039187243 0.378521115681 0)
(0.0732887783693 0.00569690421237 0)
(0.144212066005 0.0158727204872 0)
(0.139097250433 0.0246009012723 0)
(0.133390681644 0.0330001267992 0)
(0.127397951537 0.0357288667964 0)
(0.121366225585 0.038716172228 0)
(0.115418167228 0.0414922124201 0)
(0.10957273714 0.0454914830422 0)
(0.103857887606 0.0525867388232 0)
(0.0982732931038 0.0643695830792 0)
(0.0927882229978 0.0820465496674 0)
(0.0873829817674 0.106302351009 0)
(0.0820536607775 0.137310495217 0)
(0.0767957808587 0.173619654155 0)
(0.0717316494188 0.212621739853 0)
(0.0671015712794 0.250743681626 0)
(0.0628408055352 0.285001889726 0)
(0.0583097772913 0.316073492525 0)
(0.0532586614483 0.346209214755 0)
(0.0490744569962 0.391898591215 0)
(0.0745501848349 0.0235688368476 0)
(0.147349449665 0.0529892221829 0)
(0.144547243564 0.0689737023345 0)
(0.143157619485 0.0733266479027 0)
(0.142390791327 0.0751142415893 0)
(0.140414774115 0.0741578356794 0)
(0.135811453666 0.0724731440489 0)
(0.128635702554 0.0728535494153 0)
(0.119811207984 0.0780521552004 0)
(0.110386961998 0.0900884122142 0)
(0.101572050406 0.109808536948 0)
(0.0941697594832 0.136667370413 0)
(0.0880882523758 0.169253955865 0)
(0.0828491020071 0.205153169489 0)
(0.0782264324393 0.241103444726 0)
(0.0742530731998 0.27391999181 0)
(0.0708794119716 0.302475285974 0)
(0.0678244963608 0.330163737861 0)
(0.0646653321299 0.35833150579 0)
(0.0609831505461 0.400025651281 0)
(0.0695046325168 0.0311557443751 0)
(0.137789784517 0.0658681866791 0)
(0.135979697147 0.0820134356799 0)
(0.135685087626 0.0747739119481 0)
(0.13690909132 0.0684423594337 0)
(0.139192585269 0.0652063128304 0)
(0.141993079344 0.0640323884513 0)
(0.144478625309 0.0657910024301 0)
(0.145605774482 0.0720308593934 0)
(0.144654306444 0.0842181804356 0)
(0.141991071575 0.103260951758 0)
(0.13924185888 0.129048504523 0)
(0.138637442851 0.160131038647 0)
(0.141590405693 0.193810404485 0)
(0.146848509817 0.227166934822 0)
(0.15080253896 0.258476415743 0)
(0.149635475269 0.287647789519 0)
(0.137409682716 0.315207289086 0)
(0.111387195634 0.343658473169 0)
(0.0866186310809 0.385540555867 0)
(0.068499100623 0.0051526651283 0)
(0.136057877931 0.0130058589178 0)
(0.134837774555 0.019856465911 0)
(0.135077067038 0.0279469307401 0)
(0.136705588479 0.0319877159354 0)
(0.139351545064 0.0365678326695 0)
(0.142557969361 0.0421165787497 0)
(0.145593742389 0.0493686792963 0)
(0.147482948006 0.0595686009656 0)
(0.147408571752 0.0741436595358 0)
(0.145464834916 0.0944722461833 0)
(0.143096673062 0.12108215689 0)
(0.142892309528 0.152795498989 0)
(0.147821879925 0.187119141874 0)
(0.15917348366 0.221195131932 0)
(0.17172709291 0.25314874755 0)
(0.179070941104 0.282582553424 0)
(0.178258159316 0.309859314304 0)
(0.152328218427 0.336371819945 0)
(0.112783202366 0.370700502819 0)
(0.0694853693861 -0.023213547711 0)
(0.137508525812 -0.0435028126317 0)
(0.135180191706 -0.0464327771614 0)
(0.134493307357 -0.0316276777091 0)
(0.13590960672 -0.0115343483845 0)
(0.139409271213 0.00572913398549 0)
(0.144080062611 0.0203040985409 0)
(0.147035866012 0.0339938087059 0)
(0.14480586416 0.0488360284498 0)
(0.13615546538 0.0668610300798 0)
(0.12317566932 0.0898454554498 0)
(0.110211513043 0.118933057109 0)
(0.100353637945 0.153729833056 0)
(0.0939681363797 0.191758781903 0)
(0.0909988443377 0.230165311734 0)
(0.0917864258595 0.266955494471 0)
(0.0962297613216 0.299683683093 0)
(0.0993206572312 0.327373106912 0)
(0.0932536603064 0.350946255634 0)
(0.0794278642159 0.378142484366 0)
(0.0724288072458 -0.0112317699308 0)
(0.142490020647 -0.0224425735187 0)
(0.137375911443 -0.0250911511431 0)
(0.131659784417 -0.017319722815 0)
(0.125738722803 -0.00543523375851 0)
(0.119951762487 0.00437458672499 0)
(0.114368082164 0.0140115697984 0)
(0.108940265723 0.0255971733695 0)
(0.103653031463 0.0419386272508 0)
(0.0984783428923 0.0655220906475 0)
(0.0933653270221 0.0957492868084 0)
(0.0883012599955 0.131323690003 0)
(0.0833059412889 0.170803169337 0)
(0.0785115081136 0.212331597426 0)
(0.0742482281592 0.253659429859 0)
(0.0708110072738 0.292315753712 0)
(0.0680478085902 0.326493244119 0)
(0.0651221582157 0.354808603754 0)
(0.0601308055491 0.377543201944 0)
(0.0525838386242 0.400559638594 0)
(0.0756690616556 0.0143008494878 0)
(0.149637735726 0.0228147545822 0)
(0.14698262564 0.0239835266068 0)
(0.145789860232 0.0176594420352 0)
(0.14500893486 0.0106490382006 0)
(0.142603908235 0.00812343238269 0)
(0.137388582531 0.0094763305172 0)
(0.129639361106 0.0163410536106 0)
(0.120285773964 0.0336889790822 0)
(0.11050304777 0.0615121334424 0)
(0.101598976562 0.0971876633334 0)
(0.0942675414109 0.137640280667 0)
(0.0882862793917 0.17972160734 0)
(0.0831974097683 0.221252881503 0)
(0.0789311086795 0.260455871239 0)
(0.0755727839765 0.296217637342 0)
(0.0728671140178 0.328955030378 0)
(0.0701555844806 0.358092958842 0)
(0.0664559996988 0.383520506177 0)
(0.0612455767807 0.409949831844 0)
(0.0688759031369 -0.0101603115137 0)
(0.137258111733 -0.0232133091748 0)
(0.137077256775 -0.0307363818072 0)
(0.138270881216 -0.026643907774 0)
(0.140384195496 -0.0188290633769 0)
(0.143110545215 -0.0134522597292 0)
(0.146037465942 -0.00874485883027 0)
(0.148454812748 -0.00208430492421 0)
(0.149542802067 0.0241975668266 0)
(0.149141308843 0.0513793951156 0)
(0.148069429981 0.0849647917947 0)
(0.147697672885 0.123410552717 0)
(0.148982727474 0.163876015603 0)
(0.150455111019 0.20349152683 0)
(0.149414700658 0.240814393554 0)
(0.145546236556 0.276138582754 0)
(0.139881901683 0.309550558873 0)
(0.131545373042 0.34077670136 0)
(0.117740382638 0.369873402497 0)
(0.100605106425 0.400437024646 0)
)
;

boundaryField
{
    emptyPatch
    {
        type            empty;
    }
    minY
    {
        type            fixedValue;
        value           nonuniform List<vector> 0();
    }
    maxY
    {
        type            zeroGradient;
    }
    maxX
    {
        type            fixedValue;
        value           nonuniform List<vector> 0();
    }
    water_to_heater
    {
        type            fixedValue;
        value           uniform (0 0 0);
    }
    procBoundary3to0
    {
        type            processor;
        value           nonuniform List<vector> 
20
(
(0.0156419935155 0.0317629549574 0)
(0.0306546812084 0.0932228236763 0)
(0.0293879425769 0.153795866477 0)
(0.0281307945681 0.212158362247 0)
(0.0269098749865 0.266877136232 0)
(0.0257425314362 0.316662618216 0)
(0.0246711319957 0.360537282369 0)
(0.0237403008353 0.397977442096 0)
(0.0229746380556 0.428990493229 0)
(0.022381129085 0.453959611593 0)
(0.0219623762346 0.47383988364 0)
(0.0217165198584 0.489341681766 0)
(0.0216253946559 0.500650912918 0)
(0.0216516232625 0.506590377172 0)
(0.0217327473135 0.504589240863 0)
(0.021727687097 0.48958941065 0)
(0.0212351696431 0.455268832647 0)
(0.0193619659823 0.399144692909 0)
(0.0161510566514 0.407183212288 0)
(0.0126050774385 0.483272848373 0)
)
;
    }
    procBoundary3to1
    {
        type            processor;
        value           uniform (0.00819101027089 1.1385650177 0);
    }
    procBoundary3to2
    {
        type            processor;
        value           nonuniform List<vector> 
39
(
(0.0157738693858 1.1261229448 0)
(0.0232458580346 1.13019018079 0)
(0.0163308397395 1.11185370684 0)
(0.0321285375793 1.08943342994 0)
(0.0265206570479 1.09535532417 0)
(0.0229700076912 1.10973436428 0)
(0.0190296115722 1.11107409186 0)
(0.0143569084707 1.0809183267 0)
(0.010215796899 1.03679037209 0)
(0.0102348492473 1.01408635614 0)
(0.0361008160999 0.471470383019 0)
(0.0250818382566 0.989408654659 0)
(0.0361008160999 0.471470383019 0)
(0.030361532165 0.449437777948 0)
(0.0483841591902 0.420922678356 0)
(0.0588036229195 0.388966714412 0)
(0.0430555515882 0.348704521946 0)
(0.0469300574354 0.302584802335 0)
(0.045282873222 0.24784100751 0)
(0.0619563173008 0.221285609356 0)
(0.0406411028552 0.241587438992 0)
(0.0662370898171 0.265396628732 0)
(0.0662370898171 0.265396628732 0)
(0.0384756474868 0.630791163471 0)
(0.0409659708306 0.706609297194 0)
(0.0537477743064 0.738858994504 0)
(0.0576664144714 0.756036945868 0)
(0.0454527838966 0.84526158135 0)
(0.0397728896938 0.986041696251 0)
(0.0444468315425 1.10299638302 0)
(0.0453306755103 1.19091342181 0)
(0.0424426850298 1.25289928572 0)
(0.0516745891629 1.27884805073 0)
(0.0649156419082 1.24655653947 0)
(0.0763982446786 1.19255768182 0)
(0.0629703566117 1.14946890054 0)