/*--------------------------------*- C++ -*----------------------------------*\
| =========                 |                                                 |
| \\      /  F ield         | OpenFOAM: The Open Source CFD Toolbox           |
|  \\    /   O peration     | Version:  2312                                  |
|   \\  /    A nd           | Website:  www.openfoam.com                      |
|    \\/     M anipulation  |                                                 |
\*---------------------------------------------------------------------------*/
FoamFile
{
    version     2.0;
    format      ascii;
    arch        "LSB;label=32;scalar=64";
    class       volScalarField;
    location    "0.36/water";
    object      alpha.gas;
}
// * * * * * * * * * * * * * * * * * * * * * * * * * * * * * * * * * * * * * //

dimensions      [0 0 0 0 0 0 0];

internalField   nonuniform List<scalar> 
750
(
0.0872828204212
0.0568987140173
0.0358072975286
0.0221296225818
0.0134079597889
0.00788290780921
0.00445390821328
0.00241647012975
0.00128139890276
0.000676058745124
0.000354495127916
0.00018134951816
9.11075185964e-05
4.47566951269e-05
2.41427532679e-05
2.09575747398e-06
1e-15
1e-15
1e-15
0.206329696438
0.176355824657
0.138831916184
0.0996028219271
0.0672987729745
0.044085268578
0.0282285997577
0.0176338503454
0.0107948991895
0.00652165779535
0.00391165884362
0.00232248781349
0.00135083318502
0.000761992532377
0.000437677962033
0.000222323124844
3.43929808305e-05
1e-15
1e-15
0.272177062511
0.246750880703
0.212026294427
0.174093680632
0.13500627374
0.0992480161106
0.0691358343362
0.0457192508849
0.029319961479
0.0184158659469
0.0113899345025
0.00692263560106
0.00406836873475
0.00228027886375
0.00127057412947
0.000746831902057
0.000399855192633
6.64827074904e-05
0.000131924348115
0.297339080549
0.271246688771
0.241452720904
0.213928993549
0.184543483281
0.15424532766
0.121905297665
0.0890930444077
0.0612115938254
0.0398671920149
0.0247220310545
0.0145838998172
0.00814599051284
0.00439398081548
0.00244568456802
0.00150892124263
0.00108426306611
0.000421694650974
0.00115631602046
0.382480722781
0.422622825678
0.386213769698
0.320400694305
0.257934671614
0.213373207446
0.178303180344
0.143226798566
0.109065192213
0.0770669219656
0.0496251229395
0.0287946089275
0.0153064421412
0.00797735281058
0.00445414619407
0.00276523178684
0.00214297409575
0.0012094905758
0.00412169332969
0.372955893651
0.422607629444
0.422682793023
0.422607629444
0.385833100788
0.322773772659
0.261935398814
0.209621614398
0.16768531172
0.129350759465
0.0917025516879
0.0574263107254
0.0319981687541
0.0170387264913
0.00953965414262
0.00579020528843
0.0044529627788
0.00292298399181
0.0106629431051
0.260398358731
0.412803424994
0.422607629444
0.422678800623
0.422607629444
0.422622442472
0.391432011709
0.320477423748
0.251650134553
0.197021377596
0.150003277074
0.106049433314
0.0684267489363
0.0414543621363
0.0250627535398
0.0156213322746
0.011769583738
0.00806076839803
0.0273062952938
0.172041753652
0.281783327441
0.387347884734
0.422607629444
0.422671557942
0.422607629444
0.422635536664
0.409485163495
0.35557401394
0.285984945678
0.222246248355
0.168708258096
0.123676213271
0.0873886484607
0.06073425164
0.0424019194797
0.0340499325095
0.0240259680844
0.0782749013423
0.117903166736
0.150750465447
0.248954821054
0.35759111766
0.42260506515
0.422660665894
0.422607629444
0.422622953101
0.416248366658
0.373165242768
0.307773126014
0.243732512327
0.191137094066
0.149255114688
0.116690510157
0.0918041465664
0.0821274291465
0.0668764235657
0.210687041068
0.117901161356
0.0921441970373
0.12750539846
0.211167388795
0.320710729187
0.406743135834
0.422635940339
0.422607629444
0.422615439628
0.416134340207
0.38411786003
0.334126662339
0.281130048788
0.232761451384
0.192303864057
0.163103698875
0.170311940012
0.172957770833
0.407490502772
0.407162954531
0.219904280822
0.0831494709862
0.0783512325046
0.105190001228
0.175346800611
0.289311191382
0.377130192656
0.415454205064
0.422607629444
0.422610646488
0.421292245069
0.408700472002
0.379677303612
0.330691529448
0.283868191812
0.298260478244
0.360783056674
0.361553141531
0.522127507297
0.380075844262
0.327830330028
0.106008276689
0.0480892386112
0.0553089608549
0.0860696506933
0.159145508881
0.260801189585
0.340615992549
0.387015869203
0.413366878582
0.421290248141
0.420653356702
0.407333580317
0.407951074478
0.476399642329
0.607868496753
0.644873845593
0.582318028255
0.522127688917
0.325664745971
0.400641702477
0.153315895851
0.0337012401185
0.0308621311477
0.0408122971778
0.0760533959809
0.141718944753
0.217182712759
0.285259424545
0.345730196888
0.382325824506
0.392836309236
0.484964665383
0.65948169162
0.68514168781
0.685095796105
0.685106073104
0.662325908786
0.522126457802
0.213834430341
0.400633800389
0.263989970168
0.0575449928951
0.0308621997559
0.0308589891974
0.0340215935278
0.0589556355607
0.102677620667
0.159153932746
0.227334423049
0.266595771921
0.366870741028
0.641507589785
0.685165985742
0.685095796105
0.685161001856
0.68512425094
0.677398713164
0.52212645111
0.195604967297
0.386804027419
0.385229834814
0.142590933746
0.0329219719658
0.0308621997559
0.0308586362269
0.0308621997559
0.0389098442382
0.0657897954789
0.103623433075
0.121853536741
0.294492965938
0.680006155775
0.685095796105
0.685158707642
0.685124362447
0.685164436635
0.685153024498
0.546227267359
0.195617966615
0.398885615989
0.495492879734
0.283428940633
0.0685807053131
0.0308600681061
0.0308621997559
0.0308583863234
0.0308621997559
0.0323652387609
0.0505752434804
0.0944005505967
0.353749505236
0.685095796105
0.68515575391
0.685124362447
0.685166428046
0.685153024498
0.685176342977
0.678366408408
0.198302440316
0.387357579847
0.49548981039
0.404061359293
0.180847939962
0.0527261913366
0.030861195715
0.0308621997559
0.0335774771913
0.0614204234552
0.0959667556485
0.146824056384
0.364880842729
0.652506842004
0.685124362447
0.685165345783
0.685153024498
0.685193225432
0.685181647883
0.685252612496
0.177278029779
0.321675542999
0.491293760426
0.454154693585
0.286223227134
0.108053440713
0.0396227613526
0.0471411523865
0.119522194739
0.172265873875
0.169375101014
0.142699207366
0.25708303378
0.473701678825
0.625149733836
0.678889830091
0.685187610971
0.685176589459
0.685223568092
0.685203546623
0.17732738452
0.241829686856
0.429107276224
0.435742988836
0.353616251849
0.194657661225
0.077659612446
0.130734944469
0.29295662818
0.305779424559
0.15092439068
0.0921446185636
0.101403550388
0.189659840609
0.364946483021
0.513955127185
0.589204984604
0.633835040659
0.663473426791
0.68524484962
0.311106089325
0.244122006949
0.339952152054
0.382993229675
0.349896126896
0.260224709076
0.153896109606
0.264751628581
0.450131974847
0.391959980076
0.113721011535
0.0303567188998
0.0219768342289
0.0325411051024
0.0831859431119
0.188766628205
0.311398430846
0.430499734775
0.510575649429
0.685176885073
0.483683790556
0.297878419269
0.302499264935
0.315867247224
0.320905604248
0.296329735354
0.250647370988
0.391309133642
0.564352811799
0.407050926051
0.0733190453689
0.0157855783707
0.0157806564876
0.0157822374198
0.0164454456609
0.0279648459302
0.0588769982883
0.138140518382
0.269182014189
0.6852159316
0.544557872761
0.363415984931
0.278922775137
0.243884777164
0.25410229171
0.280218987352
0.345382211386
0.512216841324
0.67278594024
0.432363554007
0.0508888024288
0.0157774170079
0.0157822374198
0.0157741326295
0.0157769207525
0.0157743258051
0.0159532136433
0.0245218695765
0.0731058414067
0.598919904998
0.52966760328
0.324425608343
0.217923751044
0.201179641963
0.201201178205
0.273324687623
0.526660674368
0.669215449153
0.680112416073
0.466647576919
0.041767175387
0.0157822374198
0.0157744821434
0.0157757589782
0.015772128394
0.0157765071353
0.0157667142586
0.0157800724444
0.0267386981199
0.439792944462
0.558671973449
0.237119201057
0.201168712715
0.201201178205
0.201145978592
0.413029382155
0.680022736088
0.680159719259
0.680022736088
0.544042640031
0.0584647688633
0.0157718561086
0.0157765071353
0.015770697444
0.0157743311606
0.0157627393401
0.0157756871308
0.015766545951
0.0174035356723
0.331076222677
0.619174061357
0.295834938573
0.201201178205
0.201145978592
0.231420920299
0.616414266661
0.680190365546
0.680022736088
0.680119939063
0.676216425498
0.260326724797
0.0160253039545
0.0157657464396
0.0157743087434
0.0157665671237
0.0157710925673
0.015763776289
0.0157758145596
0.0157640330195
0.254514311563
0.65023397796
0.415202102003
0.208313446436
0.207793329076
0.439160854766
0.680113346932
0.67997416911
0.680158171619
0.67997416911
0.680041316689
0.617259807544
0.113739841897
0.0157757103283
0.0157660886025
0.0157711488328
0.0157659312192
0.0157710997161
0.0157601067381
0.0157762908934
0.213821293352
0.479115723386
0.429226650723
0.300759286195
0.382184084657
0.64315686804
0.679925534444
0.680158171619
0.67997416911
0.680057096525
0.679925534444
0.679981697179
0.473042434834
0.0355213827465
0.0157753989211
0.0157675393231
0.0157692275362
0.0157645017801
0.0157707417282
0.0157587946327
0.180809662425
0.215758697298
0.354381780443
0.354950544584
0.489203929122
0.674523748582
0.680107924991
0.679925534444
0.680083446745
0.679925534444
0.67995619111
0.674872409164
0.649182338461
0.373074339119
0.0341313649477
0.0157757591641
0.0157679760566
0.0157696814375
0.0174419776922
0.0157761857578
0.183712374998
0.215734754979
0.229343388028
0.269392850599
0.423178949751
0.654815693589
0.67987705763
0.680020172107
0.679925534444
0.679942069416
0.673161243563
0.63118204063
0.597405701784
0.575176044061
0.452402681482
0.167533464556
0.0404508998716
0.0338587537069
0.0486071566166
0.0286614271833
0.222072244335
0.298170230864
0.243172188047
0.265449625984
0.449871095135
0.671326285197
0.679923674393
0.67987705763
0.669234867962
0.640247796606
0.608687342274
0.592013962235
0.592055471523
0.601762102879
0.622998344034
0.590578035442
0.451225461211
0.315187861921
0.294459450549
0.127113925585
0.229871688404
0.219233237773
0.218761691999
0.362801653848
0.620756069722
0.671356050516
0.649825071821
0.603025161003
0.560883577434
0.560750947956
0.597678437137
0.674328226472
0.728873398705
0.749586699657
0.767691030715
0.774198784775
0.752039200229
0.698313042115
0.679590391106
0.239016044235
0.229914803885
0.098027218356
0.119436144413
0.391855861877
0.620831942874
0.615971402533
0.539725151762
0.526761802064
0.535214674652
0.667794721707
0.77566498772
0.80267771662
0.803180185333
0.803288557238
0.803180185333
0.803252477044
0.803180185333
0.797735153476
0.7698074238
0.249660957255
0.241365297229
0.0439425892783
0.0439185982427
0.233980208573
0.58180022074
0.562881514327
0.526761802064
0.526791356924
0.705335597415
0.802633106039
0.803264913342
0.803180185333
0.803339499203
0.803180185333
0.803320682708
0.803180185333
0.803220712453
0.797069683922
0.72696634001
0.2501676899
0.47967082142
0.0441342819586
0.0439455960601
0.071419021521
0.305415231066
0.500130414192
0.554593669933
0.693604844765
0.803180185333
0.803232399585
0.803180185333
0.803272358708
0.803180185333
0.803284530907
0.803180185333
0.803218306453
0.798436088782
0.753615439916
0.577943363753
0.34283962668
0.548969049319
0.3170987148
0.175467086113
0.105339827137
0.208918386114
0.523411933478
0.673654760827
0.774399895953
0.803193574367
0.803180185333
0.803207059142
0.803180185333
0.803248157031
0.803180185333
0.803211002738
0.791508473398
0.746434513432
0.622981207099
0.540168115432
0.540139660296
0.549075404532
0.186396893455
0.198648058621
0.19964377098
0.409241383312
0.677782467259
0.698138973513
0.766842081689
0.790063410982
0.796016335549
0.802724424101
0.803195028209
0.803180185333
0.803190668507
0.782806267166
0.721800820662
0.625927662766
0.549214629749
0.549174784422
0.549178794018
0.549072596562
0.109744555631
0.125848911593
0.236336692725
0.658600798507
0.701545244945
0.701612448376
0.751112359122
0.758766450757
0.760250995016
0.776488899725
0.786188895511
0.789046502567
0.779731269268
0.711346098045
0.599494356095
0.518044731065
0.485024502018
0.549194535872
0.549082791999
0.549107414156
0.05210550796
0.058865922749
0.198918528062
0.65562601719
0.70147804074
0.700917281843
0.72216864722
0.716033169847
0.703375068765
0.718102383589
0.736760231593
0.746346200195
0.730511801754
0.608770193033
0.488626442784
0.429879294976
0.399196308184
0.489435529255
0.549108364918
0.548998229602
)
;

boundaryField
{
    emptyPatch
    {
        type            empty;
    }
    minY
    {
        type            fixedValue;
        value           uniform 1e-15;
    }
    maxY
    {
        type            inletOutlet;
        phi             phi.gas;
        inletValue      nonuniform List<scalar> 0();
        value           nonuniform List<scalar> 0();
    }
    maxX
    {
        type            zeroGradient;
    }
    water_to_heater
    {
        type            zeroGradient;
    }
    procBoundary1to0
    {
        type            processor;
        value           nonuniform List<scalar> 
38
(
0.407474828384
0.17612950008
0.11410825702
0.11407151154
0.223903371289
0.407115904611
0.554677685528
0.560930446517
0.705367060036
0.56611599952
0.606443790041
0.649852347818
0.708459500361
0.733719910649
0.763403626586
0.751474520082
0.440025316031
0.155355421052
0.307038764532
0.445727553387
0.211514373085
0.0949117536184
0.0439204112411
0.101661873103
0.373063678689
0.109377336531
0.0990959687531
0.13106960288
0.245201800302
0.309840469799
0.331977733193
0.264439787775
0.175718317785
0.169803790513
0.132972244773
0.132446313978
0.298465792628
0.298465792628
)
;
    }
    procBoundary1to2
    {
        type            processor;
        value           nonuniform List<scalar> 
20
(
0.0168350023955
0.0201296046698
0.0825772158552
0.477332411191
0.701410835762
0.693228953452
0.679390756112
0.663158785037
0.632712419328
0.639158631063
0.661666964866
0.679905415381
0.661048530488
0.533018877562
0.405272983529
0.357387487208
0.324057726008
0.362615319725
0.499172429207
0.549004427806
)
;
    }
    procBoundary1to3
    {
        type            processor;
        value           uniform 0.0567759014954;
    }
}


// ************************************************************************* //
