/*--------------------------------*- C++ -*----------------------------------*\
| =========                 |                                                 |
| \\      /  F ield         | OpenFOAM: The Open Source CFD Toolbox           |
|  \\    /   O peration     | Version:  2312                                  |
|   \\  /    A nd           | Website:  www.openfoam.com                      |
|    \\/     M anipulation  |                                                 |
\*---------------------------------------------------------------------------*/
FoamFile
{
    version     2.0;
    format      ascii;
    arch        "LSB;label=32;scalar=64";
    class       volScalarField;
    location    "0.36/water";
    object      Ct2;
}
// * * * * * * * * * * * * * * * * * * * * * * * * * * * * * * * * * * * * * //

dimensions      [0 0 0 0 0 0 0];

internalField   nonuniform List<scalar> 
750
(
1.00114424968
1.24623897385
1.41080788991
1.52485473263
1.8914922703
2.6647237786
3.90568729227
5.39356721469
6.71811185124
7.65746184053
8.24482196867
8.59054044775
8.77878654128
8.87712312167
8.92139419045
8.96870603897
8.97322943955
8.97321848165
8.97323108405
1
1
1
1.00000669023
1.09422244548
1.38036970356
1.44474587533
1.64887450016
2.14735912288
3.02435176573
4.21043333753
5.48964781622
6.63963590591
7.53062671134
8.09944505402
8.51288043756
8.89963013497
8.9732092061
8.97322371672
1
1
1
1
1
1.00000800612
1.07349544436
1.37013092249
1.43646522678
1.62011714059
2.07858135831
2.91249127816
4.13268947545
5.54801835624
6.75679426949
7.55703730638
8.16997861418
8.8318099891
8.69580635376
1
1
1
1
1
1
1
1.00061342022
1.17927952971
1.39752025829
1.48084881344
1.80566250344
2.60565419158
3.94751972463
5.3847083043
6.43594459826
7.0259610016
8.12927800832
6.92034198777
1
1
1
1
1
1
1
1
1.00000002529
1.0180851145
1.33825759713
1.44101793702
1.76276387061
2.64488679649
3.91497428238
5.09032395109
5.69195725431
6.84361280362
4.1058066692
1
1
1
1
1
1
1
1
1
1
1.0002316935
1.23763126836
1.42311338101
1.67653645069
2.3397902202
3.30137430001
3.91633117653
4.95552026762
2.1751238063
1
1
1
1
1
1
1
1
1
1
1
1.00000017696
1.08096826199
1.39196112507
1.47736002276
1.74599978171
2.04330079843
2.62731693794
1.45427538277
1
1
1
1
1
1
1
1
1
1
1
1
1
1.00109937573
1.18648829912
1.38867798644
1.41619812869
1.49257802994
1.0139041112
1.00000000003
1
1
1
1
1
1
1
1
1
1
1
1
1
1.00000000009
1.00022275539
1.0053578267
1.09953022091
1
1.00000000003
1.00019507756
1
1
1
1
1
1
1
1
1
1
1
1
1
1
1
1
1
1
1
1.00404790637
1.01365457312
1.00000030004
1
1
1
1
1
1
1
1
1
1
1
1
1
1
1
1
1
1.00000018207
1.35341400557
1.26960272637
1.00169550083
1
1
1
1
1
1
1
1
1
1
1
1
1
1
1
1
1
1.41762476719
1.42967689339
1.39579184703
1.02242066464
1
1
1
1
1
1
1
1
1
1
1
1
1
1
1
1
1.23655538393
1.42965850852
1.4297357985
1.41666530619
1.21489908172
1.00000129398
1
1
1
1
1
1
1
1
1
1
1
1
1
1
1
1.42052677619
1.42967602849
1.42976147783
1.42979130899
1.40210079856
1.11343924747
1.00000075573
1
1
1
1
1
1
1
1
1
1
1
1
1
1.07960538083
1.42968913185
1.42970207806
1.42975923057
1.42974367958
1.42277803975
1.32943667787
1.00007677949
1
1
1
1
1
1
1
1
1
1
1
1
1
1.30438432831
1.42970584802
1.42971587754
1.41811898612
1.17664108621
1.00003848393
1
1
1
1
1
1
1
1
1
1
1
1
1
1
1.00000004961
1.39978159966
1.3612849078
1.00000000001
1
1
1
1
1
1
1
1
1
1
1
1
1
1
1
1
1
1.01594803621
1
1
1
1
1.00019503806
1.00000260131
1
1
1
1
1
1
1
1
1
1
1
1
1
1
1
1
1
1.0000000009
1.43239830996
1.52819861096
1.42188608979
1.00400464231
1
1
1
1
1
1
1
1
1
1
1
1
1
1
1
1.03778399608
1.73786735112
1.73794146204
1.73785193419
1.70463026424
1.44862033434
1.21610583334
1
1
1
1
1
1
1
1
1
1
1
1
1
1.3262133019
1.7383247273
1.73789962004
1.73820179464
1.73813238452
1.738437224
1.72919730554
1.48564733716
1.03924887153
1
1
1
1
1
1
1
1
1
1
1
1.39226197338
1.73805647753
1.73836592671
1.73814525667
1.73830167563
1.7382265326
1.73890475792
1.73830304392
1.45974294799
1
1
1
1
1
1
1
1
1
1
1
1.22252917543
1.7386287122
1.73829256994
1.73851118665
1.73818601021
1.7388980824
1.73836889416
1.73898261237
1.66257930901
1
1
1
1
1
1
1
1
1
1
1
1
1.7255073882
1.73891572493
1.73839222918
1.73868554746
1.73844146853
1.73895766144
1.73845068935
1.73917666894
1
1
1
1
1
1
1
1
1
1
1
1
1.00000000089
1.7384328134
1.73887256876
1.73851829816
1.738724844
1.73856190757
1.7392600705
1.73850655055
1
1
1
1
1
1
1
1
1
1
1
1
1
1.4119395411
1.73841926962
1.73878223074
1.73856683808
1.73890608074
1.73868102991
1.73942122905
1
1
1
1
1
1
1
1
1
1
1
1
1
1
1.41630401959
1.73843337701
1.73871606218
1.73862176942
1.660845059
1.73848881429
1
1
1
1
1
1
1
1
1
1
1
1
1
1
1
1
1.39707776824
1.41703205751
1.34881661757
1.44333141893
1
1
1
1
1
1
1
1
1
1
1
1
1
1
1
1
1
1
1
1
1
1
1
1
1
1
1
1
1
1
1
1
1
1
1
1
1
1
1
1
1
1.00001464363
1.00000000001
1
1
1
1
1
1
1
1
1
1
1
1
1
1
1
1
1
1
1.38190253844
1.38221118322
1
1
1
1
1
1
1
1
1
1
1
1
1
1
1
1
1
1
1.38092308543
1.38196613925
1.0521334743
1
1
1
1
1
1
1
1
1
1
1
1
1
1
1
1
1
1
1
1.00000027423
1
1
1
1
1
1
1
1
1
1
1
1
1
1
1
1
1
1
1
1
1
1
1
1
1
1
1
1
1
1
1
1
1
1
1
1
1
1.00000001598
1
1
1
1
1
1
1
1
1
1
1
1
1
1
1
1
1
1
1
1.31198166235
1.21633427449
1
1
1
1
1
1
1
1
1
1
1
1
1
1
1
1
1
1
)
;

boundaryField
{
    emptyPatch
    {
        type            empty;
    }
    minY
    {
        type            calculated;
        value           nonuniform List<scalar> 
19
(
8.97323989303
8.97324015143
8.97324038707
8.97324060424
8.97324079701
8.97324096272
8.97324110466
8.97324122682
8.97324132953
8.97324141042
8.97324146784
8.973241503
8.97324152035
8.97324152535
8.97324151947
8.97324149783
8.9732414531
8.973241372
8.9732409273
)
;
    }
    maxY
    {
        type            calculated;
        value           nonuniform List<scalar> 0();
    }
    maxX
    {
        type            calculated;
        value           nonuniform List<scalar> 
38
(
8.97324431306
8.97325435004
8.69584392894
6.92059441483
4.10624177621
2.17548655178
1.4545565426
1.01392059886
1
1
1
1
1
1
1
1
1
1
1
1
1
1
1
1
1
1
1
1
1
1
1
1
1
1
1
1
1
1
)
;
    }
    water_to_heater
    {
        type            calculated;
        value           nonuniform List<scalar> 0();
    }
    procBoundary1to0
    {
        type            processor;
        value           nonuniform List<scalar> 
38
(
1
1
1.00000000067
1.00000000069
1
1
1
1
1
1
1
1
1
1
1
1
1
1
1
1
1
1.000061515
1.38201043048
1.00000226447
1
1.00000002052
1.0000086444
1
1
1
1
1
1
1
1
1
1
1
)
;
    }
    procBoundary1to2
    {
        type            processor;
        value           nonuniform List<scalar> 
20
(
1.68671506586
1.57172076585
1.00474897495
1
1
1
1
1
1
1
1
1
1
1
1
1
1
1
1
1
)
;
    }
    procBoundary1to3
    {
        type            processor;
        value           uniform 1.24803083492;
    }
}


// ************************************************************************* //
