/*--------------------------------*- C++ -*----------------------------------*\
| =========                 |                                                 |
| \\      /  F ield         | OpenFOAM: The Open Source CFD Toolbox           |
|  \\    /   O peration     | Version:  2312                                  |
|   \\  /    A nd           | Website:  www.openfoam.com                      |
|    \\/     M anipulation  |                                                 |
\*---------------------------------------------------------------------------*/
FoamFile
{
    version     2.0;
    format      ascii;
    arch        "LSB;label=32;scalar=64";
    class       volScalarField;
    location    "0.215/water";
    object      nut.gas;
}
// * * * * * * * * * * * * * * * * * * * * * * * * * * * * * * * * * * * * * //

dimensions      [0 2 -1 0 0 0 0];

internalField   nonuniform List<scalar> 
1497
(
1.48420089947e-06
1.23477075749e-06
1.01776479611e-06
7.96374261548e-07
5.66573329903e-07
3.45475223983e-07
1.64587841149e-07
5.41339913886e-08
1.14645813419e-08
1.90149362025e-09
4.554116278e-10
2.57932925437e-10
2.53559604141e-10
7.31123437352e-06
6.82926020724e-06
5.81608128359e-06
4.57587075352e-06
3.4641121036e-06
2.65704776657e-06
2.08019685777e-06
1.67749957567e-06
1.39470025458e-06
1.16628988692e-06
9.50368438964e-07
7.27807513787e-07
4.9627431065e-07
2.74448193676e-07
1.06377230428e-07
2.58996850945e-08
4.67922919047e-09
1.02603715195e-09
4.06454744912e-10
3.43961769767e-10
8.4222314173e-06
7.81151039307e-06
6.53690371678e-06
5.15935009505e-06
4.01525829878e-06
3.16308325165e-06
2.49962037563e-06
2.02099198079e-06
1.67032568373e-06
1.38967160989e-06
1.14433344995e-06
9.14077885436e-07
6.81881626061e-07
4.39025184112e-07
2.10239399646e-07
6.36082471226e-08
1.32304685695e-08
2.83750287054e-09
8.80546188384e-10
5.17908069426e-10
8.49884204722e-06
8.45198069001e-06
7.19451554841e-06
5.81430505498e-06
4.67033335763e-06
3.78166602409e-06
3.04864286978e-06
2.48746067298e-06
2.0482159392e-06
1.68836638163e-06
1.38054339821e-06
1.11047045631e-06
8.61360786892e-07
6.105925599e-07
3.51152568651e-07
1.37857292674e-07
3.60543911922e-08
8.23265763072e-09
2.28133785877e-09
9.12558998389e-10
8.47184312885e-06
8.7863888297e-06
7.74217855183e-06
6.41938517376e-06
5.28774409013e-06
4.39030593563e-06
3.635744947e-06
3.01203483816e-06
2.4851673542e-06
2.03768300025e-06
1.65229329788e-06
1.32125360067e-06
1.03219546512e-06
7.6062316407e-07
4.85727415906e-07
2.33502114585e-07
7.80621313715e-08
2.07264214352e-08
5.66939091528e-09
1.99012681783e-09
8.26348430815e-06
8.79699773101e-06
8.00820563122e-06
6.85617651021e-06
5.81138265557e-06
4.94233751063e-06
4.18347084354e-06
3.50980797599e-06
2.91636928077e-06
2.38839743085e-06
1.92650444085e-06
1.53116827774e-06
1.19443142148e-06
8.91778546076e-07
5.98897929768e-07
3.24103404839e-07
1.2895235012e-07
3.98818786832e-08
1.16387655124e-08
4.07484830978e-09
7.77357445896e-06
8.42208330202e-06
7.91263574608e-06
7.00710305481e-06
6.12206146791e-06
5.33720658771e-06
4.6109376527e-06
3.9213247895e-06
3.28008772956e-06
2.68727431383e-06
2.15984215378e-06
1.70804433926e-06
1.32852051852e-06
9.97368534865e-07
6.86607405323e-07
3.95202624174e-07
1.74253996482e-07
6.044098151e-08
1.93312404902e-08
7.13688627859e-09
7.00420605213e-06
7.71643402733e-06
7.45208586649e-06
6.81552015597e-06
6.14048728815e-06
5.4934492285e-06
4.84280112134e-06
4.17366055924e-06
3.51182986773e-06
2.880354298e-06
2.30907774553e-06
1.8192096151e-06
1.41209207788e-06
1.06455695242e-06
7.43247384342e-07
4.4164945107e-07
2.0661885334e-07
7.79693375666e-08
2.74554396735e-08
1.10379388619e-08
6.09073946078e-06
6.74935952307e-06
6.68029525295e-06
6.30921669799e-06
5.87093587422e-06
5.39710466854e-06
4.85325057352e-06
4.23387255721e-06
3.57981818723e-06
2.93785129235e-06
2.35029662191e-06
1.8479874624e-06
1.43516653808e-06
1.08688834879e-06
7.64755674447e-07
4.61042994903e-07
2.2351429642e-07
9.05694945817e-08
3.53667756713e-08
1.58300777969e-08
5.40057152197e-06
5.88072037649e-06
5.83928057881e-06
5.64057250869e-06
5.40896060864e-06
5.10311493738e-06
4.6692272845e-06
4.1110774975e-06
3.48608211298e-06
2.85936574533e-06
2.28455233668e-06
1.79795367335e-06
1.40212758024e-06
1.06724749893e-06
7.52474343005e-07
4.55160006484e-07
2.26774659112e-07
9.90340783369e-08
4.34335581179e-08
2.18990774792e-08
5.04534007577e-06
5.35969134125e-06
5.15760666095e-06
4.97542934273e-06
4.87250326706e-06
4.6914832698e-06
4.34293165617e-06
3.84009624681e-06
3.25661975363e-06
2.66755941933e-06
2.13381035197e-06
1.68914688701e-06
1.32834762853e-06
1.01558753006e-06
7.13079392579e-07
4.30722941642e-07
2.22017933552e-07
1.06167049447e-07
5.28569820306e-08
2.99329603611e-08
4.90930281611e-06
5.14160439689e-06
4.69625238232e-06
4.39475905163e-06
4.33543276895e-06
4.22446162368e-06
3.92885837277e-06
3.47175172477e-06
2.93746490658e-06
2.40616685182e-06
1.93722061114e-06
1.55258963607e-06
1.23477792843e-06
9.44534661508e-07
6.56332391951e-07
3.97892696603e-07
2.16543543109e-07
1.15428630117e-07
6.51700936207e-08
4.07032639252e-08
4.94893835896e-06
5.08726512361e-06
4.37431268118e-06
3.88388093956e-06
3.80630276878e-06
3.73072919963e-06
3.47255353997e-06
3.06194620648e-06
2.58837623785e-06
2.13267449744e-06
1.74215931886e-06
1.42037132097e-06
1.13909205947e-06
8.64010793311e-07
5.93556653457e-07
3.68150762396e-07
2.17017514691e-07
1.29804013902e-07
8.17237600891e-08
5.46769497787e-08
5.10700302142e-06
5.09464076922e-06
4.15513308041e-06
3.46016472923e-06
3.30815504671e-06
3.24583294715e-06
3.02625035872e-06
2.67238328745e-06
2.27376757197e-06
1.90241131306e-06
1.58585561227e-06
1.31084507385e-06
1.04739643114e-06
7.8166931045e-07
5.38262120056e-07
3.5144204628e-07
2.27867478712e-07
1.51177720252e-07
1.03162279962e-07
7.14432855597e-08
5.33212216096e-06
5.18856141509e-06
4.08348209907e-06
3.17484694252e-06
2.88051033222e-06
2.80954610399e-06
2.64012824633e-06
2.35941194621e-06
2.04346920163e-06
1.74652200631e-06
1.47810487689e-06
1.22017659962e-06
9.58994833666e-07
7.09835208685e-07
5.03367235848e-07
3.53235914622e-07
2.50674272118e-07
1.79850958191e-07
1.28758417171e-07
8.92885704778e-08
5.58689509721e-06
5.38851469435e-06
4.18136443122e-06
3.06336733887e-06
2.56759213579e-06
2.45834939257e-06
2.35110835858e-06
2.15356136222e-06
1.90916394585e-06
1.6543714199e-06
1.39713010985e-06
1.13603312789e-06
8.82956927729e-07
6.63595150358e-07
4.95185286769e-07
3.73707562848e-07
2.84264251634e-07
2.14194792941e-07
1.56224948182e-07
1.05829059962e-07
5.76465824715e-06
5.5853751892e-06
4.33805415056e-06
3.05829963385e-06
2.3831713004e-06
2.22625921119e-06
2.17372142077e-06
2.04125030543e-06
1.83286372342e-06
1.58284321099e-06
1.32000963722e-06
1.06457340549e-06
8.34887597451e-07
6.49857220353e-07
5.12646543509e-07
4.09698390586e-07
3.25805373544e-07
2.51561576119e-07
1.82914270044e-07
1.19024404294e-07
5.79795567324e-06
5.61235485104e-06
4.39512220248e-06
3.04785464579e-06
2.29911682734e-06
2.12419650895e-06
2.09418949312e-06
1.98174302906e-06
1.77070988524e-06
1.51158335868e-06
1.25386422255e-06
1.01924324251e-06
8.1972106508e-07
6.65926487583e-07
5.50081914457e-07
4.56261393527e-07
3.71341920764e-07
2.88263999399e-07
2.05440875673e-07
1.2680057819e-07
5.63433342352e-06
5.22604162058e-06
4.20363282976e-06
2.97147568374e-06
2.30288012778e-06
2.13846251622e-06
2.09359719065e-06
1.95662090108e-06
1.71771881774e-06
1.45087060981e-06
1.20972892714e-06
1.00294950245e-06
8.3503050628e-07
7.05133765235e-07
6.00349733025e-07
5.07612115085e-07
4.1610740323e-07
3.20348105135e-07
2.21441054037e-07
1.28762960896e-07
5.49219954591e-06
4.86189874966e-06
3.98191017233e-06
3.00189720147e-06
2.44165030394e-06
2.25602873052e-06
2.15888105486e-06
1.96216824543e-06
1.68018074488e-06
1.40877863249e-06
1.18743330863e-06
1.01330704776e-06
8.75481363044e-07
7.5968432711e-07
6.57158624727e-07
5.59037593101e-07
4.56721747523e-07
3.45955601672e-07
2.30926308382e-07
1.25917940049e-07
5.61974970958e-06
4.98008455308e-06
4.1647032563e-06
3.29401718364e-06
2.71374473012e-06
2.45454139928e-06
2.28041387805e-06
2.00051931013e-06
1.66569527163e-06
1.38380935486e-06
1.1833009083e-06
1.04627507756e-06
9.33111820013e-07
8.23772951088e-07
7.16619733242e-07
6.08375484013e-07
4.92551691939e-07
3.66027169457e-07
2.35715824279e-07
1.199556264e-07
6.35431925321e-06
5.70739334507e-06
4.76922672126e-06
3.76301086603e-06
3.04547062371e-06
2.70469865828e-06
2.44788664427e-06
2.07008564912e-06
1.67548542045e-06
1.38086884046e-06
1.20299977585e-06
1.09718186665e-06
1.00142390777e-06
8.93368883935e-07
7.77502645872e-07
6.56348510952e-07
5.25629462389e-07
3.83274068194e-07
2.38169230668e-07
1.12520468046e-07
7.71321285573e-06
6.92088309416e-06
5.51409896109e-06
4.11649868954e-06
3.27111506153e-06
2.91385567444e-06
2.57713163476e-06
2.12530486384e-06
1.70857195285e-06
1.41629639861e-06
1.25284324934e-06
1.16074119294e-06
1.07410620934e-06
9.65017716103e-07
8.39308108309e-07
7.04149714474e-07
5.57989399166e-07
3.99639471564e-07
2.39667308254e-07
1.04703894663e-07
8.65818114013e-06
7.66234296271e-06
5.62041477431e-06
4.01819117718e-06
3.28027816353e-06
2.94814443324e-06
2.55715768344e-06
2.1126959808e-06
1.72970918089e-06
1.46283007148e-06
1.30581690555e-06
1.21977908566e-06
1.14005826271e-06
1.03098966487e-06
8.97368358237e-07
7.49111948554e-07
5.87791602453e-07
4.13694478975e-07
2.3934782876e-07
9.65059622748e-08
9.01116545821e-06
7.74665496177e-06
5.32139054171e-06
3.79289135468e-06
3.18793790831e-06
2.82926526895e-06
2.43977931376e-06
2.05820794093e-06
1.73310355392e-06
1.48249948329e-06
1.32532123221e-06
1.24486914077e-06
1.17730720488e-06
1.0759102252e-06
9.40834929279e-07
7.83487184047e-07
6.08862383112e-07
4.20527204046e-07
2.34221358633e-07
8.70026246611e-08
9.33640292235e-06
7.69010996223e-06
5.03132607942e-06
3.59549793701e-06
2.99354964609e-06
2.59933984733e-06
2.29896958233e-06
1.99095657484e-06
1.69838294903e-06
1.46419819536e-06
1.31274810747e-06
1.23711393011e-06
1.17876929015e-06
1.08859205386e-06
9.59386891631e-07
7.98988924153e-07
6.14617993544e-07
4.15067065171e-07
2.21359263032e-07
7.54009268509e-08
1.00221601331e-05
8.13527387339e-06
5.15802401972e-06
3.58751097665e-06
2.85156174653e-06
2.41289908356e-06
2.16569678131e-06
1.89405692811e-06
1.63413012884e-06
1.42176982831e-06
1.28181637406e-06
1.20703025458e-06
1.15022036308e-06
1.06962476591e-06
9.50262224382e-07
7.91981668401e-07
6.01941940219e-07
3.95347491682e-07
2.00321698682e-07
6.20766953708e-08
1.10009142027e-05
9.16801078994e-06
5.89617437171e-06
3.95930723827e-06
2.95981743855e-06
2.40546590593e-06
2.10652226844e-06
1.8612196632e-06
1.61676780811e-06
1.40483603477e-06
1.25540013212e-06
1.16229838216e-06
1.09625775236e-06
1.02260728628e-06
9.1530866729e-07
7.63025141125e-07
5.71415781574e-07
3.62878473988e-07
1.73413327866e-07
4.85998346927e-08
1.20524114321e-05
1.05643561927e-05
7.26285541887e-06
4.89763817773e-06
3.51592553815e-06
2.72443023343e-06
2.27401157248e-06
1.9669973533e-06
1.70106492855e-06
1.45665200419e-06
1.25980837118e-06
1.12204683323e-06
1.03217263603e-06
9.57554604465e-07
8.60119350549e-07
7.15544344707e-07
5.26320317936e-07
3.21558406234e-07
1.44247629426e-07
3.65128098499e-08
1.29093398701e-05
1.18740160814e-05
8.85852826806e-06
6.2681529336e-06
4.54343861771e-06
3.44285580252e-06
2.76444505162e-06
2.30183062323e-06
1.94895058583e-06
1.63258360798e-06
1.3560684188e-06
1.14255090123e-06
9.98431171621e-07
8.99030018074e-07
7.98417896931e-07
6.57786978291e-07
4.72507433802e-07
2.75636517432e-07
1.15395004785e-07
2.64996051772e-08
1.3552375483e-05
1.29520176825e-05
1.03954366751e-05
7.83681499058e-06
5.89527105411e-06
4.52061122573e-06
3.61781674909e-06
2.9611223513e-06
2.45265633876e-06
2.01147346028e-06
1.61625816683e-06
1.28628367023e-06
1.04398936257e-06
8.80325815211e-07
7.50170394557e-07
6.02061803652e-07
4.18738090615e-07
2.31454633619e-07
8.93603251477e-08
1.8446032985e-08
1.38652962321e-05
1.36831057125e-05
1.16576547294e-05
9.32775801222e-06
7.34233541517e-06
5.80032166236e-06
4.69574509452e-06
3.84458229185e-06
3.15783103423e-06
2.56214519099e-06
2.02503339667e-06
1.55674360776e-06
1.18721390652e-06
9.24469758402e-07
7.3454245169e-07
5.61079850951e-07
3.72974556621e-07
1.93611756703e-07
6.80107182982e-08
1.26426417683e-08
1.39337308362e-05
1.40954163433e-05
1.25552311161e-05
1.05402042503e-05
8.64824729217e-06
7.0556076516e-06
5.80544803782e-06
4.79192496637e-06
3.93915579691e-06
3.18891028881e-06
2.50939315042e-06
1.90431012276e-06
1.40372208872e-06
1.02847785109e-06
7.59157926873e-07
5.42929737041e-07
3.40072819144e-07
1.63988985497e-07
5.17399474314e-08
8.83130830422e-09
1.37140389143e-05
1.41859405379e-05
1.3062641799e-05
1.13703089042e-05
9.64517065586e-06
8.09019890331e-06
6.76962588051e-06
5.65541206091e-06
4.67277867595e-06
3.7914002108e-06
2.98723660639e-06
2.26292850472e-06
1.64679836626e-06
1.16676113905e-06
8.15211477215e-07
5.46696770786e-07
3.20199887562e-07
1.42000293459e-07
3.98503436193e-08
6.45826592971e-09
1.32498401254e-05
1.3971696022e-05
1.31891515583e-05
1.17931576202e-05
1.02584951405e-05
8.79285007696e-06
7.47318654996e-06
6.30352931198e-06
5.25426724198e-06
4.28605411556e-06
3.38951158427e-06
2.57358679968e-06
1.86821221493e-06
1.30488754271e-06
8.82686840043e-07
5.62866592266e-07
3.08677806934e-07
1.25000871172e-07
3.09488233198e-08
4.97527655373e-09
1.25812194239e-05
1.34863202187e-05
1.29822068379e-05
1.18406953324e-05
1.04913658444e-05
9.14170645608e-06
7.87418094036e-06
6.70669578837e-06
5.63141364345e-06
4.61962432577e-06
3.66859571579e-06
2.79443274713e-06
2.03108161448e-06
1.41207351797e-06
9.38817820828e-07
5.76962913106e-07
2.97219410049e-07
1.08946343307e-07
2.35604152752e-08
3.98673100535e-09
1.18514881507e-05
1.28333046935e-05
1.25176088247e-05
1.15631653214e-05
1.03705409425e-05
9.14404917971e-06
7.96140355251e-06
6.83975907363e-06
5.77981632816e-06
4.76707457631e-06
3.79872958919e-06
2.90041740347e-06
2.11163076924e-06
1.46614804622e-06
9.64098244419e-07
5.73791910697e-07
2.76376621154e-07
8.99361419066e-08
1.68302906897e-08
3.28521725773e-09
1.11264990548e-05
1.20932056036e-05
1.1851387494e-05
1.09989625316e-05
9.92505476901e-06
8.82005396385e-06
7.74410251024e-06
6.70365421245e-06
5.69726641506e-06
4.71676536328e-06
3.7644520829e-06
2.8760575654e-06
2.09541342363e-06
1.45299866768e-06
9.44214229612e-07
5.40646790771e-07
2.38634221375e-07
6.64041168797e-08
1.09143275477e-08
2.78805615008e-09
2.50115661878e-10
2.39843522849e-10
2.30230165304e-10
2.30466349993e-10
2.54414888458e-10
2.49336834623e-10
2.04846565768e-10
1.62890428617e-10
1.49318817231e-10
1.50450486351e-10
1.09766825981e-10
3.743137505e-10
6.86391268657e-09
2.0894607532e-07
1.98661068872e-06
2.75839971832e-06
2.51048390041e-06
1.96329408777e-06
1.7731798568e-06
2.29947898252e-06
3.50559126327e-10
3.59534682054e-10
3.69536016895e-10
3.8978117524e-10
4.23446405771e-10
4.09272090802e-10
3.39445942068e-10
2.61908516187e-10
2.10659022377e-10
1.84589474678e-10
1.06376178631e-10
4.63960305588e-11
9.09041755845e-10
2.27724286652e-08
2.43359208734e-07
2.07000905475e-06
2.67740962186e-06
2.08595316762e-06
1.71229188924e-06
2.17118241791e-06
5.16694982773e-10
5.5413376175e-10
6.01569519799e-10
6.59590467927e-10
7.10378292418e-10
6.81526675057e-10
5.55327898388e-10
3.98193144379e-10
2.83159646818e-10
1.97634711264e-10
1.01750660799e-10
4.98241510127e-11
3.21425698543e-10
8.90352572608e-09
7.82538145937e-08
3.73356351204e-07
2.04790578187e-06
2.26957685802e-06
1.72113753571e-06
2.07000922926e-06
8.14995442406e-10
8.66908228002e-10
9.70692754957e-10
1.08775614754e-09
1.15656273522e-09
1.07098703783e-09
8.0415457095e-10
5.11044850157e-10
3.11913909298e-10
1.80144285827e-10
9.72700810669e-11
5.95499956169e-11
5.32874597137e-10
9.56872252961e-09
6.62274694953e-08
2.47143114821e-07
6.53389009979e-07
2.03009294325e-06
1.77077043466e-06
1.99361391162e-06
1.33450042397e-09
1.37095623943e-09
1.54268610771e-09
1.72965428913e-09
1.78291964388e-09
1.52735079591e-09
9.97034139643e-10
5.47170177878e-10
2.90746446204e-10
1.62533414966e-10
9.32754740729e-11
7.53768162063e-11
1.21688740175e-09
1.59908880931e-08
8.43141380181e-08
2.4637353462e-07
5.1742622065e-07
1.29924299958e-06
1.84373586159e-06
1.95680144911e-06
2.30725163935e-09
2.18096341328e-09
2.41049166159e-09
2.6397998864e-09
2.56122009498e-09
1.93592837884e-09
1.05050709147e-09
4.98528049097e-10
2.50204867643e-10
1.52229930129e-10
9.1658965772e-11
1.05779394889e-10
2.88752718492e-09
2.72626473886e-08
1.18127039567e-07
3.07921956958e-07
5.43234943288e-07
9.80475061752e-07
1.91824468263e-06
1.95120496894e-06
3.96289996954e-09
3.4326256381e-09
3.68632276631e-09
3.84956000721e-09
3.38496722419e-09
2.1403481561e-09
9.36821187123e-10
4.00649091612e-10
2.18729328472e-10
1.44877397898e-10
9.18555561415e-11
1.639694357e-10
6.15532078629e-09
4.40219156903e-08
1.64874907768e-07
4.2822212221e-07
5.95500182352e-07
9.53523724305e-07
2.05258047207e-06
1.97171257897e-06
6.34356037295e-09
5.36597593258e-09
5.4819548277e-09
5.30323096295e-09
4.05433276644e-09
2.02856696707e-09
7.09714862233e-10
3.03124493584e-10
2.01237996665e-10
1.34304096844e-10
9.30773069128e-11
2.82090700212e-10
1.16720962682e-08
6.70932037931e-08
2.19689379671e-07
5.28990190549e-07
6.62260370588e-07
1.0934439848e-06
2.20410877468e-06
2.01579109327e-06
9.67383586521e-09
8.1456249911e-09
7.82861265158e-09
6.78403427983e-09
4.31985402356e-09
1.62913271456e-09
4.64537974713e-10
2.33553089261e-10
1.87689749644e-10
1.21746722847e-10
9.40092567025e-11
5.38369500867e-10
2.0098868823e-08
9.84400549892e-08
2.94824177036e-07
6.02639303916e-07
7.51279620691e-07
1.36450469614e-06
2.35961779026e-06
2.08038135679e-06
1.4317002332e-08
1.19098230467e-08
1.05483906458e-08
7.90299187623e-09
4.00660651038e-09
1.10420359347e-09
2.71418257473e-10
1.93628266006e-10
1.71323154603e-10
1.06499020402e-10
9.78524644183e-11
1.09192982284e-09
3.23408108361e-08
1.39402477274e-07
4.33808728776e-07
6.95266217739e-07
8.68086668992e-07
1.75366519069e-06
2.50791309938e-06
2.16211889022e-06
2.06527974395e-08
1.65922408888e-08
1.31407238242e-08
8.2300098514e-09
3.14871092626e-09
6.33827550064e-10
1.50329716861e-10
1.72698100411e-10
1.50684122233e-10
8.98538578229e-11
1.11141388481e-10
2.18976827491e-09
4.98269990835e-08
1.89432531917e-07
5.29840747016e-07
8.20223769822e-07
1.00971915848e-06
2.17636152764e-06
2.64610547938e-06
2.25711708898e-06
2.88353218494e-08
2.16589034207e-08
1.48914918205e-08
7.54147074877e-09
2.03393386965e-09
3.16666652012e-10
8.97691447668e-11
1.55618247659e-10
1.24414054858e-10
7.44283363688e-11
1.39977142433e-10
4.21697699532e-09
7.4874928535e-08
2.50323051752e-07
6.05213461326e-07
9.70586236707e-07
1.16610834948e-06
2.51498040212e-06
2.77230839313e-06
2.35830851092e-06
3.84097763988e-08
2.61178735494e-08
1.52552208783e-08
6.02087044105e-09
1.07343924889e-09
1.51918692246e-10
6.6944997752e-11
1.33519984372e-10
9.41523537577e-11
6.43750047999e-11
1.97650803212e-10
7.85716515953e-09
1.09972014935e-07
3.66586979069e-07
6.90094262777e-07
1.12819851457e-06
1.31928222163e-06
2.74964585405e-06
2.88336608395e-06
2.45385272738e-06
4.81036469172e-08
2.89981736247e-08
1.41647974602e-08
4.17657759651e-09
4.9126126518e-10
7.62048323541e-11
6.3057520565e-11
1.06595663027e-10
6.5776771039e-11
6.22488282121e-11
3.09035826188e-10
1.43666316948e-08
1.48111994267e-07
4.74891314394e-07
7.85782956861e-07
1.28481352852e-06
1.45632136179e-06
2.90056871638e-06
2.97619516283e-06
2.52976586504e-06
5.63313478132e-08
2.98392341339e-08
1.19587031618e-08
2.51829037556e-09
2.02139929294e-10
4.25288837124e-11
6.2736376685e-11
7.78704834498e-11
4.66812797634e-11
6.83278264056e-11
5.00012630419e-10
2.46694284134e-08
1.82020127971e-07
5.39412296281e-07
8.84672328367e-07
1.45050298927e-06
1.58044930811e-06
2.96298363156e-06
3.04977257176e-06
2.57720495196e-06
6.18374182302e-08
2.85499428838e-08
9.08969240942e-09
1.29054021985e-09
8.2628637934e-11
2.84191952935e-11
6.05365233186e-11
5.38566850586e-11
3.60950989913e-11
8.43188241299e-11
7.96643990725e-10
3.82924290987e-08
2.26071232139e-07
5.88100654355e-07
9.82459683255e-07
1.64642501008e-06
1.71358289135e-06
2.91524676342e-06
3.10215672219e-06
2.59759739456e-06
6.37217539377e-08
2.51200840572e-08
5.9861729661e-09
5.61729660629e-10
4.35317400954e-11
2.52869891745e-11
5.25797549056e-11
3.93621542484e-11
3.19904250816e-11
1.12252028073e-10
1.34816608793e-09
5.57183285766e-08
2.9533690346e-07
6.3215256236e-07
1.08699456296e-06
1.88658808944e-06
1.9070279862e-06
2.8092539861e-06
3.12538792305e-06
2.59711064003e-06
6.15294851838e-08
2.00254695611e-08
3.37241005005e-09
2.29647939592e-10
2.9606743311e-11
2.65183532003e-11
4.39814756837e-11
3.1960648202e-11
3.33431531532e-11
1.52311486231e-10
2.5145000633e-09
7.78535137387e-08
3.70202686003e-07
6.79267051818e-07
1.22878170026e-06
2.1721208161e-06
2.2336700755e-06
2.74403727962e-06
3.11668711147e-06
2.58081742658e-06
5.58157037455e-08
1.44069968131e-08
1.72299346428e-09
1.0746925474e-10
2.43548689843e-11
2.77228158068e-11
3.8573709103e-11
2.91686313825e-11
4.03376159361e-11
2.07728527793e-10
4.85751932738e-09
1.04315531326e-07
4.30879472242e-07
7.49290201376e-07
1.4711265755e-06
2.51624516877e-06
2.70362362368e-06
2.80271687371e-06
3.09252586563e-06
2.55138420411e-06
4.7871134138e-08
9.55850180504e-09
8.6732844884e-10
6.60400949797e-11
2.43645846039e-11
3.0096952668e-11
3.58012775321e-11
3.02725266657e-11
5.33906333565e-11
2.82950561548e-10
9.01391103078e-09
1.40146046112e-07
4.7749752279e-07
9.00645371395e-07
1.89536050302e-06
2.92960400978e-06
3.19770738216e-06
3.1306096505e-06
3.0807438419e-06
2.51229320084e-06
3.92824939483e-08
6.0368202674e-09
4.53255288343e-10
5.3727571998e-11
2.75918958763e-11
3.4884283361e-11
3.51653870218e-11
3.59718507954e-11
7.12075561329e-11
3.67317292356e-10
1.54994235113e-08
2.10887922306e-07
5.46141911976e-07
1.23868714083e-06
2.49338141216e-06
3.38816700868e-06
3.67477678516e-06
3.68646104839e-06
3.07142335291e-06
2.46777353951e-06
3.13144485303e-08
3.74979599554e-09
2.6231580631e-10
5.43632518297e-11
3.53091656641e-11
4.38899161617e-11
3.86137504243e-11
4.91851347121e-11
9.05918662202e-11
4.52787335962e-10
2.48087556012e-08
2.74694670112e-07
7.13053650401e-07
1.8627065048e-06
3.15914384199e-06
3.90439161647e-06
4.25372704828e-06
4.08119155725e-06
3.03724510676e-06
2.42263360711e-06
2.46734319646e-08
2.35366774457e-09
1.80918490956e-10
6.37476458704e-11
5.03275675052e-11
5.74270778019e-11
4.92167928149e-11
7.42791599253e-11
1.12206068397e-10
5.83766329492e-10
3.7074076093e-08
3.34346274392e-07
1.14779523669e-06
2.73552412471e-06
3.84508718307e-06
4.51272698536e-06
4.73507596309e-06
4.10188121433e-06
2.99669804463e-06
2.37927382527e-06
1.9331450807e-08
1.5100922299e-09
1.51109242083e-10
8.02933310878e-11
7.50085782829e-11
7.49789110209e-11
7.10854122938e-11
1.12719348599e-10
1.40792039124e-10
7.94060834536e-10
5.64648245219e-08
4.63550215564e-07
2.04989592422e-06
3.59470916091e-06
4.43669724821e-06
4.87468603374e-06
4.77160734794e-06
4.04912332186e-06
2.95738559825e-06
2.33820939443e-06
1.48671730186e-08
9.92028857283e-10
1.46033973471e-10
1.0380204615e-10
1.07176448023e-10
9.59488991522e-11
1.10198472285e-10
1.597127878e-10
1.72156696941e-10
9.69695411394e-10
7.54776376002e-08
8.18213165735e-07
2.99369268321e-06
4.01536012251e-06
4.59436509899e-06
4.86026408377e-06
4.70830509786e-06
4.00321531103e-06
2.92393756699e-06
2.30068847987e-06
1.09934959017e-08
6.79712892617e-10
1.52134475599e-10
1.32643924491e-10
1.37981700692e-10
1.23383194804e-10
1.69491039213e-10
2.09700275822e-10
1.98912706056e-10
8.81400022007e-10
7.03020174146e-08
1.14888846687e-06
3.2580854539e-06
4.03295024611e-06
4.5543888346e-06
4.8028521097e-06
4.65672863194e-06
3.9712788808e-06
2.90109100927e-06
2.26909194343e-06
7.75950956114e-09
5.10465455512e-10
1.61719744733e-10
1.55627310529e-10
1.59311552332e-10
1.60313266487e-10
2.38571082843e-10
2.6114855591e-10
2.25417017405e-10
6.19758181916e-10
5.3656020178e-08
1.02540479496e-06
3.22743450034e-06
3.99451782668e-06
4.5112039108e-06
4.7584732815e-06
4.621405704e-06
3.95535392171e-06
2.89182286262e-06
2.24543897842e-06
5.31002401769e-09
4.38227802831e-10
1.76404767952e-10
1.60566284983e-10
1.69130881619e-10
2.02236360689e-10
3.00250554512e-10
3.12432820083e-10
2.57806224422e-10
4.17880536439e-10
3.16059309266e-08
7.29515031355e-07
3.1596022201e-06
3.96006969666e-06
4.47783834131e-06
4.72726120381e-06
4.60099095898e-06
3.95496687021e-06
2.89732734534e-06
2.23054257383e-06
3.65731915407e-09
4.24820516974e-10
2.01407629273e-10
1.60132420833e-10
1.75913603437e-10
2.40855945849e-10
3.47987856664e-10
3.60051686857e-10
2.94618055851e-10
3.25595586325e-10
1.91796225551e-08
4.42944745194e-07
3.02158382166e-06
3.93107798375e-06
4.45354294211e-06
4.70714231717e-06
4.59306223978e-06
3.96868461652e-06
2.91815202765e-06
2.2248505208e-06
2.64948562654e-09
4.44791325377e-10
2.30423980206e-10
1.64011938537e-10
1.86071018444e-10
2.72293180277e-10
3.83485361443e-10
4.0072254481e-10
3.29229145876e-10
3.02411292951e-10
1.39788599578e-08
2.76622218457e-07
2.71821812464e-06
3.90874891219e-06
4.438590823e-06
4.69685354606e-06
4.59532380279e-06
3.99434143249e-06
2.95431679583e-06
2.22937230883e-06
2.00953905936e-09
4.82380184752e-10
2.48720414838e-10
1.73024305581e-10
2.00734328141e-10
2.97090890669e-10
4.10213444766e-10
4.33070150174e-10
3.56335937268e-10
3.21166025958e-10
1.21611178909e-08
2.03793863071e-07
2.187811162e-06
3.89439647771e-06
4.43502492144e-06
4.69651897134e-06
4.60609145823e-06
4.02895641147e-06
3.00451501644e-06
2.24568560406e-06
1.63308212175e-09
5.32292717597e-10
2.57149320877e-10
1.84388525224e-10
2.16285064955e-10
3.17036651306e-10
4.32164765203e-10
4.57617968184e-10
3.74189673702e-10
3.61521032146e-10
1.25485014023e-08
1.75816476115e-07
1.6193330007e-06
3.88538385571e-06
4.44638423317e-06
4.70786574599e-06
4.62567530944e-06
4.07130988968e-06
3.0670043791e-06
2.27532656694e-06
1.44675142209e-09
5.916986811e-10
2.72306694162e-10
1.9543498796e-10
2.302234762e-10
3.34472041431e-10
4.52525558403e-10
4.754308577e-10
3.83555289152e-10
4.12703208274e-10
1.50264360242e-08
1.701992744e-07
1.24545774125e-06
3.87509868495e-06
4.47275752125e-06
4.72952699607e-06
4.65197263644e-06
4.11848136945e-06
3.13890673463e-06
2.3185606371e-06
1.38397607624e-09
6.46567036318e-10
2.91308991237e-10
2.05907073428e-10
2.42098156726e-10
3.50180819347e-10
4.71341145571e-10
4.87282789743e-10
3.86419832399e-10
4.78351519046e-10
1.93471951064e-08
1.82514022263e-07
1.07467721954e-06
3.8579235586e-06
4.5097843499e-06
4.75765023265e-06
4.68136570454e-06
4.16613645495e-06
3.21513610694e-06
2.37412416653e-06
1.38832215542e-09
6.64871733246e-10
3.06675058941e-10
2.13898204361e-10
2.51271275335e-10
3.63914905868e-10
4.87766339262e-10
4.94190929046e-10
3.84989911765e-10
5.62520313833e-10
2.53065248039e-08
2.08458601053e-07
1.00792959131e-06
3.81507082865e-06
4.55173152891e-06
4.78838405873e-06
4.71072133111e-06
4.21072486937e-06
3.29078490415e-06
2.44007369474e-06
1.40862688483e-09
6.36982608858e-10
3.12545688114e-10
2.17521112704e-10
2.57198424993e-10
3.75288886207e-10
5.01870114411e-10
4.98808914836e-10
3.82540020878e-10
6.70698089201e-10
3.27075804135e-08
2.42922722627e-07
9.89393436327e-07
3.72990451494e-06
4.5935259163e-06
4.81953136987e-06
4.73815130823e-06
4.24974005159e-06
3.36144441664e-06
2.51400872404e-06
1.39635116424e-09
6.10985951417e-10
3.08351759922e-10
2.16474747079e-10
2.60204001877e-10
3.84044357568e-10
5.13991675427e-10
5.04346954134e-10
3.82561484837e-10
8.08739644306e-10
4.11756174769e-08
2.79436692175e-07
1.04344121007e-06
3.70260379383e-06
4.63393660343e-06
4.84955106236e-06
4.76253155923e-06
4.28152774009e-06
3.42304717347e-06
2.59263352741e-06
1.27144565255e-09
5.87586416172e-10
3.02112422918e-10
2.13942004482e-10
)
;

boundaryField
{
    emptyPatch
    {
        type            empty;
    }
    minY
    {
        type            calculated;
        value           nonuniform List<scalar> 0();
    }
    maxY
    {
        type            calculated;
        value           nonuniform List<scalar> 0();
    }
    maxX
    {
        type            nutkWallFunction;
        blending        stepwise;
        value           uniform 0;
    }
    water_to_heater
    {
        type            nutkWallFunction;
        blending        stepwise;
        value           uniform 0;
    }
    procBoundary1to0
    {
        type            processor;
        value           nonuniform List<scalar> 
41
(
1.04233687616e-05
1.1203906277e-05
1.09328800782e-05
1.01502383096e-05
9.18786678756e-06
8.21617529759e-06
7.26409321686e-06
6.32475063565e-06
5.39386586827e-06
4.46533883507e-06
3.55969551548e-06
2.7173401224e-06
1.97952359415e-06
1.36792814752e-06
8.71383932821e-07
4.69735166215e-07
1.81905768151e-07
4.10009462965e-08
6.56336494166e-09
2.40658743471e-09
2.60879667437e-10
3.90465127739e-10
5.24458770375e-10
5.13960693908e-10
3.88273624486e-10
9.80024862841e-10
5.03621689145e-08
3.12054413449e-07
1.13201155189e-06
3.76759080489e-06
4.67545750031e-06
4.8778373088e-06
4.783764542e-06
4.30532697918e-06
3.47118167046e-06
2.66874635596e-06
1.07559316204e-09
5.47643550873e-10
2.98243938233e-10
2.60879667437e-10
2.12269044908e-10
)
;
    }
    procBoundary1to3
    {
        type            processor;
        value           nonuniform List<scalar> 
41
(
1.41124193825e-06
1.16338913503e-06
9.33044077311e-07
6.94778747006e-07
4.59406313089e-07
2.5503345348e-07
1.08781568337e-07
3.20678311379e-08
6.18763155794e-09
9.72134500607e-10
2.74063130547e-10
1.99876319843e-10
2.04483505073e-10
5.84724605348e-06
5.47731584199e-06
4.84320911967e-06
3.9472299328e-06
3.04325386522e-06
2.32958531155e-06
1.82856799319e-06
1.82856799319e-06
1.86135168752e-10
1.66248974354e-10
1.49334572864e-10
1.41199880211e-10
1.57580662881e-10
1.66087839891e-10
1.52032157649e-10
2.01716311191e-10
3.23808636991e-10
8.03164103901e-10
2.25290684107e-09
1.52617108571e-08
2.59928231785e-07
1.67291984059e-06
2.70753378579e-06
2.80655063343e-06
2.41032365471e-06
1.95898656516e-06
1.89413384146e-06
2.46190530555e-06
)
;
    }