/*--------------------------------*- C++ -*----------------------------------*\
| =========                 |                                                 |
| \\      /  F ield         | OpenFOAM: The Open Source CFD Toolbox           |
|  \\    /   O peration     | Version:  2312                                  |
|   \\  /    A nd           | Website:  www.openfoam.com                      |
|    \\/     M anipulation  |                                                 |
\*---------------------------------------------------------------------------*/
FoamFile
{
    version     2.0;
    format      ascii;
    arch        "LSB;label=32;scalar=64";
    class       volScalarField;
    location    "0.46/water";
    object      epsilon.gas;
}
// * * * * * * * * * * * * * * * * * * * * * * * * * * * * * * * * * * * * * //

dimensions      [0 2 -3 0 0 0 0];

internalField   nonuniform List<scalar> 
1504
(
4774.7130096
1143.80643679
302.06526002
91.2054449534
32.0134413019
12.7996150404
5.52852968394
2.56516388547
1.38997012538
0.945530910196
0.789240969272
0.746854544267
0.735266157386
0.736657121554
0.785996099238
0.872523867947
0.848386074325
0.613875501439
0.257438122906
0.0399160999678
4354.19740022
1071.51868798
293.856718281
92.0579863127
33.0120055771
13.0417403474
5.39675391948
2.41970482652
1.31927038136
0.925503673314
0.791251858366
0.760852190555
0.759626652928
0.773469486483
0.863134847652
1.00733562814
1.01356071633
0.744541025312
0.344605893483
0.0742689045024
3838.14837391
962.420516606
274.419155041
89.7427925358
32.8249576043
12.6756370518
4.99158516276
2.17900652929
1.22257851457
0.894005082436
0.784821870277
0.769157757849
0.789289769287
0.824066913557
0.949700450768
1.1467955758
1.17645322585
0.896201856727
0.439071345311
0.108765713418
3266.6671287
829.860433169
248.685813612
85.3607777354
31.509980754
11.6536356006
4.31983185902
1.88955718619
1.12334009046
0.857739693954
0.765959914068
0.757997277082
0.795732473405
0.863932283401
1.01394205851
1.26021639759
1.31477386005
1.04481536126
0.53763045403
0.150527779831
2583.96473821
709.287052113
232.004879207
82.9495974615
29.8019268712
10.2546266038
3.67904192904
1.68598578765
1.0509887482
0.811903075571
0.723785640104
0.715876756223
0.759063600613
0.847298981642
1.01317101289
1.30123950585
1.38547881616
1.14789602125
0.612821751716
0.217361746422
1974.66674733
666.37390763
239.75758512
85.8297375459
29.4812894358
9.70597649561
3.48808999198
1.62001613431
0.993247871765
0.74691762351
0.64929811364
0.62706917205
0.659026313561
0.748689683135
0.916889378568
1.20742886342
1.34058478393
1.16137564823
0.663252447711
0.285251500775
2180.03191314
820.818238808
297.104208647
100.766845575
32.4088246056
10.50735848
3.8115059219
1.70878241201
0.97043595305
0.676357555481
0.552361679172
0.506524194967
0.513959111627
0.579697523176
0.732005229809
0.96972389476
1.15020786332
1.0596201167
0.679932293216
0.34394460626
3668.40932821
1259.61150575
397.539969834
124.651836387
40.229381388
13.6966123632
5.04892393173
2.11901109163
1.06002149721
0.647098560499
0.474444456021
0.398742136232
0.375817160301
0.402011192342
0.500382083482
0.677623763935
0.859885678675
0.873157168573
0.644035782506
0.370082415611
6717.59710518
1817.30616077
506.927988382
157.916001625
53.6538308187
19.6074704221
7.45310047328
3.03582836076
1.35821040284
0.712191876883
0.453804120067
0.339269988369
0.285821803629
0.275753461412
0.31497031577
0.430439830355
0.581165639542
0.672155950014
0.572875838645
0.370323588729
8275.14853747
1988.00663622
593.560024994
200.551377025
73.122727429
28.0009908108
10.9508650418
4.40753703435
1.88371933392
0.892711737804
0.50304636625
0.336232654195
0.252157903653
0.2130045424
0.215105788215
0.269569989236
0.390990612559
0.508654467636
0.496862869916
0.365602623971
7427.43243972
1917.93179971
594.140137848
208.618199011
82.7947284601
36.2977519505
15.4659320196
5.94458555727
2.51152399551
1.15772850499
0.610053391125
0.377376258345
0.2603047913
0.197543782837
0.17610317685
0.198393444233
0.28667100328
0.401715160995
0.441022666984
0.363906894161
6593.02881203
1738.14144038
541.991606865
193.799560064
80.8664716357
38.4318333647
18.3544463353
7.42286062056
3.14567226901
1.45123926561
0.750162823764
0.445091772725
0.292330687038
0.208965327897
0.17083596646
0.174870013743
0.234296568737
0.346560895001
0.412863596595
0.372345509156
6046.64311661
1575.27156449
484.506874962
172.919516701
74.1004780609
36.9987902961
18.7066759754
8.10366459909
3.61412016299
1.71745042015
0.896668903312
0.524230529117
0.336014445985
0.234072940806
0.183366953192
0.175108707605
0.216599560418
0.327147971211
0.408952773026
0.394811987584
5716.59154372
1456.75483927
432.702424722
151.303307659
65.3084020153
33.3753529655
16.9840295688
7.9304539587
3.76663602901
1.87398166116
1.0085585901
0.595129224269
0.380544164462
0.264942893372
0.205748166646
0.189331211937
0.220306471258
0.329457401067
0.423972019434
0.432735397736
5655.61494173
1387.11929784
391.46632465
132.817565183
57.0640560481
29.163345185
14.7580432885
7.3533233969
3.70118016813
1.93021697121
1.07707851183
0.648358070657
0.41961561378
0.296930286558
0.233487033509
0.212663752412
0.237546961447
0.342811469514
0.453598930057
0.4846018594
5882.41895042
1360.27093171
366.438278069
119.996235298
50.0714993361
24.8704948056
12.9721543851
6.7652224487
3.55335279038
1.92798267141
1.11141856404
0.683031180376
0.451753747956
0.329230618642
0.265532896572
0.243115386194
0.265399422342
0.370266601497
0.492338390654
0.545424062677
6495.89119077
1404.46435324
358.228141822
114.241718817
45.8604258889
22.798591539
11.9883089446
6.36798410057
3.41740480608
1.90330962709
1.12078274754
0.700683199508
0.478174357148
0.362780397309
0.302280752718
0.280466503112
0.302715953908
0.40811882478
0.536385812854
0.612547426892
7675.88118976
1524.27859103
371.992487304
115.425412494
47.1370188752
22.7178712882
11.7047988716
6.16817984268
3.32113319368
1.86591474174
1.10584184181
0.703844495116
0.501973094726
0.39938677661
0.344568594072
0.324784135927
0.349788436981
0.451255297895
0.584207860707
0.68641012743
9716.97741194
1793.86446435
422.08353377
131.117063522
51.3768307939
23.5857864907
11.7436878096
6.06539440683
3.23378675392
1.79783363997
1.0613586559
0.697646809529
0.526980624215
0.440478399616
0.392586826693
0.376248605343
0.402998206025
0.492962259076
0.635278146533
0.768198991295
13073.0764073
2280.25316
531.293368024
155.573065368
56.6042453069
24.5323417094
11.7721419164
5.93216217861
3.07770823872
1.66593385176
0.991641101948
0.690143060707
0.556079537956
0.485923664445
0.445130858434
0.433457430065
0.454563252876
0.531753133108
0.688058820956
0.858012777045
15719.3145287
2775.49870172
662.319591619
183.635775763
61.9231145293
25.2824667023
11.6503806439
5.63101485179
2.7831758462
1.47702750773
0.918347437775
0.689510386751
0.589521225758
0.533608808845
0.500502928706
0.488237293064
0.496333899131
0.567186729483
0.737582014176
0.950069973683
15299.1059915
2938.35514951
731.908759236
201.464188266
65.233353877
25.3905564084
11.0991854691
5.03685910128
2.38106135638
1.28827177041
0.8633423394
0.698118664354
0.623997830329
0.579851257164
0.552457017691
0.529154154993
0.52552250159
0.597210598994
0.774294744913
1.03067160352
13549.8985701
2792.83277059
721.154357423
201.683256294
64.3992608872
24.0846538716
9.96220086393
4.29341510449
2.01016263214
1.14906648974
0.833310626808
0.710609179141
0.65295796163
0.619540760319
0.589339822113
0.552979711261
0.540335231132
0.609725318809
0.787020543884
1.07982631237
10979.1541549
2372.55784767
626.970386797
180.566070475
58.3003646337
21.6743111643
8.73847313951
3.67582253933
1.75480959467
1.06869498373
0.818415212402
0.716337236533
0.667856386411
0.642310859001
0.604880220868
0.56188156076
0.54014799169
0.592730704869
0.768989970437
1.07382946253
7975.14344216
1785.28625764
494.113658653
150.764184476
51.5118475806
19.6393896528
7.84025009755
3.2825509228
1.62033526027
1.02889420132
0.801696638104
0.703392400383
0.659034706015
0.634197396143
0.598358406954
0.555141112455
0.527189814725
0.553986860443
0.707985721214
0.996468635014
5422.26091403
1343.33772333
401.838632571
132.382647528
48.1262316736
18.6828037169
7.47858290112
3.15870608435
1.5806571669
1.0016503795
0.767286173927
0.661542603409
0.615032527245
0.587857469011
0.560460577726
0.526589599317
0.498001163419
0.501477907735
0.59686729303
0.858454388419
4155.27536955
1163.64031233
376.761323005
132.302910143
50.4441120175
19.7629259124
7.77001176593
3.23721708028
1.59324426258
0.974440564895
0.713409684291
0.59199117003
0.53293334067
0.502991476203
0.485841905824
0.466810185755
0.443990313245
0.436502910851
0.480917947573
0.680287159802
3934.86124409
1260.35402567
432.0682982
158.103972024
59.4713928052
22.5521204419
8.68013828881
3.57531021978
1.70681299436
0.97937001733
0.66393357888
0.512948265839
0.43618863343
0.398515826886
0.384956807891
0.378461301559
0.366333921987
0.358844689133
0.378924970296
0.488830897349
4723.42965951
1618.39238949
545.693902409
187.182581558
67.0408570611
25.3932035424
10.184816796
4.35865327629
2.04866015121
1.08872726448
0.663255739132
0.462706566581
0.361405475637
0.309026277093
0.287782636129
0.284155696594
0.28182128505
0.280178953615
0.293159558586
0.355299193575
5800.23933217
1881.83799949
588.007756222
187.584787544
67.1963844891
27.3015113802
12.1675738219
5.63709460482
2.67804165868
1.35938560722
0.754094967858
0.471815131236
0.334013196769
0.26046446168
0.223969446154
0.212967646407
0.213425250316
0.217328079451
0.22980917766
0.271917049021
5926.49411426
1670.4160245
517.623712004
177.544250551
69.2812990379
30.8185796658
15.15480411
7.52659244034
3.58378468351
1.78612097322
0.947245213915
0.549856380138
0.35883049687
0.257270783922
0.202140740843
0.178653914978
0.174607272392
0.179696019205
0.192178913477
0.223522201995
5600.08642622
1534.25310734
483.147600997
175.19204168
73.718697835
35.3913390805
18.6797872449
9.89178534014
4.82787065437
2.4008368258
1.24624277003
0.696266776606
0.430231441031
0.290646136192
0.213861189163
0.176435230563
0.164080384036
0.165975083639
0.176863768129
0.20135745506
5255.16012568
1447.80777652
469.418260411
179.326477228
79.9561387161
40.3402020846
22.0853950392
12.0476009006
6.17209739626
3.13998400725
1.63348121373
0.899965207201
0.538525638784
0.349363204947
0.246947237355
0.195314576238
0.173618609682
0.170096982384
0.177987520037
0.197648870545
4897.62196221
1359.08117044
462.806512688
187.16976337
87.6856218859
45.8475117487
25.60944622
14.1474277864
7.49110251283
3.90205076077
2.05258158481
1.12968623254
0.66567116907
0.420589455264
0.290342711578
0.225046427089
0.194868721564
0.185285759454
0.189270851056
0.204694718117
4110.65731347
1209.03688016
440.282229759
189.255192421
93.0398305796
50.2954896762
28.5929740545
16.0223345196
8.67786183086
4.61138862431
2.46022465463
1.36282433855
0.798180569211
0.495922891264
0.337950966806
0.25999705974
0.222431033986
0.20703267635
0.206702215844
0.218164676816
3017.43439373
987.707306356
386.804323187
177.088503049
91.6870939923
51.4620855368
29.9302812561
17.1192005001
9.48367354605
5.14233671421
2.79246577381
1.56692688094
0.919444728051
0.56759663498
0.385946345872
0.297358335134
0.253469250528
0.232833133858
0.227816292863
0.235254635186
2305.08190033
782.659891752
318.217188416
153.043592642
83.2681586634
48.6255654615
29.045587869
17.0154198114
9.65633367868
5.35635394319
2.9750979498
1.70265502632
1.01049369979
0.628067752362
0.431360050594
0.335548457627
0.28655794751
0.261081414748
0.251427038632
0.254203311257
1984.90649662
641.381113517
258.695207975
127.20425319
71.515022051
43.0187929689
26.2612404138
0.00145248541226
0.00194373109994
0.00307844804948
0.00556922838742
0.0109161760898
0.0216656233687
0.040541300225
0.0678669274041
0.100724514368
0.135854078105
0.172090093586
0.211092045543
0.258361993986
0.327024749311
0.452963895565
0.763757331421
1.79133673697
0.00796677007918
0.00236920551029
0.00154948524127
0.00165720952034
0.00227147649189
0.0036980473644
0.00679463574645
0.0132502829874
0.025607636315
0.0459361069376
0.0735225923917
0.105178309318
0.138116414504
0.17161688233
0.2074749234
0.250956373735
0.314254459829
0.429902071114
0.712858801377
1.66028490662
0.0120729635113
0.00313586804565
0.00179572434043
0.00190339027293
0.00267071670526
0.0044533781149
0.00825761546201
0.0159211767296
0.0298362017746
0.0512883943056
0.0787215112773
0.10894155605
0.139649034251
0.170489929441
0.203337438583
0.243201785495
0.301389649154
0.407232162635
0.662660650573
1.52191315142
0.0188678720125
0.00444962108047
0.00211269899508
0.00219833285412
0.00315176007202
0.00535900742506
0.00996733945094
0.0189001747833
0.0342464013928
0.0564595524369
0.0833807632534
0.111998102931
0.140473901396
0.168747767014
0.198724000912
0.235143948254
0.288480914258
0.385078082277
0.613800053789
1.37850516357
0.0290954500878
0.00681736901242
0.00253627308891
0.00254978397518
0.00372301568479
0.00642409583638
0.0119201514473
0.022136909326
0.0387225958282
0.0613327197479
0.0874498768762
0.114357074014
0.14063200227
0.166444790428
0.193693478749
0.226841905159
0.275586769293
0.36355316046
0.566895708572
1.23315829283
0.0432035800345
0.0110119539643
0.00313453912863
0.00296704017741
0.00439138709576
0.00765339149686
0.0141029362746
0.0255705679113
0.0431601836566
0.0658306973916
0.0909206775222
0.116061003632
0.140190569205
0.163657098838
0.188323536034
0.218370894725
0.262775734618
0.342760479361
0.522563979515
1.08982624518
0.0728096809856
0.0173556154373
0.00404930003632
0.00346355750504
0.00516455203784
0.00905186533075
0.0165024235331
0.0291478313523
0.047488079952
0.0699288113015
0.0938319237535
0.117187676464
0.139243015543
0.160480775063
0.182707605421
0.209818698734
0.250121716179
0.322777442445
0.481328632427
0.952884955494
0.10051657435
0.0216216629501
0.00552910000184
0.00406300004684
0.00605657057447
0.0106337991608
0.0191192184894
0.0328419732943
0.0516839378201
0.0736567725701
0.0962635869877
0.117841702943
0.137899166777
0.157021379558
0.176944144163
0.201275109493
0.237694082433
0.303637821975
0.443526712354
0.826513866607
0.140440708925
0.0228135145064
0.00764043617153
0.00481284063261
0.00709891982388
0.0124358796939
0.0219818680071
0.036664128111
0.0557736247425
0.0770845007318
0.0983176356341
0.118134820907
0.136266492494
0.153376567218
0.171120613895
0.192817470783
0.225546174059
0.285320415259
0.409233247497
0.714036574303
0.178657445879
0.0385055406869
0.00887608628492
0.00578782111864
0.00834901122786
0.0145226878479
0.0251454948919
0.0406516140437
0.0598059808817
0.0802889531815
0.100085860295
0.118157823349
0.134426449688
0.149616173824
0.165296273269
0.184495224773
0.213702595227
0.267743832087
0.378223680884
0.617399453881
0.205527758072
0.0500851595839
0.00753932717946
0.00699588292495
0.00988738831626
0.0169729857725
0.0286657675275
0.0448325052899
0.0638115129623
0.0833151587264
0.101618745584
0.117957369929
0.132417574732
0.145769713199
0.159492293682
0.176321217001
0.202153149922
0.25077503774
0.349996881069
0.536953101827
0.226046096571
0.0756516812628
0.00812379004383
0.0079733198482
0.0118058836089
0.0198533317339
0.0325637312082
0.0491912714593
0.067773290024
0.086156889278
0.10291608518
0.117533722256
0.130237485967
0.141830534346
0.153696660254
0.168276566836
0.190859459062
0.234257184785
0.323870546662
0.471593318195
0.247765755234
0.104442761583
0.0135158409875
0.00788468163221
0.014170057088
0.023198276779
0.0368086492498
0.0536631314867
0.0716317300394
0.0887705154541
0.103946347423
0.11686199799
0.127863732796
0.137775266629
0.147882005982
0.160326752205
0.179770209724
0.218038989744
0.299101997077
0.419142096771
0.280194122889
0.138043373419
0.0229574610837
0.00716618252101
0.0169361537351
0.0270156335003
0.0413340904109
0.0581614186079
0.0753166818146
0.0911079255429
0.104677192821
0.115918545382
0.125275801239
0.133582196546
0.142021498506
0.152435808604
0.168833106885
0.201992701573
0.27499041115
0.376755610468
0.325885369283
0.179340962976
0.0345814117982
0.00714329253948
0.0198848689621
0.0313143033509
0.0460696462096
0.062608646442
0.0787730117449
0.0931357378362
0.105088487201
0.114688834683
0.122459405774
0.129233479517
0.136090208168
0.144567124177
0.157992902821
0.18600697263
0.250925876702
0.341246388803
0.384682269486
0.230462365745
0.0588371449388
0.00878306686434
0.0226136396164
0.0361361013966
0.0509604184297
0.0669433675313
0.0819584894401
0.0948280494542
0.105162681562
0.113157461307
0.119397302208
0.124707038678
0.130057588132
0.13667577039
0.147182338707
0.169975144423
0.226425277358
0.30935626954
0.454889635965
0.291862395511
0.0933572972504
0.0133050418231
0.0245149742299
0.0415838495548
0.0559732924294
0.071108938735
0.0848276373657
0.0961514826097
0.104873699391
0.111301793526
0.116067416615
0.11997745778
0.123887781757
0.128705645513
0.136321492122
0.153814007575
0.201210647832
0.278021113701
0.536479219536
0.359352536826
0.137609777629
0.0232914955922
0.0251685182917
0.047814537442
0.0611012958373
0.0750412859764
0.0873194374609
0.0970583408807
0.104186612835
0.109098010791
0.112455309021
0.115036545119
0.117575541207
0.120666222234
0.125498710923
0.137821890251
0.175720768004
0.244773976181
0.632622479723
0.43487776341
0.193267244563
0.0409828239171
0.0250641433174
0.0549414538008
0.0663924303183
0.0786748360756
0.0893569936392
0.0974835418228
0.103050594581
0.106508388492
0.108537590192
0.109887268313
0.111200356491
0.112871752873
0.115601842441
0.123802547306
0.152491105656
0.209277449822
0.74858992968
0.533049613642
0.26470576068
0.0622678857875
0.025906366957
0.0626672280827
0.072060181062
0.0819976198564
0.090881108773
0.09736703927
0.101413716086
0.103489032991
0.104277837362
0.104502682168
0.104748952417
0.105319609385
0.106603118211
0.111576521359
0.130970811063
0.170082387985
0.886523528924
0.665021344454
0.358862418968
0.102144861614
0.0310800108527
0.0686045539045
0.0786337752354
0.0851526333016
0.0919139138305
0.0967018541548
0.0992643574018
0.100028238214
0.0996625739116
0.0988610746891
0.0981689485649
0.0978576356459
0.0981307510774
0.100533206475
0.110612287544
0.128004502877
1.03877611897
0.835208868382
0.4893216625
0.169043457433
0.0474262035432
0.0656473042118
0.0868000332
0.0885792804482
0.0926361071646
0.0955849267119
0.0966685683481
0.0961750676286
0.0947232067573
0.0929674830002
0.0914182094567
0.0903493030056
0.0898966346836
0.0903270905332
0.0913584907069
0.0858228053507
1.18929496662
1.02991240248
0.638910927007
0.260872643559
0.0796502213164
0.0518285148637
0.0948668587616
0.0931532288314
0.0934678195159
0.0942577173794
0.0937954337353
0.0920619455387
0.0895651328646
0.0869001126298
0.0845470465665
0.0828241428948
0.0819938037482
0.0815836920824
0.0752755283194
0.0504840659725
1.31740714664
1.21419969827
0.797534454495
0.372347433699
0.110436932477
0.0472745460113
0.0897019957104
0.0994956327628
0.0950533099935
0.0930808863709
0.0909094901602
0.0879223256797
0.0844097005111
0.0808679932219
0.0777469746433
0.0754973819181
0.0750666294464
0.0787598419284
0.0881401963831
0.0864176368174
1.39418882348
1.36264516555
0.968305148324
0.496123397287
0.178281813131
0.0684467644026
0.0625587118017
0.102862849564
0.0981225636894
0.0925633760275
0.0884517517738
0.0842306292539
0.0798011478924
0.0755036883718
0.071756743933
0.0691171987516
0.069079289543
0.0762319063871
0.101314029268
0.152163030833
1.38793852548
1.44621159389
1.11206848401
0.603376446038
0.25886566723
0.0850880956368
0.0475290294901
0.0865422158994
0.102072707532
0.0935299266965
0.0871922290965
0.0818542158113
0.0767838793698
0.0721085123619
0.0682479927359
0.0660956423816
0.0678710295069
0.0797728901094
0.120887024914
0.238102410123
1.27181649907
1.44549188805
1.2093193544
0.723156537919
0.350364219585
0.13142603729
0.0610289520442
0.0554675474662
0.0982736007861
0.0969639145919
0.088601726985
0.0826967339849
0.0779830512303
0.0744887114881
0.0729902434431
0.0744475242392
0.0818670531851
0.103876407585
0.169387935106
0.370170167241
1.06025609655
1.36113577575
1.23565474426
0.829320563723
0.433557411423
0.187565775443
0.0706329813469
0.0433933391613
0.0752793068244
0.1022421323
0.0967898807831
0.0930566264857
0.0931514992684
0.0966342683679
0.103221501141
0.114974723421
0.136771616286
0.182041051229
0.294209674456
0.612257567023
0.815425714572
1.197462668
1.19082401716
0.904904134071
0.518250245752
0.250883862189
0.0992019654197
0.0533125020426
0.0505942019578
0.102882533943
0.121640520678
0.12771532846
0.138399865806
0.152061962364
0.17126764038
0.201078122512
0.250424300663
0.340920837009
0.537640905953
1.03678743899
0.60101392582
0.994078158603
1.10696376935
0.947631793906
0.612167277423
0.323002054819
0.138636325827
0.0632568451631
0.0443890301971
0.0899369804191
0.158701598609
0.182017207265
0.197666512923
0.219381338117
0.255681454697
0.316318031897
0.41544615189
0.585359363833
0.92026979759
1.69647937093
0.4323894333
0.804099187692
1.01305655433
0.965039713015
0.704641088242
0.400385909494
0.189705956779
0.0795225999774
0.0531954817133
0.0679396162854
0.162166243327
0.213992522991
0.23441781461
0.26862783598
0.332348361702
0.441032674617
0.618323116617
0.90936256754
1.44157774532
2.60677723134
0.329301070573
0.654717780171
0.922095258148
0.962233860101
0.7971898218
0.50832894829
0.269335077312
0.118224763458
0.0676606050272
0.0528186018737
0.120282347991
0.219735124732
0.27334407446
0.334397614666
0.431555359304
0.592936337025
0.869294945082
1.32641074248
2.1028313771
3.72955636563
0.275244374017
0.543220351771
0.832431131617
0.940661681907
0.874413444724
0.638013020533
0.394108516795
0.194903766741
0.0862316240571
0.0598913958694
0.0806453113541
0.233845473883
0.376689125107
0.518851992898
0.67101301348
0.870336742226
1.22787074768
1.9125018362
2.97930651797
5.01919003864
0.25234283211
0.453869389226
0.738738827647
0.891684811545
0.903240666366
0.758177703479
0.55381391913
0.365462169139
0.187559150602
0.0981260004052
0.0982763018154
0.152905176904
0.208390081699
0.555942666306
1.12267688811
1.45139542981
1.67005208273
2.30820032242
3.27938960479
6.26349512934
0.24674393583
0.394405591194
0.651880194459
0.826924992644
0.884944394586
0.828180012496
0.691171277875
0.547609786241
0.416518256434
0.288389579203
0.217444732103
0.215404499969
0.219376290799
0.356476998286
0.600670733134
1.26968841421
2.12194580519
1.74888392341
1.74940045678
4.61420287341
0.250617370833
0.358274172763
0.581531102319
0.759456594356
0.846901550224
0.854330490103
0.793816458383
0.704414833628
0.620256123236
0.56846607742
0.519790300624
0.475308002084
0.456715891795
0.491682554306
0.641696080373
1.04708080735
2.2153184472
2.64317517385
2.2917497534
2.80919713106
0.260077196576
0.338327878182
0.5244332132
0.702478761388
0.810402249551
0.86140767143
0.865574726319
0.839853760252
0.809122810855
0.795782925969
0.794728935927
0.795921302217
0.849900536398
1.02538084498
1.45532731814
2.42886847872
5.33239693145
9.19401741442
3.3401266849
4.50416844159
0.272274783436
0.328639044354
0.473510705652
0.65436789303
0.7801539317
0.861537237211
0.915358911846
0.953647062332
1.00128508446
1.04731343269
1.08203437477
1.16656483446
1.51347255517
2.3723690471
3.4408904346
5.45944311948
8.40612883323
10.8402195515
3.05659010024
5.70065609201
)
;

boundaryField
{
    emptyPatch
    {
        type            empty;
    }
    minY
    {
        type            fixedValue;
        value           nonuniform List<scalar> 0();
    }
    maxY
    {
        type            inletOutlet;
        inletValue      nonuniform List<scalar> 0();
        value           nonuniform List<scalar> 0();
    }
    maxX
    {
        type            epsilonWallFunction;
        blending        stepwise;
        value           nonuniform List<scalar> 
38
(
16.9833777063
15.8865068076
14.7945533988
13.7184253896
12.6712188289
11.6674353576
10.721028556
9.84331684712
9.04113389437
8.31585620019
7.66343879651
7.07553723733
6.54134986056
6.04922345225
5.58793601129
5.1478795338
4.72269177326
4.31285301328
3.92706982343
3.55378244307
3.18873543702
2.82993491995
2.49033891102
2.42001575365
2.48130580285
2.78511882405
3.80413973297
6.53236055892
12.0069958664
20.8025874555
33.0920527031
48.9743882404
70.0596125315
94.3797941018
55.5478187133
20.029172349
21.1070006138
20.4363291532
)
;
    }
    water_to_heater
    {
        type            epsilonWallFunction;
        blending        stepwise;
        value           nonuniform List<scalar> 
60
(
13288.4158441
13288.4158441
12003.0910865
10258.8026678
8306.72026058
8306.72026058
6359.44006296
6359.44006296
5633.8486163
5633.8486163
7702.54620873
14234.8656023
25946.6297098
25946.6297098
32480.918547
32480.918547
31122.5133536
31122.5133536
28380.0524128
26023.463361
24551.338214
24551.338214
24080.3723958
24080.3723958
24702.7985952
24702.7985952
26441.9434498
29777.399193
35312.4854794
35312.4854794
43854.20154
43854.20154
50735.3099255
50735.3099255
49553.9574901
43504.6453498
34183.2703812
34183.2703812
22853.4585721
22853.4585721
14346.7807891
14346.7807891
11047.6535889
11805.5852432
16294.583563
16294.583563
22786.2106913
22786.2106913
25784.3345601
25784.3345601
25405.4071053
24159.8876763
22186.86238
22186.86238
17816.8796514
17816.8796514
12281.5380125
12281.5380125
8867.65461642
7233.36538565
)
;
    }
    procBoundary3to1
    {
        type            processor;
        value           nonuniform List<scalar> 
41
(
15.7315379116
9.13792976647
5.19353776759
2.96527960152
1.74465110554
1.05878939344
0.671705822885
0.471637566717
0.373032581764
0.320370985763
0.290343672332
0.275767426086
0.273110569484
1748.78377437
551.888975566
217.652708062
105.71468483
59.608947908
36.2167450571
15.7315379116
22.3872731294
0.284144200746
0.323435711621
0.430789628863
0.600496126195
0.741317638841
0.846737796544
0.939646683798
1.04089333481
1.15597311419
1.24963696399
1.3585702765
1.74989704449
2.64807010924
3.43466690871
4.62144085939
10.1411294158
14.2387054004
12.0688021029
2.7105021111
5.13512363253
)
;
    }
    procBoundary3to2
    {
        type            processor;
        value           nonuniform List<scalar> 
41
(
5021.9492545
1184.64646848
302.833810863
88.6304672964
30.6231388924
12.2726870501
5.46456695312
2.62680204745
1.43146333184
0.95254165026
0.777424370953
0.725191573753
0.711633656673
0.712756294949
0.730549988077
0.763095985342
0.700387275355
0.490231965948
0.182977529528
0.0198079070654
0.00128235738117
0.00167634618578
0.00257654058467
0.00456164491855
0.00892410418278
0.0180907661624
0.0352488334037
0.0618626141715
0.0956151452543
0.132851640704
0.171879368215
0.214152274384
0.26538208761
0.339661073995
0.476313249877
0.814912960063
1.9152975808
0.00538674182057
0.00187792478529
0.00135273346354
0.00135273346354
)
;
    }
}


// ************************************************************************* //
