/*--------------------------------*- C++ -*----------------------------------*\
| =========                 |                                                 |
| \\      /  F ield         | OpenFOAM: The Open Source CFD Toolbox           |
|  \\    /   O peration     | Version:  2312                                  |
|   \\  /    A nd           | Website:  www.openfoam.com                      |
|    \\/     M anipulation  |                                                 |
\*---------------------------------------------------------------------------*/
FoamFile
{
    version     2.0;
    format      ascii;
    arch        "LSB;label=32;scalar=64";
    class       volScalarField;
    location    "0.3/water";
    object      k.gas;
}
// * * * * * * * * * * * * * * * * * * * * * * * * * * * * * * * * * * * * * //

dimensions      [0 2 -2 0 0 0 0];

internalField   nonuniform List<scalar> 
1504
(
1.87554498205
0.767155890101
0.350371975585
0.178433468297
0.097559854638
0.0546464734415
0.0314850143973
0.0196395121057
0.0135409254966
0.00979733348837
0.00695989330893
0.00464089561944
0.0029863899352
0.00224993791711
0.00217355042344
0.00227328456455
0.00218516936459
0.00191879564085
0.00133718720221
0.000853895031
1.65742708446
0.720292774229
0.35135584153
0.185794860303
0.100795788901
0.0547000014516
0.0307969345268
0.0191465096323
0.0131673314387
0.00947782096552
0.00679443739224
0.00467615987988
0.00308190790434
0.00225226296593
0.00212005694237
0.00225712555226
0.00220596861756
0.0019981441424
0.0015383487449
0.000869224606089
1.48200088382
0.718549001552
0.3744126266
0.198874609018
0.105571378186
0.0565111061622
0.0316220028895
0.0194257694724
0.0131049910652
0.00930673191745
0.00671858359847
0.00473502569523
0.00315619787441
0.00221229036077
0.00199058893421
0.0021407587733
0.00213899843417
0.00198803216082
0.0016291960562
0.0010412053327
1.5387649225
0.790138893384
0.412814335744
0.216091250388
0.114272798665
0.0614218136157
0.0343740271341
0.0207133608566
0.013548206469
0.00942174736946
0.0067932573534
0.00483980970026
0.0032232397489
0.00213671438288
0.00180729683823
0.00192399682651
0.00198898791767
0.00189604083105
0.00162544160423
0.00119162087969
1.86776025429
0.916449115253
0.446290573122
0.230891897652
0.125726501192
0.0702019821196
0.0399963082335
0.023696277814
0.0148869106856
0.00999562162174
0.00710077639408
0.00508275599923
0.00338286201574
0.00210384815709
0.00161585084526
0.00166393721602
0.001777700826
0.00175139502651
0.00157326967363
0.00126539668654
2.32142007623
1.0058548754
0.473027961388
0.249473584646
0.142697610925
0.0835456467182
0.0488055217541
0.0286607323717
0.0172900033586
0.0111061801664
0.00769681803657
0.00551040437436
0.00369332982089
0.00218909751565
0.00148174767727
0.00143405496175
0.00155558977746
0.00159639842886
0.00149910457851
0.00127211910951
2.46502745276
1.07409204948
0.507972927629
0.273837141598
0.164162370304
0.101428168509
0.0602283550592
0.0350248048157
0.0204585008664
0.0126360583532
0.00853702166447
0.00610875295594
0.00415666954649
0.00241803614026
0.00146265987126
0.00126810207429
0.00137640486219
0.00146336212857
0.00143110830842
0.00126059337366
2.50132858889
1.10746994573
0.529426445012
0.288570917761
0.177978278407
0.115738358023
0.0721721045557
0.0420378000905
0.0239477681323
0.0143687012133
0.00951164214379
0.0068019307278
0.00471096446411
0.00276287261767
0.00155334383643
0.00119769717106
0.00125986980785
0.0013686200087
0.00138896693229
0.0012645556638
2.47648978199
1.11097513499
0.535789387063
0.293859411868
0.184357789604
0.124119274538
0.0805016369508
0.0474747029655
0.0271138781754
0.0161086122824
0.0105309367232
0.00751337861915
0.00527883030096
0.00316808030856
0.00172723650219
0.00120500887947
0.00118668577506
0.0013147073115
0.00137546348487
0.00128109475737
2.43724010496
1.0956388398
0.529351899053
0.290949461934
0.18423938272
0.126770284952
0.084726252178
0.0505403186092
0.0291082737545
0.0174100136046
0.0114096589107
0.00815869059019
0.00578552847397
0.00355279338293
0.00193995700679
0.0012640919869
0.00115706833217
0.00129218504064
0.00138066752232
0.00130194996555
2.39586917112
1.07981056214
0.521136495156
0.285495593255
0.180989646148
0.125762550533
0.0852699405254
0.0512112898613
0.0298614836123
0.0181573244128
0.0120726183219
0.00870977546294
0.00621616865328
0.00387254836047
0.00213472865609
0.00134249589588
0.00116524502271
0.00128785590147
0.00139296066992
0.00132892600626
2.35699327133
1.06356084351
0.512315719458
0.279224709127
0.176289598035
0.122515701069
0.0827197185609
0.0498790926686
0.0296062727989
0.0184547792902
0.0125577487149
0.00917535872663
0.00656877005259
0.00412063925563
0.00229348173551
0.00142059744694
0.00119080346971
0.00129207164034
0.00140920984436
0.0013582022993
2.31784765787
1.04868618038
0.504473482225
0.273422954845
0.171258975105
0.117965891949
0.0779917978144
0.0473329441125
0.0287856449062
0.0184996579698
0.0129328734039
0.00956614348999
0.00684251215411
0.00429962046002
0.00241254151478
0.00149025730276
0.001224674155
0.00130520750709
0.00142770423999
0.00138492716214
2.2886217859
1.03701885826
0.498220027774
0.268331107774
0.166096825213
0.112245273121
0.0722310010796
0.0443688402412
0.0277713331241
0.0184400001648
0.0132374785528
0.00988206768159
0.0070395428999
0.00441589346573
0.00249433058982
0.0015486162515
0.00126194450548
0.0013265766723
0.00144618430119
0.00140494339087
2.28418101745
1.02947252807
0.490429623366
0.261609466932
0.159538517266
0.10471075329
0.0662470702709
0.0414560911325
0.0267522493063
0.0183516594388
0.0134852493143
0.0101180197672
0.0071627852382
0.00447495489607
0.00254222007473
0.00159513179519
0.00129946585366
0.00135395762064
0.00146120873991
0.00141679536853
2.33703739577
1.03654487188
0.484198697643
0.253341971411
0.151208044439
0.096026236599
0.0607095192556
0.038861000002
0.0258299048112
0.0182793680677
0.0136861701371
0.0102670934403
0.00721152025926
0.00447982245725
0.00255897849454
0.00162928636966
0.00133450094642
0.00138390745639
0.00146881806
0.00141534078876
2.45220294722
1.06310213079
0.481253656989
0.243878058653
0.141613334843
0.0880947391949
0.0561425076319
0.0367044224961
0.0250678017667
0.0182388371002
0.0138198570076
0.0103204398112
0.00718422021985
0.00443459463742
0.00254788852432
0.00165078116431
0.00136280768054
0.00140740317723
0.00146621771637
0.00139935249369
2.60551534383
1.11102171923
0.487033411401
0.236952320185
0.13349898638
0.0821565145591
0.0527458033435
0.0350366412611
0.024539170688
0.0182352375522
0.0138647595343
0.0102841433644
0.00709106777691
0.00435205618551
0.00251734309446
0.0016607573116
0.00138065705032
0.00141274050928
0.00145245818949
0.00136938444734
2.74703159726
1.16576692717
0.500603966369
0.235449251085
0.129021238798
0.0785678353893
0.0504734616886
0.0339403975305
0.0242983612803
0.0182654097205
0.0138437360547
0.0101932547961
0.0069639899597
0.00425843517632
0.00248146580422
0.00166194541304
0.00138570197563
0.00139643418517
0.00142690918613
0.00132550198802
2.86650525625
1.20907236515
0.515537176115
0.238625774566
0.128045644432
0.0768671133929
0.0491950804079
0.0335058373249
0.0243438361315
0.0183348669771
0.0138437177558
0.010113825868
0.00685127541112
0.00418545864363
0.00245590930813
0.0016568486225
0.00137308808364
0.00135635540369
0.00138588126066
0.00126585675212
2.91244145028
1.23088299735
0.529221258319
0.245124122415
0.129614305869
0.0766359129699
0.048943324597
0.0337228863894
0.024675111087
0.0185958227216
0.0139995556322
0.0101342903136
0.00680200165615
0.00416137421999
0.00245421005862
0.00164726309089
0.00133886096927
0.00129109737847
0.0013221225941
0.00118883839956
2.80815616551
1.20184343299
0.528653856774
0.248920621654
0.131407484702
0.0772043412252
0.0495303260444
0.0345159647176
0.0254277968174
0.0192682257809
0.0144687805551
0.0103422584155
0.00684516944286
0.00419817399581
0.00248415738114
0.00163668877157
0.00128662227625
0.00120540555881
0.00122766027827
0.00109604090787
2.56014669434
1.12565323824
0.511264159605
0.247058839762
0.132236163123
0.078343327521
0.0508655914872
0.0359720749837
0.0269014627379
0.0206088023014
0.0154356720054
0.0108104267229
0.00696564423149
0.0042775494558
0.00255448878423
0.00164201998355
0.00122918122176
0.00109940923841
0.00109942341677
0.000985914647166
2.32257308765
1.04838294525
0.489538395134
0.243726830553
0.133946611411
0.0808609231012
0.053396568291
0.0385215906073
0.0294584635225
0.0229436206651
0.0171202309256
0.011571820515
0.00713518295048
0.0044062526906
0.00267231590963
0.00167013004193
0.00117634785411
0.000972699743051
0.000948243000882
0.000856602819647
2.26193389134
1.02226012387
0.482651635691
0.245790018656
0.138854004101
0.0858248859041
0.0578367031315
0.0426034974781
0.0334027749881
0.0265310557149
0.0194589571129
0.0124634572879
0.00748705469439
0.00465752536494
0.00284599765848
0.0017199264729
0.00113368489085
0.000853969175918
0.00079194929206
0.000711896531468
2.38525006294
1.05833672763
0.491864506516
0.251956356124
0.145739985478
0.0925215677567
0.0636689023577
0.0476909567585
0.0380499835069
0.0302060954522
0.0217712011518
0.0137743991371
0.00826493841272
0.00512687995903
0.00311653224803
0.00181464320234
0.0011124027807
0.000766404776718
0.000634412598549
0.000565530745708
2.52674721474
1.08308309253
0.499697813209
0.257815927712
0.151303200778
0.0976739244748
0.0680452406946
0.0512525785167
0.0411158239865
0.0330472262379
0.0244431327984
0.0157641929245
0.00948683623375
0.00584542862022
0.00354403261892
0.0019979531476
0.0011333523509
0.000715824290444
0.000519445373939
0.000436980973101
2.46777037446
1.07466257065
0.500603122601
0.260086400451
0.153021467927
0.0991123562978
0.0692743059981
0.0523219689937
0.0424345637644
0.0351717732585
0.0272592504677
0.0181566777579
0.0110225496001
0.00677036748725
0.00413364677781
0.00229692176036
0.00122071008623
0.000700752393199
0.000449710577068
0.00033518169202
2.37425174665
1.04902184886
0.494999026035
0.258228681213
0.151331825207
0.097651207383
0.0682132221508
0.0517700889087
0.0426777959504
0.036456348379
0.029268770332
0.0200499337053
0.0124268987069
0.00770961956567
0.00476267103664
0.0026658838301
0.00136881219611
0.000724338736528
0.000412718234029
0.000258515126151
2.30308113455
1.02224648583
0.485726212635
0.253055300892
0.147259022682
0.0944285534718
0.0657529452004
0.0500348840498
0.0417718831751
0.0364237786808
0.0298620217562
0.0209226657939
0.0133225681628
0.00843368364106
0.00528841556539
0.00300115858584
0.00152313636054
0.000762931287906
0.000391525554577
0.00020943727835
2.2718396253
1.0108247792
0.479565693275
0.247611120983
0.142464686818
0.0904864384181
0.0625378443421
0.047439222799
0.0397432776382
0.034911605788
0.0288702083841
0.0206748810046
0.0136082693924
0.00885726239903
0.00565288379189
0.00324766908446
0.00164530352882
0.000796235463616
0.000375924573863
0.000175910209615
2.28386540528
1.01526379649
0.479491764508
0.24469113912
0.138928922437
0.0871111852638
0.0594370901966
0.0446169928659
0.0370990189499
0.0323776928042
0.0267621710385
0.0196158384773
0.0133907119039
0.00898988633632
0.00583831031358
0.00337955560703
0.00171209063762
0.000810677820538
0.000358795997216
0.000151786822583
2.3180770045
1.03241033826
0.486279348921
0.246088262891
0.138138310914
0.0854417853168
0.0573721605817
0.0423397939818
0.0345777356118
0.0296524261124
0.0243826208134
0.0182617681029
0.0128890129429
0.00889800660191
0.00584967500516
0.00338721522475
0.00171243599576
0.000798439054486
0.000336091304187
0.000133003982316
2.36250991786
1.05315856573
0.496935325912
0.250981650983
0.140023904702
0.085755323671
0.056787551398
0.0411171854072
0.0327618403294
0.0274193240074
0.0223361857016
0.0169722124205
0.0122824504243
0.00865448716737
0.00570560245732
0.00328233138986
0.00165131964371
0.000760352136011
0.000309586433908
0.000118065400585
2.40217133143
1.06934270539
0.505767145597
0.256132786059
0.142867052223
0.087204348181
0.0573540992023
0.0409279929449
0.0318106335874
0.0258989720148
0.0207826812033
0.0158684027663
0.0116657318082
0.00831386451711
0.00544814111258
0.0030995669107
0.00154894165634
0.000705576654553
0.000282966592339
0.000106584605964
2.44248843336
1.08162500526
0.511599126768
0.259502152511
0.144945735746
0.0886259924897
0.0583555080012
0.0413693691921
0.031516474174
0.0249700641793
0.0196557133955
0.0149717923945
0.0110975904866
0.00792046499112
0.00514155324237
0.00288798656755
0.00143408580459
0.000649682554268
0.000260875989566
9.90366218372e-05
2.46634531519
1.08467678466
0.511976327893
0.259621310996
0.14521220718
0.0892151497346
0.0591646927747
0.0419575794358
0.0315410896488
0.0244192377381
0.0188603422366
0.0142910442195
0.0106145786752
0.00754061080053
0.00485250544478
0.0026999734933
0.00133829403078
0.000610998075671
0.000248451784647
9.64171804858e-05
2.44871044659
1.067648648
0.504803864142
0.256925671198
0.144099146864
0.089070234819
0.0596293285135
0.00136420911008
0.00133594772758
0.00133455736113
0.00140754075452
0.00166396075369
0.00230748689375
0.00355416875541
0.00537529567633
0.00744362758977
0.00943552859571
0.0111895203129
0.0126798014656
0.0139895257549
0.015345767192
0.017295012747
0.0212628015853
0.0311916224567
0.00139052329774
0.0014580824533
0.00140233049398
0.0013677555436
0.00134230905231
0.00134999932801
0.00144859545219
0.00176473668131
0.00251233748155
0.0038695390036
0.00573257632712
0.00775810403348
0.00965950283901
0.0113052168299
0.0126832840236
0.0138805634836
0.0151209004859
0.0169354735913
0.0206839834743
0.0300195812577
0.00113490545358
0.00148946241335
0.0014039391293
0.00136862228145
0.00134737440238
0.00136657652718
0.0014947676758
0.0018756833113
0.00272708473683
0.00418020463731
0.00606565477949
0.00803930029958
0.00985006252769
0.0113912020188
0.0126618022921
0.0137511662437
0.0148794224719
0.0165636764814
0.0201050573928
0.0288594130226
0.000787101702852
0.00153002215916
0.00140680462137
0.00136777841704
0.00135166970957
0.00138458552861
0.00154603893847
0.00199578839717
0.00294842822963
0.00448192290022
0.00637312824962
0.00828826056203
0.0100088638813
0.0114488353581
0.0126162023872
0.0136018184606
0.0146216678598
0.0161796714311
0.0195261860831
0.0277252947078
0.000799189551566
0.00146010716458
0.00141460176682
0.00136583651918
0.00135538858388
0.00140403355215
0.00160213721393
0.0021238331634
0.00317318892242
0.00477137146598
0.0066543682268
0.00850611298709
0.0101373286536
0.0114791891393
0.012547109745
0.0134328882591
0.0143480023762
0.0157836454575
0.0189473833281
0.0266305723976
0.000778922717815
0.000989157818395
0.00142489373931
0.00136363506007
0.00135867103004
0.00142482699144
0.00166273003665
0.00225860418974
0.00339853839807
0.00504618861831
0.00690940054895
0.00869411584569
0.0102368078552
0.0114832563464
0.0124551305501
0.0132448086159
0.0140589653438
0.0153761817776
0.0183687822059
0.0255871276685
0.000892248355326
0.000594157952906
0.00137921726789
0.00136236904142
0.00136168360054
0.00144690006306
0.00172761690886
0.00239912389034
0.00362223681601
0.00530500009307
0.00713882537908
0.00885368025692
0.0103086600996
0.0114620438054
0.012340943657
0.0130381437281
0.0137553431091
0.0149583093924
0.0177906961192
0.0246042608461
0.000997376161854
0.000653576125932
0.00107657747742
0.00136126615666
0.00136437093486
0.00147013792328
0.00179671974021
0.00254462019755
0.00384254279978
0.00554711067763
0.00734348207619
0.00898614565676
0.0103541025951
0.0114164737104
0.0122052357268
0.0128135515412
0.0134380820747
0.0145314107588
0.0172136019854
0.0236876899735
0.00106773497164
0.0006251708639
0.000606258743307
0.00134499242501
0.00136627049
0.00149424121733
0.00186991249022
0.00269425928103
0.00405787209051
0.00577202631746
0.00752405832851
0.00909253969369
0.0103740760538
0.0113473141314
0.0120486693662
0.0125717405535
0.0131082187571
0.0140970401657
0.0166380527798
0.0228390185798
0.00111652867235
0.000739749478848
0.000412266077225
0.00125588357176
0.00136658116628
0.00151869888075
0.0019468874597
0.00284692858172
0.00426656635256
0.00597918707085
0.00768096233915
0.00917358074483
0.0103693126716
0.0112552651812
0.0118719563992
0.0123135222429
0.0127668428428
0.0136568151375
0.0160646956907
0.0220556313025
0.00113139648515
0.000830884547653
0.000437023061446
0.00102353176909
0.00136349126586
0.00154280668278
0.00202707861299
0.0030011427503
0.00446682503012
0.00616790702989
0.00781438439202
0.00922981656708
0.010340489433
0.0111410872598
0.0116759481117
0.0120398508554
0.0124151041464
0.0132123086002
0.015494351095
0.0213314897998
0.00114786713863
0.000893908077859
0.00050798611957
0.000707441380209
0.00135098710433
0.00156559105366
0.00210947690955
0.00315492921232
0.00465670324973
0.00633747465874
0.00792453996967
0.00926193274762
0.0102885312969
0.0110058590708
0.0114618354358
0.0117519867543
0.0120543403532
0.0127650811413
0.0149280657854
0.0206579564033
0.00117062131165
0.000938752525249
0.000503678118712
0.000463461420878
0.00131589683296
0.00158626363163
0.00219308009197
0.00330652043059
0.00483496199258
0.00648805844226
0.00801257323979
0.00927156160433
0.0102152768056
0.0108514911333
0.0112315344164
0.0114518071767
0.0116863527149
0.0123172321462
0.0143673944872
0.0200248970686
0.00119583842495
0.000971913564869
0.000587929414297
0.000348635604689
0.00123955171505
0.00160545419474
0.00227830156301
0.00345592974379
0.00500244924218
0.00662178372136
0.00808133864545
0.00926179396673
0.0101237765264
0.0106808812316
0.0109877714766
0.0111418494879
0.0113134374578
0.0118710888779
0.0138146889334
0.0194230653052
0.00122112622315
0.000992977078251
0.000652916457407
0.000334283189162
0.00110596031016
0.00162516085106
0.00236710056518
0.00360488659486
0.00516165904042
0.00674207040011
0.00813467748294
0.00923650264442
0.0100177438204
0.0104975431577
0.0107339039801
0.0108252881333
0.0109386943881
0.0114291758954
0.0132727733035
0.018845988492
0.0012404604609
0.000989001758178
0.000688819429064
0.000386895844405
0.000922391393765
0.0016476314703
0.0024620256908
0.00375572764175
0.00531565607595
0.00685280252883
0.0081769108645
0.00920017494703
0.00990172199835
0.0103060927226
0.0104746811666
0.0105070486011
0.0105669547128
0.0109964781136
0.0127473370615
0.0182910748564
0.00124329502486
0.000973962880971
0.000703740085329
0.000453100673728
0.000718586510164
0.00167639508257
0.00256761185793
0.00391262327073
0.00546919656426
0.00695944619525
0.00821400017384
0.00915915330012
0.00978245302261
0.0101137991551
0.0102180598047
0.0101959244961
0.0102078107885
0.0105830716607
0.012249382534
0.0177620608604
0.00122418593782
0.000950223699144
0.000701593541273
0.000436635436139
0.000542038094519
0.00171583190527
0.00269094627816
0.00408164432491
0.00562856587847
0.00706888569238
0.00825349470551
0.00912175366933
0.00966920268716
0.00993113648359
0.00997600112522
0.00990547741738
0.00987608271673
0.0102047436715
0.0117960038926
0.0172703900712
0.0011874286194
0.000922291653161
0.000687334581955
0.000429040427443
0.000436691943497
0.00176467853695
0.00283818447735
0.00426713058454
0.00579864580201
0.00718723240792
0.00830284649911
0.00909678282107
0.00957217868552
0.00976979725321
0.00976170664402
0.00965016539446
0.00958691264623
0.00987654949712
0.0114021816534
0.0168268250714
0.00113708082885
0.000890287212233
0.000670712210373
0.000456551137028
0.000414854626352
0.00180275882578
0.00301435355507
0.0044722752604
0.00598437026957
0.00732132161295
0.00837017021448
0.00909302366992
0.00950043135306
0.00963886190192
0.00958401595137
0.00943807940221
0.00934706822738
0.00960299600667
0.0110702127998
0.0164330559752
0.00106986054555
0.000842393015853
0.000649166633507
0.000497555576057
0.000478751333902
0.00175333463002
0.00323310369591
0.00470841789736
0.00619797406595
0.00748323541677
0.0084656858789
0.00911762000075
0.00945748873834
0.00953815509181
0.00943906813817
0.00926163689568
0.00914528874247
0.00936936269627
0.0107831217562
0.0160792245433
0.000984504925042
0.000778952067109
0.000626799457227
0.000558497440427
0.000641043910519
0.00145142155341
0.00351626672515
0.00499905062113
0.00645981667857
0.0076883194164
0.00859699505012
0.00916872920841
0.0094315637537
0.00944625435939
0.00929651937964
0.00908264641394
0.00893694475203
0.00912649685158
0.0104912845223
0.0157387804708
0.00088417439157
0.000698369996785
0.00060162209703
0.000638962182988
0.000670992936393
0.00097239753284
0.0038369837594
0.00538138891214
0.00679738271312
0.00795272554739
0.00876538473081
0.00923069483243
0.00938964947543
0.00931371398752
0.00909255309764
0.00882616078496
0.0086401619093
0.00879066541421
0.0101208349247
0.0153893793468
0.000769541671253
0.00060441646185
0.000566606911165
0.000709418310231
0.000905986801323
0.00085472399264
0.00377131761455
0.00591648051563
0.00725482610847
0.00830256706453
0.00897809337417
0.00929232852579
0.00930412812255
0.00909989761403
0.00877869986879
0.00844311007562
0.00821450923781
0.00834204500391
0.00968968318978
0.0151121193015
0.000646073502118
0.000510216469554
0.000536953312886
0.000779131201579
0.00115554849639
0.00112790770755
0.00255843667754
0.00660595989266
0.00789390744263
0.00878142094562
0.00926606061236
0.00937676585375
0.00919481115275
0.00882544346712
0.00838118622069
0.00797200275195
0.00772059726303
0.00787769231438
0.00934469670042
0.0150663104858
0.000523265310667
0.000429597627481
0.000529202209419
0.000884461311564
0.00140442414493
0.00124697207973
0.00157023972606
0.00687618027278
0.00876947081943
0.00943777823659
0.00967942716978
0.00954417728325
0.00913761456923
0.00858520432426
0.00801577326638
0.00755277938556
0.00732789934406
0.00759705030182
0.00928028828064
0.015325177152
0.000411796394306
0.000374467438071
0.00055690539152
0.00103568320557
0.00166529611424
0.00164075269752
0.00159408804629
0.00543889172903
0.00975611292444
0.0102322645964
0.0101943366724
0.00979950719269
0.00917526565304
0.00846478946451
0.0078136987296
0.00736451595919
0.00726062110024
0.00773759530305
0.00963362457267
0.0157235005793
0.000321577444645
0.000351253463842
0.000626578282549
0.00123824079825
0.00192898614829
0.0019945029531
0.00182695246318
0.00334732140954
0.00997375937694
0.0107433050044
0.010435132775
0.00984357152561
0.00910668237559
0.00837121143464
0.00779265086991
0.00753348859422
0.0077291251453
0.00851634822123
0.0104973465087
0.0159778060582
0.000256914569437
0.00035577334288
0.000726623801916
0.00146026375921
0.00216804913214
0.00221330460619
0.00167299666515
0.00229989643231
0.00819420379432
0.0100969705608
0.00968558789558
0.00913616934602
0.00858609815267
0.00814044721598
0.00792825970003
0.00810770904133
0.00880120963823
0.0100274759615
0.0120513248042
0.0161748723517
0.000214672881912
0.000370879922967
0.000819642425587
0.00162838302923
0.0022932991391
0.00225107493861
0.00154295058151
0.00174986906061
0.00551543964932
0.00835618229069
0.00835940235098
0.0082965406823
0.00829609985495
0.00838062655882
0.00863624049558
0.00926871912252
0.0104555791174
0.0123073722112
0.0144882290774
0.0164713545244
0.000184823866708
0.000372271449371
0.000855719359487
0.00166172925641
0.0022247574098
0.00209380612071
0.00136733480879
0.0012655642499
0.00323352291693
0.00663628272816
0.00807641588434
0.00934287053085
0.0102599041555
0.0108188481282
0.0113629127503
0.0118749571734
0.0127543925182
0.0148613940016
0.0183122680654
0.0215004133658
0.000161105734908
0.000341141368831
0.000802370116967
0.00153873655492
0.00196480046806
0.00175183880133
0.00110231658169
0.000874687734927
0.00136259918477
0.00361020478901
0.00558833150534
0.00965071983514
0.0146053728051
0.0158993866928
0.014743087867
0.0129361562442
0.0161941879213
0.0172523055977
0.0218511031838
0.0312040267107
0.00013829163401
0.000292094934192
0.000687386178247
0.00128484142225
0.00157196452084
0.00132343684517
0.000772087899401
0.000504159573043
0.000405084352554
0.00117000440224
0.00301170078225
0.00802537787457
0.0110445781159
0.0064565424146
0.00556805382345
0.00446698194387
0.00454606315433
0.0193342769895
0.0244756505377
0.0401393342219
0.000116354328186
0.000231261514864
0.000541409757692
0.000978240311849
0.00114726899997
0.00090688355022
0.000507321207476
0.000249046852824
0.000189625483347
0.000283834379076
0.00305718722241
0.00887766012431
0.00554122680965
0.00732118990406
0.00704600660715
0.00612535387444
0.00447688608815
0.0058361749471
0.0256094324041
0.0459652420558
9.78963735604e-05
0.000172141118641
0.000391217181131
0.000681129569135
0.000769274186479
0.000580236929897
0.000335379144881
0.000188916664749
0.000173115755233
0.000631223456285
0.00370438090002
0.00628909108162
0.00672910492791
0.00672177843852
0.00634949356509
0.00546261493793
0.00414074302469
0.00271624132319
0.0261571712331
0.048389916743
8.41517576804e-05
0.00012667928836
0.000262870268423
0.000434420174722
0.000471587231417
0.000350505020965
0.000225562780645
0.000204742158266
0.000385521986106
0.00199389743541
0.00540743986908
0.00588380506785
0.00604662958254
0.00585349309014
0.00525024076423
0.00453093088322
0.00361983572357
0.00259751173016
0.025456748421
0.0492230483875
7.4907935081e-05
9.83028381124e-05
0.000172644026483
0.000261447877685
0.000274055951231
0.000220710945363
0.000198748435202
0.000334043941151
0.00120116362225
0.00373002926839
0.00517533699254
0.00554830602114
0.00540772709738
0.00490687398185
0.00433119132403
0.00368117021971
0.0030293133506
0.00254932477467
0.0244177525116
0.0505509008225
6.96617488839e-05
8.30700163664e-05
0.00012199870795
0.000165649370349
0.000177767650791
0.000182116959057
0.000264701849977
0.000701250335911
0.00220163135576
0.00434609424206
0.00522110650016
0.00519484527501
0.00474157728958
0.00423489535281
0.00365988605201
0.00306530478181
0.00276666771407
0.00262206112591
0.0265128403712
0.0530387413288
)
;

boundaryField
{
    emptyPatch
    {
        type            empty;
    }
    minY
    {
        type            fixedValue;
        value           nonuniform List<scalar> 0();
    }
    maxY
    {
        type            inletOutlet;
        inletValue      nonuniform List<scalar> 0();
        value           nonuniform List<scalar> 0();
    }
    maxX
    {
        type            kqRWallFunction;
        value           nonuniform List<scalar> 
38
(
0.0311916224567
0.0300195812577
0.0288594130226
0.0277252947078
0.0266305723976
0.0255871276685
0.0246042608461
0.0236876899735
0.0228390185798
0.0220556313025
0.0213314897998
0.0206579564033
0.0200248970686
0.0194230653052
0.018845988492
0.0182910748564
0.0177620608604
0.0172703900712
0.0168268250714
0.0164330559752
0.0160792245433
0.0157387804708
0.0153893793468
0.0151121193015
0.0150663104858
0.015325177152
0.0157235005793
0.0159778060582
0.0161748723517
0.0164713545244
0.0215004133658
0.0312040267107
0.0401393342219
0.0459652420558
0.048389916743
0.0492230483875
0.0505509008225
0.0530387413288
)
;
    }
    water_to_heater
    {
        type            kqRWallFunction;
        value           nonuniform List<scalar> 
60
(
1.87554498205
1.87554498205
1.65742708446
1.48200088382
1.5387649225
1.5387649225
1.86776025429
1.86776025429
2.32142007623
2.32142007623
2.46502745276
2.50132858889
2.47648978199
2.47648978199
2.43724010496
2.43724010496
2.39586917112
2.39586917112
2.35699327133
2.31784765787
2.2886217859
2.2886217859
2.28418101745
2.28418101745
2.33703739577
2.33703739577
2.45220294722
2.60551534383
2.74703159726
2.74703159726
2.86650525625
2.86650525625
2.91244145028
2.91244145028
2.80815616551
2.56014669434
2.32257308765
2.32257308765
2.26193389134
2.26193389134
2.38525006294
2.38525006294
2.52674721474
2.46777037446
2.37425174665
2.37425174665
2.30308113455
2.30308113455
2.2718396253
2.2718396253
2.28386540528
2.3180770045
2.36250991786
2.36250991786
2.40217133143
2.40217133143
2.44248843336
2.44248843336
2.46634531519
2.44871044659
)
;
    }
    procBoundary3to1
    {
        type            processor;
        value           nonuniform List<scalar> 
41
(
0.0424769576205
0.0317010472413
0.024134044553
0.0183595827232
0.0138321202976
0.0102267245823
0.00724430439537
0.00464091465784
0.00258279378835
0.00129194560202
0.000599835162989
0.000249598974603
9.96337304301e-05
2.3357008763
1.03063898301
0.494307304869
0.254226894877
0.143150277961
0.0889674103092
0.0424769576205
0.0601352650762
6.6446403561e-05
7.52947908573e-05
9.87364147348e-05
0.000125993413499
0.000149784984644
0.000205889298012
0.000429868013253
0.00122306559501
0.00311416164591
0.00475817885832
0.0050674782807
0.00463230393823
0.00408195181186
0.00364256549171
0.00306927561953
0.0027091375507
0.00265482481157
0.00274025205559
0.0325404740494
0.0566336173753
)
;
    }
    procBoundary3to2
    {
        type            processor;
        value           nonuniform List<scalar> 
41
(
1.9859463291
0.812354155591
0.359591656955
0.176659085009
0.095634975807
0.0546070718555
0.0323784798252
0.0204792359188
0.0141198948356
0.0102110233504
0.00719045905493
0.00463201885333
0.00288500270778
0.00221499210785
0.00216428866742
0.00221960440081
0.00208592290984
0.00175492400505
0.00109855759483
0.000670637331808
0.00135719877091
0.00132778639026
0.00131985155222
0.00137144343764
0.00157419026393
0.00211599339197
0.00323953558106
0.00499657147719
0.00709528338528
0.00917638550969
0.011042460629
0.012650237537
0.014077481173
0.0155538483821
0.0176421982204
0.0218386860191
0.0323571795345
0.00143769297276
0.00143992363132
0.00139887903856
0.00139887903856
)
;
    }
}


// ************************************************************************* //
