/*--------------------------------*- C++ -*----------------------------------*\
| =========                 |                                                 |
| \\      /  F ield         | OpenFOAM: The Open Source CFD Toolbox           |
|  \\    /   O peration     | Version:  2312                                  |
|   \\  /    A nd           | Website:  www.openfoam.com                      |
|    \\/     M anipulation  |                                                 |
\*---------------------------------------------------------------------------*/
FoamFile
{
    version     2.0;
    format      ascii;
    arch        "LSB;label=32;scalar=64";
    class       volVectorField;
    location    "0.3/water";
    object      U.gas;
}
// * * * * * * * * * * * * * * * * * * * * * * * * * * * * * * * * * * * * * //

dimensions      [0 1 -1 0 0 0 0];

internalField   nonuniform List<vector> 
1504
(
(0.0400557093806 1.56397550245 0)
(0.0977212684622 1.28166440752 0)
(0.113696072292 1.17056174568 0)
(0.114911218449 1.11675272914 0)
(0.12129682127 1.08257690516 0)
(0.127885392021 1.04643603416 0)
(0.132364948289 1.00977617332 0)
(0.133997189898 0.974164571766 0)
(0.132983708067 0.93856310664 0)
(0.12946468564 0.901418515312 0)
(0.124309854929 0.86348118705 0)
(0.115977639194 0.828261811181 0)
(0.103208599658 0.800562569576 0)
(0.0918605773422 0.777260481941 0)
(0.0851800267067 0.756361878676 0)
(0.0788147957592 0.735743951448 0)
(0.069872133718 0.695151527559 0)
(0.0575452079006 0.630425177549 0)
(0.0434028596247 0.56253392037 0)
(0.0277441554399 0.526513453735 0)
(0.0441966485892 1.55676985263 0)
(0.108632501541 1.31662231399 0)
(0.122811876965 1.22845771141 0)
(0.115274737576 1.18486150602 0)
(0.113986234943 1.14570563505 0)
(0.114543425868 1.09893805423 0)
(0.114223555886 1.05502203259 0)
(0.111419236424 1.01402657363 0)
(0.105686052039 0.972062380251 0)
(0.0978217873584 0.927123254699 0)
(0.0891717102747 0.882984375692 0)
(0.0798254406918 0.84406114104 0)
(0.0716023650003 0.811410040869 0)
(0.0671970974969 0.782740990973 0)
(0.0652008279092 0.762036890863 0)
(0.062151274759 0.747706844991 0)
(0.0562582210422 0.711122735118 0)
(0.0464660983524 0.653261002998 0)
(0.0333408056274 0.572498016714 0)
(0.0167623469329 0.527901723252 0)
(0.0514015978168 1.59070911161 0)
(0.116739763429 1.39342206828 0)
(0.118286679982 1.33381568525 0)
(0.0962685484874 1.30315120919 0)
(0.0815462418905 1.24254154169 0)
(0.0735929518228 1.17099029681 0)
(0.0675576544347 1.11039614116 0)
(0.0599994813047 1.05660715791 0)
(0.0509350595289 1.00237545011 0)
(0.0427139904488 0.945936898365 0)
(0.0368676540344 0.895246918065 0)
(0.0334169397337 0.853397280706 0)
(0.0325439518541 0.815322392651 0)
(0.0336135064659 0.780078943573 0)
(0.0356893092895 0.756455575474 0)
(0.0376137389893 0.747726530813 0)
(0.0370890534575 0.715845843798 0)
(0.0330359461106 0.664467439721 0)
(0.0238627994883 0.581956056407 0)
(0.00731510917474 0.525531572657 0)
(0.059836112831 1.62841016827 0)
(0.11426415409 1.48759962296 0)
(0.0875878473937 1.46916286862 0)
(0.0464508136215 1.45589333843 0)
(0.0149925692325 1.35556161217 0)
(-0.00279040602071 1.2466108273 0)
(-0.0126287214731 1.15848728197 0)
(-0.0186335060068 1.08370769255 0)
(-0.0219328127265 1.01315931769 0)
(-0.0223147071502 0.945199608267 0)
(-0.0202601284454 0.889880081247 0)
(-0.0161927615225 0.847186075824 0)
(-0.0107217508722 0.806143052218 0)
(-0.00486208069519 0.766483096686 0)
(0.00232010927527 0.737989430048 0)
(0.011300100719 0.730366452029 0)
(0.0182504166837 0.706514247902 0)
(0.0203706539623 0.661308071091 0)
(0.0156032530088 0.587348277844 0)
(0.00145170127987 0.518453303633 0)
(0.0533656407834 1.63408409853 0)
(0.0840112328744 1.56145509073 0)
(0.0412148394698 1.58869056149 0)
(0.000886093909156 1.59179589057 0)
(-0.0351707651314 1.45240543992 0)
(-0.0615735689868 1.30730883978 0)
(-0.0761118248566 1.18571780574 0)
(-0.0795608471367 1.08495190072 0)
(-0.0764793360312 0.997184610125 0)
(-0.0705035587614 0.91985868506 0)
(-0.0631073181382 0.861062741553 0)
(-0.0542105957737 0.81996868482 0)
(-0.0441650231579 0.780370843222 0)
(-0.0338905531267 0.741037334544 0)
(-0.0222353310023 0.709979483735 0)
(-0.00776216770749 0.697967099745 0)
(0.00544067159939 0.682755592742 0)
(0.012398194722 0.645978382897 0)
(0.0113550335085 0.58504776772 0)
(0.00121712875931 0.509020044125 0)
(0.0411100750152 1.63892019578 0)
(0.0656241307938 1.62553652183 0)
(0.0391018148352 1.67155202137 0)
(0.0175779643565 1.6867221818 0)
(-0.0103774530813 1.54308376176 0)
(-0.0428365859201 1.37099502272 0)
(-0.0680188679558 1.20987755378 0)
(-0.0795149874088 1.07797063884 0)
(-0.0806577752353 0.970684587914 0)
(-0.0767265909285 0.883815519411 0)
(-0.0703681536579 0.820304141895 0)
(-0.0615603444166 0.780854023464 0)
(-0.0506345807381 0.745411133941 0)
(-0.0392165003686 0.709490175415 0)
(-0.0270147218035 0.678990918389 0)
(-0.0119412143137 0.661634010043 0)
(0.00345124545747 0.649928095053 0)
(0.0127545252226 0.624069752357 0)
(0.0138900542626 0.57631525776 0)
(0.00700490829936 0.501798220158 0)
(0.0444097080603 1.65806682065 0)
(0.0831793633646 1.6750495586 0)
(0.0751884469315 1.71774669486 0)
(0.0708002259312 1.7398449225 0)
(0.0581438191853 1.63851111105 0)
(0.0278696667537 1.48283314537 0)
(-0.00655423701555 1.26944462112 0)
(-0.0294790119063 1.09543434773 0)
(-0.0404877988296 0.960884653443 0)
(-0.0435696130838 0.859855871661 0)
(-0.0424961248058 0.788434858346 0)
(-0.0378685548998 0.746763379584 0)
(-0.0299660890005 0.714387948206 0)
(-0.0209479224193 0.681782967145 0)
(-0.0115991822363 0.652610810419 0)
(1.15027374144e-05 0.631917065405 0)
(0.0130935094986 0.61791429133 0)
(0.0217852896629 0.601376903101 0)
(0.0232426266727 0.565604629279 0)
(0.0173923704765 0.499310585553 0)
(0.0480738125111 1.65557047286 0)
(0.0924913923479 1.68655637878 0)
(0.0884021684523 1.7298185794 0)
(0.0874546585087 1.75577929065 0)
(0.0829949354065 1.70278165365 0)
(0.0701031061301 1.5959145259 0)
(0.0460527699932 1.36684806613 0)
(0.0214626143122 1.14564368459 0)
(0.00749947467196 0.978115375683 0)
(0.00129925373385 0.858860210913 0)
(-0.000662509250354 0.776941769328 0)
(0.000509074031499 0.728870828667 0)
(0.00456271752189 0.696228765833 0)
(0.00979909020329 0.665042692667 0)
(0.01540381054 0.636423942101 0)
(0.022544526106 0.613428395882 0)
(0.031155603985 0.595103883113 0)
(0.0374962733757 0.582209814437 0)
(0.03767441185 0.556936594002 0)
(0.0304901831406 0.501151859592 0)
(0.0481810431525 1.62339236658 0)
(0.093887597159 1.671125919 0)
(0.091771992943 1.71761237056 0)
(0.0931538451426 1.74798053535 0)
(0.0931156173048 1.72335857829 0)
(0.0874742132388 1.65233799926 0)
(0.0708289806144 1.46722655449 0)
(0.0519425753381 1.20466199035 0)
(0.0420574403427 1.00910785693 0)
(0.037981805805 0.873877601957 0)
(0.0369945783299 0.782398932936 0)
(0.0378112970502 0.727282755398 0)
(0.0399068579354 0.691877702055 0)
(0.042252534205 0.660153479939 0)
(0.0446458042039 0.631102126154 0)
(0.0483864942686 0.606168041678 0)
(0.0535648005744 0.58418747599 0)
(0.0572075789266 0.569487001452 0)
(0.0543986938683 0.552531243306 0)
(0.0443525309881 0.506613151134 0)
(0.0459760551085 1.59223789692 0)
(0.0886172568709 1.64822678109 0)
(0.085858759701 1.69251226925 0)
(0.0877383403131 1.72509009203 0)
(0.0890446851248 1.7190310807 0)
(0.0865893207264 1.67452742696 0)
(0.0784738414247 1.53534371297 0)
(0.0691649542657 1.25017902696 0)
(0.0646062718487 1.03775779236 0)
(0.0641799532003 0.892925073581 0)
(0.0657882352124 0.795581496824 0)
(0.0680931645209 0.735774041204 0)
(0.0700297646136 0.697267905095 0)
(0.070907659791 0.664072785918 0)
(0.0712089658557 0.634142268816 0)
(0.0728214987693 0.607860384334 0)
(0.0760842152392 0.583451656662 0)
(0.0773268540321 0.564795813504 0)
(0.0708864118561 0.55337037952 0)
(0.0581397673938 0.515413205687 0)
(0.0457104525128 1.56745437979 0)
(0.08851728221 1.62491636317 0)
(0.0852078553741 1.66638695237 0)
(0.085538054515 1.69903061827 0)
(0.0864063892638 1.7052280151 0)
(0.0850507868706 1.67895402828 0)
(0.0813235804299 1.56242357071 0)
(0.0786911643959 1.27352392826 0)
(0.0795996164686 1.05632123437 0)
(0.083042618562 0.909024453116 0)
(0.0877167274592 0.810259012553 0)
(0.0921896932603 0.749056684342 0)
(0.0946971557008 0.708325698619 0)
(0.0948861554716 0.673633335806 0)
(0.093897317688 0.642841490276 0)
(0.0938120315042 0.6157724642 0)
(0.0958332106405 0.589986276026 0)
(0.0955817255602 0.568339031695 0)
(0.0866262532015 0.559666331652 0)
(0.0716910685726 0.527246274115 0)
(0.0453637412154 1.53905298081 0)
(0.0872977893461 1.60008415813 0)
(0.0829805358304 1.64293735843 0)
(0.0820511951828 1.6758346083 0)
(0.0816269862561 1.68962807059 0)
(0.0800895727932 1.6746485509 0)
(0.0798482388661 1.55883387231 0)
(0.0834813541271 1.27377920952 0)
(0.0898071105982 1.06324378944 0)
(0.0974985448269 0.920289997242 0)
(0.105698479514 0.824434604703 0)
(0.11233942661 0.764699103794 0)
(0.115227759122 0.722695515812 0)
(0.114852725335 0.686830157799 0)
(0.112874503505 0.655364278647 0)
(0.111386448792 0.627921601418 0)
(0.112605241224 0.601657415714 0)
(0.111657031892 0.578814276812 0)
(0.101297838132 0.570861741647 0)
(0.0845259127245 0.542091374915 0)
(0.0441562847466 1.51351491845 0)
(0.0847845109175 1.57701036898 0)
(0.0796176973688 1.6223424031 0)
(0.0771130037539 1.65717209835 0)
(0.0752793918254 1.67614202349 0)
(0.0731759845833 1.66602605016 0)
(0.0769128741731 1.52495107051 0)
(0.087371530285 1.25581183505 0)
(0.0988265226247 1.0610938352 0)
(0.110661330275 0.927724601653 0)
(0.121892034547 0.838199909584 0)
(0.129719915769 0.781528602372 0)
(0.132440026253 0.738991026944 0)
(0.131613218485 0.702426562987 0)
(0.128861340228 0.670568527286 0)
(0.126231437331 0.643071632806 0)
(0.126638564787 0.616986296193 0)
(0.125288051476 0.59412839164 0)
(0.114112331544 0.586252827271 0)
(0.0958590178425 0.559921686403 0)
(0.0431282862401 1.49215453779 0)
(0.0823645336002 1.55532960955 0)
(0.0763378531932 1.60430961798 0)
(0.072891899929 1.64198043957 0)
(0.0703669826177 1.66369558211 0)
(0.0696453604861 1.64774973063 0)
(0.0781421687518 1.46588921183 0)
(0.0939083929559 1.22681124123 0)
(0.109235568353 1.05357597465 0)
(0.124134196148 0.9329912691 0)
(0.137131579175 0.852136463974 0)
(0.144963996337 0.798854077735 0)
(0.14723889572 0.756470972907 0)
(0.146089392131 0.719682907154 0)
(0.142590491786 0.68768072902 0)
(0.138884925542 0.660296824575 0)
(0.13835726706 0.634797547251 0)
(0.136529377625 0.612780678728 0)
(0.124579334094 0.605347467186 0)
(0.104999550686 0.580440780791 0)
(0.0391702564784 1.49150858137 0)
(0.0744102462779 1.53573284932 0)
(0.0685681125847 1.58499677307 0)
(0.065624428873 1.62518447083 0)
(0.0645999688393 1.64413823758 0)
(0.0694552543284 1.60146106165 0)
(0.0841067785045 1.39505313678 0)
(0.103133454516 1.19352606471 0)
(0.12111624536 1.0441055567 0)
(0.138098630787 0.938025513361 0)
(0.151741063456 0.86700679318 0)
(0.158807299564 0.816838423011 0)
(0.160449648019 0.775157180841 0)
(0.158834637436 0.738461006386 0)
(0.154425447587 0.70644115509 0)
(0.149563800058 0.679186259018 0)
(0.148021570673 0.654405673276 0)
(0.14525623067 0.633889273105 0)
(0.132161891639 0.627671832289 0)
(0.111981414233 0.603508621552 0)
(0.0351880475512 1.52904138483 0)
(0.0675917828673 1.51631905727 0)
(0.0625484857179 1.56429248119 0)
(0.059454169665 1.60365184215 0)
(0.0603214419167 1.6078314619 0)
(0.0723345288409 1.51564323279 0)
(0.0933527734673 1.32619388099 0)
(0.114234125914 1.16190867283 0)
(0.134097281709 1.03601295733 0)
(0.152363159281 0.945269058216 0)
(0.165510541957 0.883634141711 0)
(0.171213407718 0.836232808784 0)
(0.172068971002 0.795498637869 0)
(0.169655427618 0.758971133539 0)
(0.164098825374 0.726856238621 0)
(0.1579913663 0.699587879237 0)
(0.155181705928 0.675429816134 0)
(0.150823199995 0.656885162298 0)
(0.136565850724 0.652618128412 0)
(0.116627453769 0.628793578041 0)
(0.0309673342868 1.61389836703 0)
(0.058581040828 1.50874080487 0)
(0.0537743912528 1.54013404164 0)
(0.0536133778103 1.56790816905 0)
(0.062042912425 1.53887463253 0)
(0.0803491145149 1.41861533913 0)
(0.103018166933 1.26825136175 0)
(0.125446042885 1.13619481599 0)
(0.14692728231 1.03209206693 0)
(0.165548775607 0.956769913991 0)
(0.176846785249 0.902667614685 0)
(0.180969532091 0.857768563448 0)
(0.181075537964 0.817883663233 0)
(0.177516165045 0.781326373011 0)
(0.170698360307 0.748846361404 0)
(0.163338725516 0.721205193735 0)
(0.159003806429 0.697354870557 0)
(0.152537729721 0.681027861867 0)
(0.137337867829 0.679238370381 0)
(0.118349349851 0.655609072906 0)
(0.0300733849111 1.7378688826 0)
(0.054606686611 1.52922458997 0)
(0.0488280559712 1.50950722657 0)
(0.0536286725994 1.50817476856 0)
(0.0676739095056 1.45133294863 0)
(0.0882685931309 1.34234890373 0)
(0.111759142618 1.22396794861 0)
(0.135306474358 1.11819039011 0)
(0.157841483491 1.03433001683 0)
(0.175179152923 0.972841618318 0)
(0.183812289147 0.924193692485 0)
(0.186611622489 0.881537991393 0)
(0.185885768437 0.842146863094 0)
(0.181127855156 0.805168964173 0)
(0.172996594157 0.771848766121 0)
(0.164485440018 0.743378019982 0)
(0.158474313528 0.719346131143 0)
(0.149827725813 0.705138531921 0)
(0.13464414443 0.706378670511 0)
(0.117468553726 0.683101159408 0)
(0.0325969250033 1.86888578543 0)
(0.0578554812241 1.57270527317 0)
(0.0506924062978 1.48159574793 0)
(0.0569256593627 1.44353478817 0)
(0.0728081215287 1.37888219544 0)
(0.0944185732017 1.28728160204 0)
(0.118350802168 1.19220975397 0)
(0.14282730726 1.10850639398 0)
(0.164669142429 1.04312036491 0)
(0.178532134221 0.992113086949 0)
(0.184960429433 0.947836377223 0)
(0.187363856531 0.907003664176 0)
(0.185725885106 0.86757931949 0)
(0.179576719194 0.82955898899 0)
(0.170163429063 0.794829138843 0)
(0.160706490232 0.7650613639 0)
(0.152903542212 0.740148969973 0)
(0.142791932073 0.727684441165 0)
(0.129013633656 0.732488917658 0)
(0.114546632007 0.709791791542 0)
(0.0343579658274 1.98711798058 0)
(0.0616841329191 1.62412095531 0)
(0.0547381401403 1.46394173333 0)
(0.0610900338493 1.39279053945 0)
(0.0771361875413 1.32564401527 0)
(0.0984424157827 1.24734314482 0)
(0.122375058647 1.17101345678 0)
(0.146296407017 1.10710940714 0)
(0.164720361029 1.05677164273 0)
(0.175267530886 1.01344444616 0)
(0.181185122615 0.973238823554 0)
(0.183344356672 0.933706286143 0)
(0.180364772129 0.893457099771 0)
(0.172515805021 0.85354842984 0)
(0.161796747602 0.816774106201 0)
(0.151211536424 0.785161132114 0)
(0.141950056897 0.758725173202 0)
(0.131866512179 0.747035880974 0)
(0.120741435053 0.755622662583 0)
(0.109591824077 0.733913811004 0)
(0.0417133361839 2.06081868515 0)
(0.0803236727788 1.66581645535 0)
(0.0742906926256 1.46080127335 0)
(0.0748025320711 1.36252071365 0)
(0.0857522264446 1.29209851413 0)
(0.103742030083 1.22275952399 0)
(0.125635299387 1.1615876738 0)
(0.145661157835 1.11410109142 0)
(0.159256267176 1.07452765803 0)
(0.168396320171 1.0378025075 0)
(0.174598280006 1.00127334983 0)
(0.175582834042 0.962295122289 0)
(0.170368151144 0.919950202089 0)
(0.159910745799 0.876732294289 0)
(0.147080495387 0.836937430657 0)
(0.135388612704 0.803025700143 0)
(0.125884132752 0.774687054607 0)
(0.117151452015 0.761678766756 0)
(0.109391401207 0.773653046718 0)
(0.102037264322 0.754199697449 0)
(0.0490295704055 2.06836905529 0)
(0.100805593196 1.68673227507 0)
(0.097766105882 1.47419932474 0)
(0.0914899889639 1.3601375473 0)
(0.095296849354 1.28416223483 0)
(0.108248522156 1.21722784304 0)
(0.125241261095 1.16669687785 0)
(0.139410726612 1.13023935094 0)
(0.150510948499 1.09857731509 0)
(0.159978783101 1.06784214045 0)
(0.165630687472 1.03451454339 0)
(0.164457763921 0.994976464952 0)
(0.155074517938 0.947700525754 0)
(0.139376363948 0.897876318464 0)
(0.123671943992 0.854676176658 0)
(0.112721926672 0.818831400373 0)
(0.104984495933 0.788181744269 0)
(0.0986899010749 0.771212621272 0)
(0.0952413402203 0.784103039655 0)
(0.0924265060756 0.769353291492 0)
(0.0538037706208 2.03958893668 0)
(0.113706619006 1.69434078395 0)
(0.111363066568 1.50065444291 0)
(0.0990202896899 1.38537300866 0)
(0.0966666121636 1.30312878305 0)
(0.104562301733 1.2319231779 0)
(0.116447485023 1.18626295408 0)
(0.127306404588 1.15612630204 0)
(0.138369917233 1.13102000617 0)
(0.148525245415 1.10639023536 0)
(0.153304153963 1.0767550601 0)
(0.147431484897 1.0342739774 0)
(0.128598275939 0.974595450426 0)
(0.106267283548 0.915053210928 0)
(0.0920957714692 0.870155174827 0)
(0.084782815494 0.83267453083 0)
(0.0795823434034 0.798995472923 0)
(0.0765245099552 0.776567968118 0)
(0.0779498090332 0.78478788207 0)
(0.0798437491648 0.778026412174 0)
(0.0542397898559 2.01381874184 0)
(0.112268048546 1.70387758402 0)
(0.106087335709 1.5383835625 0)
(0.0901046949007 1.43383622528 0)
(0.0838533424348 1.34565771092 0)
(0.0884065966373 1.26449293883 0)
(0.0981343891416 1.21676418031 0)
(0.109448384781 1.19018540185 0)
(0.122967957341 1.17207101757 0)
(0.134730917448 1.15693136221 0)
(0.134813981103 1.13213983877 0)
(0.114173937137 1.0779381363 0)
(0.0839370889801 0.995991723534 0)
(0.0643469509914 0.926378330294 0)
(0.0563079983054 0.88095922338 0)
(0.0519992969367 0.841544164279 0)
(0.0498605558616 0.804899430278 0)
(0.0514577374687 0.777569082799 0)
(0.0583358110454 0.775931231586 0)
(0.0650323670893 0.778305380105 0)
(0.0523400454775 2.00654476138 0)
(0.10210883672 1.71714587624 0)
(0.0905157572338 1.57476410875 0)
(0.0749029816389 1.48619484115 0)
(0.0668560028151 1.39477878342 0)
(0.0695225510107 1.30261249065 0)
(0.0797500506384 1.24689138976 0)
(0.0945582866103 1.22227028192 0)
(0.110916515019 1.21435798951 0)
(0.11496849034 1.21393897625 0)
(0.0932033613611 1.1917761592 0)
(0.056930877161 1.11629562343 0)
(0.0318056487451 1.00652465355 0)
(0.0224640615349 0.925801414158 0)
(0.0193065501165 0.879766499856 0)
(0.018811640232 0.839879070369 0)
(0.0210772441299 0.802392074492 0)
(0.0278328583915 0.772436946539 0)
(0.0396546743666 0.760976941166 0)
(0.0514421303549 0.767768276448 0)
(0.0546760661172 1.97159771324 0)
(0.10397154897 1.7043686913 0)
(0.0910597756245 1.57773626386 0)
(0.0788617563224 1.50387064746 0)
(0.0728532035431 1.41707860523 0)
(0.0747068363973 1.32154754022 0)
(0.083852180103 1.25860134681 0)
(0.0955184905319 1.23419370163 0)
(0.0978334482386 1.2377245334 0)
(0.077450004317 1.25555505237 0)
(0.0416952975528 1.23600199297 0)
(0.0135959462201 1.13798636657 0)
(0.000717986384293 1.00459179678 0)
(-0.00427149457782 0.911123676877 0)
(-0.00499286529197 0.863176127336 0)
(-0.0019765221478 0.825592319315 0)
(0.00388900510693 0.790441682132 0)
(0.0136344994364 0.760833610657 0)
(0.0283497847164 0.743886403693 0)
(0.0442970042187 0.747403475637 0)
(0.0554238255114 1.86992746877 0)
(0.108980994047 1.65063737644 0)
(0.104239618703 1.53873513373 0)
(0.100432931444 1.47778819745 0)
(0.0997352656158 1.40348669346 0)
(0.101657385406 1.31451063751 0)
(0.104897475536 1.25093967026 0)
(0.103662685134 1.22753172371 0)
(0.0896061986675 1.24242007036 0)
(0.0636516329655 1.27767669198 0)
(0.0383203532176 1.26176123019 0)
(0.0215427151482 1.14801484826 0)
(0.0105011262421 1.00096919817 0)
(0.00248583524866 0.894829453721 0)
(-0.000522726483388 0.840151774518 0)
(0.00181086042627 0.805162698759 0)
(0.00734156697225 0.773989982293 0)
(0.016487337161 0.746780528464 0)
(0.0311374986232 0.728193083067 0)
(0.0479452578657 0.724504133109 0)
(0.0545650038615 1.75522728357 0)
(0.110339213409 1.58437675711 0)
(0.110966885414 1.48920337561 0)
(0.110972770077 1.44049377724 0)
(0.113275805179 1.37816152685 0)
(0.117226026424 1.29854907503 0)
(0.119994554444 1.24034607684 0)
(0.117059182745 1.22283931066 0)
(0.105358197533 1.25224374087 0)
(0.0889219413779 1.30029766027 0)
(0.0738627957982 1.28691072732 0)
(0.0603651654961 1.16519270104 0)
(0.0475784940344 1.00968080228 0)
(0.0370019172085 0.891842837672 0)
(0.0307352306772 0.826150429087 0)
(0.0292907557952 0.790323077551 0)
(0.0312833276631 0.761817815044 0)
(0.037280765796 0.736992168487 0)
(0.0493263886184 0.718056199926 0)
(0.063100528479 0.7080820053 0)
(0.050988077526 1.66735983578 0)
(0.103617371974 1.52435233933 0)
(0.104823565673 1.44727355095 0)
(0.105602835483 1.40813576718 0)
(0.110143158151 1.35179590135 0)
(0.117827964834 1.27992909239 0)
(0.125003483524 1.23064270029 0)
(0.127161465562 1.2234885513 0)
(0.122302481843 1.26982937053 0)
(0.114000990308 1.32602693216 0)
(0.105428794043 1.31538373843 0)
(0.0950771971957 1.19265244832 0)
(0.0844897984072 1.03132272594 0)
(0.0763390827001 0.904645777143 0)
(0.0705920758378 0.828344816645 0)
(0.0672425718921 0.7881915368 0)
(0.0661974179568 0.759804959896 0)
(0.0687604621654 0.735928028144 0)
(0.0776572452763 0.716548531172 0)
(0.0872241834569 0.702536326769 0)
(0.045848542618 1.61055269009 0)
(0.0926879511882 1.47571944502 0)
(0.0930064720099 1.40994931474 0)
(0.094531875565 1.37363836602 0)
(0.101788706375 1.31763065867 0)
(0.112907349359 1.25289720914 0)
(0.123324469407 1.21454438852 0)
(0.128708051199 1.21899117222 0)
(0.128237980436 1.27925608191 0)
(0.124853739148 1.340806224 0)
(0.12050670216 1.33231642054 0)
(0.115470699967 1.21459946662 0)
(0.111198749055 1.05446873293 0)
(0.108281067114 0.924948689899 0)
(0.105834439403 0.84225124438 0)
(0.103386546878 0.79752696458 0)
(0.101304466928 0.767804777754 0)
(0.101993895418 0.743646327784 0)
(0.108894603265 0.723585004003 0)
(0.115487284055 0.706877805515 0)
(0.0428815997982 1.58709358822 0)
(0.0857735038742 1.44450806318 0)
(0.0837614081345 1.38085447102 0)
(0.0839379993601 1.33929598612 0)
(0.0918443129695 1.27866816465 0)
(0.104352574388 1.21962988758 0)
(0.116200238933 1.19204407335 0)
(0.123328154811 1.20668209175 0)
(0.125833741187 1.27378683665 0)
(0.126480350089 1.33730340647 0)
(0.127086255608 1.32878667744 0)
(0.128449638923 1.21877011748 0)
(0.130724611186 1.06915684711 0)
(0.133101380979 0.944169352022 0)
(0.134449768936 0.860608435771 0)
(0.133875788129 0.813441738943 0)
(0.131940618517 0.782311897922 0)
(0.13216224891 0.757407025272 0)
(0.13834644522 0.736537506208 0)
(0.143829677659 0.717545231136 0)
(0.0405752207495 1.58939350641 0)
(0.0799937157345 1.43282820753 0)
(0.0754031662448 1.36626246913 0)
(0.0733677727312 1.31442973021 0)
(0.0798625104124 1.24566458852 0)
(0.091393120685 1.18903421776 0)
(0.103137339515 1.16948790731 0)
(0.111517984506 1.19096280589 0)
(0.116739664745 1.25752098013 0)
(0.121702766248 1.31665808188 0)
(0.128395846002 1.3055219659 0)
(0.136635408505 1.20693331883 0)
(0.144961684573 1.07418587938 0)
(0.152117174321 0.959226371953 0)
(0.156970605779 0.87947635685 0)
(0.158233763686 0.832310191495 0)
(0.156801718041 0.800135661627 0)
(0.157267546492 0.774276219731 0)
(0.163710841131 0.752400444424 0)
(0.169167562034 0.731256990664 0)
(0.039130048414 1.6109427898 0)
(0.0761088485863 1.43762890774 0)
(0.0696789406965 1.36474041654 0)
(0.0657919188591 1.30127143862 0)
(0.0698138785205 1.22383961632 0)
(0.0786542693873 1.16691147969 0)
(0.0890852638012 1.15165201045 0)
(0.0983266566097 1.17558240055 0)
(0.106329454447 1.23585080873 0)
(0.115715441564 1.28545466002 0)
(0.127872347275 1.27187704448 0)
(0.141315982292 1.18718489648 0)
(0.154086189384 1.07261354602 0)
(0.165129688822 0.970234468897 0)
(0.172720240626 0.8974713989 0)
(0.175178778454 0.851890628122 0)
(0.174291099814 0.81897002244 0)
(0.175654681885 0.79205487234 0)
(0.183056878293 0.768934100207 0)
(0.18903975337 0.745476150227 0)
(0.0382593231216 1.63986469214 0)
(0.0745319418973 1.45041126728 0)
(0.0682478356121 1.36957849634 0)
(0.0638786055786 1.29629477013 0)
(0.0661746514466 1.21296010178 0)
(0.0724319571244 1.15491649728 0)
(0.081184002127 1.1404104497 0)
(0.0907638321794 1.16253124866 0)
(0.100903586908 1.21300258778 0)
(0.113301599581 1.25168714433 0)
(0.128187198801 1.23677016612 0)
(0.143744491119 1.16461743572 0)
(0.158652660439 1.06639139487 0)
(0.171910529289 0.977259015013 0)
(0.180827442275 0.913211588694 0)
(0.183664785293 0.8698384605 0)
(0.18352997672 0.836629842633 0)
(0.18642361444 0.808910780061 0)
(0.19482908668 0.784380820367 0)
(0.2013358915 0.758368984397 0)
(0.0355861964915 1.67770108056 0)
(0.0703243243055 1.46451939805 0)
(0.0666978196438 1.37196467799 0)
(0.0648569399805 1.29247229521 0)
(0.0682072849933 1.20885689046 0)
(0.0740345818134 1.15140792029 0)
(0.0819752218049 1.13567157196 0)
(0.0913738606716 1.1530056006 0)
(0.101911000344 1.19198186048 0)
(0.114456176132 1.21965086379 0)
(0.128792377219 1.20302050078 0)
(0.143801302553 1.14033455358 0)
(0.158989746793 1.05634469885 0)
(0.172788700766 0.980766072402 0)
(0.18165223829 0.925536701471 0)
(0.184484422013 0.884611106922 0)
(0.18552265946 0.851789056464 0)
(0.190014950385 0.823748895375 0)
(0.19866022348 0.797645877026 0)
(0.205103088394 0.76913826954 0)
(0.0355434261649 1.71994521088 0)
(0.0730854594014 1.47612047685 0)
(0.07244349075 1.37049698015 0)
(0.0714088816428 1.28801270615 0)
(0.0758360670516 1.20909993084 0)
(0.0821603311402 1.15488811588 0)
(0.0897723872662 1.13771364855 0)
(0.0981342365654 1.14887450754 0)
(0.106956032822 1.17584266719 0)
(0.117002041409 1.19208317999 0)
(0.128635573745 1.17228331653 0)
(0.141756814672 1.11623136571 0)
(0.156152371852 1.04506625336 0)
(0.169259506688 0.982808533091 0)
(0.17711131819 0.935033109763 0)
(0.179766251504 0.896662496827 0)
(0.182013296863 0.864723712014 0)
(0.187184807067 0.836458718436 0)
(0.194708140007 0.808451214684 0)
(0.200271654014 0.777717003789 0)
(0.0357054180716 1.75914763053 0)
(0.0766421520378 1.48513220044 0)
(0.0791993611598 1.37105403771 0)
(0.0785514011568 1.28798952421 0)
(0.083828247055 1.21549909065 0)
(0.0907369399919 1.16598166558 0)
(0.0978438414922 1.14803833464 0)
(0.104394376699 1.15263132449 0)
(0.110554423342 1.16768306823 0)
(0.117538663645 1.17193591159 0)
(0.126438851097 1.14742222552 0)
(0.137792772016 1.09617550022 0)
(0.150960191462 1.03696953284 0)
(0.162415085172 0.985915310554 0)
(0.168606141179 0.943586282535 0)
(0.170777689303 0.907319121905 0)
(0.173163100916 0.875937416443 0)
(0.17713578651 0.846735594533 0)
(0.182577406409 0.816632505338 0)
(0.187297104643 0.784024269905 0)
(0.0371677515242 1.79029699183 0)
(0.0824366009166 1.49700312524 0)
(0.0869115384238 1.3802526545 0)
(0.0847030840294 1.29885155356 0)
(0.0888471727998 1.23188223921 0)
(0.0944264554542 1.18643656217 0)
(0.0996797380651 1.16802156671 0)
(0.0197499156807 0.466261044052 0)
(0.0159038235137 0.465076735431 0)
(0.0123448611452 0.463608743238 0)
(0.0091792690548 0.461387976036 0)
(0.00658680906111 0.457606295247 0)
(0.00474996646905 0.451161110383 0)
(0.0037175307676 0.441278297647 0)
(0.00330457821848 0.428275853803 0)
(0.00322814990977 0.413233027954 0)
(0.00328528187817 0.397080648424 0)
(0.00336417613976 0.380333519626 0)
(0.00339402308266 0.363196023399 0)
(0.00331407961372 0.345661070581 0)
(0.00306742042597 0.32758879567 0)
(0.00261326689311 0.308863293324 0)
(0.00226944133329 0.289751936572 0)
(0.00110440124745 0.271128490174 0)
(0.00858513772586 0.512674979041 0)
(0.0071190366576 0.484478142272 0)
(0.0151208864166 0.473803669712 0)
(0.0125543919819 0.471414717526 0)
(0.00953831389574 0.469298431715 0)
(0.00662258218785 0.466985711636 0)
(0.00400882870771 0.463916999837 0)
(0.00196199420082 0.459183656331 0)
(0.000680515360244 0.451685095431 0)
(0.000173686895287 0.440845195241 0)
(0.000226512166516 0.427200621968 0)
(0.000567595890702 0.411830375925 0)
(0.00101359568361 0.395562272801 0)
(0.0014615369013 0.37883603898 0)
(0.00184424917485 0.361817786227 0)
(0.00209939932754 0.344480445017 0)
(0.00216006304175 0.326667153893 0)
(0.00198715678704 0.30824176003 0)
(0.0019874008477 0.289502414517 0)
(0.00106672601859 0.271487767847 0)
(-0.00341830221069 0.509089732311 0)
(-0.0125933571322 0.500881418724 0)
(-0.00443086907313 0.47902182969 0)
(0.001401304354 0.475359415445 0)
(-0.000364052281957 0.472195927977 0)
(-0.00219601066565 0.468972221849 0)
(-0.00385676160981 0.46501115785 0)
(-0.00499994187963 0.459305789736 0)
(-0.00542081482187 0.450781299396 0)
(-0.00514506549785 0.439070419735 0)
(-0.00440020692043 0.424875882399 0)
(-0.003435452893 0.40924030802 0)
(-0.00241132183942 0.392892948989 0)
(-0.00141880777458 0.376210533406 0)
(-0.000517984895439 0.35932651357 0)
(0.00022789834832 0.342198744133 0)
(0.000745764018713 0.324655438203 0)
(0.000994300598336 0.306535460474 0)
(0.00146561017014 0.288152126724 0)
(0.000940544353611 0.270737504532 0)
(-0.0132784846355 0.5021029293 0)
(-0.0298937983604 0.49821878578 0)
(-0.0255632249125 0.482237829866 0)
(-0.0145858883219 0.476886510658 0)
(-0.0141522584549 0.472741915313 0)
(-0.014213632187 0.468674859998 0)
(-0.0143742102368 0.463893154134 0)
(-0.0141765880815 0.457295646564 0)
(-0.0133935423516 0.447860841768 0)
(-0.0120624217569 0.435428339215 0)
(-0.0103977507216 0.420818234343 0)
(-0.00861210779128 0.40501279701 0)
(-0.00683659096793 0.388653134817 0)
(-0.00514369112275 0.372062863336 0)
(-0.00358199516813 0.35534977988 0)
(-0.00220880610869 0.338460440711 0)
(-0.00110627602551 0.321211796414 0)
(-0.000321151528659 0.303414432345 0)
(0.000718675577123 0.285377746809 0)
(0.000722453171473 0.268540500265 0)
(-0.018488951145 0.491265853745 0)
(-0.0364016230918 0.483882131134 0)
(-0.042041737334 0.482677536633 0)
(-0.0363680927943 0.473991506359 0)
(-0.0310628697056 0.469410851459 0)
(-0.0286785118919 0.464919217737 0)
(-0.0268284814117 0.459637610555 0)
(-0.0249092881799 0.452413894259 0)
(-0.0226428547068 0.442324026119 0)
(-0.0200468430923 0.429415852858 0)
(-0.0172954155494 0.414590031909 0)
(-0.0145505087887 0.39876159665 0)
(-0.0119059793752 0.382498281982 0)
(-0.00941038548723 0.366082572083 0)
(-0.00709612760657 0.349604064228 0)
(-0.00501316407758 0.333003212349 0)
(-0.00324489359495 0.316090114687 0)
(-0.00184882182738 0.298646627714 0)
(-0.00019678932891 0.280957487524 0)
(0.000426072103122 0.264663397832 0)
(-0.0171205204226 0.477524961444 0)
(-0.0356508482088 0.467377386149 0)
(-0.0516120614185 0.471299200361 0)
(-0.0557813054653 0.465277988223 0)
(-0.0486965243441 0.461198086961 0)
(-0.0436518312022 0.456954243402 0)