/*--------------------------------*- C++ -*----------------------------------*\
| =========                 |                                                 |
| \\      /  F ield         | OpenFOAM: The Open Source CFD Toolbox           |
|  \\    /   O peration     | Version:  2312                                  |
|   \\  /    A nd           | Website:  www.openfoam.com                      |
|    \\/     M anipulation  |                                                 |
\*---------------------------------------------------------------------------*/
FoamFile
{
    version     2.0;
    format      ascii;
    arch        "LSB;label=32;scalar=64";
    class       surfaceScalarField;
    location    "0.935/water";
    object      phi.gas;
}
// * * * * * * * * * * * * * * * * * * * * * * * * * * * * * * * * * * * * * //

dimensions      [0 3 -1 0 0 0 0];

oriented        oriented;

internalField   nonuniform List<scalar> 
2929
(
2.53853699875e-07
8.19813696113e-07
2.20497728691e-07
8.35868567425e-07
2.01208460074e-07
8.68412384804e-07
1.63183443844e-07
9.00732993645e-07
6.77106151213e-08
8.8783355038e-07
-2.83430926956e-08
7.95454421864e-07
-7.36977121773e-08
7.03272828976e-07
-7.85402494143e-08
6.43870408224e-07
-6.7639141995e-08
6.08743405101e-07
-5.1998659521e-08
5.86385693003e-07
-3.06905999298e-08
5.79063512447e-07
-5.32161792886e-09
5.80558554211e-07
1.74843577114e-08
5.80234153574e-07
3.69684611784e-08
5.78391964465e-07
5.51549589994e-08
5.79079709736e-07
6.95730288538e-08
5.93138288153e-07
6.65365658326e-08
6.04996297031e-07
5.08232156387e-08
5.90945239713e-07
1.85831811081e-08
5.52656718581e-07
5.48593788292e-07
-2.88931134898e-08
2.67803933476e-07
8.00814345117e-07
2.51368417502e-07
8.27309249606e-07
2.44896218784e-07
8.66735480116e-07
2.32331937425e-07
9.09818349208e-07
1.9906528914e-07
9.19392850244e-07
1.05152141181e-07
8.76149610651e-07
4.46025209141e-08
7.51479215047e-07
2.13739656122e-08
6.64172414137e-07
1.90907818003e-08
6.13406628017e-07
2.57927837557e-08
5.83832948885e-07
3.9412078416e-08
5.71794364399e-07
5.80618628424e-08
5.71797887893e-07
7.44178485222e-08
5.71646992307e-07
8.74508663444e-08
5.69867860977e-07
9.78118707701e-08
5.69926218543e-07
1.06770971798e-07
5.7914962194e-07
9.81690727652e-08
5.95339124732e-07
8.14802201116e-08
5.88166789216e-07
5.47595498988e-08
5.52445500513e-07
5.41773344629e-07
1.33138892978e-08
2.71674123222e-07
7.7803881246e-07
2.56950852681e-07
8.12122815408e-07
2.53677212638e-07
8.57851364828e-07
2.46295534549e-07
9.08023034393e-07
2.22916804407e-07
9.36077430403e-07
1.80850966618e-07
9.16672193485e-07
1.32382728154e-07
7.95452141932e-07
1.11037288825e-07
6.89333568124e-07
1.0741299076e-07
6.2645858821e-07
1.12158260523e-07
5.90873631793e-07
1.21219937269e-07
5.74902854004e-07
1.33609067092e-07
5.72819579866e-07
1.43698105956e-07
5.72152260524e-07
1.50718810846e-07
5.70374936184e-07
1.54711970248e-07
5.6992669995e-07
1.54628820206e-07
5.75212272001e-07
1.40771766176e-07
5.9170977566e-07
1.18422274927e-07
5.9076833146e-07
9.21844597606e-08
5.59532867332e-07
5.42501088842e-07
5.71854244314e-08
2.61830825107e-07
7.54777333455e-07
2.48963631766e-07
7.94861263087e-07
2.45235835857e-07
8.45760112256e-07
2.41099087913e-07
9.00060375818e-07
2.28930821095e-07
9.38461417463e-07
2.0348175454e-07
9.36167908919e-07
1.80575064832e-07
8.19400034864e-07
1.73184691695e-07
7.07738338202e-07
1.76899218394e-07
6.39775085652e-07
1.85913149418e-07
6.01406146913e-07
1.95457462518e-07
5.83793346596e-07
2.04573263719e-07
5.80361788457e-07
2.10321401801e-07
5.79215504064e-07
2.12471928437e-07
5.77638477072e-07
2.12740486913e-07
5.77253071939e-07
2.06162045841e-07
5.80723559331e-07
1.87650673926e-07
5.95146758622e-07
1.57856422647e-07
5.99469744048e-07
1.29419193362e-07
5.73115005061e-07
5.50326638756e-07
9.7708836155e-08
2.45862952074e-07
7.44479227735e-07
2.25623466637e-07
7.84544072203e-07
2.2188484275e-07
8.33466265957e-07
2.20731885554e-07
8.88345894148e-07
2.14506950664e-07
9.32204645227e-07
2.07482976287e-07
9.34751147545e-07
2.07834456542e-07
8.21062155027e-07
2.16039034598e-07
7.14491758082e-07
2.29085666968e-07
6.48767692538e-07
2.44598426021e-07
6.11601484771e-07
2.57360416697e-07
5.95233480201e-07
2.65143937691e-07
5.91654441628e-07
2.6841420381e-07
5.90471156821e-07
2.67175094168e-07
5.89353090018e-07
2.65755086764e-07
5.89619450889e-07
2.56755374926e-07
5.92833424911e-07
2.32979646097e-07
6.04986637568e-07
1.96575633391e-07
6.13536854568e-07
1.64315651333e-07
5.92543697667e-07
5.63890910338e-07
1.32379128859e-07
2.37922289966e-07
7.35719705583e-07
2.16614554476e-07
7.76632185881e-07
2.06549370133e-07
8.25094752609e-07
2.00680028947e-07
8.79069913778e-07
1.95972865049e-07
9.23258134216e-07
2.03326412981e-07
9.15883876151e-07
2.24801113492e-07
8.04215091342e-07
2.47495454934e-07
7.11262687297e-07
2.70921910774e-07
6.53500102728e-07
2.94590027586e-07
6.21184858461e-07
3.10505570085e-07
6.08409528708e-07
3.17030159027e-07
6.05446939864e-07
3.18267929116e-07
6.04553504832e-07
3.14427541638e-07
6.04057844189e-07
3.10619476738e-07
6.05137872612e-07
3.01466073529e-07
6.08873253236e-07
2.74269231267e-07
6.20447371224e-07
2.32718054868e-07
6.32279179944e-07
1.94520473362e-07
6.16660017571e-07
5.81903198818e-07
1.60049918489e-07
2.29365751035e-07
7.34719813807e-07
2.02664803916e-07
7.74576933533e-07
1.86147594594e-07
8.21800220995e-07
1.75278570142e-07
8.73842604677e-07
1.70093126934e-07
9.11760896656e-07
1.98627717955e-07
8.77606409926e-07
2.37609274294e-07
7.77624362636e-07
2.7406040664e-07
7.02591502767e-07
3.08763280362e-07
6.55876071902e-07
3.39297480665e-07
6.31018106624e-07
3.55114799028e-07
6.22687221401e-07
3.59942482671e-07
6.20785190643e-07
3.59619700205e-07
6.20545714986e-07
3.53205968663e-07
6.20773752736e-07
3.46888912704e-07
6.22775540242e-07
3.38287686638e-07
6.27436054644e-07
3.08894037567e-07
6.39767688007e-07
2.63074789268e-07
6.5440591358e-07
2.18200482652e-07
6.43837004948e-07
6.04697530715e-07
1.81079506724e-07
2.17886789683e-07
7.41034219929e-07
1.87855889174e-07
7.76826107017e-07
1.67184825292e-07
8.21796092304e-07
1.53860960297e-07
8.6881806449e-07
1.58814074461e-07
8.89485287332e-07
2.0556017214e-07
8.29227765156e-07
2.55815761918e-07
7.49925968049e-07
3.02205819796e-07
6.92595365547e-07
3.45652391186e-07
6.57767656701e-07
3.76939925434e-07
6.41685472985e-07
3.89261996535e-07
6.37280775462e-07
3.93898031565e-07
6.37007123248e-07
3.91894505952e-07
6.37680353035e-07
3.83160987512e-07
6.38713279178e-07
3.74539302981e-07
6.41646551046e-07
3.64897468602e-07
6.47503606875e-07
3.33150006971e-07
6.61484007409e-07
2.83925560753e-07
6.78731425145e-07
2.36004060088e-07
6.73255494623e-07
6.33066995197e-07
1.97591359788e-07
2.05060242855e-07
7.57381957749e-07
1.73229841066e-07
7.81482696818e-07
1.5186153631e-07
8.21124890731e-07
1.45196967131e-07
8.56470633966e-07
1.72265835996e-07
8.46842143755e-07
2.27108694512e-07
7.85266619934e-07
2.82153816382e-07
7.2589745853e-07
3.34223733205e-07
6.84247076501e-07
3.8042713221e-07
6.6124343627e-07
4.06013667138e-07
6.53237074039e-07
4.15408455436e-07
6.52201120098e-07
4.19502543219e-07
6.53825262473e-07
4.1580596477e-07
6.55582799374e-07
4.04409104848e-07
6.57478561026e-07
3.93229457073e-07
6.61341083923e-07
3.80943690311e-07
6.68632568903e-07
3.45451712683e-07
6.84656557958e-07
2.96043003309e-07
7.048291022e-07
2.48867896358e-07
7.04964969943e-07
6.66467414023e-07
2.09784227697e-07
1.82228031865e-07
7.94241526758e-07
1.51570231052e-07
7.90171789156e-07
1.38738562723e-07
8.12214339133e-07
1.51427085186e-07
8.2493827098e-07
1.98532632013e-07
7.97367216592e-07
2.56297909764e-07
7.49935391769e-07
3.13008368195e-07
7.07386760653e-07
3.677666942e-07
6.7946791904e-07
4.08259764025e-07
6.6750418494e-07
4.26213980375e-07
6.65650350942e-07
4.35296512656e-07
6.67907224375e-07
4.38369365773e-07
6.71352113478e-07
4.32259217095e-07
6.74110132553e-07
4.18060978896e-07
6.76762478063e-07
4.04011902038e-07
6.81437324627e-07
3.86406659843e-07
6.89949034393e-07
3.48351702461e-07
7.08220111746e-07
3.02877552382e-07
7.31865237547e-07
2.58279137542e-07
7.38778656392e-07
7.04708694527e-07
2.17616859709e-07
1.77988285557e-07
8.37895022154e-07
1.54560261384e-07
7.98726893222e-07
1.51764811176e-07
7.9494752856e-07
1.81080208697e-07
7.86914467038e-07
2.31835888954e-07
7.59497188159e-07
2.88366228011e-07
7.24372431051e-07
3.45260162796e-07
6.95426938016e-07
3.96958642445e-07
6.79761891273e-07
4.27119116815e-07
6.76790619918e-07
4.40881048748e-07
6.79579021744e-07
4.49757044067e-07
6.84682570881e-07
4.50661632297e-07
6.89560191973e-07
4.41813045801e-07
6.93055067756e-07
4.24598891201e-07
6.96242569609e-07
4.06975119028e-07
7.01414076553e-07
3.83330463465e-07
7.10639540987e-07
3.45622880892e-07
7.30736653843e-07
3.07161596766e-07
7.58364336063e-07
2.65636532143e-07
7.73574678294e-07
7.47205815506e-07
2.20625140994e-07
1.86821655967e-07
8.77434164558e-07
1.72390793969e-07
8.04346810263e-07
1.79177540144e-07
7.74884912194e-07
2.14489997927e-07
7.55405153854e-07
2.63678956777e-07
7.31684024434e-07
3.17877848402e-07
7.07187286488e-07
3.73717470593e-07
6.89905663765e-07
4.15844944244e-07
6.85116593409e-07
4.36848358763e-07
6.88712011538e-07
4.50946606253e-07
6.95463557608e-07
4.57984822543e-07
7.02689941277e-07
4.56100766226e-07
7.08458202098e-07
4.43776842595e-07
7.12261650902e-07
4.23466598002e-07
7.1555248369e-07
4.01292400921e-07
7.20787258166e-07
3.72839146058e-07
7.29986035388e-07
3.39690615445e-07
7.51066494514e-07
3.08595596536e-07
7.82476384465e-07
2.69168003959e-07
8.06704751666e-07
7.89381467588e-07
2.17082899786e-07
2.01945484075e-07
9.03590998455e-07
2.02856755614e-07
8.03248417202e-07
2.12820306121e-07
7.56408357436e-07
2.47421568484e-07
7.31809922472e-07
2.92117791659e-07
7.13271078534e-07
3.44008692523e-07
6.98161425578e-07
3.93466968668e-07
6.91482301402e-07
4.24011504389e-07
6.95395849043e-07
4.42112688656e-07
7.03941833806e-07
4.54923331172e-07
7.13743409787e-07
4.59173100774e-07
7.22364548682e-07
4.52678082274e-07
7.28318048358e-07
4.35949249392e-07
7.31837908543e-07
4.12265053678e-07
7.3484527811e-07
3.85446476624e-07
7.39611325686e-07
3.5486520231e-07
7.48070956743e-07
3.26576157232e-07
7.68286257528e-07
3.01122938969e-07
8.03363139142e-07
2.60249289126e-07
8.36712225747e-07
8.28093066844e-07
2.10879296659e-07
2.09385865265e-07
9.18381662597e-07
2.3257123391e-07
7.95050134135e-07
2.44753472276e-07
7.41235515928e-07
2.76668266684e-07
7.17428872973e-07
3.17737272531e-07
7.05160077551e-07
3.65494203443e-07
6.98294989639e-07
4.02805820744e-07
7.00926228535e-07
4.24567245399e-07
7.11022516244e-07
4.41722631175e-07
7.23569003897e-07
4.51757614375e-07
7.35579397515e-07
4.50320556665e-07
7.44556602988e-07
4.3737931624e-07
7.495762996e-07
4.15066869128e-07
7.52063849238e-07
3.87181838928e-07
7.5430253437e-07
3.57125498788e-07
7.58222764895e-07
3.25330078758e-07
7.65173760542e-07
3.01948380606e-07
7.82645131192e-07
2.7924480403e-07
8.2104609358e-07
2.43051426814e-07
8.64415202868e-07
8.62194774121e-07
2.04520076093e-07
2.03730702306e-07
9.26888998563e-07
2.51160828864e-07
7.85534229087e-07
2.64798449055e-07
7.33203213716e-07
2.94884685399e-07
7.14090226598e-07
3.33163238545e-07
7.08376869986e-07
3.71521843513e-07
7.08394919191e-07
3.97586649194e-07
7.18237642012e-07
4.15772632971e-07
7.32943472649e-07
4.30965878457e-07
7.48682446106e-07
4.35188730967e-07
7.61837089936e-07
4.25885928741e-07
7.69821732259e-07
4.04461384854e-07
7.72428852474e-07
3.75371585321e-07
7.72867676e-07
3.43949221366e-07
7.7390327666e-07
3.11795132227e-07
7.76223486976e-07
2.83053846445e-07
7.81154422215e-07
2.65050549883e-07
7.94338581116e-07
2.47303364761e-07
8.32991583276e-07
2.21715467922e-07
8.85591867141e-07
8.87515698583e-07
1.91430740345e-07
2.23718019793e-07
9.15172215965e-07
3.00401491533e-07
7.82687686445e-07
2.91980982712e-07
7.40761818145e-07
3.079212938e-07
7.28212060648e-07
3.35608805342e-07
7.27091647254e-07
3.59854738128e-07
7.30906152416e-07
3.77191222578e-07
7.44733496142e-07
3.93841849432e-07
7.62914051433e-07
4.03370427903e-07
7.80835667866e-07
3.99339934224e-07
7.93961260443e-07
3.79338773175e-07
7.98836690099e-07
3.46126161357e-07
7.95911264376e-07
3.08999670193e-07
7.92188405743e-07
2.7458058953e-07
7.91258391993e-07
2.46155964827e-07
7.91838500936e-07
2.26174284094e-07
7.94587478377e-07
2.13826799091e-07
8.02984852299e-07
2.03268545182e-07
8.3621040055e-07
1.89748916702e-07
8.96680307854e-07
9.0338189489e-07
1.65339468868e-07
2.52310934981e-07
9.06030429595e-07
3.41570683818e-07
7.94956748965e-07
3.04184960774e-07
7.67992639485e-07
2.98024350309e-07
7.65281109972e-07
3.11195246212e-07
7.6617544795e-07
3.24060199659e-07
7.6833134701e-07
3.36901584742e-07
7.82593679659e-07
3.48678240473e-07
8.02751757097e-07
3.51591438587e-07
8.21979284415e-07
3.342798302e-07
8.32531741803e-07
2.92126480867e-07
8.27708480172e-07
2.42996424097e-07
8.13247201242e-07
2.05285303778e-07
8.04995094751e-07
1.79977976323e-07
8.03599214083e-07
1.63099607212e-07
8.0285830777e-07
1.53460183162e-07
8.03152954673e-07
1.46913376675e-07
8.0684998518e-07
1.46777029271e-07
8.30050463418e-07
1.4914894015e-07
8.93571867468e-07
9.10283546426e-07
1.3538492286e-07
2.85910578381e-07
9.05101082467e-07
3.54330781041e-07
8.23222111129e-07
2.92583978451e-07
8.1569416412e-07
2.5864143145e-07
8.26205485934e-07
2.5051763887e-07
8.25388701924e-07
2.52589753672e-07
8.18924795884e-07
2.59599663571e-07
8.28513627379e-07
2.64428512342e-07
8.48487869514e-07
2.46499960979e-07
8.65567901513e-07
1.95630258801e-07
8.65977967567e-07
1.38974889987e-07
8.45505340833e-07
1.02579396759e-07
8.18992089992e-07
8.410977319e-08
8.07322683463e-07
7.39199843298e-08
8.05635643893e-07
6.92267765765e-08
8.03866340246e-07
6.85125123527e-08
8.02368558644e-07
7.17272184511e-08
8.03126165538e-07
8.62966331675e-08
8.16641004762e-07
1.10530036846e-07
8.71813778198e-07
9.04349633584e-07
1.10882419134e-07
3.24958655182e-07
8.86718196456e-07
3.35719015643e-07
8.44967961752e-07
2.55563245089e-07
8.59567203653e-07
1.91189435314e-07
8.84559502817e-07
1.5495157239e-07
8.80896602612e-07
1.38224312116e-07
8.64357842518e-07
1.28143159485e-07
8.65318383528e-07
1.05644051528e-07
8.82133994901e-07
5.86794879341e-08
8.94116097561e-07
9.10801054417e-09
8.82860388901e-07
-1.90195642799e-08
8.46482267329e-07
-2.90108843743e-08
8.09083686972e-07
-3.10690204639e-08
7.92876363959e-07
-2.68880017878e-08
7.91666483227e-07
-1.96792044531e-08
7.90589658018e-07
-9.91596602456e-09
7.89550490275e-07
4.85124599479e-09
7.90062353292e-07
3.48989471869e-08
7.98069089645e-07
7.8672505146e-08
8.35860019508e-07
8.83300729307e-07
9.41280883853e-08
3.25653440659e-07
8.53409820916e-07
2.65363837269e-07
8.48481002104e-07
1.90613942052e-07
8.78221174473e-07
1.24267062759e-07
9.14561498737e-07
7.07116247665e-08
9.12113863651e-07
2.6335049163e-08
8.92463452201e-07
-1.26012700989e-08
8.88002121124e-07
-5.09181217703e-08
8.99734965082e-07
-8.48491852342e-08
9.04750688939e-07
-1.04117743356e-07
8.829407301e-07
-1.10949582538e-07
8.35562733357e-07
-1.11901282093e-07
7.8916865821e-07
-1.05491948032e-07
7.66145667479e-07
-9.18010475122e-08
7.65362268028e-07
-7.45179924011e-08
7.66524329593e-07
-5.63414148067e-08
7.67681019152e-07
-3.34206272398e-08
7.69897771561e-07
5.41206100544e-09
7.75864969967e-07
5.7134654948e-08
7.98597559704e-07
8.4871253326e-07
8.78814079454e-08
2.93658420367e-07
8.24315902088e-07
2.13226202723e-07
8.44152190775e-07
1.61817113433e-07
8.86816082537e-07
1.13829163261e-07
9.31636032304e-07
6.30928901338e-08
9.34646499581e-07
9.64763813973e-09
9.17326836353e-07
-3.71149941401e-08
9.09800400169e-07
-7.0171246728e-08
9.14358336788e-07
-8.87321394724e-08
9.11136338296e-07
-9.84552969981e-08
8.81464282456e-07
-1.0700856005e-07
8.27036972162e-07
-1.12776840486e-07
7.72822488421e-07
-1.09608680345e-07
7.41111224278e-07
-9.5457125912e-08
7.37489347123e-07
-7.53505522648e-08
7.40570344235e-07
-5.51645517626e-08
7.44118439875e-07
-3.09334697781e-08
7.48476282471e-07
5.40428660506e-09
7.54224325264e-07
5.48206479685e-08
7.68387405939e-07
8.09098767246e-07
9.52237867917e-08
2.5609207314e-07
8.07197948976e-07
1.99665768797e-07
8.43104456729e-07
1.80096629917e-07
8.88387951371e-07
1.63807581991e-07
9.37187067597e-07
1.31261548916e-07
9.54825647416e-07
9.02470186673e-08
9.44387343813e-07
5.1959549463e-08
9.35907057229e-07
2.37465470179e-08
9.34168066875e-07
5.04321784647e-09
9.23738124701e-07
-1.02821722517e-08
8.88528575081e-07
-2.66479952998e-08
8.29904852951e-07
-4.08182660715e-08
7.69730467091e-07
-4.72333097311e-08
7.29346385779e-07
-4.0438914799e-08
7.1857390855e-07
-2.54144233194e-08
7.21373894432e-07
-9.93952364391e-09
7.26302709215e-07
8.2520034678e-09
7.32194806289e-07
3.75895367756e-08
7.38388607171e-07
7.93871900799e-08
7.47667699746e-07
7.73945416662e-07
1.19363061801e-07
2.44694149235e-07
7.93427944081e-07
2.20252986483e-07
8.31296056041e-07
2.24843364378e-07
8.73106698634e-07
2.32877761774e-07
9.22851045199e-07
2.24327050538e-07
9.5862925578e-07
1.99720526679e-07
9.64561308363e-07
1.71087374065e-07
9.6073192308e-07
1.44573782223e-07
9.5721256723e-07
1.21588453976e-07
9.42757257548e-07
1.00908012269e-07
9.04068235742e-07
8.1042607363e-08
8.43282313536e-07
6.36611427511e-08
7.79622282399e-07
5.19285444312e-08
7.32674637385e-07
5.0334410016e-08
7.13681386495e-07
5.6385257669e-08
7.13840557976e-07
6.26399861796e-08
7.18601535353e-07
7.13399928527e-08
7.24871544502e-07
9.29842880561e-08
7.3112519387e-07
1.25906469607e-07
7.37212282534e-07
7.51544250061e-07
1.54279256863e-07
2.44538571515e-07
7.75204214007e-07
2.40460605635e-07
8.04507752582e-07
2.52680574227e-07
8.44303299137e-07
2.70173561242e-07
8.94791431825e-07
2.82716910761e-07
9.40665506422e-07
2.78486470244e-07
9.65156357878e-07
2.63784010042e-07
9.73645751088e-07
2.42935821023e-07
9.76218995542e-07
2.20199194667e-07
9.63224065043e-07
1.98956640918e-07
9.23768250456e-07
1.80046611528e-07
8.6222467664e-07
1.64675724832e-07
7.96878978307e-07
1.54536638483e-07
7.4591929982e-07
1.50289958207e-07
7.20663107489e-07
1.4906236088e-07
7.17523464787e-07
1.45274501299e-07
7.21134733385e-07
1.44059763809e-07
7.26918481297e-07
1.56638239154e-07
7.32776592389e-07
1.82109074755e-07
7.36962136411e-07
7.43916600946e-07
1.95960384566e-07
2.30668544192e-07
7.68078518939e-07
2.31363681966e-07
7.76357722479e-07
2.50064167976e-07
8.05834018734e-07
2.7548380051e-07
8.56143222447e-07
2.99190580299e-07
9.07973286378e-07
3.14961670431e-07
9.45432823662e-07
3.17636707652e-07
9.69818514319e-07
3.08272120107e-07
9.84794383347e-07
2.91741406041e-07
9.79061177947e-07
2.74529133926e-07
9.42270958292e-07
2.59831422408e-07
8.81795208228e-07
2.49495395905e-07
8.16630735828e-07
2.44768047434e-07
7.64195947082e-07
2.42757959376e-07
7.35566329034e-07
2.36965995571e-07
7.29906281433e-07
2.24011138644e-07
7.32171120304e-07
2.13322037717e-07
7.37050473037e-07
2.18254551281e-07
7.42518480051e-07
2.39206807748e-07
7.46037567015e-07
7.4914460655e-07
2.43062670963e-07
2.19657939778e-07
7.70517849831e-07
2.18759146792e-07
7.55562376067e-07
2.34994243341e-07
7.69043277673e-07
2.64524315685e-07
8.13083206305e-07
2.98620654081e-07
8.66148278263e-07
3.29109043569e-07
9.13466735215e-07
3.46106535641e-07
9.53449614081e-07
3.48065221596e-07
9.82735333553e-07
3.39917603837e-07
9.87121129355e-07
3.29387062977e-07
9.55700355027e-07
3.21171738611e-07
8.98242835558e-07
3.17722981145e-07
8.35239787162e-07
3.19958203086e-07
7.83847818442e-07
3.21645092413e-07
7.54844704587e-07
3.12030801152e-07
7.48131124758e-07
2.90622193451e-07
7.49488242941e-07
2.72127678957e-07
7.53566078703e-07
2.72969992694e-07
7.59183181542e-07
2.91701878307e-07
7.63109882469e-07
7.64338933086e-07
2.90804866957e-07
2.07170024523e-07
7.8668724429e-07
2.00070932735e-07
7.46986712675e-07
2.06881339737e-07
7.43300004069e-07
2.35278158413e-07
7.75853775879e-07
2.74648335057e-07
8.25855202086e-07
3.14944447421e-07
8.7827503641e-07
3.44884077395e-07
9.28486445394e-07
3.60281912819e-07
9.6951858576e-07
3.64389230836e-07
9.84305867708e-07
3.63752040305e-07
9.60464508056e-07
3.64507804846e-07
9.08352621935e-07
3.69894937945e-07
8.50012883371e-07
3.80438762223e-07
8.02559084117e-07
3.85318292683e-07
7.76264137325e-07
3.70888062351e-07
7.70024941266e-07
3.42178984628e-07
7.71292885076e-07
3.19354933247e-07
7.75008331127e-07
3.19265331799e-07
7.81455900399e-07
3.36206647989e-07
7.86517274936e-07
7.86898365312e-07
3.33744432363e-07
1.97615013034e-07
8.15199781945e-07
1.80875981396e-07
7.51359421622e-07
1.75975901496e-07
7.30706352246e-07
1.97035150923e-07
7.5090304288e-07
2.34657122416e-07
7.94585839136e-07
2.78312727768e-07
8.47227225808e-07
3.16777658139e-07
9.01735562998e-07
3.45093891601e-07
9.48817212322e-07
3.63791281945e-07
9.70781373662e-07
3.76645380206e-07
9.55333784882e-07
3.90073330011e-07
9.11157407848e-07
4.07463600044e-07
8.60293547112e-07
4.27222063923e-07
8.19689922433e-07
4.32402674187e-07
7.98629953924e-07
4.11730911762e-07
7.94053271944e-07
3.78425791378e-07
7.95904637014e-07
3.55506143337e-07
8.00109393381e-07
3.56348590475e-07
8.07918863832e-07
3.71252632457e-07
8.14371560464e-07
8.14613502311e-07
3.68745401561e-07
1.89648229983e-07
8.52969670961e-07
1.62928686399e-07
7.66274753232e-07
1.48912451985e-07
7.2871573147e-07
1.61560890772e-07
7.36593585985e-07
1.94083073307e-07
7.72569069219e-07
2.37080116288e-07
8.22443345293e-07
2.79649135958e-07
8.77116144451e-07
3.16816428842e-07
9.25485900051e-07
3.47930964979e-07
9.50772079174e-07
3.75182867628e-07
9.42296411404e-07
4.03011956839e-07
9.07402928178e-07
4.33127924247e-07
8.66219031298e-07
4.58416847887e-07
8.34706139603e-07
4.59484204512e-07
8.20394124383e-07
4.33610325508e-07
8.1844622469e-07
4.00333843145e-07
8.21649365013e-07
3.80775723594e-07
8.27057281505e-07
3.83457502155e-07
8.36505491847e-07
3.96390013652e-07
8.44427002769e-07
8.44794294624e-07
3.93471867864e-07
1.80047338039e-07
8.99367910261e-07
1.46877822003e-07
7.89918126941e-07
1.29079741035e-07
7.33746195327e-07
1.36672756589e-07
7.29204666604e-07
1.63917846933e-07
7.5766930323e-07
2.04236098683e-07
8.03196287858e-07
2.47952874593e-07
8.55051647177e-07
2.90591881055e-07
9.01166171568e-07
3.30423020145e-07
9.26832756031e-07
3.689798094e-07
9.23546176633e-07
4.08593603571e-07
8.9817885832e-07
4.47395556683e-07
8.68088114652e-07
4.71423411591e-07
8.47073446089e-07
4.65551898512e-07
8.3972269061e-07
4.39278873617e-07
8.41237081059e-07
4.09695901408e-07
8.46269083492e-07
3.95323754647e-07
8.53177512798e-07
4.00931022449e-07
8.64550112469e-07
4.11409577173e-07
8.73690211888e-07
8.74685672366e-07
4.09047340319e-07
2.00530794391e-07
9.28599745862e-07
1.74663987961e-07
8.13097028225e-07
1.44679967205e-07
7.47786559486e-07
1.41727774564e-07
7.31960118442e-07
1.5898915475e-07
7.52328453748e-07
1.92237230471e-07
7.91460807351e-07
2.32811515913e-07
8.37480576612e-07
2.76086972016e-07
8.78357777906e-07
3.19468658819e-07
9.01950942871e-07
3.64291020841e-07
9.02228017052e-07
4.10270329977e-07
8.85964543934e-07
4.50373789318e-07
8.67429162482e-07
4.66956541676e-07
8.57033762936e-07
4.56441363905e-07
8.55708697639e-07
4.32338811161e-07
8.6050938853e-07
4.08062369233e-07
8.67214615223e-07
4.01673853792e-07
8.76384399881e-07
4.09701842583e-07
8.89427033775e-07
4.18595765051e-07
8.99351353908e-07
9.01363772095e-07
4.19496163541e-07
2.27405304723e-07
9.3801226374e-07
2.21007989205e-07
8.29481295523e-07
1.82088931717e-07
7.67170294845e-07
1.67040863822e-07
7.45338754042e-07
1.71923425932e-07
7.5808569676e-07
1.95639512781e-07
7.88724074283e-07
2.30435248001e-07
8.26154975309e-07
2.70761434998e-07
8.59504645718e-07
3.14185936969e-07
8.79244397517e-07
3.60929568603e-07
8.82000613348e-07
4.07191156095e-07
8.74221449042e-07
4.40758260469e-07
8.6679007446e-07
4.48366188019e-07
8.65017163245e-07
4.3609747606e-07
8.68230631835e-07
4.1532285027e-07
8.75192691266e-07
3.99982616553e-07
8.83555381045e-07
4.01653635101e-07
8.949917571e-07
4.11101568776e-07
9.08660834144e-07
4.20894686218e-07
9.18716022456e-07
9.21597036303e-07
4.279838476e-07
2.50778094288e-07
9.36341091985e-07
2.60774931018e-07
8.42414494192e-07
2.15088054724e-07
7.9102505553e-07
1.89230707843e-07
7.6988605391e-07
1.82597716851e-07
7.75803482316e-07
1.97632956058e-07
7.95558912348e-07
2.26804285093e-07
8.21997687083e-07
2.63816047666e-07
8.46271229881e-07
3.0607750706e-07
8.61129816707e-07
3.51164271394e-07
8.65960327483e-07
3.91848258119e-07
8.66201945511e-07
4.14659446817e-07
8.67225582058e-07
4.15865701693e-07
8.71052183691e-07
4.04644912554e-07
8.77209701544e-07
3.91224051627e-07
8.85233916997e-07
3.86910312517e-07
8.94922462539e-07
3.94371261358e-07
9.07225315772e-07
4.05177633531e-07
9.20031425078e-07
4.19231258901e-07
9.29338790626e-07
9.32207612826e-07
4.35198558171e-07
2.61539209583e-07
9.38035212599e-07
2.69000723279e-07
8.60900757631e-07
2.16273070248e-07
8.22498960122e-07
1.8079418458e-07
8.06373585229e-07
1.67274931059e-07
8.0381026222e-07
1.77840994626e-07
8.09542870945e-07
2.04320770705e-07
8.23230317608e-07
2.39953819934e-07
8.37661877217e-07
2.80608213755e-07
8.47203147551e-07
3.20599874304e-07
8.54525291573e-07
3.51719528657e-07
8.60422274448e-07
3.65381088744e-07
8.66478701773e-07
3.66601700092e-07
8.73514914001e-07
3.62474228331e-07
8.81300753254e-07
3.61189599862e-07
8.89741775852e-07
3.66239784952e-07
8.99462698807e-07
3.76724434243e-07
9.1064305165e-07
3.90544758702e-07
9.21415294155e-07
4.11266225975e-07
9.29250320214e-07
9.31153732555e-07
4.37079510948e-07
2.54385420532e-07
9.58019441242e-07
2.32068558926e-07
8.94822699336e-07
1.70431386407e-07
8.66885571389e-07
1.24726677881e-07
8.53399819595e-07
1.0928049552e-07
8.35953364201e-07
1.21072461923e-07
8.23195507829e-07
1.48686718375e-07
8.22727156866e-07
1.84326777434e-07
8.26936658508e-07
2.22614601185e-07
8.31026824848e-07
2.56215052698e-07
8.40005831405e-07
2.79112531288e-07
8.492671935e-07
2.93092765794e-07
8.58468290725e-07
3.03129120378e-07
8.67760785247e-07
3.12439588271e-07
8.76593159684e-07
3.23110411612e-07
8.84833899475e-07
3.34492867677e-07
8.93368118591e-07
3.47863806822e-07
9.02656610964e-07
3.67501069207e-07
9.11543514625e-07
3.95600774381e-07
9.17865181254e-07
9.18620531661e-07
4.29311749299e-07
2.74222779806e-07
9.67712301756e-07
2.00709232152e-07
9.29823464364e-07
1.14798400777e-07
9.15505888678e-07
5.29762667193e-08
8.98568180503e-07
2.76715914161e-08
8.62909505895e-07
3.56663381994e-08
8.30479750419e-07
6.43221199004e-08
8.14050618922e-07
1.01452412542e-07
8.07606347658e-07
1.38501393351e-07
8.06023248947e-07
1.69675405083e-07
8.14791155711e-07
1.94346900449e-07
8.26222778063e-07
2.17622765756e-07
8.37988106859e-07
2.40382362673e-07
8.49214991473e-07
2.62147037916e-07
8.59021387341e-07
2.80934532454e-07
8.67200233668e-07
2.97731536463e-07
8.75051838734e-07
3.16524476631e-07
8.83409096053e-07
3.42689333989e-07
8.91396297677e-07
3.75658239515e-07
8.96839021012e-07
8.97143373551e-07
4.13756106822e-07
2.93780623643e-07
9.07317162471e-07
1.88147348024e-07
9.4381995803e-07
1.10644076989e-07
9.44579609952e-07
5.2205472113e-08
9.20821472412e-07
1.0992353543e-08
8.76863583271e-07
-3.95664703625e-09
8.32956394671e-07
1.00815672446e-08
8.01929799679e-07
4.10276807839e-08
7.5321344081e-08
1.07199513849e-07
1.37302521198e-07
1.69175138516e-07
2.0046991055e-07
2.28930726268e-07
2.52745937073e-07
2.74007602987e-07
2.97154142113e-07
3.26177434043e-07
3.60195279997e-07
3.98291477574e-07
3.71116561695e-07
3.17287817431e-07
2.56358090996e-07
1.82584222104e-07
1.19934790403e-07
7.73439671838e-08
-1.48105509996e-07
4.82580346023e-07
-1.33164045754e-07
4.58542964097e-07
-1.2077721138e-07
4.35231397513e-07
-1.09665300022e-07
4.12134211744e-07
-9.88883107695e-08
3.88554475021e-07
-8.78481978282e-08
3.63898025237e-07
-7.657537641e-08
3.38180821091e-07
-6.55027445392e-08
3.12145863911e-07
-5.49647138329e-08
2.86679079086e-07
-4.50943679601e-08
2.62343686065e-07
-3.59447177034e-08
2.39375745648e-07
-2.75442458051e-08
2.17805347474e-07
-2.0003668708e-08
1.97537153288e-07
-1.35451469873e-08
1.78395060989e-07
-8.27958790965e-09
1.60185107545e-07
-1.22298162068e-09
1.4298713332e-07
1.27673255278e-07
-6.61717901801e-08
5.40759766337e-07
-1.36237973085e-07
5.18136831161e-07
-1.93315873129e-07
4.93324425196e-07
-1.69873359992e-07
4.68303029488e-07
-1.51616878092e-07
4.4630126985e-07
-1.36343928496e-07
4.24389861767e-07
-1.22696311221e-07
4.02180509188e-07
-1.09694321265e-07
3.79069068193e-07
-9.68118531343e-08
3.54664947275e-07
-8.41145276622e-08
3.29250207883e-07
-7.19470808311e-08
3.03686578889e-07
-6.05007629667e-08
2.78807105116e-07
-4.98395905988e-08
2.55097378235e-07
-3.99694208511e-08
2.32749596698e-07
-3.09027835073e-08
2.11773836602e-07
-2.27130825181e-08
1.9206820035e-07
-1.56421472046e-08
1.73454766759e-07
-9.79427794256e-09
1.55736629651e-07
-2.42266480874e-09
1.38967863338e-07
1.24037623223e-07
-2.16080289455e-08
5.30603757178e-07
-5.93577647721e-08
5.05624840978e-07
-2.03703921534e-07
4.80980293561e-07
-1.7923520226e-07
4.54668338816e-07
-1.59670491974e-07
4.34202715508e-07
-1.4303990513e-07
4.13526307952e-07
-1.28106559127e-07
3.92069721695e-07
-1.13960635371e-07
3.69343389305e-07
-1.0018426586e-07
3.45189038191e-07
-8.68884519573e-08
3.20127678811e-07
-7.43241519367e-08
2.95083022689e-07
-6.25820866783e-08
2.70817889526e-07
-5.16775973419e-08
2.4774841994e-07
-4.15930833927e-08
2.26029744302e-07
-3.23253880373e-08
2.05655344829e-07
-2.39469241239e-08
1.86517051043e-07
-1.66494213675e-08
1.68437942442e-07
-1.06002531351e-08
1.51216540898e-07
-3.3736301757e-09
1.34882105201e-07
1.20315508336e-07
2.39201364661e-08
5.26451921305e-07
-3.63663103852e-09
4.99652182083e-07
-1.74229478373e-07
4.8000606282e-07
-1.75865176324e-07
4.44063691655e-07
-1.56710499038e-07
4.23482697942e-07
-1.40259386844e-07
4.03653022254e-07
-1.25335165997e-07
3.82642722292e-07
-1.11168615994e-07
3.6010056576e-07
-9.74890666318e-08
3.36106107191e-07
-8.44505006636e-08
3.11369109515e-07
-7.22260883714e-08
2.86820093423e-07
-6.0845025778e-08
2.63140186779e-07
-5.02959766519e-08
2.40681974403e-07
-4.05526140223e-08
2.1956717431e-07
-3.16110343507e-08
1.99773680499e-07
-2.35168977035e-08
1.81186642307e-07