/*--------------------------------*- C++ -*----------------------------------*\
| =========                 |                                                 |
| \\      /  F ield         | OpenFOAM: The Open Source CFD Toolbox           |
|  \\    /   O peration     | Version:  2312                                  |
|   \\  /    A nd           | Website:  www.openfoam.com                      |
|    \\/     M anipulation  |                                                 |
\*---------------------------------------------------------------------------*/
FoamFile
{
    version     2.0;
    format      ascii;
    arch        "LSB;label=32;scalar=64";
    class       volScalarField;
    location    "0.745/heater";
    object      T;
}
// * * * * * * * * * * * * * * * * * * * * * * * * * * * * * * * * * * * * * //

dimensions      [0 0 0 1 0 0 0];

internalField   nonuniform List<scalar> 
600
(
790.350851345
790.227552468
789.981592284
789.614310546
789.127872299
790.206469571
790.07280074
789.805014866
789.402132803
788.862438183
790.091302478
789.955762316
789.684612863
789.277730945
788.734973832
790.02727841
789.891748815
789.620689656
789.214103655
788.672008898
790.002822228
789.86795599
789.598276493
789.19389436
788.654977029
789.996882431
789.862419753
789.593568909
789.190438493
788.652945674
789.995942688
789.86158059
789.592933983
789.19007529
788.652724721
789.994224815
789.859888655
789.591326417
789.188671593
788.651585148
789.988639567
789.854192521
789.585435174
789.182639725
788.645651115
789.978730359
789.844036346
789.574754377
789.171221374
788.633689895
789.966293504
789.831334732
789.56146474
789.156986776
788.618578632
789.953368019
789.818197637
789.547849052
789.142526933
788.603336375
789.941024298
789.805661129
789.534881799
789.128630725
788.587913659
789.930168113
789.794636657
789.52353674
789.116674984
788.57400788
789.921407945
789.78572931
789.514369554
789.107174085
788.563581285
789.915099219
789.779331828
789.507821261
789.100474379
788.556780215
789.910759367
789.77493889
789.503348187
789.095945988
788.55225904
789.907553415
789.771652188
789.49991982
789.092374197
788.548618425
789.905340338
789.769349196
789.49744923
789.089722504
788.545869309
789.90428161
789.768251767
789.496290928
789.088560629
788.544823554
789.903807835
789.767754982
789.495764907
789.088126914
788.544757818
789.903208221
789.767092594
789.494955923
789.087156849
788.543927859
789.902736257
789.766554229
789.494236264
789.086143669
788.543062372
789.903038722
789.766846917
789.494450383
789.086114242
788.543412058
789.904139726
789.767960537
789.495523296
789.086719728
788.542487567
789.906076184
789.769872572
789.4973949
789.088433692
788.5427476
789.91005495
789.773836005
789.5013415
789.092398086
788.546593395
789.917737067
789.781583942
789.509216226
789.100448155
788.554902387
789.930866885
789.794832435
789.52268859
789.114205998
788.568931654
789.952134145
789.816223105
789.54428848
789.136037185
788.590942142
789.984773709
789.849124008
789.577610533
789.169780995
788.624940761
790.033295652
789.898168495
789.627518125
789.220585842
788.676300483
790.102850988
789.968700832
789.699671175
789.294443245
788.751246683
790.193584605
790.060840806
789.794113383
789.391239263
788.849500533
790.305685183
790.174754412
789.910976545
789.511075131
788.971153253
790.43882522
790.310175393
790.050123869
789.654017822
789.116517983
790.589485446
790.463614015
790.208129406
789.816757533
789.282529686
790.747935531
790.624818848
790.373877986
789.987207825
789.456304352
790.910687819
790.79038098
790.544095702
790.16220315
789.634808852
791.076256827
790.959025945
790.717914497
790.341368374
789.818105313
791.241793705
791.128242073
790.893484205
790.523603758
790.004129312
791.39752882
791.28751667
791.059040163
790.696044221
790.179642805
791.538437962
791.431722153
791.209232369
790.853131181
790.340725639
791.660366405
791.556649153
791.339747603
790.990360359
790.482930784
791.758612956
791.657610704
791.445975419
791.103242521
790.600988468
791.826239522
791.72691996
791.518717825
791.180596219
790.682065499
791.860280034
791.761604445
791.554987732
791.219412565
790.723200387
791.859349825
791.759963054
791.552476358
791.216612149
790.720731787
791.824780372
791.72325835
791.512242566
791.172875674
790.674963973
791.760456349
791.655892397
791.439548625
791.094310419
790.592481083
791.6652043
791.556128885
791.331723068
790.977341508
790.46924842
791.543742595
791.428876158
791.194059807
790.827806886
790.31161836
791.413528498
791.292901252
791.047688261
790.669470539
790.145077313
791.303393084
791.17890981
790.926870898
790.540925837
790.011305515
791.231720713
791.104973928
790.849009277
790.458779467
789.92637454
791.207877184
791.080376017
790.823183006
790.431829073
789.899704116
791.231004266
791.103854416
790.84752665
790.457607287
789.927745228
791.291923455
791.166162437
790.912775862
790.52703337
790.000894745
791.375216804
791.252335497
791.004799263
790.627054737
790.107500454
791.463682896
791.344024022
791.102999647
790.734247293
790.222161564
791.545969027
791.4293188
791.194665428
790.835535211
790.332174681
791.609814499
791.49558834
791.266296535
790.916130027
790.421957644
791.646483546
791.534029609
791.309072029
790.967596495
790.48434146
791.652462444
791.540924289
791.318777981
790.985059957
790.515628648
791.633415759
791.521786159
791.300531993
790.973660389
790.524801542
791.60460975
791.492320797
791.270086539
790.946149267
790.522665898
791.574114756
791.46072661
791.235669911
790.908507867
790.506552166
791.549917453
791.435680615
791.208018489
790.874697112
790.472028014
791.545690659
791.432103602
791.205057447
790.868505972
790.455874831
791.57000313
791.458527821
791.235574012
790.900894608
790.479608745
791.618756291
791.510058777
791.29297203
790.962836423
790.530319291
791.687623792
791.581954202
791.37183186
791.049152061
790.601194951
791.775333049
791.673582005
791.473086732
791.165167347
790.71022884
791.873006347
791.774307427
791.581960584
791.289893909
790.848471719
791.972146207
791.875784616
791.690036117
791.413095475
790.992033736
792.062616203
791.967967135
791.787104224
791.523784027
791.127480386
792.135594706
792.041449938
791.862443409
791.61003486
791.247740067
792.185615744
792.091092973
791.911174375
791.663095316
791.338063932
792.217206833
792.123164901
791.943730514
791.698286977
791.406825415
792.234395236
792.141261768
791.963138109
791.718623941
791.436124023
792.238183036
792.145502286
791.967500825
791.720408903
791.430904799
792.227563529
792.13454442
791.95453222
791.699155749
791.388611991
792.202241956
792.108401588
791.924486799
791.652341156
791.286637231
792.162738627
792.068069801
791.881098841
791.596760908
791.176082417
792.113580993
792.017868794
791.828541511
791.540247053
791.108654657
792.062812498
791.966082242
791.77476558
791.484830411
791.053797593
792.014119724
791.916490703
791.723444048
791.432685709
791.004449716
791.970932406
791.872850772
791.678765973
791.387966759
790.964086177
791.946703349
791.848793026
791.654508887
791.36448167
790.947013732
791.937444107
791.839751377
791.645149098
791.355289865
790.944213974
791.936150295
791.83891775
791.644154371
791.354137785
790.950330533
791.940568768
791.844408886
791.650397811
791.360655395
790.965729418
791.947924629
791.852543102
791.658932635
791.36897952
790.988033808
791.96162103
791.866015231
791.671599539
791.379975705
791.015262176
791.986240522
791.889317899
791.692352241
791.395941921
791.038962407
792.019006593
791.920398165
791.720255288
791.417232889
791.049169155
792.063886763
791.965994524
791.767065359
791.461957211
791.07282384
792.114884307
792.019991303
791.826569966
791.52615659
791.115722861
792.158581792
792.066384888
791.878109261
791.584434584
791.157282226
792.195902954
792.106098284
791.922430575
791.636889249
791.2155329
792.228904431
792.14124737
791.961418273
791.683361308
791.279752966
792.259611447
792.173064889
791.99461634
791.719412514
791.331087474
792.289285127
792.203287632
792.024893212
791.749375462
791.378732369
792.314715317
792.22900395
792.050173803
791.771569078
791.409724262
792.333730205
792.248632075
792.070806082
791.790954544
791.42591232
792.347026888
792.262440648
792.086385409
791.808409412
791.441687544
792.354861437
792.270516446
792.095881035
791.818688477
791.445670024
792.359912617
792.275436515
792.101748973
791.823901668
791.436560582
792.364658997
792.279785053
792.107046156
791.828092417
791.413150657
792.369782681
792.284425322
792.113404899
791.838886105
791.408428946
792.370937233
792.285169585
792.116725314
791.852113483
791.428508388
792.366037587
792.279985952
792.114483265
791.86251941
791.458434323
792.356022854
792.270034114
792.108267069
791.873195512
791.501749184
792.341804719
792.256010171
792.096827193
791.87573315
791.541114642
792.315790965
792.22986856
792.071578737
791.860469012
791.569458909
792.263473533
792.176428521
792.016361037
791.808314381
791.564948824
792.169183952
792.078828346
791.912550566
791.698003273
791.468512425
792.035810285
791.940581577
791.765069388
791.538950532
791.300788956
791.892466202
791.790775079
791.602737569
791.36076076
791.109320579
791.798151183
791.691329303
791.492937486
791.237540618
790.975521807
)
;

boundaryField
{
    emptyPatch
    {
        type            empty;
    }
    minY
    {
        type            zeroGradient;
    }
    maxY
    {
        type            zeroGradient;
    }
    minX
    {
        type            zeroGradient;
    }
    heater_to_water
    {
        type            compressible::turbulentTemperatureTwoPhaseRadCoupledMixed;
        refValue        nonuniform List<scalar> 
240
(
304.70751019
325.605483257
325.608096289
326.634081864
326.635418994
326.360175126
326.360861848
324.851173379
322.719283945
321.889730535
321.88981232
321.688341337
321.688407531
321.707208459
321.707281961
321.659359874
321.773821147
321.732263519
321.732426593
321.804268166
321.804457335
321.712896607
321.713086426
321.39432583
320.31140921
320.579021439
320.579193449
323.58955426
323.589708814
325.670367274
325.670494703
325.818734462
326.128535803
325.952763094
325.952862465
326.161644518
326.161735128
325.910317267
325.910391788
326.036664038
325.808216546
325.851471437
325.851543368
325.711468269
325.711540631
325.100938046
325.100998887
322.388465686
320.194116265
321.546814253
321.546874022
327.390292103
327.390315743
329.716078691
329.716054739
330.557206292
330.33163818
330.918984902
330.918810357
330.568138068
330.567836548
331.062924392
331.062429139
330.64117338
331.027798705
330.527778102
330.526783867
330.776404545
330.775151729
330.296036292
330.294544187
330.517244574
330.235046166
330.440691511
330.438887918
330.096555364
330.094718463
327.011741751
327.010021399
321.896571814
318.754230656
318.738961392
318.737779941
322.009766651
322.008518361
328.948214426
328.946825721
331.456669319
332.551569079
332.510758641
332.509904006
333.23707848
333.236669175
332.911917859
332.91201282
333.453733537
332.960135166
333.132259402
333.133278461
332.557207518
332.558678034
332.449986323
332.451839911
332.176823125
330.772235966
327.172471613
327.173845441
324.128946654
324.129760865
324.665425227
324.665726469
331.955409244
338.33428828
339.804404893
339.803499124
341.111144795
341.109754877
340.603230234
340.601740021
340.816103473
339.920431484
339.706483325
339.70535792
338.780047598
338.779301663
332.105726879
332.105439338
325.09450309
322.806821006
326.642431967
326.642515858
352.753670387
352.754044627
462.888324434
462.889190652
482.759406778
486.94363328
483.168845006
483.168357138
481.927247622
481.926145636
477.686730669
477.685161833
453.079198586
385.637291323
349.570355156
349.568204613
336.50371221
336.501977955
329.086172698
329.084836497
324.137629986
322.585383131
327.531130444
327.53030904
365.53616392
365.53498523
497.41948472
497.419191389
539.545187435
544.381460861
543.035301719
543.03557418
533.842508386
533.843411957
475.475914419
475.478296467
358.983895872
331.870811298
322.664252863
322.664790934
319.533589283
319.534012208
318.389197594
318.38953215
317.400063673
317.520731958
317.046300114
317.046373277
317.369317122
317.369331909
316.971054779
316.971011671
317.450861572
317.822120696
325.613821739
325.613637964
390.82085537
390.820466555
535.895052714
535.895017836
572.597088598
590.325041683
595.754061163
595.753859727
541.184408651
541.183926472
371.946503973
371.945326168
331.74415477
320.919318331
319.473146046
319.472836572
328.290276431
328.289867068
371.937219125
371.936714266
463.885074804
484.22413138
487.330335328
487.330043538
490.509674855
490.509657427
489.844692403
489.844984737
488.651272363
467.534102301
402.39430885
402.394476652
351.920287709
351.920021381
333.111535928
333.111259469
325.934466278
324.317029518
323.607832221
323.607561732
323.8758298
323.875648953
333.504792901
333.504933604
455.80724715
576.92478831
603.115280166
603.115746903
604.494270902
604.494726266
601.081537444
601.081846135
598.867480681
)
;
        refGradient     uniform 0;
        valueFraction   nonuniform List<scalar> 
240
(
0.000601720576441
0.000733927855155
0.000733852829413
0.000734124944692
0.000734087968029
0.000734121118813
0.000734101902164
0.000730043605778
0.000722770073823
0.000720770794623
0.000720768076124
0.000720662280579
0.00072066005794
0.000721154658824
0.000721152189209
0.000720664666051
0.000721304254267
0.000720663151489
0.000720657671452
0.000721138238243
0.000721131895314
0.000720597539434
0.000720591149223
0.000719624171704
0.000714631876438
0.000716322077663
0.000716315986137
0.00072951211753
0.000729507260904
0.000736442633184
0.000736438920469
0.000735885366827
0.000736936510738
0.000735901300062
0.000735898435445
0.000736928509235
0.00073692591432
0.000735882962443
0.000735880810072
0.000736760029262
0.000735871854449
0.000736303279114
0.000736301194773
0.000735801462989
0.000735799355529
0.000734534596261
0.000734532783073
0.00072477998644
0.000715006636467
0.000722423196974
0.000722421144836
0.000742104097123
0.000742103443829
0.000744788871762
0.000744789483662
0.000745502062822
0.000744811508764
0.000745590446917
0.000745594738064
0.000744859866701
0.000744867359132
0.00074559274862
0.000745604866118
0.000744865754598
0.000745560810593
0.000744820378129
0.000744845098772
0.000745452887593
0.000745483800093
0.000744845320646
0.000744882694818
0.0007453819534
0.000744907701765
0.000745190277071
0.000745235246337
0.000744918790017
0.000744965113318
0.000740398782988
0.000740446951813
0.000723450630803
0.000708921661811
0.000710804016269
0.00071085039956
0.00072683271719
0.000726875207325
0.000745288832437
0.000745325431913
0.00074666454286
0.000747049965175
0.000746686446467
0.000746706488671
0.000747106328151
0.000747115715541
0.000746705978563
0.00074670378062
0.00074706751768
0.000746658494052
0.000746920626389
0.000746897221988
0.000746591957984
0.000746557603328
0.0007466568996
0.000746613456809
0.000746489213179
0.000745541203175
0.00074036133622
0.000740323078249
0.000732601970416
0.000732576626759
0.000735513515608
0.00073550430642
0.000746898923108
0.000745749303611
0.000746202704327
0.000746219965512
0.00074575164489
0.000745777263003
0.000746248163862
0.00074627599792
0.000745883431421
0.000746329140577
0.000746173478137
0.000746194974189
0.000746393269907
0.000746407870695
0.000746088869854
0.000746095693959
0.000732623162548
0.000726581073801
0.000737710777604
0.00073770838064
0.000740695336812
0.000740689991793
0.000631758294123
0.000631754916038
0.00062832291045
0.000626390443312
0.000628310932588
0.000628312613997
0.000627178631558
0.000627182448207
0.000628407938147
0.000628413512269
0.000641035444959
0.000705896805027
0.000742964209355
0.000742996994562
0.000747411804528
0.000747448150583
0.000742313084313
0.00074234821853
0.000731219828437
0.000726912272541
0.000740242105168
0.000740264989897
0.000723972380803
0.000723985604479
0.000597085510501
0.000597086402134
0.000587340000423
0.000587318227163
0.000587350903979
0.000587350243023
0.000590072586635
0.000590070298001
0.000624082976905
0.00062407446331
0.000744238440372
0.000730314077652
0.000712928106393
0.000712910541531
0.000711020882073
0.000711004827845
0.000712426954791
0.000712413413563
0.000708086445441
0.000711847230638
0.000707908819529
0.000707905636704
0.000711779683478
0.000711779049189
0.000707759629194
0.000707761513654
0.000712057550288
0.000708499495503
0.000728838446711
0.0007288438469
0.000695517821261
0.000695520824957
0.000586855830265
0.000586855917304
0.000586287022705
0.000586310125248
0.000586287873381
0.00058628827368
0.000593414983872
0.000593416173997
0.000726902535236
0.000726914579275
0.000737850517144
0.000707591113977
0.000706865130368
0.000706876985376
0.000736346281731
0.00073635738176
0.000721723277701
0.000721728431537
0.000631122332469
0.000624528637666
0.000625704325308
0.000625705306463
0.000624365342316
0.000624365399804
0.000625692544355
0.000625691574715
0.000625316687126
0.00063475685811
0.000686950893266
0.000686949753986
0.000741459271241
0.00074146316926
0.000744537207896
0.000744543676991
0.000732727478895
0.000732782315004
0.000732231112309
0.00073224003456
0.000732867397939
0.00073287331439
0.000745614960117
0.000745611677419
0.000633147185169
0.000586350019602
0.000586760088928
0.000586759180818
0.000587106338865
0.000587105456413
0.00058715901888
0.000587158413816
0.00058715817552
)
;
        source          uniform 0;
        kappaMethod     solidThermo;
        Tnbr            T.liquid;
        region          solid;
        otherPhase      gas;
        value           nonuniform List<scalar> 
240
(
788.837753583
788.789047109
788.523849399
788.524476542
788.397128564
788.396911183
788.334007649
788.334781711
788.31960351
788.31993713
788.317926488
788.317830677
788.317617972
788.317400569
788.31626665
788.316459761
788.310318127
788.310587492
788.298626908
788.298454338
788.283345706
788.283529173
788.268287385
788.268509471
788.254608329
788.254008542
788.240137083
788.236157438
788.225801743
788.224109251
788.217322622
788.217687943
788.212915239
788.213264595
788.209624119
788.209301467
788.206554392
788.206851624
788.205812043
788.205498317
788.205677139
788.205509351
788.204683735
788.204811891
788.203945511
788.204082374
788.20439444
788.206948324
788.208931588
788.206435264
788.206761532
788.201906072
788.205802106
788.206295902
788.214591372
788.214891493
788.229055592
788.229136573
788.251125587
788.251200717
788.285168981
788.285205844
788.33652446
788.33654891
788.411422453
788.411388942
788.509575763
788.509483279
788.6310531
788.630988783
788.776258249
788.776195174
788.942134866
788.942158395
789.115821679
789.115711928
789.294104204
789.293919991
789.477036868
789.481203602
789.671607842
789.670709926
789.846171264
789.841014691
790.002114298
789.998662649
790.140809244
790.142065205
790.260719983
790.26085602
790.341899424
790.342259505
790.383382316
790.383327272
790.380861295
790.381099474
790.335161264
790.335169845
790.252722425
790.252431982
790.129242087
790.129115462
789.971525456
789.971377046
789.804248888
789.803963261
789.670236302
789.671579233
789.586682084
789.585708075
789.559072035
789.559215511
789.592434659
789.593326911
789.666435717
789.667621733
789.774213634
789.773624206
789.888271801
789.888608197
789.997789434
789.997699904
790.087515878
790.086735857
790.149253074
790.144418089
790.175840607
790.176880208
790.187385815
790.185009797
790.183032645
790.200987458
790.183425676
790.300689166
790.264955202
790.27856438
790.265408773
790.262454141
790.286143083
790.285713171
790.336321281
790.333279008
790.404290713
790.384567817
790.425663049
790.383851553
790.522927058
790.511214323
790.655059739
790.651888741
790.78748305
790.789007379
790.910413608
790.907827423
790.998208712
791.033280596
791.100250328
791.233040051
791.260845592
791.288453484
791.285840887
791.285042147
791.242632608
791.23653193
791.134652958
791.089470465
790.980836319
790.856200994
790.775743112
790.777163837
790.722351067
790.721009817
790.671766352
790.670280261
790.629978127
790.631322324
790.612662184
790.614190887
790.611450598
790.60984455
790.616032439
790.617654087
790.63315162
790.63145699
790.655823394
790.651878526
790.678817767
790.739680628
790.761082678
790.889710337
790.898347455
790.920010558
790.953498052
790.956685487
790.999578479
790.965803873
791.009529362
790.853142139
790.913285069
790.879037474
790.949668397
790.948987624
791.000507562
790.993094832
791.040506327
791.078784568
791.107924257
791.20396182
791.234244033
791.235826424
791.251534564
791.253927314
791.257822854
791.257007405
791.247772966
791.247139581
791.207772448
791.146120044
791.142752019
791.084122416
791.105189857
791.089835166
791.120062493
791.120219814
791.162668631
791.16240685
791.20213257
791.202035608
791.230809696
791.232030089
791.225898407
791.354849539
791.342923957
791.358203514
791.190197348
791.190941358
790.999412277
790.997398197
790.863559286
790.862259149
)
;
    }
}


// ************************************************************************* //
