/*--------------------------------*- C++ -*----------------------------------*\
| =========                 |                                                 |
| \\      /  F ield         | OpenFOAM: The Open Source CFD Toolbox           |
|  \\    /   O peration     | Version:  2312                                  |
|   \\  /    A nd           | Website:  www.openfoam.com                      |
|    \\/     M anipulation  |                                                 |
\*---------------------------------------------------------------------------*/
FoamFile
{
    version     2.0;
    format      ascii;
    arch        "LSB;label=32;scalar=64";
    class       volScalarField;
    location    "0.72/water";
    object      T.gas;
}
// * * * * * * * * * * * * * * * * * * * * * * * * * * * * * * * * * * * * * //

dimensions      [0 0 0 1 0 0 0];

internalField   nonuniform List<scalar> 
1496
(
453.403311213
354.731952437
317.44403849
306.018203981
302.263242034
301.034818951
300.612332544
300.433457248
300.337044954
300.273612395
300.224107974
300.182379728
300.146137408
300.114337311
300.086974938
300.064905287
300.047876752
300.034407386
300.024098275
300.017449076
406.068512158
339.783321434
312.824376638
304.086425433
301.488654336
300.749280093
300.505871613
300.39437423
300.322338819
300.267617815
300.22185552
300.182231386
300.147426856
300.117100415
300.091619296
300.071232446
300.055099706
300.042004808
300.031452301
300.024105303
386.386385395
334.072021024
310.476703461
302.675371605
300.996380517
300.612474134
300.470523399
300.387785352
300.325909361
300.274629877
300.230135109
300.191001206
300.15650462
300.126665739
300.101810262
300.081638233
300.06521771
300.051601054
300.040468127
300.032179696
390.816527808
340.90044422
312.662601703
303.367986017
301.213465149
300.679041849
300.503642077
300.414388151
300.350723353
300.297655235
300.251105973
300.210112369
300.174129963
300.14292741
300.117008396
300.095830452
300.078379851
300.063687167
300.051423601
300.041762609
437.870677409
361.297947508
323.746549597
307.898370369
302.565269086
301.072261749
300.640524791
300.486168011
300.402076172
300.338689548
300.285556258
300.239795292
300.200301675
300.166058581
300.1372989
300.113887818
300.094616241
300.078288346
300.06443255
300.053210864
525.065653388
381.619170626
332.365190098
312.73139049
304.972675808
302.035396711
300.958059571
300.612320848
300.480103297
300.398239935
300.332509694
300.278248394
300.233088971
300.194835844
300.162161552
300.135365612
300.113542189
300.095101288
300.079147932
300.065934572
562.740429824
393.603117622
337.272966318
315.567030781
306.643009522
302.924212851
301.404744504
300.802952221
300.570949852
300.465809628
300.387517949
300.323016024
300.270288121
300.22674099
300.190050812
300.15934165
300.134340127
300.113509696
300.095147994
300.079455397
574.668858933
396.98860761
338.067624756
316.2573655
307.336392274
303.441536357
301.729162954
300.989584738
300.674111465
300.532932146
300.44102337
300.368679619
300.309140157
300.259907857
300.218917162
300.184469878
300.156009985
300.132469487
300.111677135
300.093345852
578.009024776
395.192439577
335.822904256
315.238357275
307.169574785
303.586531222
301.907079671
301.126554427
300.768794401
300.601854593
300.490916281
300.409950728
300.345865109
300.292360833
300.247146199
300.209127967
300.177517624
300.151010352
300.127691119
300.106757982
578.600767388
390.633537115
331.447313404
312.87473766
306.240213345
303.350561116
301.915658232
301.194044259
300.833938223
300.652260751
300.532541844
300.446044892
300.378292454
300.322487491
300.273852071
300.232351901
300.197825015
300.16860016
300.142501632
300.118984219
576.619706673
383.450164574
325.698242976
309.732145354
304.811335636
302.796282502
301.742541966
301.166341196
300.850876882
300.675234606
300.558986693
300.47191574
300.403260346
300.346753362
300.296716113
300.252912122
300.216085503
300.184564159
300.155975308
300.130192398
571.167483004
373.340872482
320.123796538
306.942457185
303.455432072
302.163631318
301.481634155
301.076928117
300.832409393
300.680967425
300.57248296
300.488267507
300.420796886
300.364688747
300.314307461
300.269406234
300.231233482
300.197992793
300.167695867
300.140293773
562.496212501
365.490905703
316.538002353
305.301705651
302.574339972
301.691237338
301.253822639
300.982935482
300.80113575
300.673292854
300.575145999
300.496376612
300.431849019
300.377071035
300.326872807
300.281963337
300.243361648
300.209197726
300.178069132
300.149528843
558.134274911
363.127446435
316.638938914
305.353914469
302.328504798
301.449272271
301.105657437
300.905966423
300.765100834
300.657532968
300.570573206
300.498480481
300.437853233
300.384636027
300.334946597
300.291020105
300.252774822
300.218672021
300.187732033
300.158287908
542.248906782
360.09444983
317.36760336
305.871566449
302.396767094
301.362947995
301.01895231
300.849466153
300.73293971
300.64052819
300.563210235
300.497382852
300.44019189
300.387548543
300.339696968
300.297403257
300.260448171
300.227728588
300.197199595
300.166397206
516.46500447
354.985141243
316.62015983
305.896619342
302.440555714
301.336223776
300.972211513
300.811695617
300.708136846
300.625920234
300.555835772
300.494413213
300.438624041
300.388030655
300.342469136
300.303131979
300.268923039
300.237594225
300.206693659
300.173685573
480.675482869
349.061243198
314.915725617
305.443049368
302.33920525
301.300292436
300.941987277
300.787023061
300.690766241
300.614616336
300.548603203
300.489676753
300.436579887
300.388890528
300.347872238
300.312199658
300.280005529
300.248852243
300.216698057
300.181372148
441.292800919
342.689515414
313.266196947
304.827893549
302.12573361
301.230074212
300.911297735
300.768127375
300.677369541
300.605569431
300.543524145
300.488232561
300.43947522
300.397214362
300.359831809
300.325844236
300.293882842
300.261650206
300.227793982
300.191158979
410.007196533
335.342348016
311.459274394
304.113341365
301.835709964
301.122002003
300.870934516
300.751036742
300.669914638
300.603785289
300.546971862
300.497815959
300.453820359
300.414699368
300.378635237
300.344123162
300.310245171
300.275676359
300.240262777
300.203670309
391.147307052
331.744636337
310.372545172
303.484227673
301.539617889
301.021163157
300.845338385
300.750298898
300.678233016
300.61772799
300.566460996
300.521774013
300.480866869
300.442440189
300.404729679
300.367252498
300.329859425
300.292443598
300.25514339
300.218138299
389.242457343
338.085155735
313.428653527
304.167575888
301.628213094
301.047505122
300.873951922
300.783360727
300.713994733
300.656095401
300.607100291
300.563803545
300.522630572
300.481353684
300.439462108
300.397117374
300.354795422
300.313283663
300.272744219
300.233523571
429.23919859
362.90933191
323.818037449
307.655391091
302.529638159
301.272802673
300.969559588
300.853572371
300.77899655
300.720087895
300.670703012
300.625314916
300.579814653
300.532953562
300.484361816
300.435145486
300.386405637
300.339029989
300.293252534
300.249517525
540.937054129
392.450842933
334.349363003
311.549135801
303.807745076
301.67121351
301.122627897
300.946797749
300.858763743
300.796520475
300.745547386
300.697305274
300.646877101
300.592308434
300.535336065
300.478634064
300.422826431
300.36865306
300.315831882
300.265374876
598.42101605
412.46953192
342.286529239
314.634736961
305.007950288
302.10597307
301.294550845
301.040777358
300.932002573
300.863517854
300.808589026
300.755878118
300.70049794
300.642991521
300.58224677
300.519240258
300.457192076
300.396992555
300.33777782
300.279980334
615.910274222
421.428090569
345.878775931
315.979211778
305.562072656
302.343403041
301.400973267
301.100812529
300.977474212
300.904126209
300.846068601
300.790503612
300.731759199
300.672017485
300.609733803
300.546540069
300.481909339
300.417794266
300.354076968
300.290229201
617.724958958
422.422151249
345.982512278
315.880876509
305.484283355
302.325606375
301.403152377
301.107623602
300.985714021
300.912318208
300.853360259
300.797631218
300.740555843
300.6823964
300.619986859
300.556931994
300.493609957
300.428680649
300.362086811
300.293264679
613.214723246
418.495372745
343.568811027
314.568578089
304.888807356
302.103044324
301.321230848
301.071081668
300.963538008
300.895230235
300.837325167
300.782358095
300.728693309
300.673276322
300.614069444
300.554114814
300.493457967
300.43007697
300.361545827
300.2867229
607.796656275
412.989159342
340.017412033
312.713333722
304.116334803
301.821831756
301.213303972
301.018036754
300.927904111
300.865432968
300.80891767
300.756810705
300.704216224
300.64994974
300.594215679
300.537514452
300.478556893
300.414698742
300.342926725
300.263246788
603.691172741
408.732036276
336.847552963
311.069857479
303.48596343
301.606302331
301.132722255
300.976739122
300.894548983
300.832992572
300.775953424
300.721499991
300.668448227
300.615811443
300.562065753
300.505368647
300.44390756
300.372677873
300.294819329
300.213950586
600.594124453
405.950377289
334.465361818
309.883932703
303.090371902
301.502015031
301.105739059
300.963313291
300.873296799
300.800247298
300.736513604
300.679151709
300.625367818
300.571233751
300.514718795
300.451131728
300.37991453
300.303173157
300.226787271
300.167042478
597.140824474
403.193963757
332.459614233
309.072293099
302.939320736
301.579355966
301.182048766
300.984350671
300.858039884
300.766301003
300.694274889
300.632744924
300.573434539
300.512887294
300.4445447
300.373829496
300.303934224
300.237957021
300.181546286
300.138043008
592.751971769
399.18988879
330.210302864
308.486894436
303.286387315
301.879449742
301.303610891
301.011920222
300.841177041
300.730498418
300.649278959
300.577593767
300.507305847
300.432955433
300.363658506
300.301583068
300.244462747
300.195077662
300.154329142
300.12175079
589.091028848
394.015339248
327.91000278
308.897829229
303.974318855
302.179288114
301.402301014
301.020704892
300.815357431
300.689745608
300.592872395
300.505443132
300.422664582
300.355466908
300.299358752
300.249638753
300.206930654
300.170589959
300.139860777
300.112848677
584.851877055
388.031014228
326.080776514
310.0346722
304.536289572
302.376181819
301.43795258
301.001870616
300.779636138
300.632070555
300.515687747
300.419842545
300.351984939
300.29925168
300.255275973
300.218381769
300.186546117
300.158579448
300.133588017
300.108816141
555.882050278
378.687908893
328.180565488
311.219712834
304.94365965
302.457551129
301.422256192
300.965018098
300.715789569
300.551844964
300.431068383
300.356730018
300.30326156
300.262657692
300.229679426
300.201619657
300.176229108
300.152643499
300.129809052
300.10484951
483.435832074
377.25587702
332.565165536
313.843865683
305.967699315
302.767605164
301.474467257
300.909744775
300.6404022
300.46592032
300.375068775
300.315612314
300.273880388
300.242430359
300.216408519
300.193003061
300.17058356
300.148662914
300.125651354
300.100557298
430.05951831
367.263970728
333.009460541
315.614697783
307.137369454
303.137281718
301.438629675
300.820132412
300.546929836
300.40862296
300.341761011
300.293081215
300.259263406
300.233093831
300.210306088
300.18873415
300.166811438
300.144059381
300.11974015
300.094879399
300.006191742
300.00580422
300.00563388
300.005222372
300.004335957
300.003469219
300.003050524
300.003045275
300.003248831
300.003514291
300.003769258
300.003989324
300.004226577
300.004402701
300.004462911
300.004372344
300.013284306
300.010782463
300.009676663
300.009210394
300.008268091
300.007354327
300.006791448
300.00609604
300.004921396
300.003820329
300.00331699
300.003275566
300.003451878
300.003702134
300.003940285
300.004144752
300.004366998
300.004528411
300.004578465
300.004491842
300.018969471
300.015334062
300.013647083
300.012544123
300.010908814
300.009241895
300.0080929
300.0069934
300.00548664
300.0041573
300.003589708
300.003522861
300.003674029
300.003908884
300.004128571
300.004310459
300.004513934
300.004660074
300.004700754
300.00461514
300.025962724
300.021175342
300.018617952
300.016611264
300.013999251
300.011343504
300.009455182
300.007851615
300.005995748
300.004496927
300.003898491
300.003817786
300.00394716
300.00416006
300.004356975
300.004506295
300.004682318
300.004810257
300.004842283
300.004769846
300.034350789
300.028448492
300.024449364
300.021182988
300.017267197
300.013421868
300.010718059
300.008555382
300.006411542
300.00486063
300.004277091
300.00419765
300.004310221
300.004487242
300.004648582
300.004753022
300.004887776
300.004991705
300.005013195
300.004957385
300.044265661
300.036908097
300.030810618
300.025872628
300.020317038
300.015177417
300.011688183
300.009038439
300.006750225
300.005273011
300.004759143
300.004698529
300.004789283
300.004915094
300.00501714
300.005060224
300.005142103
300.005214368
300.005224452
300.005172968
300.05511728
300.045963216
300.037377314
300.030244871
300.02273626
300.016354487
300.012219105
300.009339368
300.007074397
300.005780901
300.005387434
300.005341866
300.005377917
300.00542901
300.005446902
300.005410501
300.005432621
300.005478685
300.005480153
300.005428696
300.066279324
300.054817816
300.04385533
300.033822421
300.024192048
300.016807312
300.012429182
300.009562221
300.007483955
300.006435876
300.006195946
300.006112132
300.006038359
300.005972968
300.005878044
300.005765774
300.005736998
300.005774349
300.005777589
300.005736145
300.077401772
300.063220476
300.049639379
300.03617164
300.02463902
300.016788872
300.012551267
300.009832852
300.008055544
300.007301042
300.007182254
300.006958434
300.006722001
300.006503739
300.006285726
300.006106775
300.006051576
300.006114751
300.006132587
300.006103762
300.088069647
300.071024684
300.054119464
300.037205036
300.024391947
300.016713552
300.012701629
300.010239578
300.00886045
300.008421825
300.00824557
300.007808238
300.007397672
300.006996463
300.006676438
300.006429631
300.006406155
300.006546151
300.006583821
300.006564919
300.097763487
300.077814485
300.056872597
300.037169628
300.023959059
300.016672067
300.012955091
300.010882992
300.009940361
300.009721242
300.009261392
300.008598389
300.008050751
300.007426203
300.007043329
300.006739925
300.006874884
300.007140191
300.007195201
300.00719543
300.106481939
300.083250297
300.05803217
300.036666945
300.023593934
300.016764095
300.013405895
300.011824256
300.011248989
300.010954943
300.010121909
300.009271775
300.008436682
300.007756144
300.007309361
300.007127033
300.007537848
300.008022508
300.008146827
300.008213849
300.114609788
300.087413382
300.05852517
300.036384474
300.02357744
300.017124195
300.0141718
300.013042573
300.012619524
300.011942468
300.010834691
300.009602622
300.008582686
300.008199367
300.007807121
300.007843217
300.008645824
300.009572944
300.009867362
300.010073924
300.122094936
300.091132815
300.059756086
300.037127775
300.024300048
300.017966054
300.015309401
300.01447224
300.01390327
300.012779734
300.011266794
300.009788724
300.009237426
300.008968584
300.008874522
300.009276671
300.010713132
300.012590668
300.013413796
300.01379873
300.129059679
300.096174568
300.063474694
300.040209594
300.026469662
300.01959668
300.01682951
300.016097822
300.015306282
300.013768998
300.011631428
300.010510107
300.01019477
300.01025737
300.010785932
300.012027006
300.014851205
300.019001299
300.021136247
300.021895577
300.135393502
300.103984114
300.071742612
300.047094302
300.030807435
300.02220738
300.018824439
300.018080861
300.017236975
300.015166505
300.012592272
300.011666169
300.011640374
300.012403794
300.014219243
300.017741715
300.02431522
300.033234389
300.037923259
300.040085228
300.141916318
300.113315146
300.084611003
300.058357206
300.038147397
300.026537003
300.021703516
300.020633408
300.019924337
300.017515877
300.014327725
300.01297228
300.013320709
300.015476008
300.020366927
300.029907156
300.045333367
300.063509179
300.072762786
300.078659511
300.150062147
300.123623131
300.098982316
300.072651382
300.048341522
300.033125422
300.026091414
300.023952391
300.023112962
300.020758052
300.017125258
300.014323703
300.014492996
300.017839811
300.027230869
300.048774917
300.082823589
300.118877741
300.136496227
300.148222577
300.160113609
300.135303068
300.112721861
300.087650854
300.061503938
300.042302168
300.032386121
300.028014197
300.026442299
300.024241859
300.02064202
300.016263288
300.014931884
300.017468898
300.027795106
300.066323952
300.134957438
300.204436288
300.23477748
300.254292367
300.172150871
300.148032901
300.125782446
300.1011347
300.074472154
300.053253101
300.039652465
300.032551356
300.029697582
300.027179313
300.023592559
300.018340115
300.015674611
300.016336405
300.023313909
300.068615781
300.192021845
300.314868319
300.361281252
300.398476427
300.185407
300.160768652
300.137492887
300.111963438
300.084255877
300.061819297
300.04579448
300.036740131
300.032624018
300.029447504
300.025348595
300.019754194
300.017180494
300.017247411
300.021881002
300.064806022
300.24349192
300.44462073
300.527025871
300.570066916
300.198433872
300.171579108
300.146385864
300.118632886
300.089804821
300.066368242
300.049976307
300.039868284
300.034802574
300.030812117
300.025313359
300.020937079
300.019029174
300.019662847
300.02589819
300.076685366
300.308391108
300.591675804
300.717847549
300.766566905
300.210352426
300.179347766
300.150800042
300.120717119
300.090550323
300.066882916
300.051549787
300.041440608
300.035769585
300.030536639
300.025282359
300.021946786
300.021030317
300.023197093
300.033037245
300.102615264
300.406510199
300.764317075
300.920517277
300.989293859
300.220359977
300.183510505
300.150350404
300.117963347
300.087702803
300.064168896
300.050814254
300.041363329
300.034830766
300.029244686
300.025419314
300.023049324
300.023623002
300.028198998
300.043944478
300.14215929
300.545806607
300.958923523
301.118369216
301.226951313
300.227782013
300.183821168
300.1452941
300.110562368
300.081004846
300.059429775
300.047833811
300.038735445
300.032536489
300.028545877
300.025467779
300.024608795
300.027865488
300.036958973
300.061595466
300.211774832
300.766112837
301.18392477
301.313203553
301.488878275
300.231012074
300.179447213
300.135051567
300.09832457
300.070776538
300.053110534
300.041914999
300.034836824
300.030808027
300.027503442
300.025910183
300.028017845
300.036292959
300.052416459
300.091593408
300.338794111
301.022058688
301.411452288
301.497228196
301.819048763
300.227420479
300.16901269
300.119008081
300.083203861
300.058932999
300.044722146
300.036581874
300.032161079
300.028790168
300.026991937
300.028545886
300.036718166
300.054802571
300.08116034
300.160895342
300.567335147
301.239789419
301.595065309
301.858060753
302.169727935
300.21241102
300.148398635
300.096766295
300.066231212
300.048068717
300.038230111
300.032908191
300.029557858
300.027597077
300.028910663
300.037419675
300.060451368
300.09647188
300.159567831
300.34255946
300.824792132
301.499558786
301.927374148
302.411491701
302.576560167
300.180336814
300.117218105
300.074973327
300.053264255
300.041138626
300.034169246
300.030157185
300.02812572
300.028705128
300.037239029
300.067773858
300.136941295
300.214956316
300.340503568
300.549331349
301.027875815
301.790003999
302.44811702
302.946384787
303.046614436
300.142266099
300.091454257
300.061878457
300.046451186
300.037341657
300.031629111
300.028706812
300.028832054
300.036078487
300.074369217
300.168358541
300.281066858
300.391304304
300.543748326
300.758848603
301.278182512
302.152872259
303.216275849
303.800488698
303.689424001
300.116244708
300.078491634
300.056273562
300.043219734
300.03528139
300.030157631
300.028367555
300.032881787
300.060419548
300.15492815
300.271277907
300.41125624
300.561258498
300.774180675
301.022549168
301.648634173
302.828496666
304.443638648
305.221117415
305.007346633
300.101722778
300.073598873
300.054275316
300.041620851
300.034058468
300.029290395
300.028633836
300.038022774
300.086968148
300.195569687
300.348101599
300.535644725
300.768910232
301.07389902
301.423515203
302.288762445
304.54235323
306.390436861
307.475326472
307.158564151
300.094539572
300.071241211
300.05313864
300.040716104
300.033428172
300.028966289
300.028906135
300.03919661
300.087784737
300.200822752
300.397616452
300.672138327
301.062687161
301.512939042
302.074962252
303.400469333
307.278947718
309.164038703
310.546845475
310.04815504
300.090049774
300.06920886
300.052211243
300.040068196
300.033094944
300.028920244
300.029187279
300.038239208
300.075410342
300.175711294
300.378445778
300.729755831
301.311536681
302.012121541
302.846003088
307.297863702
310.079209792
311.79559332
313.133219579
312.415523854
300.08620111
300.066954683
300.050697122
300.039308159
300.032897375
300.02905165
300.029366494
300.037663409
300.068671179
300.149260401
300.318568028
300.640222152
301.218718394
302.087635432
304.215973888
309.960004691
311.345741156
312.915386474
314.018436039
313.210801039
300.082905575
300.064085314
300.048821365
300.038578157
300.032851563
300.029477847
300.029665866
300.036669539
300.061371896
300.122621537
300.248632598
300.490615479
300.919476273
301.662602703
304.243511684
309.3632206
310.618618839
312.179453074
313.129019758
312.423538758
300.078677424
300.060672797
300.046922529
300.038054508
300.033139106
300.030449257
300.030526257
300.035994229
300.054487183
300.098601993
300.188538875
300.359841725
300.658812987
301.178977892
303.052927634
306.866462097
308.605168771
310.267912009
311.250467095
310.847178276
300.073538502
300.057042567
300.045357475
300.038103536
300.034098008
300.032229541
300.032430381
300.036611977
300.049846123
300.080561654
300.143596891
300.263592306
300.477727151
300.849777679
301.707341148
304.224810781
307.004584976
308.908158923
310.014143074
309.838954636
)
;

boundaryField
{
    emptyPatch
    {
        type            empty;
    }
    minY
    {
        type            fixedValue;
        value           nonuniform List<scalar> 0();
    }
    maxY
    {
        type            inletOutlet;
        inletValue      uniform 373;
        value           nonuniform List<scalar> 
40
(
430.059502787
367.263967396
333.009460005
315.614697867
307.137369367
303.137280577
301.438628473
300.820131521
300.54692922
300.408622785
300.34176098
300.293081209
300.259263405
300.23309383
300.210306088
300.18873415
300.166811438
300.144059379
300.119740148
300.094879395
300.073538498
300.057042565
300.045357474
300.038103536
300.034098009
300.032229542
300.032430386
300.036611985
300.049846133
300.080561661
300.143596886
300.263592274
300.477727077
300.849777466
301.707339891
304.224808271
307.004584752
308.908160259
310.014145407
309.838957618
)
;
    }
    water_to_cooler
    {
        type            copiedFixedValue;
        sourceFieldName T.liquid;
        value           nonuniform List<scalar> 
38
(
300.001035523
300.001036387
300.001034515
300.001031142
300.001028966
300.001031457
300.001042075
300.001064116
300.0011005
300.001154192
300.001231646
300.001344781
300.001517339
300.001810019
300.002369757
300.003526262
300.005912619
300.010561702
300.019032516
300.03350933
300.056441813
300.089723332
300.134104513
300.190545636
300.262852249
300.360113079
300.495289177
300.674441998
300.889759535
301.144969871
301.470712434
301.937139847
302.584317145
303.376856274
304.236374776
305.031632829
305.616356421
305.783778486
)
;
    }
    water_to_heater
    {
        type            copiedFixedValue;
        sourceFieldName T.liquid;
        value           nonuniform List<scalar> 
59
(
790.956261274
790.93765128
790.928008597
790.937113639
790.931330503
790.944818961
790.949778784
790.970746679
791.111524848
791.130196419
791.162356862
791.202275709
791.202624035
791.245645147
791.247213192
791.278393155
791.276105248
791.291906138
791.289652265
791.291427432
791.288129105
791.301430952
791.283504574
791.300288694
791.269167113
791.28482933
791.231313331
791.205703363
791.185962089
791.242955225
791.246405866
791.325798187
791.324755137
791.42434905
791.427410915
791.701496923
791.747853516
791.8138527
791.823898776
791.878853993
791.880076147
791.929244424
791.92646076
791.966228467
791.963687486
791.963210076
791.961546692
791.89878191
791.896650831
791.768671894
791.766175408
791.566609371
791.562547513
791.309575086
791.264095069
790.950188503
790.797067603
790.586691017
790.579602487
)
;
    }
    procBoundary0to1
    {
        type            processor;
        value           nonuniform List<scalar> 
41
(
537.752897846
375.410193022
324.506713839
308.778564488
303.365624915
301.474861453
300.786466291
300.510509644
300.37449527
300.292362036
300.234477653
300.189083476
300.150313616
300.116418606
300.086851451
300.062473476
300.044279138
300.029337547
300.01872694
300.012413605
300.00465566
300.00459638
300.004633605
300.004397077
300.003760884
300.003097794
300.002778756
300.00282217
300.00305102
300.003331
300.003599699
300.003831639
300.004083344
300.004273138
300.00434264
300.004235743
300.009047498
300.007371968
300.006751469
300.006656696
300.006656696
)
;
    }
}


// ************************************************************************* //
