/*--------------------------------*- C++ -*----------------------------------*\
| =========                 |                                                 |
| \\      /  F ield         | OpenFOAM: The Open Source CFD Toolbox           |
|  \\    /   O peration     | Version:  2312                                  |
|   \\  /    A nd           | Website:  www.openfoam.com                      |
|    \\/     M anipulation  |                                                 |
\*---------------------------------------------------------------------------*/
FoamFile
{
    version     2.0;
    format      ascii;
    arch        "LSB;label=32;scalar=64";
    class       volScalarField;
    location    "0.855/water";
    object      nut.gas;
}
// * * * * * * * * * * * * * * * * * * * * * * * * * * * * * * * * * * * * * //

dimensions      [0 2 -1 0 0 0 0];

internalField   nonuniform List<scalar> 
6000
(
3.0979513366e-07
1.1805488443e-07
4.87785753684e-08
3.26085932648e-08
1.31774311682e-07
9.88933349478e-07
4.14960411029e-06
9.26371945319e-06
1.38816917422e-05
1.67885591154e-05
1.83041327826e-05
1.90072722425e-05
1.93005657308e-05
1.9405276572e-05
1.94305408631e-05
1.94262944059e-05
1.94137628428e-05
1.94011157642e-05
1.93909732662e-05
1.93838154838e-05
1.61245954953e-06
9.70413393197e-07
4.67190262642e-07
2.42893863538e-07
1.0052953886e-07
7.62518626709e-08
1.704674328e-07
1.01467956154e-06
4.32401484287e-06
9.69823921614e-06
1.42797850511e-05
1.70538182712e-05
1.84610953766e-05
1.90941120477e-05
1.93444802572e-05
1.94231426987e-05
1.9432477468e-05
1.94184777524e-05
1.94002097015e-05
1.93847337389e-05
2.25377335757e-06
1.62950625424e-06
1.0074875774e-06
5.53148781726e-07
2.97275457744e-07
1.41136347813e-07
1.02447611306e-07
2.55680065705e-07
1.37748896657e-06
4.84083513967e-06
9.83733869659e-06
1.41330846918e-05
1.68907351291e-05
1.83810561896e-05
1.90895324113e-05
1.93833742964e-05
1.94803006926e-05
1.94938919126e-05
1.94782174699e-05
1.94569018136e-05
2.67377180757e-06
2.03500727209e-06
1.38814215882e-06
8.50434035545e-07
5.58834148127e-07
2.58340023943e-07
1.37992136991e-07
1.35421082024e-07
5.23678596104e-07
2.40496465946e-06
6.45275822849e-06
1.11513554706e-05
1.48860431581e-05
1.72624018223e-05
1.85656706313e-05
1.91958267754e-05
1.94588969578e-05
1.95432163277e-05
1.95508755742e-05
1.95321502876e-05
2.96620867627e-06
2.3341417824e-06
1.66895519872e-06
1.10950265829e-06
6.63164286718e-07
4.40760506823e-07
1.89768562096e-07
1.24037766986e-07
2.46787240425e-07
1.22040104441e-06
4.1730835715e-06
8.59818503027e-06
1.28212808033e-05
1.59107957385e-05
1.78196541628e-05
1.88556924273e-05
1.93513690381e-05
1.9552022305e-05
1.960915492e-05
1.96058855261e-05
3.12912278101e-06
2.5433357654e-06
1.8846821145e-06
1.31382881316e-06
8.52586178231e-07
4.85191244509e-07
2.96660558816e-07
1.29123528172e-07
1.46176251692e-07
6.16168509267e-07
2.64632540923e-06
6.53595767842e-06
1.08947144685e-05
1.44799176759e-05
1.69247345612e-05
1.83810597747e-05
1.91503375497e-05
1.950523794e-05
1.96377720218e-05
1.96646273945e-05
3.18795080571e-06
2.65345624981e-06
2.02348985493e-06
1.46170842215e-06
1.00082236241e-06
6.27084078139e-07
3.31676976546e-07
1.74404153272e-07
9.86433151652e-08
3.00571882029e-07
1.60843929296e-06
4.89201074785e-06
9.17818273299e-06
1.30740568069e-05
1.59553101397e-05
1.78072991468e-05
1.88650005575e-05
1.93997386522e-05
1.96297303664e-05
1.97011837879e-05
3.17759614207e-06
2.66788205054e-06
2.07504020036e-06
1.54509071038e-06
1.10514631526e-06
7.40698692602e-07
4.34564359316e-07
2.16454135319e-07
9.49008539371e-08
1.33537959964e-07
8.91931771467e-07
3.57802674399e-06
7.68194133456e-06
1.17511152579e-05
1.49686644173e-05
1.71703636833e-05
1.85105131543e-05
1.92378603352e-05
1.95817531815e-05
1.97107950686e-05
3.15780615886e-06
2.65329315881e-06
2.0808663018e-06
1.58458854165e-06
1.17518700446e-06
8.2852677153e-07
5.26203580883e-07
2.71432969542e-07
1.28941794211e-07
6.95123340003e-08
3.95776995678e-07
2.47875381556e-06
6.36771142471e-06
1.05238944735e-05
1.39962829766e-05
1.64976859913e-05
1.81025117225e-05
1.90250535306e-05
1.94935348235e-05
1.9690455434e-05
3.11130742992e-06
2.60980023879e-06
2.06406742745e-06
1.60561263079e-06
1.22682051192e-06
8.96982007663e-07
6.01261680576e-07
3.42090529517e-07
1.41076874966e-07
6.61500010069e-08
1.39799406581e-07
1.5002833202e-06
5.15534099065e-06
9.34872222458e-06
1.30280580245e-05
1.57956525361e-05
1.76492173854e-05
1.87645653556e-05
1.93643406402e-05
1.96392658836e-05
3.03430256192e-06
2.55716985183e-06
2.05732397517e-06
1.63513394895e-06
1.27591225766e-06
9.53296764879e-07
6.62209344319e-07
4.04002679521e-07
1.84935354227e-07
6.48242365079e-08
6.25700842262e-08
6.7382337091e-07
3.83641802719e-06
8.04982142114e-06
1.19674161704e-05
1.50246986652e-05
1.71367762217e-05
1.84552849479e-05
1.91970068275e-05
1.95590961751e-05
2.99562880182e-06
2.55937833391e-06
2.09858506469e-06
1.69110483241e-06
1.32944318478e-06
1.00161363868e-06
7.12983053548e-07
4.58727494561e-07
2.29137799859e-07
7.43794638834e-08
4.63773526959e-08
2.06343103939e-07
2.2539067486e-06
6.39073903871e-06
1.06728140459e-05
1.41280746733e-05
1.65534977276e-05
1.80991877794e-05
1.89959637748e-05
1.9453831827e-05
3.06482533818e-06
2.65621976725e-06
2.19575684688e-06
1.76619367227e-06
1.37984737572e-06
1.0419224238e-06
7.57629106823e-07
5.09835805529e-07
2.76001226813e-07
9.95708087693e-08
3.92440265086e-08
6.52760117335e-08
9.23063792481e-07
4.41602325225e-06
9.04275798604e-06
1.3039362285e-05
1.5874426957e-05
1.76922962481e-05
1.87643476706e-05
1.93277220234e-05
3.28607743777e-06
2.86106687964e-06
2.33144574354e-06
1.83295954147e-06
1.4129248328e-06
1.07245833079e-06
7.97899991703e-07
5.60690124106e-07
3.3234349769e-07
1.35548710687e-07
4.21214053673e-08
3.95762274687e-08
2.4330758951e-07
2.43851398179e-06
7.05147288015e-06
1.16862306688e-05
1.50623082623e-05
1.72225426441e-05
1.85011145114e-05
1.91830267708e-05
3.58614052526e-06
3.0491628734e-06
2.40405503633e-06
1.85088127405e-06
1.42230798282e-06
1.09224949006e-06
8.32943254621e-07
6.12978834968e-07
3.96503465714e-07
1.82555070002e-07
5.43867707679e-08
2.79534646216e-08
6.41614145557e-08
9.43872063445e-07
4.86152060756e-06
1.00318299531e-05
1.40770446625e-05
1.66700212318e-05
1.81989917509e-05
1.90179939666e-05
3.67605915754e-06
3.07275544712e-06
2.41201912729e-06
1.85035364272e-06
1.42286365523e-06
1.10394937583e-06
8.61086402081e-07
6.59962331927e-07
4.59313065128e-07
2.36764857709e-07
7.18026132849e-08
2.84483289948e-08
3.99484280857e-08
2.1421136708e-07
2.76419518257e-06
8.13597916323e-06
1.28986311005e-05
1.60124691686e-05
1.78449135474e-05
1.8826381612e-05
3.74458661031e-06
3.12511608486e-06
2.43836088471e-06
1.85937654639e-06
1.42618686497e-06
1.11245531216e-06
8.82469161583e-07
6.9832520834e-07
5.12422017883e-07
2.86474197165e-07
9.12054809551e-08
3.10864038486e-08
2.71253183054e-08
7.1537138667e-08
1.0596486321e-06
6.09930099859e-06
1.15276525002e-05
1.52274730544e-05
1.74214194843e-05
1.85983989964e-05
3.75919277548e-06
3.14199315731e-06
2.45143948191e-06
1.86726778803e-06
1.4310631074e-06
1.11969521451e-06
8.98704832119e-07
7.28321260428e-07
5.54594994401e-07
3.26402298029e-07
1.07183551714e-07
3.30513758112e-08
2.56453567639e-08
4.44728747038e-08
2.69412501261e-07
4.03395111792e-06
1.00039423065e-05
1.42982325268e-05
1.69091984997e-05
1.83222900918e-05
3.75010909046e-06
3.14122737006e-06
2.45042683152e-06
1.86591117597e-06
1.4308178963e-06
1.12339190505e-06
9.10848499434e-07
7.52699207762e-07
5.88390407812e-07
3.55823507401e-07
1.17858275571e-07
3.37423855908e-08
2.42603906523e-08
3.27322114949e-08
1.15472384958e-07
2.15502862565e-06
8.36583915626e-06
1.32056449765e-05
1.6286647002e-05
1.7984926897e-05
3.7542803832e-06
3.14255318498e-06
2.44781246448e-06
1.85984492977e-06
1.42675847195e-06
1.12547084205e-06
9.22774446514e-07
7.76718333512e-07
6.17140305845e-07
3.75197005859e-07
1.23573062059e-07
3.36666439524e-08
2.30761016122e-08
2.83900946483e-08
8.13704038019e-08
9.63102098388e-07
6.61813664224e-06
1.19210336315e-05
1.55293204164e-05
1.75714726843e-05
3.75736880095e-06
3.14943750813e-06
2.4496964524e-06
1.85625850846e-06
1.42493576234e-06
1.13106800648e-06
9.3981965597e-07
8.03811188612e-07
6.41158814069e-07
3.87013642145e-07
1.2769349656e-07
3.39034861124e-08
2.24116878582e-08
2.53450113667e-08
5.35605953936e-08
4.34118383957e-07
4.8329118741e-06
1.04278434279e-05
1.46118135579e-05
1.7064630668e-05
3.78060728685e-06
3.16438857542e-06
2.45615218358e-06
1.85874527139e-06
1.43025797176e-06
1.14455862402e-06
9.64101652077e-07
8.31540749862e-07
6.60152724294e-07
3.9636844714e-07
1.34395178399e-07
3.53835707634e-08
2.2429829236e-08
2.38033898542e-08
3.56385796035e-08
2.05345809688e-07
3.16649558682e-06
8.71442554861e-06
1.35009084992e-05
1.64425671643e-05
3.79950166339e-06
3.17759274222e-06
2.46258688049e-06
1.86674023107e-06
1.44469097018e-06
1.16747577893e-06
9.92698762722e-07
8.57134072205e-07
6.7546942425e-07
4.06331201238e-07
1.45496474458e-07
3.85620090121e-08
2.29810228655e-08
2.35266042346e-08
2.83426507388e-08
1.01834825787e-07
1.80463701363e-06
6.83289384826e-06
1.21704363098e-05
1.5682328979e-05
3.82364570415e-06
3.17916604806e-06
2.46086674433e-06
1.87705733103e-06
1.46823053194e-06
1.19839671754e-06
1.02310677049e-06
8.79848619625e-07
6.86135786381e-07
4.16115535658e-07
1.59040400857e-07
4.33869943946e-08
2.3781359681e-08
2.39621819738e-08
2.73137593393e-08
6.01581014193e-08
8.87374969912e-07
4.95502796225e-06
1.06256008011e-05
1.4767004161e-05
3.79736961349e-06
3.14055910455e-06
2.45340867844e-06
1.90352416099e-06
1.51075707148e-06
1.23945679172e-06
1.05473806403e-06
8.96950729953e-07
6.88912373078e-07
4.20629810071e-07
1.7325141436e-07
4.95325465575e-08
2.45756824257e-08
2.45493738333e-08
2.77871546833e-08
4.72901427261e-08
3.48670906908e-07
3.25886040194e-06
8.90191103115e-06
1.36889488561e-05
3.72530773292e-06
3.12148091569e-06
2.50239738102e-06
1.98575120769e-06
1.58674342876e-06
1.29162710038e-06
1.08397483852e-06
9.02116474329e-07
6.79835041947e-07
4.24081007219e-07
1.91804131475e-07
5.68406126767e-08
2.53182233787e-08
2.47431854685e-08
2.82389666304e-08
3.35389457688e-08
1.19401702547e-07
1.89444575646e-06
7.09399255403e-06
1.24546478366e-05
3.74692450575e-06
3.23646175566e-06
2.66403437739e-06
2.13444036901e-06
1.68463605168e-06
1.34209725941e-06
1.0985124945e-06
8.91541074939e-07
6.71879624083e-07
4.38973881812e-07
2.16206130363e-07
6.61941951312e-08
2.62090070575e-08
2.45368633106e-08
2.80716027337e-08
3.26557368709e-08
6.86613612572e-08
8.92045404221e-07
5.33568206417e-06
1.10838500276e-05
3.94250466667e-06
3.49038872683e-06
2.89962617066e-06
2.29403959827e-06
1.76402397851e-06
1.37287963192e-06
1.09946947075e-06
8.82644289038e-07
6.79331396743e-07
4.69784760851e-07
2.50448696651e-07
7.97474303914e-08
2.77100941539e-08
2.42707624935e-08
2.73210911514e-08
3.1350898678e-08
4.30811298927e-08
2.97889785805e-07
3.69315180839e-06
9.59869652795e-06
4.33789045046e-06
3.85431095378e-06
3.13093425421e-06
2.40560413612e-06
1.81968206989e-06
1.39941978782e-06
1.10668307369e-06
8.89266520219e-07
7.05515284755e-07
5.17929613665e-07
2.99437628198e-07
1.00732248993e-07
3.05277929934e-08
2.41877024863e-08
2.65583561367e-08
2.97446016162e-08
3.63183072491e-08
1.17321873486e-07
2.16498768712e-06
8.01477979065e-06
4.751736949e-06
4.11247893652e-06
3.2365746283e-06
2.4616450892e-06
1.86665180593e-06
1.43396036942e-06
1.12758398422e-06
9.09876126278e-07
7.42727061367e-07
5.77213664569e-07
3.62906251415e-07
1.32497662759e-07
3.56785963086e-08
2.45266520832e-08
2.61272195635e-08
2.83630052212e-08
3.25956918848e-08
7.69613140213e-08
9.4239458922e-07
6.35448080008e-06
4.86556176079e-06
4.13317591026e-06
3.24582395003e-06
2.48306675841e-06
1.90256323802e-06
1.46847307935e-06
1.15357085234e-06
9.34261341557e-07
7.79012283244e-07
6.34685019939e-07
4.31823655768e-07
1.7525088009e-07
4.42846486829e-08
2.54687689713e-08
2.60836177033e-08
2.75286658986e-08
3.00513280316e-08
4.44358478755e-08
3.25640008503e-07
4.65372763688e-06
4.9440306076e-06
4.18376799578e-06
3.27640806024e-06
2.50667696693e-06
1.92666439388e-06
1.49152372059e-06
1.17354668873e-06
9.53775993615e-07
8.06660182487e-07
6.79508190759e-07
4.92582454761e-07
2.23455969191e-07
5.69593534012e-08
2.71369449337e-08
2.63310788876e-08
2.72352379622e-08
2.84975116068e-08
3.64380285747e-08
1.41821777113e-07
2.96074833167e-06
4.97319181655e-06
4.2152255143e-06
3.30210448525e-06
2.52963946851e-06
1.9469344535e-06
1.50880744812e-06
1.18870060624e-06
9.68954666215e-07
8.26914095832e-07
7.10442836275e-07
5.34632459076e-07
2.64564316454e-07
7.23127771675e-08
2.96357598168e-08
2.67634138912e-08
2.72639733206e-08
2.76394202722e-08
3.22569412185e-08
9.2017474336e-08
1.49121137595e-06
4.99269517784e-06
4.2254659634e-06
3.30922586624e-06
2.53677033588e-06
1.95379903837e-06
1.51729484868e-06
1.19911982289e-06
9.81284807876e-07
8.43184805739e-07
7.32300910395e-07
5.6077205587e-07
2.90383402724e-07
8.449456346e-08
3.2183782076e-08
2.72426756179e-08
2.73753670872e-08
2.71831080677e-08
2.97427007521e-08
5.77537745975e-08
5.97750444715e-07
4.98358697785e-06
4.2250805125e-06
3.30665050234e-06
2.52894813762e-06
1.94557338259e-06
1.51540724359e-06
1.20345045345e-06
9.90331113808e-07
8.56664300011e-07
7.47374636493e-07
5.73138951324e-07
3.00320732049e-07
9.05629334311e-08
3.38208353692e-08
2.75823948317e-08
2.74649004598e-08
2.69495613863e-08
2.81456433665e-08
4.06883699311e-08
2.50664904144e-07
4.98425027541e-06
4.22252313468e-06
3.29768819143e-06
2.50865703399e-06
1.92562824956e-06
1.50514856838e-06
1.20216969518e-06
9.96316465291e-07
8.67626547544e-07
7.55952187371e-07
5.72654544811e-07
2.96051381197e-07
9.06660446005e-08
3.43822941131e-08
2.77343574086e-08
2.75262635331e-08
2.68754633182e-08
2.71564958124e-08
3.44185284084e-08
1.38785065331e-07
4.96121660187e-06
4.20768900334e-06
3.27783916196e-06
2.47978337551e-06
1.90034516075e-06
1.49011391174e-06
1.19671885914e-06
9.99785744506e-07
8.75712061586e-07
7.57305135782e-07
5.59998491121e-07
2.80773806228e-07
8.66784287702e-08
3.41818468823e-08
2.77443682712e-08
2.75819681268e-08
2.69331007569e-08
2.66470214131e-08
3.05755504647e-08
9.27315981681e-08
4.9451191857e-06
4.17460681291e-06
3.24102250138e-06
2.44411229854e-06
1.87242736473e-06
1.47173486237e-06
1.18815845937e-06
1.0015766858e-06
8.80221976493e-07
7.50354998479e-07
5.3611787457e-07
2.58558423761e-07
8.09009424712e-08
3.36585862893e-08
2.7678195478e-08
2.76545889527e-08
2.70976685037e-08
2.65327758368e-08
2.8508101977e-08
6.7600829209e-08
4.92229539259e-06
4.13210750263e-06
3.19390644994e-06
2.40175842763e-06
1.83961713433e-06
1.4493222853e-06
1.17777330731e-06
1.00258516281e-06
8.8018684742e-07
7.344777727e-07
5.03144334798e-07
2.33927878627e-07
7.52842568451e-08
3.31652171918e-08
2.75856985767e-08
2.77429048492e-08
2.73271033945e-08
2.67339442327e-08
2.77089400694e-08
5.10198091997e-08
4.91646164412e-06
4.08972680842e-06
3.14363858979e-06
2.35628322494e-06
1.80359503797e-06
1.42546485549e-06
1.16934986907e-06
1.00350362628e-06
8.75103592715e-07
7.09856625211e-07
4.64602160126e-07
2.10902790595e-07
7.10210146984e-08
3.28769620962e-08
2.75021183259e-08
2.78255061778e-08
2.75505512875e-08
2.7112707327e-08
2.77099158526e-08
3.68606627785e-08
4.86196054687e-06
4.01610782492e-06
3.07516270341e-06
2.30364070562e-06
1.76791210206e-06
1.40770933312e-06
1.16808162704e-06
1.00580274239e-06
8.65756871643e-07
6.77589894804e-07
4.25575394487e-07
1.92613930989e-07
6.87095820823e-08
3.28959063169e-08
2.74716518307e-08
2.78497800194e-08
2.76608807453e-08
2.73933182841e-08
2.80893069094e-08
3.23136579667e-08
4.75864108555e-06
3.88786805865e-06
2.97243884302e-06
2.24443781486e-06
1.74452538764e-06
1.40876024075e-06
1.17977355714e-06
1.01263434489e-06
8.5213441074e-07
6.40902463924e-07
3.92309758786e-07
1.81537412185e-07
6.89789091731e-08
3.34911496778e-08
2.75444252335e-08
2.77492112448e-08
2.75796330577e-08
2.74329820134e-08
2.85302174206e-08
3.17848295074e-08
4.55971911249e-06
3.68553675228e-06
2.85095232093e-06
2.21135640437e-06
1.7619669426e-06
1.44326228979e-06
1.21102756307e-06
1.02465050664e-06
8.32693788122e-07
6.06667725542e-07
3.71216028496e-07
1.799816541e-07
7.30012137571e-08
3.52430118346e-08
2.7812548646e-08
2.7510266473e-08
2.73242802829e-08
2.72631922885e-08
2.87432742415e-08
3.18892152982e-08
4.27653674594e-06
3.49737545259e-06
2.82357070836e-06
2.28130091093e-06
1.85444777399e-06
1.52268314988e-06
1.26185841954e-06
1.03409713642e-06
8.10749535557e-07
5.85944871855e-07
3.68864614039e-07
1.91096757353e-07
8.27916999092e-08
3.88483101122e-08
2.83944213935e-08
2.71967007275e-08
2.69575020704e-08
2.69862935735e-08
2.86140443863e-08
3.19310905488e-08
4.15971872788e-06
3.58643171365e-06
3.03729569067e-06
2.50621328024e-06
2.0268413924e-06
1.63519542497e-06
1.3156866123e-06
1.04104387064e-06
8.02986161903e-07
5.90232019548e-07
3.90486223112e-07
2.1800648638e-07
1.00136627524e-07
4.48844810579e-08
2.9495830989e-08
2.69541325444e-08
2.65560261289e-08
2.66656308249e-08
2.81535493034e-08
3.16230372003e-08
4.40232083585e-06
3.99696948726e-06
3.45032828637e-06
2.81513476513e-06
2.23276242039e-06
1.76361408838e-06
1.38117779193e-06
1.06640496729e-06
8.19910954932e-07
6.21751580815e-07
4.38850429236e-07
2.6580500202e-07
1.29453443115e-07
5.51514878803e-08
3.16157412117e-08
2.7035027961e-08
2.62492677117e-08
2.63314140809e-08
2.74728061068e-08
3.08518631678e-08
4.85443717543e-06
4.51396580873e-06
3.86754004516e-06
3.10630056727e-06
2.44798383474e-06
1.92139338418e-06
1.48420026677e-06
1.13034950836e-06
8.68655847775e-07
6.78602924435e-07
5.12012723806e-07
3.38467825298e-07
1.77114904898e-07
7.29404856385e-08
3.56687677489e-08
2.7714950188e-08
2.62397342223e-08
2.60669336825e-08
2.67991814499e-08
2.96956742032e-08
5.36983712261e-06
4.88934329727e-06
4.06512978391e-06
3.27465639254e-06
2.62820063605e-06
2.09427799076e-06
1.62952304165e-06
1.24055511594e-06
9.48832691812e-07
7.49053851975e-07
5.94618368287e-07
4.28761904496e-07
2.45627201209e-07
1.0188486517e-07
4.27999571276e-08
2.92469810727e-08
2.6657309823e-08
2.59997614192e-08
2.62689219916e-08
2.83133860065e-08
5.51683819795e-06
4.84662358327e-06
3.99590354673e-06
3.28406763132e-06
2.72151097084e-06
2.24061642848e-06
1.78737246386e-06
1.37649479698e-06
1.04655765799e-06
8.19314026815e-07
6.66717182234e-07
5.16479791006e-07
3.25841273344e-07
1.42462358984e-07
5.36942272232e-08
3.17521942165e-08
2.74244649542e-08
2.62052885054e-08
2.58728673415e-08
2.69075928212e-08
5.46645128796e-06
4.74361996954e-06
3.90850705702e-06
3.24111301034e-06
2.74546200318e-06
2.32623104932e-06
1.9141821653e-06
1.50479459488e-06
1.14200293657e-06
8.81232684383e-07
7.19731716142e-07
5.84416174156e-07
4.00596345683e-07
1.89228534103e-07
6.80828887408e-08
3.50152063172e-08
2.84185132705e-08
2.66153834488e-08
2.5614081885e-08
2.57254907696e-08
5.44844894722e-06
4.70747868714e-06
3.85804076805e-06
3.20103008843e-06
2.74430469097e-06
2.37115947107e-06
1.99076200586e-06
1.59140282888e-06
1.21680499989e-06
9.31246863706e-07
7.56400711421e-07
6.29580549072e-07
4.58322641586e-07
2.34271583329e-07
8.48394543128e-08
3.88943899176e-08
2.94172786339e-08
2.70476581573e-08
2.54919862199e-08
2.48176129875e-08
5.40414076687e-06
4.6618976198e-06
3.81460621333e-06
3.16330436235e-06
2.72869969125e-06
2.3869664234e-06
2.02956849211e-06
1.64122111681e-06
1.26402114859e-06
9.67281742548e-07
7.8286846122e-07
6.58446073629e-07
4.96930631271e-07
2.70651210753e-07
1.01916043092e-07
4.33635981628e-08
3.03920989884e-08
2.74245049909e-08
2.5495267576e-08
2.41666501325e-08
5.30729221796e-06
4.59126962192e-06
3.75909775679e-06
3.11995163185e-06
2.70097142482e-06
2.37923103552e-06
2.03842629657e-06
1.6602276337e-06
1.28737002422e-06
9.90913110681e-07
8.04069503308e-07
6.79993729654e-07
5.2253199837e-07
2.95366703243e-07
1.15306736007e-07
4.74065908719e-08
3.12791339209e-08
2.77196184281e-08
2.55895235251e-08
2.3720339965e-08
5.23439277581e-06
4.52010178542e-06
3.69668567308e-06
3.06805404771e-06
2.65985415393e-06
2.35058176391e-06
2.02106617344e-06
1.65237312218e-06
1.29015748386e-06
1.00367738914e-06
8.21446547361e-07
6.97932273273e-07
5.39648254171e-07
3.0980170458e-07
1.23686077783e-07
5.02560147525e-08
3.19034819677e-08
2.78700605764e-08
2.5706107028e-08
2.34355935805e-08
5.14962928105e-06
4.45598555449e-06
3.64051393703e-06
3.01540524851e-06
2.60844732689e-06
2.30268791822e-06
1.9793349474e-06
1.62059346679e-06
1.27599705339e-06
1.00800546384e-06
8.36187218291e-07
7.13610901421e-07
5.50026643076e-07
3.15000227345e-07
1.2681866353e-07
5.15791066699e-08
3.21822708877e-08
2.78954125224e-08
2.57588749274e-08
2.32625976824e-08
5.09173065205e-06
4.40827250775e-06
3.59818652395e-06
2.96555242921e-06
2.54873673769e-06
2.2372837497e-06
1.9154487919e-06
1.56972030213e-06
1.2504419195e-06
1.00753014869e-06
8.497275831e-07
7.27175339659e-07
5.53483483922e-07
3.11237064576e-07
1.24805010508e-07
5.12615941914e-08
3.20513043285e-08
2.77991297402e-08
2.57128556482e-08
2.31200591514e-08
5.0300427434e-06
4.37936681592e-06
3.57197155215e-06
2.9177874585e-06
2.48098591818e-06
2.15665569214e-06
1.83530407554e-06
1.50894924597e-06
1.22096043272e-06
1.00624829447e-06
8.63319056564e-07
7.37819688804e-07
5.48642510877e-07
2.9854962333e-07
1.181156778e-07
4.94190075886e-08
3.15131731662e-08
2.75717933003e-08
2.55563240766e-08
2.29745774708e-08
5.01484453303e-06
4.36855598367e-06
3.5490753255e-06
2.86683576566e-06
2.40635142819e-06
2.06775750437e-06
1.75105847653e-06
1.44959317987e-06
1.19455098211e-06
1.00784062081e-06
8.7794484047e-07
7.43801924549e-07
5.33646378474e-07
2.77546317468e-07
1.07795570106e-07
4.6446423952e-08
3.06620188062e-08
2.72068857492e-08
2.52934618149e-08
2.28372885465e-08
5.03807135234e-06
4.36718225584e-06
3.52069931224e-06
2.81086089936e-06
2.33234931542e-06
1.98488597429e-06
1.67772909132e-06
1.40179297003e-06
1.17754836484e-06
1.01607801742e-06
8.93877904615e-07
7.42265734981e-07
5.07576881516e-07
2.50177619169e-07
9.55116909253e-08
4.29847123772e-08
2.96539570198e-08
2.67102226674e-08
2.49475017292e-08
2.27339734361e-08
5.08945677809e-06
4.36550154774e-06
3.49276184313e-06
2.7658194007e-06
2.27634065113e-06
1.9235221198e-06
1.62609692386e-06
1.37263375717e-06
1.17527594324e-06
1.03358149647e-06
9.08925122722e-07
7.30001880166e-07
4.72055577625e-07
2.19679592406e-07
8.33494043091e-08
3.97728773189e-08
2.86391632484e-08
2.61007505868e-08
2.45502520689e-08
2.26911274769e-08
5.09187619136e-06
4.32650072654e-06
3.46631424809e-06
2.7531989956e-06
2.2575452784e-06
1.89472634006e-06
1.6014959855e-06
1.36582115758e-06
1.19009716845e-06
1.0587093055e-06
9.17690431895e-07
7.06272369272e-07
4.30459209841e-07
1.90119489985e-07
7.36395806759e-08
3.7378829901e-08
2.77077965316e-08
2.5414899152e-08
2.41427490649e-08
2.27508855348e-08
5.02222892453e-06
4.28405591713e-06
3.48821042211e-06
2.80812492184e-06
2.29378340864e-06
1.90510289279e-06
1.6055760839e-06
1.3810674028e-06
1.21860327543e-06
1.08305146132e-06
9.14899918374e-07
6.72297494247e-07
3.86655795191e-07
1.67043733757e-07
6.8039321746e-08
3.59852653713e-08
2.68923592151e-08
2.47054150891e-08
2.37888382313e-08
2.29829082645e-08
5.01843132564e-06
4.38607715174e-06
3.64582813818e-06
2.95477938241e-06
2.38682515739e-06
1.95403882811e-06
1.63629820153e-06
1.41292020243e-06
1.24994153091e-06
1.09645039553e-06
8.97533656845e-07
6.29105713785e-07
3.49673598553e-07
1.55104236896e-07
6.64965772293e-08
3.54507084594e-08
2.62202284008e-08
2.40315599949e-08
2.3530035151e-08
2.34486035436e-08
5.29501393187e-06
4.77058982875e-06
3.98233010289e-06
3.17183525373e-06
2.51399761595e-06
2.02825926355e-06
1.68441539517e-06
1.44944860902e-06
1.27131497016e-06
1.09315671773e-06
8.67063183664e-07
5.89381027352e-07
3.30424170623e-07
1.53752811998e-07
6.79211949374e-08
3.55606819157e-08
2.57339351631e-08
2.34513597324e-08
2.34209081219e-08
2.41505907809e-08
5.91795115684e-06
5.37793990528e-06
4.38575520205e-06
3.38184018127e-06
2.63439218871e-06
2.10730768535e-06
1.73464202873e-06
1.47620142393e-06
1.27671337762e-06
1.0790824206e-06
8.4164083019e-07
5.72492926512e-07
3.30028750463e-07
1.59826833939e-07
7.12442656042e-08
3.61967052812e-08
2.54724966227e-08
2.29979750072e-08
2.34351298578e-08
2.49572267291e-08
6.73709847897e-06
5.99866604352e-06
4.72824801904e-06
3.58591889958e-06
2.78938212734e-06
2.21986837164e-06
1.79566864817e-06
1.49400005971e-06
1.27248101927e-06
1.07032832038e-06
8.40290753444e-07
5.81781196238e-07
3.43080726274e-07
1.70743497368e-07
7.57097561279e-08
3.72683592578e-08
2.54505815129e-08
2.26745947789e-08
2.34374623886e-08
2.56940918742e-08
7.24380098485e-06
6.3689579127e-06
5.02455302028e-06
3.84963727012e-06
3.00296171646e-06
2.37167826255e-06
1.87778222192e-06
1.51766949938e-06
1.27047027816e-06
1.07251765634e-06
8.58708666641e-07
6.08712888335e-07
3.66458068243e-07
1.83868903902e-07
8.0446699776e-08
3.8557666808e-08
2.56142757611e-08
2.24743437777e-08
2.33193159481e-08
2.61142486795e-08
7.37985165413e-06
6.58458542754e-06
5.28512578709e-06
4.09486851131e-06
3.18984741924e-06
2.50256608697e-06
1.95632163543e-06
1.54746925713e-06
1.27391254855e-06
1.07956657159e-06
8.84785653258e-07
6.45454723615e-07
3.9376005371e-07
1.96029592596e-07
8.43926345296e-08
3.97325279278e-08
2.58644305143e-08
2.23666346571e-08
2.30769171542e-08
2.6228867507e-08
7.54470510928e-06
6.83917137492e-06
5.5242532113e-06
4.27003463542e-06
3.29921598783e-06
2.57544739008e-06
2.01058229341e-06
1.58037721364e-06
1.2872637143e-06
1.08995803996e-06
9.09125762383e-07
6.79354144284e-07
4.17690801665e-07
2.05265572707e-07
8.71318592697e-08
4.0664861147e-08
2.61557055319e-08
2.2344421136e-08
2.27972921263e-08
2.61238048978e-08
7.69360964012e-06
7.03218972889e-06
5.68729272806e-06
4.38338828859e-06
3.35360601311e-06
2.59976909969e-06
2.03336562378e-06
1.6053274619e-06
1.30540648506e-06
1.10316001107e-06
9.29489881794e-07
7.05298966308e-07
4.3557413542e-07
2.12119085178e-07
8.93337326952e-08
4.16084004967e-08
2.65453221509e-08
2.2427526048e-08
2.2552913455e-08
2.57613562419e-08
7.70804383693e-06
7.08449821869e-06
5.7359042838e-06
4.4050810186e-06
3.34409608266e-06
2.57728710233e-06
2.02236161066e-06
1.6125731162e-06
1.31823901978e-06
1.1173397084e-06
9.48595348561e-07
7.24703353609e-07
4.48140900468e-07
2.18135242298e-07
9.21417184205e-08
4.30054402896e-08
2.71694350175e-08
2.26509033728e-08
2.23931622527e-08
2.51701191678e-08
7.66605609768e-06
6.95869784399e-06
5.66047641299e-06
4.35066872977e-06
3.28956156328e-06
2.52374749987e-06
1.98782852367e-06
1.6023254225e-06
1.3242056333e-06
1.13569442252e-06
9.70421659182e-07
7.4045538514e-07
4.58050105219e-07
2.25259033897e-07
9.67225268122e-08
4.53480390126e-08
2.82222663267e-08
2.30706388459e-08
2.23546597799e-08
2.44827758074e-08
7.52900531573e-06
6.74655294628e-06
5.47848045069e-06
4.21375865281e-06
3.1837054236e-06
2.44282144565e-06
1.93810496837e-06
1.5833923207e-06
1.3353401144e-06
1.16704111132e-06
9.99209658379e-07
7.56611975691e-07
4.6963356726e-07
2.36446969616e-07
1.04589159948e-07
4.93476634254e-08
3.00010298441e-08
2.37972232475e-08
2.24883671395e-08
2.39072811395e-08
7.19698915222e-06
6.35767282543e-06
5.14165292109e-06
3.96340846596e-06
3.01351865721e-06
2.33955124895e-06
1.88762663099e-06
1.58004294876e-06
1.37442379315e-06
1.22072999211e-06
1.03722320881e-06
7.77375387449e-07
4.88439345632e-07
2.55645542356e-07
1.17985328933e-07
5.61390720773e-08
3.29858867511e-08
2.50364273575e-08
2.28866923742e-08
2.36263589346e-08
6.66685710832e-06
5.81966420371e-06
4.70060950223e-06
3.65159256419e-06
2.82645387012e-06
2.25370654418e-06
1.87729243177e-06
1.63223792491e-06
1.46132667346e-06
1.29840436677e-06
1.08368789047e-06
8.07367788084e-07
5.20641223218e-07
2.87899504278e-07
1.40421672167e-07
6.75575663356e-08
3.79933062703e-08
2.71395356929e-08
2.36982547156e-08
2.37256071622e-08
6.06875815105e-06
5.30363488261e-06
4.32850126396e-06
3.42306801278e-06
2.72638179848e-06
2.25973562292e-06
1.96585566102e-06
1.76927981544e-06
1.59451997242e-06
1.3899724586e-06
1.13789686953e-06
8.53147385872e-07
5.73570292725e-07
3.39997159197e-07
1.77587000764e-07
8.70082489702e-08
4.64975013952e-08
3.06953548477e-08
2.51583411681e-08
2.42569448319e-08
5.72803135801e-06
5.09801082868e-06
4.23800805747e-06
3.42347228629e-06
2.81060456093e-06
2.41827711731e-06
2.17145129985e-06
1.96839740838e-06
1.74345830021e-06
1.48451206827e-06
1.2057195303e-06
9.23750707061e-07
6.55362538952e-07
4.20398734227e-07
2.38087336141e-07
1.20631930921e-07
6.13482958476e-08
3.67444291482e-08
2.76314653489e-08
2.53081733652e-08
5.80467647941e-06
5.25074708362e-06
4.44266359668e-06
3.64517186171e-06
3.04370985223e-06
2.67015268055e-06
2.42694490846e-06
2.18652692916e-06
1.90246543916e-06
1.59700093734e-06
1.30030936585e-06
1.02412336697e-06
7.67668437354e-07
5.32360812149e-07
3.2835403107e-07
1.7513572122e-07
8.63033346723e-08
4.67813583578e-08
3.16751685405e-08
2.69804986721e-08
6.26177391753e-06
5.62762291358e-06
4.73755679388e-06
3.88929156051e-06
3.26284408007e-06
2.90961386463e-06
2.68596891838e-06
2.42169934137e-06
2.08840683354e-06
1.74260945351e-06
1.42630065067e-06
1.14936809346e-06
9.01530516637e-07
6.6867578152e-07
4.46922697749e-07
2.53996129137e-07
1.24239118685e-07
6.16795155301e-08
3.7485796154e-08
2.93883004526e-08
6.48634278563e-06
5.68104630118e-06
4.69539902584e-06
3.86301856404e-06
3.30722504793e-06
3.0350322446e-06
2.87982634689e-06
2.63072128732e-06
2.2735073504e-06
1.90172539483e-06
1.5651661526e-06
1.27928995199e-06
1.03416476149e-06
8.06362240577e-07
5.75624144573e-07
3.48619307413e-07
1.73439951278e-07
8.11472748668e-08
4.4828108587e-08
3.24032982629e-08
5.75372725496e-06
5.3268330373e-06
4.50752444257e-06
3.77901516785e-06
3.30650427476e-06
3.08972214359e-06
2.9721148524e-06
2.75681932285e-06
2.40612783503e-06
2.02753578798e-06
1.6779777389e-06
1.38396685048e-06
1.14071403157e-06
9.20552065676e-07
6.89101739873e-07
4.394048252e-07
2.25068865475e-07
1.02704519056e-07
5.31151018746e-08
3.59060073308e-08
5.23707674541e-06
5.08391392159e-06
4.39946181726e-06
3.73925264725e-06
3.32051942243e-06