/*--------------------------------*- C++ -*----------------------------------*\
| =========                 |                                                 |
| \\      /  F ield         | OpenFOAM: The Open Source CFD Toolbox           |
|  \\    /   O peration     | Version:  2312                                  |
|   \\  /    A nd           | Website:  www.openfoam.com                      |
|    \\/     M anipulation  |                                                 |
\*---------------------------------------------------------------------------*/
FoamFile
{
    version     2.0;
    format      ascii;
    arch        "LSB;label=32;scalar=64";
    class       volScalarField;
    location    "0.855/water";
    object      T.gas;
}
// * * * * * * * * * * * * * * * * * * * * * * * * * * * * * * * * * * * * * //

dimensions      [0 0 0 1 0 0 0];

internalField   nonuniform List<scalar> 
6000
(
354.915034153
323.809959249
310.355811723
304.307574958
301.839232267
300.38531118
300.015958278
300.000086775
300.000000061
300
300
300
300
300
300
300
300
300
300
300
398.080827885
335.212519466
312.150839065
304.341796698
301.5765653
300.575795872
300.18293918
300.020369024
300.000361918
300.000000441
300
300
300
300
300
300
300
300
300
300
402.181698182
335.403049061
311.383291135
303.677108968
301.196384059
300.395183281
300.129987775
300.032917674
300.002556145
300.000024539
300.000000009
300
300
300
300
300
300
300
300
300
401.074684673
337.08217138
312.333381268
303.918480566
301.216903237
300.374606199
300.114405548
300.033942809
300.005984696
300.000223891
300.000000739
300
300
300
300
300
300
300
300
300
397.722463978
337.307286274
313.137605244
304.325809529
301.363370479
300.419770588
300.126739898
300.037202791
300.010475969
300.001035086
300.00001361
300.000000004
300
300
300
300
300
300
300
300
392.945777669
336.270475319
313.341110617
304.5756299
301.485546651
300.468446902
300.145540127
300.044029867
300.012914872
300.002708899
300.000104709
300.000000555
300
300
300
300
300
300
300
300
389.272645685
334.685768306
312.967330821
304.580919028
301.527263966
300.493291898
300.158049914
300.049872408
300.015235936
300.004623623
300.000529247
300.000006352
300.000000001
300
300
300
300
300
300
300
388.443679872
333.623083622
312.426421576
304.421048802
301.502894261
300.496332616
300.163652927
300.053666116
300.016929
300.005281494
300.001423148
300.000055553
300.000000056
300
300
300
300
300
300
300
388.25319446
333.227874219
312.232662206
304.363925742
301.502348144
300.505158846
300.170598854
300.057731005
300.018610983
300.005750386
300.001880232
300.00026141
300.00000173
300
300
300
300
300
300
300
388.297061324
333.056697623
312.143709971
304.346134969
301.512480379
300.517829264
300.178875695
300.06229445
300.020458599
300.006158155
300.001915754
300.000588412
300.000020336
300.000000013
300
300
300
300
300
300
387.856285496
332.69234565
311.909771004
304.263035157
301.494404132
300.519255969
300.183202639
300.065797018
300.022272419
300.006567208
300.001894499
300.000636202
300.000076782
300.000000302
300
300
300
300
300
300
386.313764867
331.828722903
311.395205016
304.041357992
301.416602576
300.497448323
300.179738001
300.066976568
300.023721305
300.007048035
300.001886343
300.00056775
300.000144686
300.000002495
300
300
300
300
300
300
384.771582961
330.702331361
310.691494146
303.696257236
301.280689165
300.453989167
300.16955486
300.066559859
300.025090229
300.007729977
300.001942043
300.00050826
300.000162561
300.000009851
300.000000013
300
300
300
300
300
384.08622526
330.521038768
310.460188214
303.494250783
301.179193661
300.419111065
300.162731305
300.067984197
300.027479985
300.008961397
300.002169207
300.000489587
300.000129004
300.000022204
300.000000187
300
300
300
300
300
387.238163188
332.152328509
311.046278771
303.627077491
301.197519016
300.424859264
300.169736792
300.074407959
300.031866442
300.011068792
300.002700313
300.000547942
300.00012038
300.000033171
300.000001644
300.000000002
300
300
300
300
394.074464705
335.21593668
312.315864071
304.110658524
301.362856623
300.481862011
300.193179372
300.086186898
300.038199833
300.014035451
300.003588234
300.000706897
300.000139433
300.00003351
300.000006721
300.000000072
300
300
300
300
396.065472244
336.610355515
313.201440714
304.554962386
301.548703439
300.553489185
300.222479623
300.099965509
300.045159304
300.017275439
300.004672973
300.000942809
300.000178356
300.000038923
300.000010837
300.000000719
300.000000001
300
300
300
396.522487026
336.543213494
313.2423082
304.64693931
301.618424503
300.592678371
300.243204988
300.111359528
300.051335638
300.020209191
300.005726236
300.001205363
300.000227181
300.000046352
300.000011591
300.0000024
300.000000025
300
300
300
396.72477446
336.277964253
313.125462817
304.601896303
301.61152922
300.599887261
300.252293569
300.118554484
300.055924802
300.022487963
300.006613042
300.001450693
300.000277993
300.000053936
300.00001225
300.000003491
300.000000156
300
300
300
396.726048343
335.912003087
312.868285362
304.473839237
301.55836589
300.585426734
300.252393429
300.122016977
300.058610118
300.023970693
300.007234476
300.001622573
300.000315314
300.00005943
300.000012376
300.000003062
300.000000268
300
300
300
396.761119824
335.412195324
312.465393375
304.282148349
301.484423741
300.562943724
300.248660533
300.122883293
300.059650699
300.024720618
300.007620168
300.001734163
300.000338336
300.000062695
300.000012124
300.000002574
300.000000217
300.000000001
300
300
396.538544024
334.794583971
311.982289921
304.063019136
301.409723067
300.54251999
300.244691696
300.12180297
300.059728141
300.025236612
300.007928584
300.001807774
300.000350612
300.000064025
300.00001161
300.000002168
300.000000109
300.000000001
300
300
396.253430157
333.93863379
311.412705504
303.820818888
301.332970946
300.522464956
300.238889492
300.120294909
300.059852842
300.02586737
300.008393884
300.001932861
300.000375695
300.000065836
300.000010975
300.000001815
300.000000018
300
300
300
395.900057044
333.883019352
311.383303766
303.773052997
301.306805801
300.512765419
300.234921742
300.119084501
300.060172876
300.026789655
300.009010807
300.002236929
300.000426077
300.00006924
300.000010302
300.000001435
300
300
300
300
395.590006698
334.399832702
311.734296944
303.906263671
301.341353949
300.518293215
300.23472171
300.118778105
300.060922091
300.027928953
300.010238871
300.002524533
300.000455532
300.000071142
300.000009385
300.000000949
300
300
300
300
392.948163014
334.195835966
311.926502919
304.037564043
301.377624722
300.519863093
300.232079518
300.118438069
300.062257248
300.029978457
300.011391803
300.002809062
300.000465699
300.00006567
300.000008031
300.000000451
300
300
300
300
388.070978095
332.723369733
311.59776466
303.936384539
301.316351825
300.484495512
300.217554656
300.115132204
300.063438448
300.032227734
300.012940391
300.003242628
300.000496533
300.000061725
300.000006333
300.000000058
300
300
300
300
384.926888164
331.301059476
310.871769906
303.57251428
301.141882199
300.416563087
300.199257241
300.114228224
300.067093928
300.035964726
300.015152524
300.003879967
300.000570196
300.000066763
300.000006336
300
300
300
300
300
385.027285341
331.379233262
310.729440774
303.370019159
301.020512249
300.377084633
300.196116448
300.121098481
300.075023128
300.042192707
300.018639852
300.004934206
300.000719295
300.000085689
300.000009037
300.000000069
300
300
300
300
390.626706223
333.611249357
311.423999604
303.571527357
301.092414876
300.407989277
300.21616824
300.137222968
300.08785816
300.051495754
300.023960294
300.006814859
300.001054615
300.000131742
300.000016294
300.000000937
300
300
300
300
400.325874078
337.31039383
312.896799872
304.228546559
301.38238692
300.517982884
300.260319598
300.161551875
300.104656805
300.063369853
300.031130646
300.009765497
300.001715047
300.000238513
300.000032997
300.000003182
300
300
300
300
404.436577374
340.103422034
314.460885659
305.003092329
301.742570945
300.665992903
300.319418693
300.190520258
300.123083864
300.076285525
300.039419372
300.013637783
300.002749415
300.000431921
300.000065164
300.000007911
300.000000016
300
300
300
405.759796757
341.134309866
315.251438405
305.489654216
302.002209509
300.790030353
300.375005689
300.218343962
300.140298191
300.088230898
300.047442801
300.017894022
300.004046935
300.000707067
300.000114385
300.000015536
300.000000904
300
300
300
406.150110364
341.658776835
315.754154504
305.803509585
302.172866093
300.879108522
300.418981074
300.241452068
300.154524605
300.097749238
300.053708438
300.021559418
300.005382755
300.001011811
300.000172084
300.000024449
300.000002026
300
300
300
406.558107146
341.737673135
315.925478489
305.933373951
302.255905329
300.930996602
300.448333529
300.258146733
300.164881341
300.104086937
300.057602634
300.023897214
300.006382447
300.001268007
300.000222948
300.000032423
300.000002985
300
300
300
406.63634908
341.394103844
315.742461748
305.896466267
302.26561247
300.948515214
300.462745029
300.267889367
300.170832956
300.106867289
300.058962902
300.024703947
300.006875527
300.001414197
300.00025384
300.000037797
300.000003556
300
300
300
406.757759514
340.604722709
315.223835266
305.703319804
302.209542909
300.936617787
300.463973284
300.270908203
300.172150928
300.106228059
300.057954735
300.02423553
300.006854111
300.001458543
300.00026091
300.000039988
300.000003624
300
300
300
406.479475929
339.303133004
314.3347404
305.321679223
302.073322304
300.893905223
300.452484319
300.267370978
300.168579341
300.102648841
300.05519695
300.02286918
300.006571098
300.001417951
300.000254287
300.000039957
300.000003261
300
300
300
406.348398206
338.559095337
313.734381378
304.98489074
301.924275138
300.839071783
300.433738114
300.258557724
300.161020979
300.096805704
300.051330915
300.021238504
300.006174714
300.001366422
300.000242278
300.000039443
300.000002691
300
300
300
406.082964737
338.248570714
313.416761822
304.763726825
301.808455942
300.790244207
300.413474568
300.245173984
300.151286705
300.089832041
300.047348747
300.019711854
300.005927892
300.001314049
300.000242549
300.000039428
300.000002101
300
300
300
406.197486521
338.140053288
313.286165034
304.665893068
301.747564023
300.758212799
300.393555468
300.229992624
300.140418659
300.082916076
300.043831423
300.018800832
300.00586851
300.001314684
300.000247019
300.000039294
300.000001519
300
300
300
406.308547103
338.01407666
313.16770723
304.606638989
301.714627426
300.735783371
300.371569778
300.214185641
300.13002417
300.077006924
300.041663489
300.018622119
300.006154525
300.00137872
300.000253777
300.000037466
300.000000752
300
300
300
406.338217969
337.706539032
312.83360791
304.428385714
301.635189426
300.692578853
300.345210099
300.198222738
300.12117115
300.073472889
300.041144326
300.019471232
300.006726395
300.001544739
300.000255776
300.000032301
300.000000068
300
300
300
402.531547962
337.113054938
312.545202945
304.238070148
301.523628786
300.629298757
300.312887323
300.183322714
300.11578324
300.072708181
300.042783783
300.021364614
300.007748817
300.00174434
300.000246405
300.000024399
300
300
300
300
392.141659473
334.520809874
311.976422345
303.998617111
301.368081213
300.548384146
300.280465219
300.173792479
300.115175604
300.076121464
300.047042951
300.02469189
300.009294706
300.002018275
300.000233601
300.000016688
300
300
300
300
382.286125774
331.666224233
311.306633946
303.742455339
301.209299755
300.472069149
300.259119337
300.173669907
300.121391666
300.083373174
300.053607708
300.029482075
300.011711784
300.002564124
300.000256774
300.00001201
300.000000874
300
300
300
378.783247864
330.385680384
311.112652017
303.735951985
301.197107971
300.463173539
300.267498344
300.188169317
300.135949964
300.09624251
300.064119212
300.037095522
300.015927773
300.003850775
300.000413676
300.000017903
300.000002395
300.000000486
300
300
382.078198096
331.344670205
311.556432374
304.06480595
301.428094878
300.578178176
300.318771269
300.219563481
300.159583785
300.114846629
300.078480585
300.047444123
300.021986548
300.005990043
300.000755976
300.000042972
300.000004037
300.000001383
300
300
392.862254658
334.941469069
312.824434971
304.72090468
301.820249492
300.785869817
300.415566185
300.267370607
300.18982828
300.137009565
300.095323648
300.059820758
300.02967856
300.009085466
300.001380067
300.000111365
300.000009416
300.000001919
300
300
401.528935487
338.707701314
314.526642046
305.524001061
302.212507799
300.988247611
300.519470548
300.322128069
300.222895953
300.159919754
300.11250749
300.072867897
300.038443816
300.013282468
300.002519851
300.000288986
300.000027924
300.000003231
300
300
404.712659675
341.041025858
315.89344921
306.186336612
302.526432847
301.139390269
300.599265927
300.367333818
300.250992413
300.179595129
300.127520326
300.084738263
300.047203106
300.018194213
300.004164982
300.000606105
300.000069286
300.000007436
300
300
406.025341274
342.301089298
316.647827256
306.592210344
302.717687436
301.233662663
300.649145176
300.398069082
300.271408932
300.194423835
300.139136522
300.094134442
300.05448492
300.022783427
300.006015346
300.001040332
300.00013764
300.000016068
300.000000085
300
406.90635193
342.581734991
316.819231286
306.699187881
302.786595978
301.272833893
300.673690446
300.415392928
300.28437576
300.204602401
300.147436099
300.10092484
300.059761835
300.026313405
300.007669931
300.001509445
300.00022539
300.000028857
300.00000116
300
407.37245344
342.861389045
316.952228518
306.761331661
302.807338001
301.283764557
300.681494611
300.422777675
300.29132532
300.210825329
300.152809722
300.105352632
300.063094232
300.028589854
300.008860547
300.001902478
300.000312865
300.000043392
300.000002771
300
408.049657372
342.961577979
317.040012622
306.768818208
302.796843119
301.272018075
300.67610817
300.422262584
300.293420951
300.213747606
300.15566046
300.107660201
300.064576293
300.029610338
300.009484282
300.002145611
300.000378528
300.00005605
300.000004382
300
408.407253006
342.631109473
316.836558335
306.660476773
302.728142463
301.234797088
300.658384615
300.415530344
300.291631087
300.213875503
300.156239396
300.107931803
300.064247856
300.029399374
300.009502984
300.002200581
300.000405761
300.000062933
300.000005233
300
408.706480937
341.435013068
316.007905663
306.274366991
302.561457696
301.164182487
300.629747601
300.403744849
300.286531738
300.211451665
300.154629424
300.106136734
300.06213023
300.027991364
300.008908882
300.002062687
300.000391574
300.000062491
300.00000495
300
408.295408374
339.034577191
314.311570524
305.496929208
302.258811543
301.05406522
300.588656566
300.386313717
300.278043101
300.206500412
300.150849263
300.102136976
300.058316582
300.025485695
300.007767076
300.001776604
300.000344791
300.000055013
300.000003667
300
407.638989183
337.171459187
312.801913736
304.680870908
301.913040433
300.922500175
300.537791707
300.364070837
300.266710056
300.199443363
300.145087845
300.095881682
300.053078178
300.022108651
300.00637395
300.001436485
300.000280002
300.000043148
300.000001946
300
406.864490411
336.608522354
312.088282795
304.14855043
301.636492367
300.801956744
300.486777037
300.340710739
300.254353759
300.191283013
300.137560756
300.088051803
300.046796484
300.01825621
300.005118505
300.001143709
300.00021394
300.000031163
300.000000554
300
406.230380523
337.160933385
312.195280121
304.007087007
301.489402828
300.717701622
300.44584169
300.32063497
300.243162562
300.182958309
300.128609345
300.079685103
300.040058766
300.015091481
300.004259125
300.000934726
300.000159508
300.000021368
300
300
404.088746637
337.193220402
312.359636639
303.989256336
301.412175172
300.661462253
300.415713728
300.305255604
300.233978048
300.174586313
300.119742605
300.071051829
300.034438214
300.013336501
300.003877361
300.0008112
300.000124054
300.000014614
300
300
398.381915932
335.026751889
311.591669643
303.653825984
301.26196891
300.596968776
300.388433818
300.29274775
300.226042285
300.166754942
300.111117137
300.063891403
300.03154342
300.012753765
300.003798039
300.000757526
300.000105663
300.000011058
300
300
390.99592396
332.419607272
310.2603995
302.987714951
301.012483701
300.516691245
300.361999654
300.282420246
300.219588175
300.1603776
300.104988026
300.060769239
300.030775096
300.012977032
300.00398227
300.000780347
300.000101463
300.000010128
300
300
386.975188079
330.98834916
308.570057132
302.176373913
300.772807683
300.453394427
300.345073618
300.277236899
300.216890595
300.158040429
300.103886073
300.061052561
300.031863132
300.01388648
300.004381684
300.000882348
300.000115177
300.000012233
300
300
390.266190782
331.227976524
307.109132263
301.814035378
300.699809509
300.442547011
300.347484679
300.28139779
300.220930924
300.161925205
300.107944226
300.064969624
300.0347251
300.015474728
300.005052583
300.001087127
300.000156079
300.000018978
300.000000251
300
406.146450324
334.416221142
308.084002249
302.168219729
300.831649838
300.492965695
300.371867865
300.297278595
300.233023405
300.172072778
300.116784061
300.071938063
300.039256197
300.01777111
300.006048472
300.001427052
300.000236149
300.00003312
300.000002275
300
429.918200044
340.894038701
311.735406368
303.463687705
301.272653112
300.641978649
300.42877546
300.326486866
300.252298334
300.186861701
300.128600077
300.080858775
300.044982157
300.020725124
300.007329808
300.001884794
300.000358548
300.000055937
300.00000596
300
442.636365152
347.220438471
315.420284334
305.20431797
301.959901358
300.894648124
300.523773886
300.368916017
300.276869858
300.203941033
300.141963519
300.090643015
300.051284695
300.024014966
300.008780778
300.002431748
300.000522797
300.000089841
300.000011923
300
447.167549014
348.808818426
317.659455305
306.683087946
302.665398333
301.187698857
300.641276576
300.419800036
300.302413683
300.219660111
300.153817765
300.100126083
300.05788205
300.02764604
300.010407838
300.003081629
300.000735346
300.000140831
300.000021458
300.000000849
442.471522196
348.741564582
319.282501404
307.845076086
303.26580721
301.457942607
300.757630598
300.470186494
300.323626799
300.231209372
300.162144366
300.107308177
300.063602683
300.031542354
300.012362794
300.00389614
300.001017923
300.000218172
300.000036822
300.000003713
431.577492931
350.275303878
320.569523537
308.66287358
303.701228671
301.669521634
300.854728819
300.506801128
300.337160964
300.237616317
300.167280403
300.112456301
300.068611882
300.035428853
300.014770611
300.004960238
300.001406476
300.000338007
300.000065521
300.000009127
421.373690089
348.889223006
320.578738748
308.848103275
303.858457625
301.771039515
300.900247051
300.516770529
300.3393541
300.238749578
300.16970674
300.116676582
300.073448009
300.039918732
300.017752188
300.006450561
300.001983925
300.000532338
300.000120374
300.000021771
413.680114265
346.906668465
320.138448201
308.747638359
303.850538097
301.773957345
300.879455505
300.50356366
300.331803193
300.235972639
300.171267455
300.120897889
300.07927337
300.045468589
300.021826658
300.008599608
300.00287871
300.000855486
300.000222192
300.000050384
406.266485829
344.123351198
319.169001524
308.405831143
303.697537359
301.654659962
300.809039184
300.470022427
300.316885383
300.231894094
300.173169258
300.126695236
300.086693256
300.052936885
300.027379367
300.011762754
300.004266897
300.001383596
300.000398656
300.000105558
396.786561379
340.264232176
317.437781711
307.594331163
303.270999901
301.416779447
300.702123488
300.424426854
300.300463177
300.228939613
300.177665561
300.134864191
300.096765935
300.062677394
300.034999783
300.016240175
300.006366945
300.002199165
300.000681402
300.000199207
386.691499226
335.602273403
315.059035712
306.377870157
302.656997438
301.143816139
300.593083322
300.385594469
300.290100985
300.231738331
300.186530648
300.147019718
300.109951819
300.075219752
300.044836363
300.022343402
300.00930547
300.003375017
300.001106457
300.000343003
380.983863423
333.083434035
313.793083272
305.811913963
302.417882576
301.05296057
300.556820434
300.375023464
300.29462138
300.2439058
300.202389313
300.164116317
300.126884871
300.090638856
300.057102146
300.030170281
300.013186126
300.004965992
300.001699392
300.000551258
384.695206803
338.217634304
318.241394009
308.633887419
303.825190795
301.594917018
300.714730905
300.413208695
300.318661653
300.267359152
300.225657639
300.18629997
300.147412971
300.108827864
300.071824744
300.040144882
300.018393235
300.007074234
300.002490296
300.000834307
413.833983057
360.033089832
330.761450454
314.855172442
306.600337017
302.689473079
301.084003798
300.52675444
300.365556723
300.301463047
300.255401944
300.212796872
300.170714253
300.128768871
300.087959807
300.051416251
300.024620052
300.009811287
300.003527501
300.00121506
488.190704064
380.666499861
337.078944402
317.119164028
307.607104578
303.216644281
301.356419231
300.65993358
300.425913158
300.338597459
300.28523449
300.238359863
300.193017303
300.147960794
300.103628879
300.062718752
300.031281267
300.013040728
300.004864407
300.001733059
526.865968722
388.127178814
337.051156098
316.207922918
307.115378341
303.102570207
301.400672284
300.726391978
300.4742147
300.371526602
300.30979806
300.258443329
300.21041323
300.163575205
300.116853717
300.072953413
300.038105203
300.016702366
300.006523611
300.002439134
535.726558705
386.65209232
333.415019127
313.795998557
305.986927224
302.69463889
301.305239485
300.731794123
300.497887582
300.393102334
300.326279549
300.271667143
300.221949815
300.174306201
300.126583248
300.081143984
300.044215841
300.020474618
300.008501112
300.003394046
534.677165938
377.711071904
326.443875762
310.298402471
304.50810435
302.136998587
301.125515055
300.689993453
300.497866488
300.401909157
300.334192397
300.278276197
300.228046721
300.180336036
300.132388417
300.086770825
300.049268963
300.024228995
300.010827475
300.004673524
523.828362356
359.633804051
318.152550086
306.858338011
303.125299455
301.61119643
300.936899778
300.635765403
300.489359596
300.401167751
300.335127227
300.279781511
300.230124162
300.182743459
300.134988184
300.090345107
300.053559194
300.02816697
300.013627567
300.006388094
498.247151231
344.222748783
312.216708574
304.458116099
302.152402368
301.228656781
300.795981336
300.591667073
300.474093249
300.394388793
300.331847926
300.278337638
300.229758002
300.182354793
300.13555318
300.092815827
300.0577423
300.032629686
300.01713572
300.008730049
483.33479092
342.39590059
311.153106435
303.529712541
301.601459247
300.967386116
300.696127419
300.551151507
300.456753294
300.385986663
300.327442202
300.275930273
300.227653782
300.18018744
300.135318485
300.09528386
300.062480076
300.038041173
300.021658321
300.011890102
460.150029171
349.521664021
315.304780677
304.451872915
301.567743975
300.866466318
300.639934382
300.524203001
300.443974116
300.379604066
300.323943906
300.272962722
300.224111431
300.177934725
300.135534899
300.09860082
300.068309965
300.044702563
300.027360727
300.015980848
429.898801181
351.594519686
319.079801641
306.18734269
301.976283691
300.901522341
300.623897866
300.511225869
300.436941641
300.37562644
300.320477204
300.269100979
300.220967298
300.176609953
300.137063196
300.103338622
300.075408421
300.052642472
300.034126774
300.02092828
405.479476982
346.035147617
318.924173126
306.820651347
302.281022874
300.969829256
300.628424086
300.507326477
300.433264688
300.372216583
300.317213839
300.266272702
300.219489337
300.17728757
300.140656069
300.109882824
300.083996761
300.061234017
300.041440338
300.02631982
390.199415006
339.136747287
316.652673217
306.331047337
302.244738833
300.979067032
300.63108664
300.507401108
300.432398198
300.371258126
300.3164424
300.266506778
300.221132357
300.181252777
300.147655172
300.118520062
300.092925879
300.06962914
300.048510268
300.031584145
383.819359882
334.740014369
314.504950784
305.56453214
302.044941695
300.942811064
300.628938605
300.510985204
300.436655164
300.37554459
300.320965038
300.271917952
300.227794628
300.189195211
300.156158667
300.127464098
300.101542027
300.077078467
300.054677298
300.035867885
384.808338557
335.426436333
314.056609494
305.144057901
301.865874158
300.89049992
300.622657278
300.516832082
300.444771133
300.383490825
300.32856602
300.279276608
300.235713652
300.198248826
300.165801372
300.136273304
300.108798172
300.082766332
300.0586897
300.038071427
413.111612419
347.989180944
316.549237817
305.050694301
301.642681584
300.828323037
300.616115169
300.522220718
300.452808081
300.392373465
300.338193485
300.289797819
300.247047803
300.209206903
300.174727638
300.142836
300.113127233
300.084889655
300.059012453
300.037162613
507.342628265
363.458628089
319.031295929
305.164972323
301.547112534
300.797024707
300.614078844
300.528868591
300.463356513
300.405097448
300.351812945
300.303165407
300.258760364
300.217774344
300.179926895
300.14543445
300.112814389
300.082271961
300.054995191
300.032804063
566.012469882
376.365819991
321.322248804
305.395279939
301.601775657
300.812337193
300.624162409
300.541578994
300.477909798
300.420126738
300.365753191
300.314516583
300.266211932
300.221214505
300.180737622
300.142966534
300.107533002
300.075019119
300.046971662
300.025742659
587.096144403
385.273887481
323.738461321
306.102613923
301.756988363
300.859262086
300.645405825
300.558129485
300.49224975
300.432510725
300.375302017
300.319921144
300.267800745
300.220482023
300.176665
300.135721179
300.097655601
300.063508825
300.036103552
300.017928995
594.592402387
391.132424084
325.769883802
306.858420382
302.03463959
300.942967439
300.676032582
300.575189403
300.502208313
300.43823601
300.376996768
300.319053773
300.265061154
300.214781168
300.167736348
300.123666541
300.083186058
300.049164899
300.02518018
300.011269685
597.117130505
393.042425823
326.258561722
307.123135038
302.199622207
301.015798762
300.707293033
300.590508964
300.507024614
300.436979582
300.372929821
300.313020172
300.256741285
300.203614332
300.153400937
300.106776784
300.06613252
300.03535003
300.016281133
300.006602625
592.158721785
388.090021813
324.330867834
306.564204008
302.086773962
301.000685314
300.708771354
300.593737485
300.504185672
300.429058993
300.36226198
300.300621136
300.242361245
300.186657961
300.134500355
300.087816862
300.049862761
300.024136438
300.010095353
300.003754132
574.26459045
375.917946065
319.694169429
305.281661458
301.821511666
300.959221508
300.7029398
300.585472505
300.491431318
300.413012223
300.344563292
300.282039988
300.222515325
300.165787541
300.114021782
300.069638864
300.036376342
300.016153044
300.006223177
300.00225599
546.795164787
360.26965879
314.400233051
304.153391218
301.610990786
300.905991285
300.688866478
300.565718639
300.469944333
300.390490758
300.321785228
300.259283926
300.199591364
300.143808285
300.094405826
300.054174969
300.026428584
300.011020421
300.004179772
300.001769795
529.607447825
350.419900733
312.774688227
303.630901501
301.429909587
300.855394399
300.659784656
300.53864671
300.443996046
300.365246308
300.297282387
300.235325807
300.176585198
300.123328262
300.077687216
300.042538849
300.020028209
300.008318726
300.003574037
300.001732583
539.126341237
352.470165487
313.239948869
303.633600881
301.385095067
300.834979156
300.633400151
300.512535102
300.419142451
300.341440946
300.274282283
300.212855421
300.15628511
300.106533012
300.065364496
300.035334832
300.016875223
300.007703071
300.003676524
300.001928829
536.106286877
354.583885045
316.427026744
304.910972917
301.693964454
300.879477517
300.623929154
300.493952066
300.399350401
300.321672648
300.254531307
300.194179464
300.140772057
300.094968216
300.058346467
300.032355249
300.016667843
300.008273253
300.004223734
300.002322464
543.552218489
360.936493693
320.83074142
307.054165702
302.389090584
301.04239489
300.649322018
300.488471649
300.386435962
300.306586263
300.239486994
300.181501956
300.13140116
300.089415101
300.056571435
300.033324596
300.018519998
300.009857252
300.005282881
300.003036792
549.956616886
370.341706863
325.94182548
309.626847854
303.440215691
301.368747778
300.72746228
300.499717804
300.381237135
300.297996583
300.231741674
300.1758835
300.128623669
300.089953205
300.059663408
300.037313712
300.022088663
300.012551259
300.007033176
300.004204234
558.867338527
380.088057586
330.93254851
312.04665236
304.550841528
301.761682537
300.829817596
300.522132656
300.383849729
300.296735292
300.2311947
300.17685216
300.132083308
300.095920619
300.066486482
300.043588981
300.027155214
300.016333923
300.009635879
300.005917519
570.519167116
392.70272629
336.110490052
314.268039643
305.489603499
302.038939942
300.90559133
300.543331139
300.390756125
300.301472661
300.236563495
300.183482453
300.140860607
300.105874841
300.076005919
300.051702244
300.033460014
300.020888321
300.012935791
300.00826564
583.015426048
401.384724706
339.175347482
315.615532179
305.845932586
302.085678629
300.926686234
300.553064046
300.398685053
300.309909666
300.246498608
300.194561446
300.15353653
300.118485544
300.087349769
300.061161352
300.040694073
300.025991513
300.016623053
300.011113869
592.625952155
403.239881919
339.354192546
315.566395642
305.373994739
301.921887825
300.886032309
300.548410088
300.404673424
300.320765493
300.259130948
300.208901442
300.168742909
300.132657535
300.099809355
300.071390944
300.048482477
300.031554029
300.020580524
300.014298889
600.065534132
401.225977168
337.519175595
313.599125156
304.373918366
301.61889632
300.806496287
300.533425437
300.410428731
300.332912843
300.274285784
300.225697528
300.185449677
300.147783656
300.112773072
300.081880126
300.056434809
300.037329484
300.024801527
300.017729157
602.232550596
398.055540677
333.882345571
310.147355126
303.203257498
301.279482443
300.716306877
300.519343205
300.417152989
300.347786451
300.291389066
300.244781872
300.203171466
300.163311976
300.125746225
300.092201623
300.064199471
300.043053201
300.029241304
300.021465476
574.590684079
389.325513374
327.101776448
307.266758918
302.307740244
301.018351359
300.656118486