/*--------------------------------*- C++ -*----------------------------------*\
| =========                 |                                                 |
| \\      /  F ield         | OpenFOAM: The Open Source CFD Toolbox           |
|  \\    /   O peration     | Version:  2312                                  |
|   \\  /    A nd           | Website:  www.openfoam.com                      |
|    \\/     M anipulation  |                                                 |
\*---------------------------------------------------------------------------*/
FoamFile
{
    version     2.0;
    format      ascii;
    arch        "LSB;label=32;scalar=64";
    class       volScalarField;
    location    "0.3/water";
    object      epsilon.gas;
}
// * * * * * * * * * * * * * * * * * * * * * * * * * * * * * * * * * * * * * //

dimensions      [0 2 -3 0 0 0 0];

internalField   nonuniform List<scalar> 
750
(
43.9664179734
21.7163758751
7.04075092897
2.73819630516
2.18036647887
1.0401266455
0.724428319238
0.872635015737
1.4184074492
2.53006209519
5.50898354072
2.37921821383
2.64321810137
8.54494175214
8.10829178246
8.8938529807
5.02371138932
1.65093993189
2.21129905334
5.43646135617
11.4314243006
18.854442329
20.2616417186
13.1168381183
7.35758098815
3.93526928039
2.04532790229
2.76216030545
26.6267560891
46.488301497
11.0191270567
1.39758566187
1.39555084953
3.21934448035
8.48818843439
12.4732665131
6.50733462858
1.57647439879
1.65084395489
2.98324186358
5.5672610195
10.791548077
14.0498584323
11.4404298002
7.48320688685
3.88119981325
1.43950394125
3.03338269794
30.58827106
41.2287652306
19.0388497087
1.45931762591
1.2688802365
1.90926392189
9.65985996993
12.994796385
6.2142143851
1.44461611383
1.63937541107
2.58910721171
4.08432692783
5.73022976707
9.15636245892
11.6919917242
7.88912816304
3.71889440468
1.22038076108
5.50311536957
25.8672551772
41.5809547808
26.7991299859
3.56473857702
2.80736058725
3.25009576558
14.9915394157
11.9653835931
6.44040951777
1.72077960654
2.39407246751
3.39313388212
4.75256083789
6.34066474692
9.28274343582
12.5440161823
8.19502594971
2.62817543748
1.44707859583
5.78783699947
25.3521455306
43.838519039
20.3564182782
4.89036764336
7.35651294971
13.1063206069
41.243640709
17.0219325751
4.7733570873
3.28556911665
4.29234223941
5.43382145082
6.86734611455
9.11453080638
12.0331981292
11.1092399174
4.80337866813
1.36865607279
2.83165717012
6.85011857566
29.2368707961
52.3510100825
11.824054332
12.2107150163
23.2019994488
122.660672946
183.147450133
33.0785558039
6.15074416206
4.91891943769
5.9479168878
7.15746585808
9.68458013742
10.822855621
9.28799777314
3.99393280398
1.51858099216
2.08932839819
3.55178393884
8.49035497219
34.0932562266
56.2783455417
14.6882711421
13.0186836593
48.8588481462
1285.7462972
470.816215146
70.7052895202
18.3636749592
6.66212547828
5.82305886086
6.22635702186
6.76242036706
4.90461920657
2.44056685713
1.83051510554
3.26866198096
4.9885316327
6.99593223225
10.7024074962
24.7459624193
59.0906779388
20.0400344819
10.8258836563
67.5399013664
2642.09521557
2206.94704909
121.372571968
32.316448056
13.6448744178
5.13729028317
2.75461566736
1.5452967997
1.38894136293
1.8883105039
2.55831791951
4.08092002349
6.1607144662
4.14583208025
6.37901010891
19.3211814949
63.2943822368
24.8635551657
7.41098299935
35.7590153477
1581.28987884
12359.915355
240.385551604
19.8521564373
8.18200114704
1.70618116231
0.767472002652
0.630751553928
0.802869032192
1.53830635331
2.9453361522
5.08032733217
2.85085737295
2.69384619783
4.54402515781
12.663864685
48.8769845897
26.3969918232
10.6018898625
50.8288857992
2381.15418309
13112.5194159
826.847077842
9.06160815369
0.931170940409
0.537018589625
0.206636184254
0.211529461329
0.517656577987
1.50874270769
3.48937566056
5.79324572641
1.70145483498
2.00362346171
3.85826906173
9.13521369849
29.5308557901
16.6432079368
16.5878298067
51.6667697633
2184.56625022
3886.59233985
997.190116546
73.4282854109
15.537778011
2.66906754371
0.979462323419
0.973964674267
0.567470543074
1.64817565923
4.81832211349
3.10301813292
1.64587161748
2.16501700123
2.90627917323
5.2830451142
14.160076774
8.43496720066
14.3493093137
58.6256243298
840.02120141
1194.96074112
430.262377332
130.825648865
36.8511965375
9.53078640562
4.02421650789
2.89220018088
1.62151105681
0.74463822733
2.90640218372
1.76469387921
2.61982304351
2.7457762171
2.8834805371
3.62139602675
5.71142621716
4.1742590456
7.7186010529
57.3358072534
562.488316628
529.876557315
248.163479285
100.143550884
47.2078157656
25.1082861123
13.8406974586
9.38169532118
4.87395588872
3.73768967345
3.08530348764
3.51255505663
4.18592814215
4.35597573353
4.19082210983
4.4090752116
5.16238534594
2.10652474988
2.16159544328
67.6786940271
370.116898679
330.48574737
183.845568926
98.5768088071
57.8835485577
38.6423709272
27.612326185
19.6290884237
13.588360032
9.41419757868
6.71943673268
7.24977596311
7.84415463366
8.34884535074
7.75228380441
8.10431725358
9.93746691268
1.79933664124
8.05087533672
74.3370393117
235.470175885
212.06212184
141.589324973
92.640637853
63.6728820186
48.2579197875
38.4527710678
28.7763891997
20.3960181216
15.5406674603
13.9037804904
13.7439034657
13.2080255971
12.8527657826
11.0346945496
10.814860046
12.478663935
1.11268848074
13.1636126526
64.9563213114
151.264622732
147.928520712
116.254244858
89.0655999842
69.3128513353
55.8682541701
47.7575410149
37.8548813267
27.7194386325
22.3623072306
20.7208667355
19.6891018752
17.8866060497
16.130129436
13.2764513743
12.3223740667
13.240012701
0.919716535319
9.53048666666
52.6636888987
108.567862895
116.774417065
103.611918481
88.1952386972
74.8567726858
63.263747845
55.6606267306
47.5667876433
37.0801625755
30.6798627234
27.9797331061
25.6432962917
22.4616104029
19.7189614621
15.8694241793
13.8150965871
13.7695968608
0.585009451187
4.73514954506
42.5877971251
82.4509076075
94.3254089638
91.1505996142
83.6049518882
75.377344452
66.5594852156
58.3923340273
51.5900529374
43.2857963119
36.9621172825
33.5453488334
30.2413305714
26.0512179905
22.9156519974
19.7085541103
16.7532153962
16.3036547313
0.302926750666
2.36159186158
35.9878884035
58.999762437
75.6818510867
79.2296353012
76.9075257111
72.4040985999
66.4116364676
58.8315705055
51.491437001
44.9571263413
40.0406065534
36.7265260965
32.8188534601
28.2200405244
25.8300294131
24.5185627443
21.3278706802
20.523124177
0.310045120038
0.917484075841
17.4373260146
43.443658375
65.5905318338
73.1454101243
73.5302277627
71.0599916118
66.904912337
61.3099630174
54.2804850247
48.2249796239
44.2820742207
41.0769818987
36.3386095228
31.3737053699
29.450329809
27.4056707906
23.5852664278
21.8252433484
0.323309960567
0.34136628236
4.79603108432
36.4848984697
58.6158293681
67.6860831861
69.8556664031
68.9597793061
66.4493504597
63.00421016
57.9504540561
53.1372543897
50.1177781076
46.7558117058
40.6057015243
35.1847553781
32.9227834548
29.7151985201
25.5669688835
22.9972346615
0.368167839725
0.214831530605
2.14006266201
29.9946389502
47.2871643555
60.0675600006
64.7438737739
65.6359378429
64.7828715661
63.0851986654
60.281445194
57.2863628564
55.5024161716
52.7984296969
45.9865632816
40.8617276659
40.4934782007
40.7162490156
38.8296038382
37.94224689
0.435532257233
0.174731774192
0.964649015156
16.879856633
37.2521272977
54.2985412186
61.7243011146
64.3952247
64.8553103161
64.1404524742
62.982526554
61.343506042
60.4890968023
58.9768028499
52.9206908776
47.1656157192
46.492085832
50.9287712733
60.857264192
76.4559692935
0.667539967382
0.158286490891
0.384883197324
4.18944471056
28.1774842153
45.6201232208
58.0400771287
63.1095230365
65.4058511559
66.0232816564
65.874216048
65.2569084554
65.0076928411
64.1931170082
59.3789238914
53.3868974457
52.3164604399
67.2717327634
160.728578186
654.728936468
1.66105686402
0.216440960654
0.268887513753
1.68059274603
12.8072402201
36.1978887953
52.4135767127
62.8832004929
68.2559195482
70.3120857043
70.7349571975
70.5774418827
70.1404210605
69.1976241024
65.3341522055
59.5119759415
60.6080205391
102.103897748
370.111519019
1529.98314051
5.0353209712
0.452854419858
0.173034373788
0.565662484074
3.16668560962
20.1454654179
46.561622556
65.9396225184
74.6668916878
77.7411384603
78.3260059058
78.3734919918
77.7186368679
75.9608914656
72.6312333991
66.5839689593
70.554384405
138.081053915
512.843519515
1862.78791352
7.09957848537
1.3264547336
0.15585123138
0.268290442161
1.25890623363
7.59960795459
45.3996947433
70.4817851402
80.8728500897
84.2043140789
84.8581849169
85.0231060119
84.4442707002
81.4450514389
78.467559235
71.7670960128
80.084543482
170.251775689
605.350585745
2045.52044561
6.23559076115
1.77979571487
0.282598716695
0.143786162235
1.10509507284
9.99549292441
48.9308027652
73.4749963894
84.039752979
87.142201273
87.8139723916
88.1581151452
87.736201142
83.6065812647
80.7010690861
73.436501749
85.9070601758
188.26574137
637.711699764
2066.24772311
5.20837553527
1.4435756971
0.326260188261
0.126630242494
1.17494218768
12.9194986282
51.4837929741
74.5933092837
84.9249693587
87.690606406
88.3227446058
88.8080916352
88.3097318455
83.4718054281
80.0836163412
72.668234858
87.6501278115
193.897386855
641.388533977
2034.14502202
4.50342132492
1.03418144811
0.246649603345
0.190073927014
1.90969259214
12.6557286846
54.1842847882
76.4353094112
85.2723090879
87.3669464232
87.824492684
88.2017916991
86.9245632123
81.9237090147
77.2769486597
70.7720330209
88.130318122
196.109235158
638.183606443
1995.3447736
4.92527787109
0.701300301199
0.163346973267
0.437428710665
2.72540620708
15.3325028233
51.3610477906
72.2356576864
79.3467037792
81.4612708076
82.3782581196
82.680574562
80.6008028269
76.1665846696
70.3789694827
67.1084670511
88.7662077337
197.394276214
612.68038671
1833.95863594
5.75402833056
0.67999778132
0.161870533989
0.645672739293
3.99833060641
18.873444847
48.182799167
64.8966336234
70.8398402553
73.0431239711
74.1693033884
74.2081029787
71.9356362272
68.0600352696
61.5733435351
59.322552031
79.5395318203
178.208020341
556.648222625
1652.63252176
5.49422877055
0.647988891287
0.206754940769
0.947443506508
4.77910132918
23.5743636754
49.2511731713
62.068870067
66.4207299076
68.1756054846
68.8756492784
68.3186332334
66.0287908253
61.7352717872
54.7296045788
52.718677276
70.8023650953
162.518741956
531.210629285
1637.78964571
4.33567022886
0.520996719272
0.290324888781
1.28591548672
5.51987077015
28.8128283254
51.7794627616
61.4201375356
65.2377300672
66.5787491817
66.9105242799
65.9983843938
63.0580892257
57.3956104857
50.8639602117
49.3482025039
66.386438794
157.381051746
543.395570747
1753.1923061
2.78833135272
0.399707443624
0.35443302848
1.66837591464
6.47706296653
34.607760007
56.7808333336
66.1432479436
69.8559899031
70.50124376
69.7209797346
67.1342945034
62.2515718113
56.0130487728
50.6673355647
49.8315072087
66.8372853773
163.374205688
591.725166394
1988.96609865
1.72016161918
0.319349624388
0.508212288254
2.73737878099
9.84973059584
43.1769977282
66.6965598061
77.6078383413
79.5215944834
77.889604485
74.253059779
68.8340729038
62.7094121021
57.2574142075
53.7212345983
54.1949201031
73.291289827
183.433402434
674.603736214
2302.67244445
1.61094855631
0.410601601251
1.63212272074
7.27790096295
16.6793444794
57.0117648177
78.3690858668
88.5053451946
86.966735032
82.1416051472
75.560324364
68.4419885859
62.4155052707
58.5370188007
57.1862352953
59.9690133581
84.2341079207
214.004859008
763.469784392
2543.52280468
)
;

boundaryField
{
    emptyPatch
    {
        type            empty;
    }
    minY
    {
        type            fixedValue;
        value           nonuniform List<scalar> 0();
    }
    maxY
    {
        type            inletOutlet;
        inletValue      uniform 0.0001;
        value           nonuniform List<scalar> 
20
(
1.61094855631
0.410601601251
1.63212272074
7.27790096295
16.6793444794
57.0117648177
78.3690858668
88.5053451946
86.966735032
82.1416051472
75.560324364
68.4419885859
62.4155052707
58.5370188007
57.1862352953
59.9690133581
84.2341079207
214.004859008
763.469784392
2543.52280468
)
;
    }
    maxX
    {
        type            epsilonWallFunction;
        blending        stepwise;
        value           nonuniform List<scalar> 
37
(
122.303375969
118.115590313
117.54569191
117.446763255
125.84938163
113.648758982
116.744554292
139.320262797
118.360791651
81.3176305821
45.3232593098
32.7256510337
50.0438951974
85.8631684531
120.05484761
153.066017613
196.870295128
247.634561557
350.359253004
491.529208441
745.719001656
893.721231685
874.966077105
2984.1426862
7701.70668427
10126.6594816
11498.6203672
11803.3962003
11760.8164513
11635.4073304
10924.792535
9960.51751178
9706.91300187
10148.3133745
11242.710252
12851.0166478
14320.2875056
)
;
    }
    water_to_heater
    {
        type            epsilonWallFunction;
        blending        stepwise;
        value           nonuniform List<scalar> 0();
    }
    procBoundary2to1
    {
        type            processor;
        value           nonuniform List<scalar> 
20
(
9.35252797542
5.85776140195
7.56608239554
18.7089352209
8.47348135076
5.37507712029
2.68260492855
1.92467591346
4.06074097496
9.69638649055
19.2198305595
35.4775722596
34.8136810853
16.496064078
7.9396884529
4.42236611218
2.95336833715
4.32390432296
21.6665023878
63.5617846759
)
;
    }
    procBoundary2to3
    {
        type            processor;
        value           nonuniform List<scalar> 
39
(
33.8184029591
137.542747201
313.389271872
248.694888499
133.197363457
45.1204985894
43.5280581234
69.100312722
120.618931988
126.655966502
83.9768237743
83.9768237743
49.45718625
25.1779641422
7.56228420978
2.66938182876
2.06866190245
1.2425110988
1.15183761399
1.29796441874
1.81073628285
2.98044133934
3.14168072191
3.14168072191
3.87414452383
5.65743361696
13.0983638085
20.4570650924
17.4074485023
13.8889661716
11.513418825
10.2942623397
10.7825454633
12.1322567532
12.3422205193
9.69096385346
8.20450402579
9.61472674435
17.3893071317
)
;
    }
}


// ************************************************************************* //
