/*--------------------------------*- C++ -*----------------------------------*\
| =========                 |                                                 |
| \\      /  F ield         | OpenFOAM: The Open Source CFD Toolbox           |
|  \\    /   O peration     | Version:  2312                                  |
|   \\  /    A nd           | Website:  www.openfoam.com                      |
|    \\/     M anipulation  |                                                 |
\*---------------------------------------------------------------------------*/
FoamFile
{
    version     2.0;
    format      ascii;
    arch        "LSB;label=32;scalar=64";
    class       volScalarField;
    location    "0.435/water";
    object      alpha.gas;
}
// * * * * * * * * * * * * * * * * * * * * * * * * * * * * * * * * * * * * * //

dimensions      [0 0 0 0 0 0 0];

internalField   nonuniform List<scalar> 
1496
(
0.636849880786
0.640942502105
0.634920879814
0.661060569355
0.729663523066
0.730184176075
0.730711399441
0.727716222242
0.710538221214
0.681558733965
0.648958798172
0.621356053117
0.601010423837
0.583068498682
0.56101027568
0.528382967279
0.479316614663
0.412039219218
0.331964394513
0.267511786944
0.652489343882
0.63812507767
0.659428392897
0.722123058921
0.730184176075
0.731010935303
0.730184176075
0.725857341961
0.706944493836
0.679926465145
0.650162509765
0.622406078825
0.598631650197
0.576160399099
0.549402670957
0.511864355174
0.459086824282
0.391243939927
0.315626099366
0.25772426205
0.673078216078
0.667708815878
0.706165662664
0.730184176075
0.730911227684
0.730184176075
0.727745334041
0.707629117461
0.679269726042
0.650764152392
0.622086335703
0.593241125744
0.564577615671
0.534224523148
0.497901631558
0.451506018966
0.393751029164
0.328794460454
0.269984963913
0.237605111217
0.673282208438
0.660525587147
0.70413873416
0.730375525273
0.730184176075
0.730137672101
0.706525188739
0.658994451215
0.613318148456
0.57553030597
0.541700676322
0.508767717805
0.474835676302
0.437685288533
0.39500205265
0.346224531143
0.295227602467
0.252763726295
0.228408591914
0.217649110276
0.6555836371
0.622803984428
0.680129108642
0.722528715915
0.72678030905
0.71405182052
0.660265529227
0.585660011179
0.51771976154
0.462593623914
0.417667582525
0.379391501352
0.344545207587
0.310730822216
0.277777739393
0.248604377917
0.228789183208
0.218866305506
0.210618260935
0.20111521965
0.61891472355
0.592649109647
0.644341142458
0.695823426896
0.701605320663
0.670908721839
0.595129893084
0.501957556634
0.413685308083
0.341560612228
0.291659026844
0.261172260966
0.242765796467
0.231096354499
0.224284901597
0.220743333902
0.217669800174
0.211057571877
0.19915540749
0.199065997555
0.593577663724
0.592501879903
0.607830317772
0.64775680852
0.649941481312
0.608227731902
0.52245707062
0.421365408657
0.327337287907
0.260409676952
0.230600835221
0.224496794517
0.223565543808
0.223366627337
0.223047665176
0.222038204425
0.21672421714
0.202139959537
0.199065997555
0.199739771923
0.592501879903
0.590377060539
0.592501879903
0.601009181285
0.602420192856
0.5597984577
0.473435460285
0.377603743251
0.298158257697
0.248773911366
0.229438766164
0.22746905692
0.228861168463
0.231925587256
0.2330964475
0.228882233384
0.211826817824
0.197775678691
0.198907952148
0.263829446301
0.590526727101
0.592501879903
0.590049455179
0.592501879903
0.595348850436
0.559056814054
0.475922373108
0.384062477461
0.310977658842
0.268019828491
0.25385280526
0.255343055881
0.259741344715
0.26245219278
0.255447059738
0.232937681557
0.20246249009
0.197763899974
0.226667171124
0.391304036537
0.592501879903
0.589256287951
0.592501879903
0.615668630183
0.628928974904
0.599642897107
0.533833207794
0.461252385999
0.404368021934
0.36604456176
0.344082677732
0.33395279821
0.326315886156
0.310112428083
0.278250932972
0.235439173016
0.20216101639
0.202645311876
0.272921201415
0.457777619962
0.602612614198
0.631555502167
0.66961275859
0.709354094723
0.711697532674
0.697010513454
0.66703435799
0.631937650737
0.593057478635
0.543584703154
0.48968280298
0.443597612749
0.403243062168
0.358034604716
0.302407262893
0.243110619039
0.20246420492
0.210449319194
0.289499751621
0.45676474697
0.722430934997
0.757581630413
0.776429772583
0.785162022047
0.782912161228
0.779049695903
0.771549843912
0.75627620991
0.724072645689
0.668565532521
0.595875489633
0.521489779032
0.45426378053
0.389976027757
0.32131773579
0.2519334251
0.204899772576
0.211789192247
0.284621775307
0.432080467454
0.841614026078
0.826481061409
0.806192451211
0.802317899106
0.802748710115
0.803512992358
0.800295883878
0.787121749335
0.75517510572
0.701900263731
0.629101406673
0.547258773997
0.470079978776
0.398142134474
0.324601919795
0.252385987793
0.204304899511
0.210500922865
0.276570542202
0.416673173656
0.86857978837
0.823935648648
0.803832456307
0.800649592341
0.80313469324
0.803661313899
0.802206427086
0.788217051257
0.755661508003
0.702747558009
0.630355408858
0.548038330039
0.46972868873
0.396182009292
0.320811907326
0.247181709475
0.200784429654
0.207910740082
0.277210795468
0.422512609558
0.868681037539
0.802879590601
0.791605108943
0.791549591301
0.797716450234
0.801963303005
0.79897667471
0.782003041442
0.746189083761
0.691313189895
0.618350580372
0.536723033976
0.457932152367
0.38170166753
0.303287632303
0.22931556542
0.19335168973
0.206212900629
0.28908836842
0.451715090612
0.85610868439
0.773924535983
0.772603987259
0.775820669232
0.785558161589
0.792124974447
0.785900914923
0.759889324472
0.7133270661
0.651010476
0.576355812893
0.497738060432
0.420807558183
0.343500698193
0.265349870119
0.198424595705
0.184656633776
0.210212858784
0.329079862379
0.519919749238
0.813554780611
0.75391173477
0.755730242144
0.76096549642
0.771213408103
0.774751137591
0.760277277637
0.716927534195
0.651665782151
0.577722622426
0.501497555541
0.427317454955
0.354231658282
0.279968149929
0.209917063263
0.171523755244
0.178775120204
0.234547739657
0.412172242379
0.621241703375
0.766642726755
0.735901427588
0.742980607639
0.74941644475
0.757104738427
0.751449031062
0.718494957703
0.65001138001
0.565385283544
0.481836114295
0.404813935988
0.33395406997
0.265864730379
0.203329835274
0.164630268575
0.163377761044
0.183971566311
0.29599235883
0.525416851234
0.703934681524
0.72512366895
0.718373559704
0.731433210775
0.738766307965
0.739419273735
0.714797849423
0.650849069801
0.557554330857
0.461779241785
0.374673116225
0.297838024628
0.231440715555
0.181791827583
0.160448419923
0.159103602978
0.163039234644
0.209514900189
0.397266783389
0.627005931741
0.735595491355
0.681655617732
0.702300026975
0.717677438598
0.726249257872
0.708457901454
0.648138490602
0.54958381559
0.442673100823
0.347414340881
0.264230649345
0.198115993116
0.164400690544
0.159049173978
0.159103602978
0.15882937097
0.167972158696
0.264275542832
0.506492141767
0.683436913318
0.741267393887
0.629095778295
0.685049089635
0.702590515502
0.710558194309
0.652842946421
0.543116832543
0.421254836757
0.316135858787
0.234022932201
0.177301262308
0.15930897771
0.158977384931
0.159103602978
0.158620541682
0.159103602978
0.185934976897
0.360388940245
0.592087417944
0.709163635554
0.741203118736
0.57871256605
0.662672390442
0.686770771917
0.68826303201
0.583171379739
0.425730452771
0.293314009587
0.207160344789
0.1656808436
0.159103602978
0.158871280784
0.159103602978
0.158467738614
0.159103602978
0.160650487463
0.256023579541
0.493934430614
0.655684196219
0.725133451906
0.741869884638
0.57083782882
0.620906066441
0.66388808752
0.660910930763
0.532888780121
0.349619409001
0.214646744932
0.163558739801
0.159103602978
0.158832492558
0.159103602978
0.158413441264
0.159103602978
0.159143624285
0.224069442257
0.433049107413
0.625328878338
0.707794887333
0.737135223544
0.741457100612
0.563163102362
0.57387354169
0.626407370393
0.633513796536
0.502017878736
0.315762994574
0.192135137909
0.160787514641
0.158969448093
0.159103602978
0.158513646411
0.159103602978
0.168688705069
0.24417564385
0.434833467021
0.631038130256
0.715372323708
0.739107408153
0.740833835619
0.741283177673
0.569560524969
0.563365960026
0.58399915017
0.60255686237
0.460127863663
0.276868059897
0.179579619122
0.16045979599
0.159103602978
0.158787088126
0.161135350459
0.192473245642
0.293319408031
0.47580821896
0.653151855106
0.730388675654
0.740377844906
0.740216911333
0.741390833606
0.740857673501
0.555924436296
0.569560524969
0.56624157685
0.573997670896
0.403764429743
0.225994210696
0.166650248971
0.159428404631
0.159050600746
0.174171608413
0.228317152005
0.344466580148
0.510803064185
0.660751009904
0.731642293698
0.739896109063
0.739599429273
0.740377844906
0.740216911333
0.741049032558
0.568115725888
0.55472205764
0.569560524969
0.578410277936
0.37452359031
0.207642529469
0.165828296268
0.161764848966
0.183276352938
0.251324967904
0.361309410728
0.491180648402
0.611836065964
0.700231984914
0.738597091134
0.739011662228
0.739954198693
0.739599429273
0.740344146398
0.740216911333
0.555686873755
0.569299053875
0.620848278893
0.6324099251
0.44762927065
0.266256159927
0.198403135936
0.190408906309
0.229632727929
0.313324299857
0.407717336379
0.50682020896
0.605965698898
0.682965403836
0.72282639779
0.731474416857
0.731451106498
0.730618536591
0.728679014894
0.725417570441
0.605585449206
0.691367152535
0.752722515445
0.725498347159
0.658106451096
0.529761602073
0.367752641701
0.283499498504
0.276259265038
0.31749076425
0.384691061041
0.46341818256
0.539633657285
0.603605042252
0.647691945033
0.669549379525
0.67544812704
0.6755773162
0.6717674552
0.663570045794
0.796443629956
0.823904001051
0.815113116516
0.786835192699
0.762092156234
0.727799811356
0.65155047406
0.516970659543
0.387919540537
0.344633160994
0.358745508341
0.377290702448
0.41571380729
0.462095425203
0.50224902544
0.530716352662
0.54629162828
0.550789783213
0.546362621572
0.535722151722
0.850009015627
0.844632842747
0.829648566495
0.803653962488
0.781911425738
0.766431805595
0.747341780709
0.702197877392
0.590652680628
0.457449650902
0.382614180241
0.355382068034
0.340575781116
0.342524217259
0.349726357697
0.35940319357
0.372186116534
0.376569176568
0.372682602794
0.373859227548
0.851977461961
0.845693295956
0.832248215783
0.806406672964
0.785235899551
0.771873377841
0.75906686414
0.736787912046
0.68042090492
0.573082644816
0.457878118017
0.378582087612
0.333857685697
0.298459384515
0.263671763383
0.240303902613
0.239113618272
0.24050723528
0.267099597971
0.337692051906
0.850009015627
0.845020455033
0.831527230006
0.804939194226
0.784284070937
0.771544487179
0.758923845608
0.736817341036
0.687863047364
0.597559905418
0.486510192461
0.389515893273
0.323135380034
0.267318343926
0.21609475634
0.202836793757
0.203991831444
0.231221991718
0.315853793919
0.462535100162
0.850934717201
0.839799052397
0.824829597572
0.796401967425
0.777065764964
0.765264560187
0.75192495528
0.727246336026
0.676430490999
0.586251245619
0.471347267111
0.361257636404
0.274080673183
0.215726821425
0.197279787061
0.197911319884
0.226865094049
0.362382449446
0.586741839174
0.748725817942
0.850009015627
0.825128957828
0.805891244655
0.77675953809
0.759219241495
0.747018069189
0.730627400821
0.700359120471
0.642309889407
0.54521872072
0.418438485538
0.291510287527
0.21111848643
0.197226745069
0.197226745069
0.230153640498
0.419881881226
0.695402121831
0.845135814397
0.894894513141
0.847801202717
0.803879061616
0.778531384322
0.750931742688
0.7339817433
0.717852891071
0.692922096386
0.650842324365
0.580425871318
0.474851017379
0.343222469315
0.226649043568
0.197226745069
0.197226745069
0.235845673926
0.45579801528
0.748873939492
0.878075000211
0.908410251761
0.914788966244
0.840259463643
0.791285106991
0.76088479771
0.734900716487
0.716758040381
0.695269735699
0.658244325579
0.593808458311
0.496242583514
0.371533002617
0.249374699097
0.197603235322
0.197226745069
0.24292177744
0.483688019596
0.76454381375
0.881026517047
0.906306599719
0.912835298596
0.914999169477
0.393536314767
0.357972306785
0.245994609075
0.0788981254921
0.00975899391387
0.00191438763654
0.00240012169294
0.0672688629485
0.268822727701
0.25064779512
0.118818789464
0.0270489278084
0.0448083148052
0.0620762843404
0.0525286029024
0.0199314330556
0.257669567127
0.269415083753
0.308476105812
0.336193637203
0.329551953969
0.299357515694
0.235452517601
0.111014125936
0.0217219937595
0.0109618397403
0.0482563264969
0.312307385854
0.30994621793
0.142410184931
0.0174138455604
0.0136152926978
0.048512791742
0.081006238352
0.0827144687912
0.0403823324783
0.246788182934
0.250717339185
0.263013236953
0.266981420656
0.26136474241
0.254748281702
0.231481960186
0.147736846103
0.0617683355515
0.101337535148
0.359858220388
0.363898004788
0.197530489302
0.0232962151357
0.00129302666198
0.0103976343446
0.0471638653129
0.0914296132112
0.106756910445
0.0665068407965
0.230716350527
0.227875523305
0.225586194427
0.225217071253
0.241200523904
0.28077121324
0.287965244578
0.263541159177
0.25929612218
0.39813067734
0.495047704835
0.321274405324
0.0704184260703
0.00351668116348
0.000327013124285
0.00550078246706
0.0375253961091
0.0931492754849
0.122942514635
0.0922060007238
0.209898750887
0.208040373182
0.20868285191
0.247476385701
0.365660266962
0.496110040738
0.528215940812
0.531824575775
0.558952235209
0.591758831717
0.494027334664
0.249712868829
0.042814028838
0.00144944583608
5.9637319658e-05
0.00140883162442
0.0221692930772
0.0872793250693
0.134889184216
0.115361270723
0.201006617711
0.203074637556
0.283489561858
0.508287840798
0.692379304883
0.757425685505
0.756315989786
0.705861616206
0.672964929568
0.640552957755
0.503061067546
0.236226621483
0.0345770985098
0.000597058848398
9.60869396492e-06
0.000198016338308
0.00947313532742
0.0729621475937
0.144512082717
0.138509119373
0.201261749447
0.314044214317
0.594342485299
0.779272300569
0.805221652849
0.807468796033
0.805221652849
0.735645261891
0.681740233652
0.649685736524
0.492562214798
0.213416305449
0.0226101154627
0.000161399065084
2.87800508912e-06
2.33093122362e-05
0.00326585531339
0.0547346577281
0.151286078055
0.164395057746
0.302052838946
0.597025492157
0.783951145391
0.805221652849
0.807516185653
0.805221652849
0.807176144251
0.751680373162
0.679362734364
0.637741952149
0.455220039577
0.16362765149
0.00977298559283
2.18233763947e-05
1.06367612314e-06
3.68704862399e-06
0.000908326609731
0.0364168441848
0.152884464124
0.196196323863
0.507254004472
0.728202139843
0.805221652849
0.807382214379
0.805221652849
0.80788986694
0.805221652849
0.786485833763
0.691949879457
0.61825317717
0.393143657772
0.0914071370458
0.00214740188217
9.66984741353e-07
7.98186835109e-07
1.45819571033e-06
0.000201004820929
0.0201860333536
0.146644553915
0.23212491
0.599564115754
0.729129563919
0.80024134307
0.805221652849
0.808048221005
0.805221652849
0.807815511935
0.805213707658
0.724169500233
0.603956677654
0.299268875292
0.0317190897282
0.000197397255999
7.97067796715e-07
7.98191121467e-07
1.21788498503e-06
3.53165337112e-05
0.00888504465378
0.130223776297
0.263388994549
0.593896475918
0.697294527354
0.782655397973
0.807243851747
0.805221652849
0.808043479137
0.805221652849
0.807114574634
0.754013816761
0.584891916059
0.184817833491
0.00788244564517
7.46404285567e-06
7.9728634922e-07
7.97490361847e-07
1.18396161654e-06
6.21603606541e-06
0.00309167263653
0.104956338236
0.277011738054
0.564117803862
0.664548809268
0.769841269757
0.805221652849
0.807432925051
0.805221652849
0.807591070251
0.805221652849
0.771508213086
0.530356201958
0.0963969493344
0.00158845913954
7.97257505025e-07
7.95800167801e-07
7.9728634922e-07
1.1636834907e-06
2.13192325178e-06
0.000980757619426
0.0805024745762
0.277624797436
0.542192144462
0.659428857033
0.769389565477
0.806304575732
0.805221652849
0.807190522478
0.805221652849
0.806776408031
0.777525419374
0.435314483716
0.0437386553819
0.000277967312949
7.93358011298e-07
7.96490924721e-07
7.96590570977e-07
1.11873526399e-06
1.44908389691e-06
0.000374675660888
0.062794905794
0.268208600401
0.542215153817
0.668438920613
0.773506751727
0.805221652849
0.806632395497
0.805221652849
0.807086786122
0.805221652849
0.772158549945
0.320422595462
0.017654614811
3.83010302937e-05
7.96490924721e-07
7.93808037977e-07
7.96490924721e-07
1.01858688479e-06
1.10659565118e-06
0.000126682505924
0.0473307113268
0.25064613284
0.557413078353
0.695362373705
0.780192538885
0.805648132284
0.805221652849
0.806894862791
0.805221652849
0.806361585403
0.724822241915
0.203524686541
0.00627948598262
2.74009065822e-06
7.92769766327e-07
7.95639405966e-07
7.95329882384e-07
9.20194509663e-07
9.30317128387e-07
2.39119863438e-05
0.0281244506511
0.246280269455
0.604132285277
0.727577976691
0.785135975324
0.805221652849
0.806091201662
0.805221652849
0.806351326624
0.805221652849
0.613543106099
0.112116762955
0.00191757079904
7.91913158261e-07
7.9553367183e-07
7.92769824942e-07
7.95639405966e-07
8.80317674664e-07
9.64344991062e-07
0.000160002765246
0.0527228721851
0.2044890249
0.673754073923
0.751323077709
0.786579538377
0.804888184191
0.805221652849
0.806038634362
0.805221652849
0.793822310722
0.452068370956
0.0470554683249
0.000367952799857
7.9553369611e-07
7.92188834105e-07
7.94842718006e-07
7.9443370808e-07
9.37359114473e-07
3.9812456374e-06
0.0026622863212
0.0910503100758
0.155895596727
0.727465798411
0.764540409926
0.785323453829
0.800709110628
0.805405353702
0.805221652849
0.800707164639
0.714184275023
0.238141718206
0.0114147871012
2.32558368184e-05
7.92029180146e-07
7.94747182471e-07
7.92610108491e-07
8.01330732098e-07
1.08483568279e-06
2.79667104052e-06
0.014547397829
0.12948341306
0.134467397245
0.75150573905
0.768329910366
0.780887823374
0.791709807679
0.797635165761
0.793082665134
0.754848365002
0.498037932197
0.075921515915
0.00125667825533
7.92063410673e-07
7.94849656949e-07
7.92309850352e-07
7.94395530947e-07
8.6719889437e-07
1.37592467224e-06
1.34050128484e-05
0.0226619832556
0.189638051496
0.144730460524
0.757098553844
0.766351346722
0.772214673462
0.774806961226
0.768672172428
0.734099090168
0.596602811995
0.200156762849
0.00996389310782
2.97028675561e-05
7.95723130792e-07
8.0492190266e-07
7.93965017903e-07
7.92914281586e-07
1.0098325097e-06
1.71414293042e-06
4.19490971669e-06
0.00720923667701
0.23275182472
0.199365118637
0.754458411976
0.758369326013
0.756841017839
0.742759453698
0.695696325819
0.576799872157
0.32014493452
0.0335486106379
0.000303464619392
1.08562425314e-06
9.81248602489e-07
1.05259060004e-06
9.42946567968e-07
8.53575840365e-07
1.24204295883e-06
1.97022187504e-06
1.2626192503e-06
0.000387099807179
0.242224082192
0.22407483839
0.747298454901
0.744158443921
0.727567824895
0.669924320748
0.54058595407
0.325572225027
0.0784981656541
0.0013591204667
3.0497848579e-06
1.36373470325e-06
1.53313421152e-06
1.685682363e-06
1.53233853984e-06
1.34914901532e-06
1.96470887705e-06
2.64468405884e-06
1.25951081838e-06
0.000323167268152
0.370983711898
0.21133157098
0.742076634867
0.726963806471
0.670548106889
0.524331182959
0.301188082446
0.0933982402641
0.00518663519027
1.18495899358e-05
2.94678519457e-06
2.96871172242e-06
3.77425926167e-06
4.09447183337e-06
3.97447201885e-06
3.89971572195e-06
4.85497135614e-06
4.15833969073e-06
6.22851898864e-06
0.0108969699752
0.469504658688
0.125439686412
0.741845129469
0.715193239495
0.579902040679
0.307270049698
0.0885357223139
0.00861630108927
6.43600621524e-05
7.09040693191e-06
6.26902712743e-06
9.07651983551e-06
1.17717797721e-05
1.32515344776e-05
1.42143891448e-05
1.56661920226e-05
1.92479246093e-05
4.10220509989e-05
0.00210048082326
0.153648167064
0.46954242049
0.114149978305
0.741457100612
0.717904235134
0.461160905734
0.101481332908
0.00918147857162
0.000171515746392
1.35447607232e-05
1.07579125159e-05
1.57667144419e-05
2.42895198874e-05
3.2111643285e-05
3.83261127849e-05
4.81790172817e-05
9.14439649107e-05
0.000729677389617
0.0231985026702
0.238003694955
0.513682594784
0.3654372366
0.114167599198
0.741260462117
0.726759562127
0.436847738343
0.0401866276115
0.000311961262109
2.44961036178e-05
1.71975402936e-05
2.08689431985e-05
3.33808890481e-05
5.03854799359e-05
6.75409197799e-05
0.000108291283776
0.00066164917025
0.0226791703342
0.238476688085
0.52787039362
0.63485717402
0.618574565489
0.270693194439
0.114110195679
0.740857673501
0.730639008858
0.473234677245
0.0599646182234
0.000538978709133
3.15410866222e-05
3.42284465499e-05
4.66608210451e-05
6.79797557201e-05
9.60314893928e-05
0.00027306528633
0.0110999933455
0.210782947209
0.527269544289
0.632659591325
0.640187186654
0.638333393558
0.640569344028
0.326794599634
0.114127630241
0.738384345114
0.723391544286
0.531607805731
0.120760292702
0.00428696608688
0.000100568915417
0.000110841764361
0.000133532544946
0.000164963087776
0.000890468506841
0.0655735909585
0.412581739913
0.539519032156
0.540995457054
0.592855136475
0.638333393558
0.640979018012
0.638684290208
0.434494641251
0.114090270223
0.716019579975
0.689172097293
0.532440441209
0.201395723436
0.0235252378457
0.00114792771476
0.000561068870151
0.000568246990437
0.00219753243761
0.121640400325
0.508921034348
0.510714742942
0.480086973608
0.454087060983
0.495160238004
0.619790675925
0.638684290208
0.641599584753
0.520383445542
0.114114188694
0.645983665543
0.607395813045
0.495076000884
0.259356616961
0.0652220694586
0.0079142540527
0.00385472242907
0.00763346355281
0.14962544454
0.538173378065
0.558216256738
0.504728123429
0.436403650428
0.404783107266
0.422659849289
0.558476116413
0.639480726399
0.638905862302
0.588018986162
0.114072429255
0.520076904939
0.489737987549
0.423164483154
0.28250663462
0.116600146884
0.0367359281024
0.0460804405507
0.208291965994
0.533845780755
0.591058511792
0.558374811605
0.509571741132
0.445576471128
0.388423271516
0.377405262355
0.481384716355
0.62320910267
0.641825539753
0.633886271539
0.114100343273
0.400040901437
0.428591914054
0.404776739266
0.31994832381
0.218092628489
0.222090112939
0.38375772454
0.577159815587
0.617524702065
0.590931866797
0.562274759893
0.529909058312
0.475046777148
0.395171243043
0.351966057314
0.39312797431
0.574258247854
0.639301416709
0.640778200902
0.114060302004
0.415970679216
0.470854369342
0.470155743576
0.475390770132
0.522407749829
0.626235143176
0.707263516075
0.694037920808
0.643115463693
0.60369116199
0.575369345035
0.541047821851
0.496246187724
0.422300719599
0.339572782127
0.323363043052
0.509231396612
0.641265812839
0.639504304725
0.114101269735
0.591927232093
0.657161940696
0.686492763834
0.740624140477
0.7905786432
0.803467951624
0.773859059847
0.718712411444
0.666587885525
0.625874732597
0.587394346493
0.544526833396
0.498423185746
0.435809732742
0.344459528249
0.286249791625
0.425839383328
0.639519955448
0.640889642019
0.126777559861
0.823837962072
0.849761899872
0.862183033567
0.870944529573
0.860259496581
0.825979451573
0.776353435612
0.720915120935
0.673690669997
0.6325121962
0.589506934523
0.539775564509
0.48685361467
0.42723948665
0.34160845497
0.262234250035
0.349505191531
0.640087502982
0.639784920589
0.177704283248
0.908167235015
0.909787816166
0.906254305296
0.891220345699
0.864271171386
0.825083121912
0.774056049505
0.718749233903
0.671874778425
0.629362453231
0.583036805143
0.527012817166
0.466108618685
0.403302071676
0.323264169978
0.237822828071
0.279934743493
0.589387421663
0.640717457385
0.201635059843
0.91485169785
0.912680321155
0.904676670514
0.886666925115
0.858176838587
0.815938678107
0.761470623823
0.705427908847
0.657045603471
0.61137619527
0.560892243704
0.500100690864
0.432018161758
0.365307288051
0.288387065656
0.201696323186
0.224963908217
0.536789342186
0.639432880801
0.21362833628
0.914220078342
0.909774286971
0.898081591338
0.877858965977
0.847594736929
0.801532482153
0.741376896553
0.679833116414
0.625007178179
0.571815877218
0.513761134671
0.446306253869
0.371747793453
0.302675403204
0.235004455019
0.162008587523
0.201383745788
0.55755086312
0.63296841567
0.414798895846
)
;

boundaryField
{
    emptyPatch
    {
        type            empty;
    }
    minY
    {
        type            fixedValue;
        value           nonuniform List<scalar> 0();
    }
    maxY
    {
        type            inletOutlet;
        phi             phi.gas;
        inletValue      uniform 1;
        value           nonuniform List<scalar> 
40
(
0.840259463643
0.791285106991
0.76088479771
0.734900716487
0.716758040381
0.695269735699
0.658244325579
0.593808458311
0.496242583514
0.371533002617
0.249374699097
0.197603235322
0.197226745069
0.24292177744
0.483688019596
0.76454381375
0.881026517047
0.906306599719
0.912835298596
0.914999169477
0.914220078342
0.909774286971
0.898081591338
0.877858965977
0.847594736929
0.801532482153
0.741376896553
0.679833116414
0.625007178179
0.571815877218
0.513761134671
0.446306253869
0.371747793453
0.302675403204
0.235004455019
0.162008587523
0.201383745788
0.55755086312
0.63296841567
1
)
;
    }
    water_to_cooler
    {
        type            zeroGradient;
    }
    water_to_heater
    {
        type            zeroGradient;
    }
    procBoundary0to1
    {
        type            processor;
        value           nonuniform List<scalar> 
41
(
0.640942502105
0.634018226825
0.640942502105
0.636676994067
0.684240805678
0.724747102567
0.722241127322
0.704324575014
0.668718551071
0.615167225528
0.562333299935
0.537503592544
0.539912491752
0.552486236757
0.551858705191
0.526452981968
0.478747752794
0.411129596647
0.329698374833
0.268016245405
0.435249870751
0.392871999996
0.237485306047
0.0478803835402
0.00337413802342
0.0013904025094
0.00138252184434
0.00200510779581
0.092442206734
0.237518548229
0.218332444976
0.110654055253
0.0477460012783
0.0432577997202
0.0271526974546
0.00825045664299
0.265730540258
0.292052115115
0.360025342933
0.399647139382
0.399647139382
)
;
    }
}


// ************************************************************************* //
