/*--------------------------------*- C++ -*----------------------------------*\
| =========                 |                                                 |
| \\      /  F ield         | OpenFOAM: The Open Source CFD Toolbox           |
|  \\    /   O peration     | Version:  2312                                  |
|   \\  /    A nd           | Website:  www.openfoam.com                      |
|    \\/     M anipulation  |                                                 |
\*---------------------------------------------------------------------------*/
FoamFile
{
    version     2.0;
    format      ascii;
    arch        "LSB;label=32;scalar=64";
    class       volScalarField;
    location    "0.49/water";
    object      d.gas;
}
// * * * * * * * * * * * * * * * * * * * * * * * * * * * * * * * * * * * * * //

dimensions      [0 1 0 0 0 0 0];

internalField   nonuniform List<scalar> 
1504
(
0.00498452966121
0.0049845280319
0.00498451439081
0.00498451154025
0.00498451267544
0.0049845162066
0.0049845206288
0.00498452661931
0.0049845399726
0.00498456113345
0.00498457560035
0.00498458829519
0.00498459926953
0.00498461369349
0.00498463686059
0.0049846488363
0.00498464843343
0.00498464486335
0.0049846444755
0.00498465164283
0.00498463535179
0.00498463444998
0.00498461218846
0.00498460793878
0.0049846104278
0.00498461589157
0.00498462271941
0.00498463401365
0.00498465732311
0.00498468085945
0.00498469902223
0.00498471383343
0.00498473119651
0.004984750952
0.00498477504539
0.00498479247024
0.00498479372707
0.00498479382051
0.00498479656897
0.00498480650546
0.00498474004484
0.00498474402464
0.00498471914046
0.00498471665396
0.00498472301065
0.00498473238046
0.00498474425364
0.00498476622328
0.00498479604318
0.00498482059402
0.00498483899117
0.00498485949866
0.00498487966038
0.0049849036115
0.00498493739593
0.00498495076443
0.00498495586145
0.00498496093201
0.0049849656085
0.00498497575029
0.00498486069631
0.0049848769004
0.00498485001891
0.00498484808965
0.00498485745152
0.00498487069636
0.00498489110563
0.0049849241527
0.00498495563015
0.00498497721557
0.00498500121405
0.00498502427828
0.00498504889641
0.00498508321152
0.00498511194359
0.00498512672248
0.0049851381553
0.00498514717197
0.00498515160144
0.00498516003215
0.00498497739923
0.00498500920398
0.00498499076416
0.00498499348095
0.00498500913829
0.00498503147558
0.00498506678757
0.00498510437977
0.00498512849778
0.00498515567769
0.0049851813882
0.00498520918531
0.00498524071573
0.00498527418131
0.00498530530618
0.00498532290498
0.00498533973009
0.0049853505615
0.00498535417337
0.00498536110498
0.00498510832269
0.00498516253077
0.00498514145251
0.00498515206944
0.00498518065858
0.00498521940341
0.00498526268731
0.00498529068945
0.00498532152217
0.00498535048201
0.00498538132674
0.00498541621921
0.00498545020842
0.00498549086228
0.00498551784782
0.00498554064511
0.00498556190339
0.00498557388355
0.00498557923607
0.00498558608629
0.00498524684282
0.00498532361068
0.00498531384165
0.00498533786929
0.0049853808918
0.00498542846359
0.00498546467938
0.00498550170479
0.00498553611266
0.00498557239159
0.00498561249798
0.00498564933872
0.00498569317777
0.0049857295181
0.00498576032183
0.00498578950182
0.00498581405814
0.00498582882908
0.00498583787313
0.00498584352659
0.00498541086925
0.00498552112169
0.00498553687517
0.00498556584323
0.00498561147063
0.00498566058462
0.00498571177181
0.00498575617824
0.00498579877519
0.00498584773771
0.00498588830937
0.00498593405654
0.00498597333356
0.00498600993585
0.00498604372172
0.00498607710653
0.0049861030909
0.00498612074597
0.00498613180528
0.00498613560013
0.00498575957079
0.00498591361606
0.00498593872978
0.0049859590247
0.00498599396132
0.00498604288205
0.00498609461068
0.00498614022296
0.00498619243385
0.0049862313689
0.00498626523631
0.00498629493445
0.00498632408859
0.00498635080812
0.00498637853493
0.00498640411972
0.00498642481613
0.00498644103256
0.00498644944476
0.0049864532321
0.00498663767132
0.00498681571353
0.00498683294467
0.00498682277541
0.00498680788451
0.00498679600277
0.00498679146553
0.00498679193294
0.00498678502088
0.00498677338009
0.0049867644079
0.00498676155398
0.00498676086194
0.00498676120132
0.00498676252065
0.00498676457336
0.00498676815186
0.00498677335139
0.0049867747634
0.00498677316785
0.00498765174133
0.00498776059529
0.00498772245921
0.00498769944862
0.00498767696961
0.00498764071056
0.00498758563409
0.00498751610804
0.00498744415217
0.00498737875251
0.00498732378824
0.00498727804808
0.00498723805436
0.00498720189884
0.00498716887124
0.00498713994954
0.00498711740549
0.00498710332098
0.00498709391168
0.0049870821464
0.00498809851129
0.00498810887933
0.0049880757844
0.00498806471436
0.00498806050065
0.00498805350806
0.00498803333802
0.00498799095575
0.00498792843433
0.00498785781487
0.00498778605047
0.00498771703416
0.00498765325609
0.00498759408002
0.00498753940822
0.00498748947113
0.00498744580964
0.00498741281421
0.00498739287127
0.00498737474435
0.00498824517607
0.00498822819027
0.00498820568643
0.00498819854325
0.00498819794197
0.00498819978046
0.00498820033336
0.00498819349791
0.00498817091745
0.00498813166704
0.00498807895054
0.00498801706095
0.00498795340825
0.00498789176365
0.00498783348495
0.0049877790092
0.00498772877622
0.00498768599849
0.00498765695348
0.00498763582165
0.00498833557007
0.00498831949323
0.00498830106153
0.00498829394318
0.0049882928825
0.00498829415809
0.00498829613969
0.0049882966902
0.00498829083845
0.00498827320402
0.00498824343294
0.00498820221655
0.00498815344761
0.00498810255085
0.00498805213353
0.00498800349744
0.00498795768623
0.00498791598353
0.00498788302388
0.00498786195596
0.00498840950734
0.00498839924171
0.00498838689792
0.00498838209168
0.00498838149705
0.00498838254774
0.00498838359625
0.00498838413425
0.00498838115118
0.00498837050699
0.0049883520365
0.00498832600522
0.00498829302559
0.00498825600323
0.00498821706947
0.00498817812327
0.00498814068718
0.0049881064458
0.00498807703658
0.0049880574582
0.0049885041503
0.0049884910369
0.00498847450542
0.00498846821875
0.00498846687847
0.00498846760921
0.00498846847064
0.00498846865683
0.0049884659089
0.00498845729788
0.00498844322864
0.00498842494533
0.00498840289674
0.00498837758133
0.00498834935336
0.00498832012609
0.00498829155545
0.00498826594675
0.00498824452702
0.00498822722468
0.00498857254876
0.00498856404366
0.00498854892899
0.00498854423631
0.00498854418569
0.00498854550417
0.00498854677241
0.00498854687303
0.00498854439007
0.00498853698848
0.00498852570942
0.00498851261505
0.00498849861892
0.00498848245159
0.00498846282514
0.0049884417898
0.004988421117
0.00498840322599
0.00498839019512
0.00498837645871
0.00498864359124
0.00498863887893
0.00498862422124
0.00498861949231
0.00498861897452
0.00498861999714
0.00498862066553
0.00498862049303
0.00498861793025
0.00498861143861
0.00498860256994
0.00498859362654
0.00498858587762
0.00498857714383
0.00498856458212
0.00498855054282
0.00498853706184
0.00498852584894
0.0049885201617
0.00498851533071
0.00498869558406
0.00498869811236
0.00498868870045
0.00498868594794
0.00498868646274
0.00498868756759
0.00498868840712
0.00498868782424
0.00498868508866
0.00498867924814
0.00498867213327
0.00498866641841
0.00498866480705
0.00498866353617
0.00498865765437
0.00498865080023
0.0049886441812
0.00498863809769
0.00498864059463
0.00498864635527
0.00498875168769
0.00498876093092
0.00498875366427
0.00498875133138
0.00498875130543
0.00498875209504
0.00498875202552
0.00498875045936
0.00498874668354
0.00498874066543
0.00498873506527
0.00498873355593
0.00498873973606
0.00498874607987
0.00498874718813
0.00498874779917
0.00498874692835
0.00498874783132
0.0049887584658
0.00498877345936
0.00498880428204
0.0049888182242
0.00498880955172
0.00498880841904
0.00498880958552
0.00498881055947
0.00498881046859
0.00498880838254
0.00498880413387
0.00498879922544
0.00498879687707
0.0049888019167
0.00498881769065
0.0049888311392
0.0049888396427
0.00498884758421
0.00498885185617
0.00498885772707
0.00498887517131
0.00498889923403
0.00498886628779
0.00498888750199
0.00498887192709
0.00498886996567
0.0049888708573
0.00498887185003
0.00498887152157
0.0049888692079
0.00498886560349
0.00498886318937
0.00498886551343
0.00498888026587
0.00498890554803
0.00498892429154
0.00498894173449
0.00498895479891
0.00498896189591
0.00498897425387
0.00498899862761
0.00498902800086
0.00498893935063
0.00498896675404
0.00498894657859
0.00498894406976
0.00498894604285
0.00498894794642
0.00498894804095
0.00498894625696
0.00498894439494
0.00498894501857
0.00498895397173
0.00498898231364
0.00498901452256
0.00498903969907
0.00498906475294
0.00498907652734
0.0049890855221
0.00498910190191
0.00498913115063
0.00498916508954
0.00498904361438
0.00498907962331
0.00498905683264
0.00498905319531
0.00498905643477
0.00498905936181
0.00498906003604
0.00498905935258
0.00498905922848
0.00498906384428
0.00498908521161
0.00498912392553
0.00498915750574
0.00498919189968
0.00498921132612
0.00498921502605
0.00498922594312
0.00498924883245
0.00498928058242
0.00498931277297
0.00498918706623
0.00498923175466
0.004989213643
0.00498921040412
0.0049892147646
0.00498921817528
0.00498921927635
0.00498921936187
0.00498922129772
0.00498923342829
0.0049892670689
0.00498930614631
0.00498934596682
0.00498937526916
0.00498937506101
0.00498937483903
0.00498939005509
0.00498941310757
0.00498944190439
0.00498947081176
0.00498936090373
0.00498941471904
0.00498939208703
0.00498939191924
0.00498939926722
0.00498940445692
0.00498940785366
0.00498941164575
0.0049894208022
0.00498944649053
0.00498948606727
0.00498953043063
0.00498956835194
0.00498956697678
0.00498955425267
0.00498955687349
0.00498957500174
0.00498959565443
0.00498961943229
0.00498964133498
0.00498955008107
0.00498961907608
0.00498958990336
0.00498959008037
0.0049895973732
0.00498960368117
0.00498961175892
0.00498962434039
0.00498964773524
0.00498968637367
0.00498973315413
0.00498977591573
0.00498977815332
0.00498975899921
0.00498975007039
0.00498975936536
0.00498977742372
0.00498979250912
0.00498980669318
0.00498982604671
0.00498977822663
0.00498986506592
0.00498982687578
0.00498982126218
0.00498982353611
0.00498982876939
0.00498984148347
0.00498986380445
0.00498989837184
0.00498994110945
0.00498998071193
0.00498999079423
0.00498997585566
0.00498996375635
0.00498996252685
0.0049899750058
0.00498998827961
0.0049899977317
0.00499000840898
0.00499002896105
0.00499011296667
0.00499019811197
0.00499015603862
0.00499013630715
0.00499012653236
0.0049901233798
0.00499012898741
0.00499014514442
0.00499016994968
0.00499019498334
0.00499020984876
0.00499020484613
0.00499019544756
0.00499018832038
0.00499018876776
0.00499019843713
0.00499020780495
0.00499021458594
0.00499022465357
0.00499024641269
0.00499054313884
0.00499058888907
0.00499054596175
0.00499051759813
0.00499049473935
0.00499047359443
0.00499045558819
0.00499044575398
0.0049904445684
0.00499044537426
0.00499044303769
0.00499043374211
0.00499042268292
0.00499041327082
0.00499041263375
0.00499041894528
0.0049904251829
0.00499043088758
0.00499044279789
0.00499046038899
0.0049908076881
0.00499080670398
0.00499078205268
0.00499076657168
0.00499075500498
0.00499073785998
0.00499071367886
0.00499069001548
0.00499067132455
0.00499065733437
0.00499064346162
0.00499062934116
0.00499061666592
0.00499060970207
0.00499061112151
0.00499061782281
0.00499062451358
0.00499063237187
0.00499064514478
0.00499066868932
0.00499085543683
0.00499085644186
0.00499085315637
0.0049908494903
0.00499085258137
0.00499085563595
0.00499084815155
0.00499083293395
0.00499081692827
0.00499080350507
0.00499079023454
0.00499077855595
0.0049907710952
0.00499077075232
0.00499077795468
0.00499078920375
0.00499080116488
0.00499081584193
0.00499083761612
0.0049908658141
0.00499088703644
0.0049908875914
0.00499088743594
0.00499088589637
0.00499088977581
0.00499089904953
0.0049909042468
0.00499090309656
0.00499090252477
0.00499090438559
0.00499090454985
0.00499090369863
0.00499090481888
0.00499091106307
0.00499092350778
0.00499093925433
0.0049909570381
0.00499097873833
0.00499100547796
0.00499104393107
0.0049909146712
0.00499091500145
0.00499091412817
0.00499091269128
0.0049909160649
0.00499092592495
0.00499093624273
0.00499094545143
0.00499096101042
0.00499097921271
0.00499099234602
0.00499100353449
0.00499101767657
0.00499103309381
0.00499105006811
0.00499106864968
0.00499108993744
0.00499111684163
0.00499115238725
0.00499119677448
0.00499094403809
0.00499094951495
0.0049909436399
0.00499094126824
0.00499094465972
0.00499095404785
0.00499096522136
0.00499097875343
0.00499100465206
0.00499103545042
0.00499105554492
0.00499107608333
0.00499109703002
0.00499112062801
0.00499114632923
0.00499117059143
0.00499119623134
0.00499122726615
0.0049912662987
0.00499131550284
0.00499097282591
0.00499099643165
0.00499097284646
0.00499096653963
0.00499096960449
0.0049909779035
0.00499098811553
0.00499100603541
0.00499104374432
0.00499107892833
0.00499110611183
0.00499113019461
0.00499115748578
0.00499118689656
0.00499121635994
0.00499124855555
0.004991279926
0.00499131456313
0.00499135624078
0.00499140691489
0.00499100188632
0.00499105109921
0.00499100656879
0.00499099558604
0.0049909987413
0.00499100664485
0.00499101918301
0.0049910514878
0.0049910980957
0.00499113438952
0.0049911594518
0.00499118863228
0.00499121851598
0.00499124911379
0.00499128343804
0.00499131621724
0.00499135240176
0.00499138857973
0.00499142890889
0.00499147492122
0.004991036074
0.00499111416308
0.0049910621686
0.004991047077
0.00499105100943
0.00499106229666
0.0049910886472
0.00498452964349
0.00498453309771
0.00498453601649
0.00498453850251
0.00498454061342
0.00498454240658
0.0049845439524
0.00498454530619
0.00498454649318
0.00498454752645
0.00498454841786
0.00498454917712
0.00498454981084
0.00498455032292
0.00498455071031
0.00498455095803
0.00498455106684
0.00498466326344
0.00498467573808
0.00498468633786
0.00498469497398
0.00498470212489
0.00498470812967
0.00498471318957
0.00498471744987
0.00498472104748
0.00498472411263
0.00498472674009
0.00498472898717
0.00498473089604
0.00498473250187
0.00498473383387
0.00498473491521
0.00498473576237
0.00498473638803
0.00498473678901
0.00498473697478
0.00498482219341
0.00498483955968
0.0049848546383
0.00498486708593
0.00498487746254
0.00498488617691
0.00498489350284
0.00498489966152
0.00498490485904
0.0049849092748
0.00498491303624
0.00498491622963
0.00498491892191
0.0049849211687
0.00498492301613
0.00498492450115
0.0049849256539
0.00498492649582
0.00498492703908
0.00498492730651
0.00498499351468
0.00498501454723
0.00498503322498
0.0049850487649
0.0049850617824
0.00498507271652
0.00498508189418
0.00498508960275
0.00498509610691
0.00498510162485
0.00498510631126
0.00498511027728
0.00498511361073
0.00498511638424
0.00498511865784
0.0049851204802
0.00498512188866
0.00498512291571
0.00498512358106
0.0049851239257
0.00498517876603
0.0049852026802
0.00498522429003
0.00498524226364
0.00498525731485
0.00498526991784
0.00498528045559
0.0049852892833
0.00498529671919
0.00498530301444
0.00498530834776
0.00498531285151
0.00498531663021
0.00498531976981
0.00498532234095
0.00498532440028
0.00498532599241
0.00498532715169
0.00498532790744
0.00498532832108
0.00498538034414
0.00498540643852
0.00498543029382
0.00498544992752
0.00498546624658
0.00498547980233
0.00498549105113
0.00498550042325
0.00498550828756
0.00498551492366
0.00498552053042
0.00498552525628
0.00498552921728
0.00498553250783
0.00498553520469
0.00498553736886
0.004985539045
0.00498554026903
0.0049855410712
0.00498554153584
0.00498560390067
0.00498563011587
0.00498565466966
0.0049856745432
0.0049856908559
0.00498570425289
0.00498571525185
0.00498572434456
0.00498573193334
0.00498573831193
0.00498574368743
0.00498574821305
0.00498575200655
0.00498575516242
0.00498575775639
0.00498575984712
0.00498576147572
0.00498576266982
0.00498576345809
0.00498576394718
0.00498585646636
0.00498587852965
0.00498590074365
0.00498591844657
0.00498593276486
0.00498594437872
0.00498595379175
0.00498596150052
0.00498596789656
0.00498597325561
0.004985977768
0.00498598157165
0.00498598477009
0.00498598744495
0.00498598966041
0.00498599146439
0.0049859928856
0.00498599393789
0.00498599463881
0.00498599511457
0.00498614140605
0.00498615382751
0.00498616934114
0.00498618172386
0.00498619157196
0.00498619945358
0.00498620572923
0.00498621080334
0.00498621498906
0.00498621849664
0.00498622146477
0.00498622398939
0.00498622613956
0.00498622796811
0.004986229515
0.00498623080716
0.00498623185298
0.00498623264411
0.00498623317897
0.00498623359693
0.00498645220173
0.00498645217999
0.0049864565087
0.004986460561
0.00498646365439
0.00498646603384
0.00498646778869
0.00498646912733
0.00498647021611
0.00498647115327
0.00498647199198
0.00498647276133
0.00498647347684
0.00498647414788
0.00498647477863
0.00498647536596
0.00498647589176
0.00498647631825
0.00498647661851
0.00498647693485
0.00498676797242
0.00498676057276
0.00498675257764
0.00498674683648
0.00498674200378
0.00498673792657
0.00498673440196
0.00498673139381
0.00498672888928
0.00498672685124
0.00498672522992
0.00498672397403
0.00498672303542
0.00498672237162
0.00498672194451
0.00498672171591
0.0049867216357
0.0049867216371
0.00498672166047
0.00498672183934
0.00498707490972
0.00498706404839
0.00498704654268
0.00498703097077
0.00498701815101
0.00498700759537
0.0049869987974
0.0049869914571
0.00498698537472
0.00498698037509
0.00498697630439
0.00498697303075
0.00498697044194
0.00498696844373
0.00498696695556
0.00498696590402
0.00498696521081
0.00498696477778
0.00498696451782
0.00498696454238
0.00498736255339
0.00498734784191
0.00498732630508
0.00498730311863
0.00498728351522
0.00498726744637
0.00498725417141
0.00498724315501
0.00498723403319
0.00498722651275
0.00498722035244
0.00498721535294
0.00498721134905
0.00498720820316
0.00498720579927
0.0049872040348
0.00498720280468
0.00498720199138
0.00498720148017
0.00498720135159
0.00498761888733
0.00498760129072
0.00498758019472
0.00498755416421
0.00498753054222
0.00498751094307
0.0049874947373
0.00498748127651
0.00498747010557
0.00498746086502
0.00498745326347
0.00498744706203
0.00498744206326
0.00498743810273
0.00498743504176
0.00498743275822
0.00498743113349
0.00498743003342
0.00498742933243
0.0049874290742
0.00498784248333
0.00498782368779
0.00498780407363
0.00498777938171
0.00498775503556
0.00498773427224
0.00498771698496
0.0049877025614
0.00498769053918
0.00498768055132
0.0049876722996
0.00498766553798
0.0049876600623
0.00498765570081
0.00498765230788
0.00498764975486
0.00498764791547
0.00498764665574
0.00498764584411
0.00498764548982
0.00498803726358
0.00498801831848
0.00498800019366
0.0049879789615
0.00498795654252
0.00498793674446
0.0049879200652
0.00498790605509
0.00498789431171
0.00498788450652
0.00498787636861
0.00498786967179
0.0049878642261
0.00498785986992
0.00498785646445
0.00498785388529
0.00498785201201
0.00498785071379
0.00498784987026
0.00498784946138
0.00498820614244
0.00498818863227
0.00498817293464
0.00498815598143
0.00498813726885
0.00498812005786
0.00498810529048
0.00498809275945
0.00498808218098
0.00498807329824
0.00498806589047
0.00498805976893
0.00498805477266
0.00498805076216
0.00498804761559
0.00498804522183
0.00498804346986
0.0049880422439
0.00498804143824
0.00498804101162
0.00498835911127
0.00498834440659
0.00498833023145
0.00498831655609
0.00498830171093
0.00498828771096
0.00498827552233
0.00498826507056
0.0049882561902
0.00498824869847
0.00498824242617
0.0049882372254
0.00498823296815
0.00498822954193
0.00498822684627
0.0049882247878
0.00498822327386
0.00498822220132
0.00498822148495
0.00498822107285
0.00498850321112
0.00498848888521
0.00498847623605
0.00498846511876
0.00498845383403
0.00498844316616
0.0049884338718
0.00498842580779
0.00498841890841
0.00498841306719
0.00498840816358
0.00498840408845
0.00498840074665
0.00498839805312
0.00498839593325
0.00498839431386
0.00498839311377
0.00498839224783
0.00498839165246
0.00498839127598
0.00498863909471
0.0049886261053
0.00498861479662
0.00498860547372
0.0049885971687
0.00498858971215
0.0049885833928
0.00498857785363
0.00498857306576
0.00498856900147
0.0049885655857
0.00498856274469
0.00498856041439
0.00498855853821
0.00498855706638
0.00498855594185
0.00498855509724
0.0049885544672
0.00498855401215
0.00498855368636
0.00498877088805
0.00498875889316
0.00498874844762
0.00498874028576
0.00498873458951
0.00498873024405
0.00498872694234
0.00498872402659
0.004988721424
0.00498871919598
0.00498871732007
0.00498871575925
0.00498871448034
0.004988713456
0.00498871265732
0.00498871204647
0.00498871157872
0.00498871120333
0.00498871090226
0.00498871063988
0.00498890075745
0.00498888847876
0.00498887908443
0.00498887255279
0.00498886938192
0.00498886802241
0.00498886765189
0.00498886736794
0.00498886693693
0.00498886651278
0.00498886614393
0.00498886583471
0.00498886558405
0.00498886538744
0.00498886524361
0.00498886514011
0.00498886504833
0.00498886493433
0.00498886479314
0.00498886460056
0.00498903128562
0.00498902168566
0.00498901480675
0.00498900875163
0.00498900688916
0.00498900752854
0.00498900938543
0.00498901133452
0.0049890128062
0.00498901395843
0.00498901491274
0.00498901570806
0.00498901636887
0.00498901691069
0.00498901734995
0.00498901770073
0.0049890179558
0.00498901809001
0.00498901810612
0.00498901798541
0.0049891708811
0.00498916415212
0.00498915771791
0.00498915219541
0.00498915071958
0.00498915225029
0.00498915543193
0.004989158954
0.00498916187684
0.0049891642362
0.00498916621309
0.00498916787299
0.00498916925344
0.00498917038798
0.00498917130379
0.00498917203231
0.0049891725856
0.00498917295155
0.0049891731229
0.00498917307741
0.00498931956071
0.00498931715499
0.00498931225694
0.00498930591395
0.00498930346087
0.00498930476678
0.00498930829063
0.00498931257343
0.00498931640255
0.00498931953593
0.00498932217311
0.00498932440378
0.00498932626863
0.00498932780509
0.00498932905414
0.00498933005769
0.00498933084998
0.00498933142545
0.00498933175857
0.00498933181317
0.00498948155523
0.00498948402949
0.0049894783756
0.00498947047125
0.00498946618539
0.00498946651917
0.0049894696214
0.00498947393017
0.00498947810253
0.00498948156745
0.0049894844719
0.00498948693986
0.00498948901651
0.00498949073858
0.00498949214873
0.00498949330104
0.00498949424963
0.00498949500646
0.00498949551701
0.00498949573125
0.00498965789875
0.00498966441995
0.00498965476694
0.00498964522618
0.00498963963351
0.00498963887324
0.0049896410521
0.00498964475055
0.00498964861976
0.004989651867
0.00498965454288
0.00498965680999
0.00498965872836
0.00498966033673
0.00498966167635
0.00498966279998
0.0049896637739
0.00498966462885
0.0049896653035
0.00498966576116
0.00498985015236
0.0049898574237
0.00498984778271
0.00498983799889
0.00498982883082
0.00498982532105
0.00498982535749
0.0049898273233
0.0049898298402
0.00498983200534
0.00498983372064
0.0049898351569
0.00498983639294
0.0049898374679
0.00498983840787
0.00498983923622
0.00498983999788
0.00498984075483
0.00498984148671
0.00498984225546
0.00499005833075
0.00499006842143
0.0049900563225
0.00499004308624
0.00499003199816
0.00499002588231
0.00499002332046
0.00499002277551
0.00499002299831
0.00499002318882
0.00499002316578
0.00499002309144
0.0049900230705
0.00499002312825
0.00499002324312
0.00499002337789
0.0049900235362
0.00499002383072
0.0049900243757
0.00499002555696
0.0049902764559
0.00499028614276
0.00499027605143
0.00499026437347
0.0049902508865
0.00499024167335
0.00499023603448
0.0049902323615
0.00499022957683
0.00499022705089
0.00499022462731
0.00499022246309
0.00499022067035
0.0049902192499
0.00499021812536
0.00499021716986
0.00499021636103
0.00499021576846
0.00499021559201
0.00499021721482
0.00499049291617
0.00499051136344
0.00499050457324
0.00499049259474
0.00499048074284
0.00499047062806
0.00499046314946
0.00499045696755
0.00499045134509
0.00499044603105
0.00499044104521
0.00499043655689
0.00499043265951
0.00499042938556
0.0049904267865
0.00499042502225
0.00499042395547
0.00499042310033
0.0049904217463
0.0049904246236
0.00499070994869
0.00499073271853
0.00499073391566
0.00499072864048
0.00499072097156
0.00499071282037
0.00499070567633
0.00499069870073
0.00499069142876
0.00499068398153
0.00499067658576
0.00499066936802
0.00499066245319
0.00499065604233
0.00499065083875
0.00499064705867
0.00499064441891
0.00499064247928
0.00499064066784
0.00499064428475
0.00499091267059
0.00499095150385
0.0049909629564
0.00499096316713
0.00499096368999
0.0049909632313
0.00499096145207
0.00499095772304
0.00499095203694
0.00499094483196
0.00499093664764
0.00499092772757
0.00499091826811
0.00499090870655
0.00499089908012
0.00499089055388
0.00499088410297
0.00499087966552
0.00499087694867
0.00499088095966
0.00499110358675
0.00499115143583
0.00499117267178
0.00499118423712
0.00499119760625
0.00499120863696
0.00499121713245
0.00499122217115
0.00499122260888
0.00499121815807
0.00499121008515
0.00499120025011
0.00499118921884
0.00499117521767
0.00499115983998
0.00499114523033
0.00499113317739
0.00499112513133
0.00499112044393
0.00499112336963
0.00499125863431
0.00499131754638
0.00499134579041
0.0049913686607
0.00499139130228
0.00499141115356
0.00499142863313
0.00499144408339
0.00499145451759
0.00499145811514
0.00499145379997
0.00499144213801
0.00499142432471
0.00499140630906
0.00499139103049
0.00499137904136
0.00499135943921
0.00499134379401
0.00499133470324
0.0049913347286
0.00499138088675
0.00499143968478
0.00499147548078
0.00499150118156
0.00499152625996
0.00499154946383
0.00499156677591
0.00499157743239
0.00499158401668
0.00499158690734
0.00499158321699
0.00499156759869
0.00499154077109
0.00499151413795
0.00499151373065
0.00499149215505
0.00499146851898
0.00499145902875
0.00499145387408
0.00499145396392
0.00499146546797
0.00499152080935
0.00499156334853
0.00499159409617
0.00499161732197
0.00499163806345
0.00499165538397
0.00499166696635
0.0049916708397
0.00499166285537
0.00499164246514
0.00499161101014
0.00499157592399
0.00499156429763
0.00499154950468
0.00499148903801
0.0049915027714
0.00499152968762
0.00499154577488
0.00499155418201
0.00499152570405
0.00499157674013
0.00499162309593
0.00499166127378
0.00499169147151
0.0049917180547
0.00499174193867
0.0049917647749
0.00499178373569
0.00499180002097
0.00499182079319
0.00499186039173
0.00499195369735
0.00499199180503
0.0049919767781
0.00499194365226
0.00499191628571
0.00499188957578
0.004991874787
0.00499186990972
)
;

boundaryField
{
    emptyPatch
    {
        type            empty;
    }
    minY
    {
        type            calculated;
        value           nonuniform List<scalar> 0();
    }
    maxY
    {
        type            calculated;
        value           nonuniform List<scalar> 0();
    }
    water_to_cooler
    {
        type            calculated;
        value           nonuniform List<scalar> 
38
(
0.00498455106684
0.00498473697478
0.00498492730651
0.0049851239257
0.00498532832108
0.00498554153584
0.00498576394718
0.00498599511457
0.00498623359693
0.00498647693485
0.00498672183934
0.00498696454238
0.00498720135159
0.0049874290742
0.00498764548982
0.00498784946138
0.00498804101162
0.00498822107285
0.00498839127598
0.00498855368636
0.00498871063988
0.00498886460056
0.00498901798541
0.00498917307741
0.00498933181317
0.00498949573125
0.00498966576116
0.00498984225546
0.00499002555696
0.00499021721482
0.0049904246236
0.00499064428475
0.00499088095966
0.00499112336963
0.0049913347286
0.00499145396392
0.00499155418201
0.00499186990972
)
;
    }
    water_to_heater
    {
        type            calculated;
        value           nonuniform List<scalar> 
60
(
0.00498451977487
0.00498455347219
0.00498463386123
0.00498473850552
0.00498483340233
0.00498486770604
0.00498495883845
0.00498499273651
0.00498509809436
0.00498513245165
0.00498524515385
0.00498540918272
0.00498572155518
0.00498577012596
0.00498660971487
0.00498666250608
0.00498763733789
0.00498768838052
0.00498809671031
0.0049882432446
0.00498830732304
0.00498834233444
0.004988390196
0.00498842478614
0.00498849337336
0.00498852834467
0.00498857046892
0.00498864149585
0.00498866763175
0.00498870204667
0.00498873204727
0.00498876700847
0.0049887934524
0.00498882792696
0.00498886404829
0.00498893705841
0.00498901504488
0.00498905003117
0.00498916722398
0.00498920215539
0.00498934972034
0.00498938476152
0.00498954763418
0.00498977580693
0.0049900773616
0.00499012161181
0.00499051993898
0.00499056124929
0.00499079702273
0.00499082869607
0.00499085274317
0.00499088434363
0.00499088869415
0.00499091975008
0.00499092605481
0.00499095657922
0.00499096232803
0.00499099339339
0.00499099910676
0.00499103325608
)
;
    }
    procBoundary3to1
    {
        type            processor;
        value           nonuniform List<scalar> 
41
(
0.00499113813111
0.00499118402305
0.00499120820225
0.00499123640525
0.00499126410594
0.00499129337362
0.00499132647933
0.00499135793024
0.0049913939172
0.00499142715333
0.00499146232434
0.00499149825177
0.00499153764865
0.00499107588918
0.00499117878372
0.00499114795017
0.00499113892122
0.00499115248749
0.00499117876067
0.00499113813111
0.00499122335542
0.00499158012563
0.0049916233946
0.00499166483175
0.00499170223376
0.00499173471575
0.00499176298826
0.00499178858169
0.00499181182688
0.00499183326525
0.00499185880287
0.00499191822606
0.00499203357975
0.00499204486853
0.00499203140713
0.0049920304303
0.00499203766941
0.00499202651258
0.00499201357499
0.00499200602854
0.00499200286611
)
;
    }
    procBoundary3to2
    {
        type            processor;
        value           nonuniform List<scalar> 
41
(
0.00498445119496
0.00498444960388
0.00498444018466
0.00498443720116
0.00498443667772
0.00498443794064
0.00498443957107
0.00498444105143
0.00498444590748
0.00498445878147
0.00498447165571
0.0049844779954
0.00498448617779
0.00498449486431
0.00498450737301
0.00498451851979
0.00498451527523
0.00498450882373
0.00498450526457
0.00498450799195
0.00498436763668
0.00498436716604
0.00498436682854
0.00498436660737
0.00498436646389
0.00498436637188
0.00498436633483
0.00498436636454
0.00498436645238
0.004984366581
0.00498436673651
0.00498436690788
0.00498436708442