/*--------------------------------*- C++ -*----------------------------------*\
| =========                 |                                                 |
| \\      /  F ield         | OpenFOAM: The Open Source CFD Toolbox           |
|  \\    /   O peration     | Version:  2312                                  |
|   \\  /    A nd           | Website:  www.openfoam.com                      |
|    \\/     M anipulation  |                                                 |
\*---------------------------------------------------------------------------*/
FoamFile
{
    version     2.0;
    format      ascii;
    arch        "LSB;label=32;scalar=64";
    class       surfaceScalarField;
    location    "0.95/water";
    object      phi;
}
// * * * * * * * * * * * * * * * * * * * * * * * * * * * * * * * * * * * * * //

dimensions      [0 3 -1 0 0 0 0];

oriented        oriented;

internalField   nonuniform List<scalar> 
2928
(
7.81465980979e-08
1.98483501553e-07
5.37886326939e-08
1.4977024531e-07
3.98563917905e-08
1.47616490233e-07
3.08599700218e-08
1.49627284694e-07
2.45543059591e-08
1.53930300145e-07
2.01095350066e-08
1.59367901108e-07
1.694916418e-08
1.65738338737e-07
1.4598244906e-08
1.72961494017e-07
1.26520778464e-08
1.80986213323e-07
1.08956489143e-08
1.89642409758e-07
9.27146220479e-09
1.98793172396e-07
7.78196964129e-09
2.08400121717e-07
6.43772689766e-09
2.18477838003e-07
5.24299787334e-09
2.29056372541e-07
4.1933361566e-09
2.40169410076e-07
3.27696919261e-09
2.51850447716e-07
2.47740465542e-09
2.64131703309e-07
1.77581867974e-09
2.77044334378e-07
1.15262047299e-09
2.9061938556e-07
3.04890161499e-07
5.86663451586e-10
1.13455847364e-07
2.52832092485e-07
7.79990897891e-08
1.77597360518e-07
6.09005201366e-08
1.63174781634e-07
4.91627855186e-08
1.61127532247e-07
4.01594120975e-08
1.62898179332e-07
3.32799075912e-08
1.66242364962e-07
2.79708999036e-08
1.71046593458e-07
2.38715113793e-08
1.77060766651e-07
2.07291598973e-08
1.84128555445e-07
1.81821954848e-08
1.92189368372e-07
1.59421073696e-08
2.01033261194e-07
1.38648785105e-08
2.10477346407e-07
1.1902313875e-08
2.20440403183e-07
1.00500244431e-08
2.30908658795e-07
8.31751039273e-09
2.41901924663e-07
6.71313692665e-09
2.53454818749e-07
5.23773502098e-09
2.65607105651e-07
3.88290165991e-09
2.7839916589e-07
2.63130009364e-09
2.91870987504e-07
3.06064566802e-07
1.4568932101e-09
1.16661408541e-07
2.9768607603e-07
7.55045139497e-08
2.08977650757e-07
5.62875067272e-08
1.8034058563e-07
4.52140197916e-08
1.71836998362e-07
3.75008101174e-08
1.70549184779e-07
3.18954280795e-08
1.71836375096e-07
2.78840348256e-08
1.75055701835e-07
2.47615592158e-08
1.80182774215e-07
2.21571086137e-08
1.8673293856e-07
1.99251978514e-08
1.94421268798e-07
1.79108995678e-08
2.03047560981e-07
1.59987399822e-08
2.12389501348e-07
1.4125998999e-08
2.2231314514e-07
1.22709813309e-08
2.32763672928e-07
1.04373704757e-08
2.43735536137e-07
8.64003510234e-09
2.55252151468e-07
6.8942931828e-09
2.67352847984e-07
5.20892922035e-09
2.80084527872e-07
3.58257363085e-09
2.93497343476e-07
3.07644552803e-07
2.00258593492e-09
1.37235078838e-07
3.16429665589e-07
9.0349616075e-08
2.42205338804e-07
6.45323514617e-08
2.02822819986e-07
4.85302790677e-08
1.87172933648e-07
3.77447200434e-08
1.81212264317e-07
3.02868421387e-08
1.79269886497e-07
2.54867778473e-08
1.79850142956e-07
2.25108775046e-08
1.83157329316e-07
2.03954578904e-08
1.88848102087e-07
1.8651518285e-08
1.96165174292e-07
1.70574087226e-08
2.04641670546e-07
1.55040067682e-08
2.13942897655e-07
1.39355995483e-08
2.23881552732e-07
1.23253384546e-08
2.34373929987e-07
1.06666703355e-08
2.45394204672e-07
8.96693153069e-09
2.56951887324e-07
7.24032557202e-09
2.69079454306e-07
5.50098994915e-09
2.81823861399e-07
3.75769207981e-09
2.95240641715e-07
3.09391147648e-07
2.01109546551e-09
1.48601379068e-07
3.20595907263e-07
1.07339851861e-07
2.67074034051e-07
7.74881019011e-08
2.27762084374e-07
5.65311511772e-08
2.06937248142e-07
4.13978988166e-08
1.9609031117e-07
3.07629188783e-08
1.89849315846e-07
2.38978829915e-08
1.86701459195e-07
2.00714055085e-08
1.86980288631e-07
1.79351995752e-08
1.90983556336e-07
1.64464436006e-08
1.9765382036e-07
1.51540169126e-08
2.05934095342e-07
1.38916099876e-08
2.15205298527e-07
1.25952390138e-08
2.2517792519e-07
1.12344666348e-08
2.35734697947e-07
9.79540606362e-09
2.4683326615e-07
8.27617814722e-09
2.58471112024e-07
6.68361305861e-09
2.70672019962e-07
5.02884573109e-09
2.83478626394e-07
3.32279671457e-09
2.96946691249e-07
3.11140863642e-07
1.57307875464e-09
1.53959925194e-07
3.18322229836e-07
1.21651285006e-07
2.82000945666e-07
9.26043411942e-08
2.5076598699e-07
6.91217592604e-08
2.28657236634e-07
4.99637324222e-08
2.14792264363e-07
3.5077207855e-08
2.04619093743e-07
2.4672619426e-08
1.97073389224e-07
1.86375854815e-08
1.93006102101e-07
1.57382503438e-08
1.93880738764e-07
1.42071268371e-08
1.99184599021e-07
1.30710609598e-08
2.0707013953e-07
1.19981551642e-08
2.1627819663e-07
1.08934830995e-08
2.26282597812e-07
9.72049253143e-09
2.36907683308e-07
8.46116745496e-09
2.48092591814e-07
7.10795899647e-09
2.59824316775e-07
5.66157763457e-09
2.72118401808e-07
4.1287159771e-09
2.85011485477e-07
2.51906838448e-09
2.98556339313e-07
3.12817246668e-07
8.42683224006e-10
1.52460664549e-07
3.18318027719e-07
1.267682659e-07
2.90660702546e-07
1.03261169873e-07
2.67867502214e-07
8.0700397123e-08
2.49093118798e-07
6.04369611586e-08
2.34410331452e-07
4.26012312134e-08
2.22256648053e-07
2.83964043554e-08
2.11211349597e-07
1.89889948999e-08
2.02390855191e-07
1.42822417222e-08
1.98581295944e-07
1.22820769533e-08
2.01183638405e-07
1.11605517454e-08
2.08191568479e-07
1.01963485928e-08
2.17242389389e-07
9.21172118182e-09
2.27267226636e-07
8.15931653243e-09
2.37960082092e-07
7.01992736705e-09
2.49231981922e-07
5.78476155276e-09
2.61059478438e-07
4.45216286866e-09
2.73451001106e-07
3.02637528127e-09
2.86437270115e-07
1.51593253806e-09
3.00066782649e-07
3.1440165777e-07
-6.84810045866e-11
1.50746574682e-07
3.21028368042e-07
1.28346433998e-07
2.96769511063e-07
1.09405479594e-07
2.80558360885e-07
8.97799402533e-08
2.66498451872e-07
7.05975981405e-08
2.52836534409e-07
5.2088292856e-08
2.40492670439e-07
3.52159477755e-08
2.2797122918e-07
2.20339152481e-08
2.15525205655e-07
1.42595218786e-08
2.06339118125e-07
1.09866540304e-08
2.04452738845e-07
9.62956926385e-09
2.09548222305e-07
8.67431683974e-09
2.1819761499e-07
7.72562013758e-09
2.28215923515e-07
6.71384157704e-09
2.38971853871e-07
5.62061482345e-09
2.50325209254e-07
4.43908458231e-09
2.62241003986e-07
3.16820198992e-09
2.74721884246e-07
1.81175993577e-09
2.87793708966e-07
3.77561630987e-10
3.01500981522e-07
3.15902291529e-07
-1.12307475501e-09
1.51879740423e-07
3.22457912593e-07
1.32428204792e-07
3.00074755998e-07
1.16380022982e-07
2.90357407562e-07
9.96564087398e-08
2.80941972139e-07
8.16621665224e-08
2.70006279805e-07
6.35341749457e-08
2.58291059478e-07
4.53925161538e-08
2.45954717821e-07
2.89290267541e-08
2.31906262923e-07
1.70240967627e-08
2.18206873621e-07
1.10408656819e-08
2.10424612341e-07
8.75579830083e-09
2.11831488888e-07
7.55490933047e-09
2.19398384736e-07
6.48851503611e-09
2.29282318322e-07
5.3963041965e-09
2.40064057317e-07
4.25129470546e-09
2.51470220128e-07
3.04555061062e-09
2.6344674299e-07
1.77742060825e-09
2.75990015177e-07
4.49154381995e-10
2.89121971621e-07
-9.33098735483e-10
3.02883235466e-07
3.17328451195e-07
-2.35926136128e-09
1.52610882975e-07
3.23628705049e-07
1.35070685032e-07
3.01472945979e-07
1.22211949705e-07
2.96874787688e-07
1.08721582467e-07
2.9206734274e-07
9.26672557258e-08
2.85167233687e-07
7.50361644359e-08
2.75540676993e-07
5.66444325959e-08
2.64144005458e-07
3.83237157382e-08
2.50104431012e-07
2.26210774129e-08
2.33840863069e-07
1.2772900955e-08
2.20244764204e-07
8.47917083814e-09
2.16118888081e-07
6.61676377603e-09
2.21260197178e-07
5.24857970622e-09
2.30650488205e-07
3.95461663302e-09
2.41358011708e-07
2.67382190049e-09
2.52751015794e-07
1.38863151677e-09
2.64731927578e-07
9.11525026645e-11
2.77287495054e-07
-1.220389383e-09
2.90433509604e-07
-2.54523293802e-09
3.04208079832e-07
3.18663827455e-07
-3.88061238898e-09
1.51784096978e-07
3.25632523597e-07
1.3592942132e-07
3.01438618827e-07
1.25940561141e-07
3.0056490246e-07
1.15087821418e-07
3.00531859714e-07
1.00741223415e-07
2.98586409126e-07
8.34470967822e-08
2.92419973281e-07
6.51731193417e-08
2.82182222299e-07
4.65808337497e-08
2.68538524737e-07
2.88887434009e-08
2.51429146573e-07
1.53067612697e-08
2.33772864046e-07
8.07597330018e-09
2.23332705907e-07
5.07552504979e-09
2.24258279266e-07
3.29813818296e-09
2.32427777999e-07
1.78070261209e-09
2.4287543706e-07
3.78575735394e-10
2.54153144156e-07
-9.46890909862e-10
2.66057387885e-07
-2.21672770982e-09
2.78557332999e-07
-3.44631929512e-09
2.91663096833e-07
-4.64606678581e-09
3.05407828362e-07
3.19840294438e-07
-5.82253734869e-09
1.50014241953e-07
3.30167747446e-07
1.345454446e-07
3.01451713028e-07
1.26282708924e-07
3.02701223393e-07
1.16575172332e-07
3.07882788451e-07
1.02896059268e-07
3.11324615202e-07
8.58940178488e-08
3.08983718029e-07
6.779195063e-08
3.0002275605e-07
4.98369394427e-08
2.86307125514e-07
3.21198391515e-08
2.6901175402e-07
1.64121743022e-08
2.49397676946e-07
6.18907113375e-09
2.33521367662e-07
1.69791812671e-09
2.28742505538e-07
-3.95965982844e-10
2.34521212391e-07
-1.94387233165e-09
2.44423326317e-07
-3.26080825529e-09
2.55470081031e-07
-4.42644818669e-09
2.67223020729e-07
-5.48354539138e-09
2.79614431258e-07
-6.46239871582e-09
2.92641945457e-07
-7.38622574857e-09
3.06331656409e-07
3.20726846986e-07
-8.27278211813e-09
1.4653539167e-07
3.38410177314e-07
1.29275943514e-07
3.04167408475e-07
1.1944336932e-07
3.06948386694e-07
1.09109807659e-07
3.16073461628e-07
9.56246365875e-08
3.23927631702e-07
7.94383016626e-08
3.24738639811e-07
6.23978298828e-08
3.16792128787e-07
4.58042570581e-08
3.0269823656e-07
2.91736556734e-08
2.8548683532e-07
1.31783093906e-08
2.65284944626e-07
1.04467514866e-09
2.45599385198e-07
-4.8056058597e-09
2.34577511581e-07
-6.79269591054e-09
2.36506810543e-07
-7.85451509879e-09
2.45485098393e-07
-8.64975347609e-09
2.56265320812e-07
-9.2845788302e-09
2.67857838448e-07
-9.81666263211e-09
2.80146516408e-07
-1.0286676548e-08
2.93111954219e-07
-1.07253434094e-08
3.0677032453e-07
3.21157561157e-07
-1.11560617979e-08
1.47729553707e-07
3.44995532186e-07
1.26022012803e-07
3.11361359163e-07
1.11016947418e-07
3.16570907706e-07
9.73211148356e-08
3.27778252087e-07
8.27508656456e-08
3.37687989239e-07
6.75326133646e-08
3.39548762047e-07
5.23635654488e-08
3.31692478093e-07
3.74218620146e-08
3.17430498e-07
2.21072757104e-08
3.00631414201e-07
6.4946546007e-09
2.80767839611e-07
-6.81862852696e-09
2.58834077908e-07
-1.4105317298e-08
2.41836087008e-07
-1.57664552279e-08
2.38163929306e-07
-1.56866907532e-08
2.45405161745e-07
-1.54117470732e-08
2.55990376833e-07
-1.50968960648e-08
2.6754297897e-07
-1.47838680745e-08
2.79833489619e-07
-1.45048367857e-08
2.92832917394e-07
-1.428355311e-08
3.06549042057e-07
3.21010555801e-07
-1.41365522337e-08
1.46432781392e-07
3.52333137212e-07
1.18452270324e-07
3.24860356239e-07
9.81540414519e-08
3.31590036295e-07
8.09233837325e-08
3.43138769186e-07
6.59448336061e-08
3.51926861873e-07
5.31515554631e-08
3.51961016559e-07
4.11148669993e-08
3.43466116505e-07
2.85452519226e-08
3.2978501724e-07
1.52310386084e-08
3.13761051455e-07
7.99246641835e-10
2.95047002915e-07
-1.3255543071e-08
2.72782544877e-07
-2.28301787316e-08
2.51362236387e-07
-2.51361758063e-08
2.40459748094e-07
-2.37623038987e-08
2.44030569557e-07
-2.20637544106e-08
2.54291816274e-07
-2.05788322255e-08
2.66058047548e-07
-1.92997716555e-08
2.78554430348e-07
-1.82186645557e-08
2.91751804213e-07
-1.73317930082e-08
3.05662171875e-07
3.20312319621e-07
-1.66335617538e-08
1.38459002642e-07
3.68375251836e-07
1.04420063085e-07
3.44531853281e-07
8.15490171377e-08
3.49283030803e-07
6.41579451904e-08
3.58743749562e-07
5.18477645821e-08
3.6354317968e-07
4.32378953665e-08
3.60204767985e-07
3.52978800529e-08
3.51142118661e-07
2.60878062219e-08
3.38769420191e-07
1.54470730627e-08
3.2419853716e-07
3.07372210375e-09
3.07240586482e-07
-1.10747967961e-08
2.86788859911e-07
-2.41144501524e-08
2.64319028987e-07
-3.00402027579e-08
2.46359418254e-07
-2.89373011425e-08
2.42924461715e-07
-2.62289707128e-08
2.51583372656e-07
-2.38600632916e-08
2.63689129094e-07
-2.19055666464e-08
2.7659993465e-07
-2.03053198651e-08
2.90151550839e-07
-1.90185603173e-08
3.04375413556e-07
3.19305518408e-07
-1.80117643483e-08
1.35764124669e-07
3.86460665194e-07
1.00843503642e-07
3.63398414441e-07
8.00073991699e-08
3.64416365142e-07
6.57798050173e-08
3.70997948503e-07
5.62963215676e-08
3.72266298978e-07
4.9814159655e-08
3.66296441116e-07
4.39707445932e-08
3.56707776567e-07
3.72597391789e-08
3.45240573953e-07
2.8892845018e-08
3.32343574437e-07
1.80622425233e-08
3.17865566574e-07
4.11470014289e-09
3.00555603936e-07
-1.22185275997e-08
2.80519947315e-07
-2.48463967498e-08
2.58925411375e-07
-2.78014696939e-08
2.45866508152e-07
-2.5763848541e-08
2.49544862954e-07
-2.34249299429e-08
2.61350184843e-07
-2.15158422519e-08
2.74690847681e-07
-1.99951832935e-08
2.8863088453e-07
-1.88079719183e-08
3.03188203494e-07
3.18404846212e-07
-1.79073054861e-08
1.43849109192e-07
3.97890308523e-07
1.14874172367e-07
3.75730765024e-07
9.64399223087e-08
3.76661657677e-07
8.41368158114e-08
3.81058169094e-07
7.55003648643e-08
3.80015468011e-07
6.88811606015e-08
3.72471699708e-07
6.2877153635e-08
3.62411257041e-07
5.64836205884e-08
3.51383681794e-07
4.90664074578e-08
3.39531281475e-07
3.9519655879e-08
3.27191644782e-07
2.61485338887e-08
3.13716503986e-07
8.75788630078e-09
2.97728117353e-07
-9.33093023139e-09
2.76896424269e-07
-1.93751162817e-08
2.55870543573e-07
-2.04709290404e-08
2.50635738052e-07
-1.93107673006e-08
2.60189851125e-07
-1.82482070366e-08
2.73628286806e-07
-1.74482720661e-08
2.87830941524e-07
-1.6879351135e-08
3.0261928375e-07
3.18028640628e-07
-1.6503151657e-08
1.50450162649e-07
4.01422752907e-07
1.28117611075e-07
3.80879327156e-07
1.12457800117e-07
3.85782457838e-07
1.0143271237e-07
3.89685811309e-07
9.36728446896e-08
3.8682987996e-07
8.72915953132e-08
3.7839049832e-07
8.09083014187e-08
3.68490801514e-07
7.39368331884e-08
3.58106215687e-07
6.61863049289e-08
3.47055282262e-07
5.70562873826e-08
3.36103080649e-07
4.49120212829e-08
3.25636916566e-07
2.89151578953e-08
3.13506100812e-07
9.77980404044e-09
2.95857717072e-07
-6.01000241623e-09
2.71574266234e-07
-1.20698953694e-08
2.56677887394e-07
-1.30888045121e-08
2.61207672904e-07
-1.34237772871e-08
2.73963245699e-07
-1.37566298821e-08
2.88163785166e-07
-1.41270220523e-08
3.029896773e-07
3.18426786792e-07
-1.45251748632e-08
1.52790710676e-07
4.03568312258e-07
1.33129673849e-07
3.83051608832e-07
1.2076093612e-07
3.91315880921e-07
1.11833134756e-07
3.96061961587e-07
1.05227925641e-07
3.92424216301e-07
9.93998559872e-08
3.83729330109e-07
9.32262277015e-08
3.74349798203e-07
8.6376576428e-08
3.64705135252e-07
7.81551512952e-08
3.55054697652e-07
6.75328612621e-08
3.46511653403e-07
5.53940889807e-08
3.37552801917e-07
4.12643337425e-08
3.27402737439e-07
2.41149063515e-08
3.12795404709e-07
6.86225355398e-09
2.88694125496e-07
-3.50634276583e-09
2.67005191793e-07
-7.13238530156e-09
2.64829487273e-07
-9.00246969386e-09
2.7583323031e-07
-1.05166520755e-08
2.89677957447e-07
-1.18369612281e-08
3.04309987677e-07
3.19587526242e-07
-1.29977077206e-08
1.51582562039e-07
4.06093729058e-07
1.33755193104e-07
3.83624131561e-07
1.23677862671e-07
3.94627762185e-07
1.17033338803e-07
4.00177353449e-07
1.11856127988e-07
3.96610925569e-07
1.07011619165e-07
3.88101459049e-07
1.01784309378e-07
3.79276599834e-07
9.54521145649e-08
3.70801652883e-07
8.53753280144e-08
3.64924895732e-07
7.24952769537e-08
3.59186875953e-07
5.92767651684e-08
3.50553053821e-07
4.51891726664e-08
3.41259377009e-07
2.96633117961e-08
3.28096239637e-07
1.35531790836e-08
3.04641429562e-07
1.57308328581e-09
2.78918495403e-07
-3.95712930377e-09
2.70349482688e-07
-6.968109025e-09
2.78843828667e-07
-9.31078910566e-09
2.92020624285e-07
-1.12658183005e-08
3.06265018175e-07
3.21230985648e-07
-1.29092853033e-08
1.49834538632e-07
4.11951325519e-07
1.31955359907e-07
3.84632602366e-07
1.23811136128e-07
3.96177961875e-07
1.1963289184e-07
4.01872681807e-07
1.16579430125e-07
3.98684805115e-07
1.13323867427e-07
3.90892812751e-07
1.09092553067e-07
3.83219892394e-07
1.01746474532e-07
3.77929535495e-07
8.91406002578e-08
3.77332547832e-07
7.45163897645e-08
3.73605430367e-07
5.96359365264e-08
3.65221916428e-07
4.48191460025e-08
3.55849661065e-07
2.87573494882e-08
3.43930820921e-07
1.29843815624e-08
3.20236899486e-07
9.58197283138e-10
2.90859433766e-07
-5.25070170302e-09
2.76541284479e-07
-8.62408654083e-09
2.82216310252e-07
-1.11664925978e-08
2.94563009768e-07
-1.32187700436e-08
3.08317296675e-07
3.22896506475e-07
-1.48842988379e-08
1.43702798497e-07
4.23547018024e-07
1.25025963821e-07
3.877442287e-07
1.19144738558e-07
3.96195943286e-07
1.18459276095e-07
4.00372753976e-07
1.18285450214e-07
3.97993520271e-07
1.16649943061e-07
3.92117298812e-07
1.12619767362e-07
3.86996446638e-07
1.02477285019e-07
3.87874205174e-07
8.91542001785e-08
3.90455185881e-07
7.43439903619e-08
3.88216532933e-07
5.83895394197e-08
3.80967803182e-07
4.22799235251e-08
3.71739572493e-07
2.42822075064e-08
3.61702181161e-07
7.23315536104e-09
3.37099218735e-07
-5.209279683e-09
3.03204198139e-07
-1.14001531821e-08
2.82708832865e-07
-1.42491876426e-08
2.85063764032e-07
-1.62611392077e-08
2.96574928212e-07
-1.78080534297e-08
3.09864211873e-07
3.24078792437e-07
-1.89903478736e-08
1.43638924888e-07
4.36168372408e-07
1.24293950165e-07
3.91952059704e-07
1.18227833039e-07
3.96743445983e-07
1.1828695519e-07
3.98325277352e-07
1.18834731295e-07
3.96663142812e-07
1.17052883222e-07
3.9352548349e-07
1.11200097904e-07
3.92618213502e-07
9.98721326835e-08
3.99002069616e-07
8.73321691203e-08
4.02804718709e-07
7.36166449872e-08
4.01730732201e-07
5.8498597367e-08
3.95877815732e-07
4.04310507137e-08
3.89595402332e-07
1.88182435622e-08
3.8307981487e-07
-5.07447539629e-10
3.56226056962e-07
-1.47569210307e-08
3.17343399752e-07
-2.13397035199e-08
2.89261354483e-07
-2.3069061006e-08
2.86790584889e-07
-2.38968589747e-08
2.97402671788e-07
-2.44317646973e-08
3.103991182e-07
3.24372326403e-07
-2.47253074934e-08
1.44581582765e-07
4.46918845452e-07
1.25992768154e-07
3.95350740263e-07
1.20057009642e-07
3.97194997658e-07
1.1889499466e-07
3.97572815462e-07
1.17638061945e-07
3.97196652351e-07
1.13800362913e-07
3.97025288637e-07
1.0550370676e-07
4.00699461096e-07
9.52675518358e-08
4.0905034826e-07
8.44971395055e-08
4.13380934728e-07
7.28949725278e-08
4.13135722731e-07
5.97749317566e-08
4.08796129573e-07
3.952918583e-08
4.09604302116e-07
1.8302674845e-08
4.04051553021e-07
-4.10195709222e-09
3.78412437701e-07
-2.30115171164e-08
3.36122413249e-07
-3.21360573425e-08
2.98343706683e-07
-3.3165740282e-08
2.87815750601e-07
-3.25855636638e-08
2.96822386309e-07
-3.1913742346e-08
3.09727297128e-07
3.23624845465e-07
-3.11662708132e-08
1.46887810345e-07
4.55930620836e-07
1.29996359539e-07
3.96740970864e-07
1.23982695084e-07
3.97483023924e-07
1.19956981954e-07
3.99602988671e-07
1.14572999745e-07
4.01848530271e-07
1.07225632407e-07
4.04040422841e-07
9.77770448434e-08
4.09933927615e-07
8.83418641169e-08
4.18287090725e-07
7.88769233314e-08
4.22654025781e-07
6.89592971948e-08
4.22855694247e-07
5.3328138685e-08
4.24209066722e-07
3.69344693354e-08
4.25753554709e-07
2.20277510943e-08
4.18692739285e-07
-1.23290796917e-09
4.01419567261e-07
-2.53212353362e-08
3.60037546887e-07
-3.99968878504e-08
3.12951723545e-07
-4.21963518334e-08
2.90005649958e-07
-4.06666828875e-08
2.95292421175e-07
-3.90029526083e-08
3.08063565731e-07
3.21982615287e-07
-3.73607322861e-08
1.48546844689e-07
4.62624068501e-07
1.32962739469e-07
3.96424850001e-07
1.25642110874e-07
3.98823845114e-07
1.17493061457e-07
4.05643418725e-07
1.07220261111e-07
4.11350858991e-07
9.62884417509e-08
4.14627907409e-07
8.61002715982e-08
4.19899675513e-07
7.65895319133e-08
4.27606688464e-07
6.71659524424e-08
4.31887212881e-07
5.45314562892e-08
4.35286219449e-07
3.90317093942e-08
4.39490455853e-07
2.92425096019e-08
4.35289834776e-07
1.93532474567e-08
4.28313503951e-07
2.60937281026e-09
4.17883259724e-07
-2.25175634169e-08
3.84938190501e-07
-4.31643154669e-08
3.33486920345e-07
-4.89582803049e-08
2.95777838658e-07
-4.73576164528e-08
2.93690764802e-07
-4.50773601965e-08
3.05783302353e-07
3.1970797538e-07
-4.28027309059e-08
1.52650751168e-07
4.64827734058e-07
1.35150738318e-07
3.98327430342e-07
1.21999470133e-07
4.06227282917e-07
1.0755067965e-07
4.18037304332e-07
9.23373785236e-08
4.2579940056e-07
7.78881667117e-08
4.28739216475e-07
6.50975427751e-08
4.32479722875e-07
5.33756718819e-08
4.39141101846e-07
4.14118209807e-08
4.43658250352e-07
2.84130734771e-08
4.48078810149e-07
2.04960096813e-08
4.47170535429e-07
1.40250136671e-08
4.4151105908e-07
7.03926545094e-09
4.35039756609e-07
-1.54314471773e-09
4.26187708958e-07
-2.14403628156e-08
4.04573631015e-07
-4.32645387066e-08
3.55144545162e-07
-5.37249096071e-08
3.0619240563e-07
-5.2974754223e-08
2.92937308961e-07
-5.02775710092e-08
3.03086076767e-07
3.169403042e-07
-4.75099112717e-08
1.61920796079e-07
4.5648864935e-07
1.37854753144e-07
4.06695163596e-07
1.1402151773e-07
4.24259936127e-07
8.88505977604e-08
4.41191812613e-07
6.63611055333e-08
4.47563146201e-07
4.75666346183e-08
4.47213982154e-07
3.06182788193e-08
4.4921947683e-07
1.57719081277e-08
4.53795586873e-07
3.47123025562e-09
4.55758455615e-07
-2.08883381175e-09
4.53421525376e-07
-3.38252669154e-09
4.48232558989e-07
-5.17173658976e-09
4.43057482372e-07
-8.77152524003e-09
4.38379153033e-07
-1.36996911834e-08
4.30847170769e-07
-2.49098896621e-08
4.15500517831e-07
-4.268553981e-08
3.72705358788e-07
-5.67756479107e-08
3.20200179447e-07
-5.79229938774e-08
2.94074963283e-07
-5.48923333632e-08
3.00055186135e-07
3.13672563359e-07
-5.1624605584e-08
1.6108390894e-07
4.47288597335e-07
1.26820937781e-07
4.25353306438e-07
8.93798402694e-08
4.56017541712e-07
4.8527707705e-08
4.80188435195e-07
1.65871243705e-08
4.78891244318e-07
-4.90964809612e-09
4.68438727514e-07
-2.16894640082e-08
4.65798132156e-07
-3.35482401249e-08
4.65457109139e-07
-3.83530863691e-08
4.60360299074e-07
-3.70056667451e-08
4.51866242952e-07
-3.25516889652e-08
4.43564277255e-07
-2.83584182683e-08
4.38631635869e-07
-2.68104276261e-08
4.36579310777e-07
-2.78698884201e-08
4.31637471824e-07
-3.14679588873e-08
4.18818836818e-07
-4.34196416262e-08
3.84415440445e-07
-5.83918834673e-08
3.35047629211e-07
-6.22245359175e-08
2.9788397868e-07
-5.8964561776e-08
2.96794189987e-07
3.09798060077e-07
-5.50900789717e-08
1.52906753341e-07
4.46141770031e-07
1.04922351175e-07
4.58266328976e-07
5.17825378813e-08
5.03953502338e-07
-5.25180844677e-09
5.3571119415e-07
-4.42716851037e-08
5.17475551359e-07
-6.42486116028e-08
4.88197744265e-07
-7.40109449845e-08
4.7536756909e-07
-7.64026268205e-08
4.6765517931e-07
-7.33062653053e-08
4.57071029224e-07
-6.67195106253e-08
4.45090301062e-07
-5.98453807243e-08
4.3650069853e-07
-5.24756774683e-08
4.310560535e-07
-4.4647145511e-08
4.28515996068e-07
-3.9480852341e-08
4.26214611095e-07
-3.74345620254e-08
4.16502116208e-07
-4.43133617716e-08
3.91040942455e-07
-5.80038376303e-08
3.48572908823e-07
-6.49077980424e-08
3.04740233863e-07
-6.19254477369e-08
2.93808264907e-07
3.05299556404e-07
-5.74270064115e-08
1.36435680998e-07
4.64580989919e-07
7.8370993108e-08
5.02456304222e-07
2.24383918154e-08
5.55414917876e-07
-3.68954338082e-08
5.93916045843e-07
-7.56633829131e-08
5.55930604475e-07
-9.27153485866e-08
5.05064132364e-07
-9.5935105179e-08
4.78404381958e-07
-9.18406160688e-08
4.63377472627e-07
-8.44844275683e-08
4.49536874448e-07
-7.64529861736e-08
4.36889587077e-07
-7.02481281537e-08
4.30127130874e-07
-6.39019299096e-08
4.24527211688e-07
-5.46612351745e-08
4.19067277409e-07
-4.49301502342e-08
4.16247245205e-07
-3.90622141702e-08
4.1037915407e-07
-4.25777780267e-08
3.94301534861e-07
-5.43318357465e-08
3.60126756034e-07
-6.41360991015e-08
3.14462300886e-07
-6.26050215747e-08
2.92267018614e-07
3.00481463594e-07
-5.77871927947e-08
1.12224730242e-07
5.11536642407e-07
5.70886516053e-08
5.45082355727e-07
1.83528589643e-08
5.90514605658e-07
-2.48142605704e-08
6.36157990246e-07
-5.58721756132e-08
5.86678749695e-07
-7.26265716543e-08
5.2163297665e-07
-7.57738786555e-08
4.81371398229e-07
-7.16229119054e-08
4.59050258388e-07
-6.51620963498e-08
4.4290801006e-07
-5.93973747326e-08
4.30968419763e-07
-5.56247846008e-08
4.26198384619e-07
-5.25601701559e-08
4.2129500515e-07
-4.69769321448e-08
4.13298801222e-07
-3.87214632634e-08
4.07782537164e-07
-3.27123705825e-08
4.04135264075e-07
-3.53833038071e-08
3.96719746602e-07
-4.60199234082e-08
3.70535253871e-07
-5.81010425949e-08
3.26419523858e-07
-5.96318404482e-08
2.93773759739e-07
2.96144966979e-07
-5.52964056166e-08
8.60231756424e-08
5.86326323616e-07
5.69454586606e-08
5.62375626621e-07
3.98308342921e-08
6.03679793004e-07
2.1352601872e-08
6.53444108031e-07
2.28383911939e-09
6.05284889891e-07
-1.43165553085e-08
5.37961491032e-07
-2.18993756741e-08
4.8874125256e-07
-2.28557097776e-08
4.59818740411e-07
-2.13741274221e-08
4.41257331499e-07
-2.01778537669e-08
4.29619906154e-07
-2.04251238647e-08
4.26295174607e-07
-2.17386446273e-08
4.22448153363e-07
-2.19147718423e-08
4.1330323785e-07
-1.94747502201e-08
4.05154082171e-07
-1.71682473149e-08
4.01612741607e-07
-2.12192449849e-08
4.00520558957e-07
-3.23272809859e-08
3.81394947659e-07
-4.61100151694e-08
3.40035209875e-07
-5.20096046595e-08
2.99625615843e-07
2.93619116061e-07
-4.94872959733e-08
1.49692403625e-07
5.88569761822e-07
1.15679522367e-07
5.80578636782e-07
9.48111925019e-08
6.1901919963e-07
8.3988363584e-08
6.62366451123e-07
6.90174108636e-08
6.19481199893e-07
5.38406384839e-08
5.5273601315e-07
4.29151614581e-08
4.99396566253e-07
3.66960388803e-08
4.65824237267e-07
3.26130534958e-08
4.4516070984e-07
2.86469961731e-08
4.33431747361e-07
2.3724557084e-08
4.3106833441e-07
1.7869769065e-08
4.28146943441e-07
1.20539714784e-08
4.18953733349e-07
7.85585858843e-09
4.09175140498e-07
4.76615481254e-09
4.0450103311e-07
-1.96919682204e-09
4.07008927847e-07
-1.47922429085e-08
3.93955788696e-07
-2.96362036508e-08
3.54674065058e-07
-3.99338103835e-08
3.09843702299e-07
2.94366641363e-07
-4.06908092342e-08
1.62553271181e-07
5.78458975907e-07
1.33547695701e-07
5.9198276452e-07
1.2157799358e-07
6.24205173559e-07
1.21636676768e-07
6.59699947561e-07
1.14570087774e-07
6.25484309502e-07
1.05776270429e-07
5.61008912123e-07
9.66244947494e-08
5.08226925965e-07
8.87560203364e-08
4.73456821586e-07
8.15310213616e-08
4.5219767956e-07
7.3926173346e-08
4.40881087964e-07
6.53568632064e-08
4.39490254811e-07
5.61043147111e-08
4.37243973485e-07
4.60901458874e-08
4.28806013646e-07
3.63104734606e-08
4.18786828019e-07
2.79302658053e-08
4.12693703209e-07
1.77457517338e-08
4.16952299568e-07
3.54031989957e-09
4.07889632747e-07
-1.21860098365e-08
3.70170293265e-07
-2.56705147054e-08
3.23216582288e-07
2.99055383405e-07
-3.03791864539e-08
1.51895865379e-07
5.77568669847e-07
1.31201659989e-07
5.93860695456e-07
1.2694841528e-07
6.20635715426e-07
1.33007371601e-07
6.50525566951e-07
1.40405684146e-07
6.16813238955e-07
1.40294339063e-07
5.60506456271e-07
1.35200535217e-07
5.1296126446e-07
1.28078854959e-07
4.80327847837e-07
1.19906547156e-07
4.601773807e-07
1.10286080484e-07
4.50346484855e-07
9.92110633733e-08
4.50416832665e-07
8.7698058924e-08
4.48605731383e-07
7.52483327378e-08
4.41098208585e-07
6.17498885761e-08
4.32124384727e-07
4.87571039651e-08
4.25510348283e-07
3.46913571127e-08
4.30782628831e-07
1.89170230719e-08
4.23395479727e-07
2.12771596561e-09
3.86719734698e-07
-1.30025539711e-08
3.38210884175e-07
3.06988230265e-07
-2.09688096063e-08
1.19275866011e-07
1.06331392582e-07
1.09550791609e-07
1.31581541044e-07
1.53424820594e-07
1.61905025385e-07
1.61611905184e-07
1.56544886173e-07
1.48670164207e-07
1.37681887593e-07
1.25007955711e-07
1.12003235942e-07
9.8119281276e-08
8.27296461033e-08
6.63361575618e-08
4.89527337209e-08
3.05182907262e-08
1.19155194241e-08
-4.44030288888e-09
-1.45012530077e-08
7.42230320649e-11
3.04836647339e-07
-3.93257182724e-10
2.90463665205e-07
-8.3912344502e-10
2.76788617382e-07
-1.28026322891e-09
2.63773276256e-07
-1.73031619328e-09
2.51384137058e-07
-2.20097962499e-09
2.39590409548e-07
-2.70229374409e-09
2.28362961542e-07
-3.2424671574e-09
2.17673766621e-07
-3.82740372799e-09
2.07495570337e-07
-4.46018192445e-09
1.97801761759e-07
-5.14076084689e-09
1.88566565172e-07
-5.86646015241e-09
1.797657434e-07
-6.63391307061e-09
1.713780358e-07
-7.44347587546e-09
1.63387554559e-07
-8.30675708966e-09
1.55786868482e-07
-9.25151737228e-09
1.48574322833e-07
-1.02845829396e-08
1.41712017002e-07
-1.11127693221e-08
1.34883771146e-07
-1.00139746451e-08
1.26645261082e-07
1.11715707845e-07
3.75878810939e-10
3.05917662164e-07
-6.0970512191e-10
2.91449247578e-07
-1.54189939527e-09
2.77720812097e-07
-2.45042730681e-09
2.64681802671e-07
-3.35654574937e-09
2.52290255895e-07
-4.27516187338e-09
2.40509024257e-07
-5.21570162921e-09
2.29303501551e-07
-6.18262093247e-09
2.18640684655e-07
-7.17605621377e-09
2.08489005702e-07
-8.19317265571e-09
1.98818877119e-07
-9.2305963784e-09
1.89603988811e-07
-1.02882029016e-08
1.80823349072e-07
-1.1374127359e-08
1.7246396005e-07
-1.25102823561e-08
1.64523708941e-07
-1.37341829391e-08
1.57010768707e-07
-1.50719834506e-08
1.49912122932e-07
-1.63358053136e-08
1.42975838494e-07
-1.64446628107e-08
1.34992628328e-07
-1.23670432081e-08
1.22567641166e-07
9.93486646277e-08
5.16885537051e-10
3.07403362978e-07
-8.45656888114e-10
2.92811788389e-07
-2.12517980985e-09
2.79000335517e-07
-3.35024797763e-09
2.65906869285e-07
-4.54001638192e-09
2.53480024763e-07
-5.70583734481e-09
2.4167484376e-07
-6.85274490153e-09
2.30450409436e-07
-7.98104890085e-09
2.19768987356e-07
-9.0882748648e-09
2.09596231821e-07
-1.01715657686e-08
1.99902166936e-07
-1.12301912046e-08
1.90662614237e-07
-1.22674900075e-08
1.81860647041e-07
-1.32910443805e-08
1.73487514311e-07
-1.4308622187e-08
1.65541286167e-07
-1.53101568896e-08
1.58012303147e-07