/*--------------------------------*- C++ -*----------------------------------*\
| =========                 |                                                 |
| \\      /  F ield         | OpenFOAM: The Open Source CFD Toolbox           |
|  \\    /   O peration     | Version:  2312                                  |
|   \\  /    A nd           | Website:  www.openfoam.com                      |
|    \\/     M anipulation  |                                                 |
\*---------------------------------------------------------------------------*/
FoamFile
{
    version     2.0;
    format      ascii;
    arch        "LSB;label=32;scalar=64";
    class       volVectorField;
    location    "0.53/water";
    object      U.gas;
}
// * * * * * * * * * * * * * * * * * * * * * * * * * * * * * * * * * * * * * //

dimensions      [0 1 -1 0 0 0 0];

internalField   nonuniform List<vector> 
1496
(
(0.00182540723619 0.97414516094 0)
(-0.010563516735 1.24850163222 0)
(-0.000713279920957 1.11080918143 0)
(0.0441155451886 1.1568123988 0)
(0.0749079034334 1.25288931064 0)
(0.0910454368593 1.31500491226 0)
(0.101102893035 1.35056836738 0)
(0.107360234984 1.36697025043 0)
(0.111105289071 1.37163124012 0)
(0.114270539913 1.36479688958 0)
(0.11977770625 1.33659989237 0)
(0.130949015938 1.27513388335 0)
(0.154434471017 1.1556745155 0)
(0.178062135399 1.03529847266 0)
(0.191822841154 0.952552734755 0)
(0.204202901902 0.883309503582 0)
(0.216939425225 0.825107700613 0)
(0.230205539749 0.780409041871 0)
(0.241641860013 0.75349100135 0)
(0.246069159191 0.741226955455 0)
(-0.0179671013608 1.25684418912 0)
(-0.0261330895522 1.27485251159 0)
(-0.00926307596629 0.950501362517 0)
(0.00644725891937 1.01803671134 0)
(0.0302066393772 1.14251045373 0)
(0.0592011368776 1.23203869245 0)
(0.0816397836166 1.30320328533 0)
(0.0966350789376 1.3366929728 0)
(0.109089170879 1.34726456191 0)
(0.122811309724 1.33575301185 0)
(0.143640679438 1.28776778475 0)
(0.176919308136 1.19841910313 0)
(0.208254274832 1.08665645515 0)
(0.228582664919 1.00473267643 0)
(0.246502439009 0.93377654817 0)
(0.26454863328 0.871852237309 0)
(0.284068360518 0.820086583043 0)
(0.304950863474 0.782261493284 0)
(0.322724804682 0.759871209795 0)
(0.332244803974 0.74864170594 0)
(-0.0243026893572 1.6193912092 0)
(-0.0268981572313 1.13294195743 0)
(-0.00297205199953 0.89895457605 0)
(0.00486074377362 0.964472067565 0)
(0.0182277451866 1.05964224318 0)
(0.0364100214754 1.1488181364 0)
(0.0615794521134 1.22866714707 0)
(0.0915626297648 1.27174958106 0)
(0.122643592147 1.28467496897 0)
(0.155926454545 1.26688733185 0)
(0.19049938723 1.21000536573 0)
(0.219312132023 1.12460603674 0)
(0.242141176395 1.05044117532 0)
(0.264356324899 0.981841467711 0)
(0.286842421684 0.918977558588 0)
(0.310461177602 0.863470380418 0)
(0.336230487785 0.8181588244 0)
(0.362759015753 0.785848545217 0)
(0.383990666584 0.765139088811 0)
(0.399662650023 0.758623381447 0)
(0.00260004166994 1.82331419311 0)
(0.00801055142159 1.01326502639 0)
(0.0107471031996 0.881683693078 0)
(0.0163252046266 0.93631679641 0)
(0.0309452401913 1.01847577059 0)
(0.0519097945524 1.09271667109 0)
(0.0781434543587 1.15121852841 0)
(0.108249131349 1.18978336129 0)
(0.140556572395 1.20191978995 0)
(0.173056699929 1.18528453281 0)
(0.203719964124 1.14171249733 0)
(0.232096114718 1.08430617061 0)
(0.258952489607 1.02092918942 0)
(0.285100494023 0.959667863076 0)
(0.311708759933 0.903302990312 0)
(0.340081685584 0.854799011673 0)
(0.371132399342 0.816134020681 0)
(0.400966278621 0.788363078677 0)
(0.426575221059 0.775046345618 0)
(0.440008331941 0.783477018281 0)
(0.0113097890061 1.80096950589 0)
(0.0245444290223 0.995596249574 0)
(0.0259766171605 0.880983733162 0)
(0.0318921327471 0.919227361631 0)
(0.0476074933353 0.98427038498 0)
(0.0692476284815 1.04480905109 0)
(0.0958299322633 1.09218946643 0)
(0.125068126079 1.1230412901 0)
(0.154937196902 1.13347374529 0)
(0.184112932042 1.12135159638 0)
(0.212098003459 1.08842733623 0)
(0.239214756338 1.04097485091 0)
(0.266344726285 0.986906287615 0)
(0.29454066689 0.933300949489 0)
(0.32509996511 0.885341848761 0)
(0.358639103979 0.844329726363 0)
(0.393594142625 0.812513807973 0)
(0.42463697533 0.794418773968 0)
(0.423997654303 0.79189863004 0)
(0.347835706629 0.818733238369 0)
(0.0179779178971 1.65686271509 0)
(0.0412688149406 0.987207243569 0)
(0.0461689921439 0.889856703726 0)
(0.0526171885583 0.914786715717 0)
(0.0688051852933 0.964722831621 0)
(0.0900738870423 1.01177016577 0)
(0.115236034172 1.04795866589 0)
(0.141710680865 1.07075362723 0)
(0.167390894304 1.07787966317 0)
(0.191544970733 1.0660559304 0)
(0.215010022416 1.03720152301 0)
(0.23940170192 0.996239035615 0)
(0.266705254463 0.950001396835 0)
(0.298417174405 0.905302997334 0)
(0.332813297083 0.864869858083 0)
(0.368370921187 0.831361257685 0)
(0.396409833204 0.808793115867 0)
(0.371410420405 0.798170041104 0)
(0.261145718145 0.837576079412 0)
(0.0946551842699 0.957757128803 0)
(0.0239551355932 1.40546321588 0)
(0.0591362888079 0.973327138586 0)
(0.0712267764958 0.907685464793 0)
(0.07936467792 0.925456373674 0)
(0.09552348195 0.961613067459 0)
(0.11513470734 0.995065927958 0)
(0.136185002279 1.01893585084 0)
(0.156515648736 1.03178430766 0)
(0.175669373358 1.03159301483 0)
(0.193787685432 1.01644234824 0)
(0.212988472345 0.988549541021 0)
(0.236316504287 0.952681513818 0)
(0.265510054564 0.913530921571 0)
(0.296905882608 0.875715877722 0)
(0.327727418474 0.84240177882 0)
(0.343980809872 0.81512924691 0)
(0.295085057899 0.803036344217 0)
(0.167487383754 0.863360148588 0)
(0.0167897450776 0.989842707192 0)
(-0.0852519349265 1.12474149325 0)
(0.0273438312552 1.10463311332 0)
(0.0738139084216 0.967091441412 0)
(0.0939221635308 0.937784396364 0)
(0.102093566166 0.951504943405 0)
(0.117419490029 0.975683395826 0)
(0.135463806404 0.996419346929 0)
(0.155233956507 1.00762800813 0)
(0.171263644953 1.00795825867 0)
(0.182266506808 0.997084085501 0)
(0.193840985684 0.976261744739 0)
(0.210376502114 0.94741009431 0)
(0.231990824883 0.91421411756 0)
(0.255107297229 0.879422037668 0)
(0.275774062894 0.847658879247 0)
(0.271957113476 0.820896990632 0)
(0.210232483032 0.798686450579 0)
(0.0865063223901 0.893424961626 0)
(-0.038213124017 1.01745268637 0)
(-0.107449246662 1.14106594226 0)
(-0.13609603204 1.18794061211 0)
(0.0252097980406 0.970308024153 0)
(0.0760911602874 0.992525708472 0)
(0.103183206191 0.98550793826 0)
(0.112794980726 0.995535836992 0)
(0.129693841752 1.01029344203 0)
(0.14734133181 1.01970845381 0)
(0.163899217437 1.01789634275 0)
(0.176901654918 1.00320283009 0)
(0.185426779187 0.978928731615 0)
(0.191792042066 0.949283854328 0)
(0.199904133037 0.917127973073 0)
(0.20952886906 0.883835685385 0)
(0.213347699068 0.853166267927 0)
(0.188682457927 0.830321679813 0)
(0.120488218215 0.82361294365 0)
(0.0158676432872 0.889061101631 0)
(-0.0729255699409 1.04112448792 0)
(-0.116248458416 1.13777286449 0)
(-0.136466559143 1.19162410055 0)
(-0.139122654049 1.20280563863 0)
(0.0210547800521 1.08033689833 0)
(0.0720491157311 1.06664150532 0)
(0.104339373045 1.06204255764 0)
(0.115495977667 1.06842282826 0)
(0.13180487101 1.07410340739 0)
(0.146233349053 1.07006416823 0)
(0.157656968704 1.05172754385 0)
(0.163687541596 1.01932957362 0)
(0.164477533143 0.979012952591 0)
(0.162710896055 0.938239674118 0)
(0.15740410773 0.90065098185 0)
(0.139843198535 0.869103010307 0)
(0.0994307341636 0.850724668483 0)
(0.0375000897703 0.853001588923 0)
(-0.0323728951977 0.895480080151 0)
(-0.0919462955268 1.04024209625 0)
(-0.129026383387 1.12829454735 0)
(-0.143629294461 1.1830826873 0)
(-0.140585441922 1.20545939424 0)
(-0.12501979896 1.18880822243 0)
(0.024794415926 1.29970283228 0)
(0.0792308762844 1.20438609633 0)
(0.107893031998 1.19059548641 0)
(0.110419952416 1.19396513551 0)
(0.116263919538 1.18792311882 0)
(0.119894246077 1.16186620253 0)
(0.119673426976 1.11800518778 0)
(0.113192223526 1.06036763163 0)
(0.100766762863 1.000577365 0)
(0.0824085461594 0.948053245852 0)
(0.0520752497441 0.906879917002 0)
(0.00762625259062 0.885780173865 0)
(-0.0432737883047 0.891920192782 0)
(-0.0939123206808 0.930177800049 0)
(-0.139905779962 1.00844649641 0)
(-0.170228732356 1.12458453332 0)
(-0.177314859983 1.17358237764 0)
(-0.165287374205 1.19060620652 0)
(-0.139899506737 1.18766936829 0)
(-0.103813993533 1.15066977703 0)
(0.0378438567832 1.5317284243 0)
(0.0932302921646 1.38274445265 0)
(0.101267151 1.36543557416 0)
(0.0846642229527 1.3758235718 0)
(0.0678704371329 1.36275499539 0)
(0.0482751497575 1.30330978647 0)
(0.0275647371587 1.22096497647 0)
(0.00348499722482 1.12736894177 0)
(-0.0245037257817 1.04213520913 0)
(-0.0562456664399 0.977327854844 0)
(-0.0910691258026 0.937495949632 0)
(-0.125299083504 0.931360564442 0)
(-0.156732223601 0.958549854884 0)
(-0.185343041213 1.01514400896 0)
(-0.207607880321 1.09058430344 0)
(-0.21408067641 1.16471836986 0)
(-0.202617699414 1.18597269196 0)
(-0.179060133718 1.1787296151 0)
(-0.146950803861 1.15496557652 0)
(-0.109457546322 1.10269235214 0)
(0.051785092129 1.66307324373 0)
(0.10350236573 1.50698654796 0)
(0.0915303130849 1.50249076486 0)
(0.0638596424802 1.54915128877 0)
(0.0229629706444 1.55902608766 0)
(-0.0280403039885 1.47286366177 0)
(-0.0768133832761 1.34752294981 0)
(-0.120580058876 1.21460001636 0)
(-0.159277339147 1.09848819398 0)
(-0.190935784838 1.01717368015 0)
(-0.213659889524 0.976091228047 0)
(-0.227228126382 0.974389515063 0)
(-0.234037256245 1.00311383892 0)
(-0.23657298859 1.05535350764 0)
(-0.235177816943 1.11763219467 0)
(-0.228303303855 1.16924692959 0)
(-0.214676707755 1.18322400431 0)
(-0.19261507814 1.16579472463 0)
(-0.161115668271 1.12596316618 0)
(-0.123033784202 1.06426812876 0)
(0.0560045309966 1.63491361805 0)
(0.114344345409 1.50495472342 0)
(0.115575676073 1.5197048598 0)
(0.10350713441 1.63473631201 0)
(0.0620049857234 1.73306696214 0)
(-0.0059247012762 1.65752618612 0)
(-0.0785641570631 1.49716396469 0)
(-0.145638045257 1.3256170604 0)
(-0.204086628406 1.17181061943 0)
(-0.24836806176 1.06118848592 0)
(-0.272677530305 1.00411666557 0)
(-0.278104419508 0.991798412808 0)
(-0.270370249897 1.0076826366 0)
(-0.253656136441 1.04408947677 0)
(-0.233215430024 1.09396568835 0)
(-0.214070481098 1.14231377415 0)
(-0.197827497465 1.16416704986 0)
(-0.182107707802 1.1503216284 0)
(-0.159857081649 1.10080622256 0)
(-0.128208866211 1.03134899506 0)
(0.0575409037417 1.50872876218 0)
(0.125991605974 1.41387704363 0)
(0.14312798603 1.43793149902 0)
(0.155573307847 1.58967902651 0)
(0.155625628958 1.79828062218 0)
(0.128690379921 1.79996605809 0)
(0.0688158790636 1.6942280035 0)
(-0.0162285935086 1.51890728643 0)
(-0.103065816728 1.30739546833 0)
(-0.174352592755 1.12680474743 0)
(-0.222287925866 1.02244604076 0)
(-0.245666312087 0.989358223963 0)
(-0.248136618282 0.986081911377 0)
(-0.234350098402 1.00584499066 0)
(-0.208633567601 1.04279167732 0)
(-0.179540958349 1.08828715198 0)
(-0.155450214477 1.12469158998 0)
(-0.139650689069 1.13025092819 0)
(-0.127611309837 1.08020645901 0)
(-0.111087970931 1.00492984228 0)
(0.0534473134317 1.37619542465 0)
(0.116759386342 1.31284409096 0)
(0.130255711104 1.33815693998 0)
(0.140212308841 1.48233733703 0)
(0.154576314818 1.72982523974 0)
(0.166570757908 1.81164311646 0)
(0.168257189755 1.79874180523 0)
(0.149252781652 1.69277373126 0)
(0.0939609971568 1.52035634659 0)
(0.00197212072831 1.32605361954 0)
(-0.077493279091 1.07586029115 0)
(-0.123607771907 1.0044031903 0)
(-0.153301033172 0.968487404225 0)
(-0.1632619592 0.966821520424 0)
(-0.154195242636 0.990783926362 0)
(-0.129616339328 1.02918511895 0)
(-0.100529405634 1.07344044623 0)
(-0.0804033227614 1.11033604373 0)
(-0.0732406527797 1.07219882921 0)
(-0.0713061139917 0.994266696338 0)
(0.0466790525772 1.29121080531 0)
(0.099449851513 1.24739442253 0)
(0.105989869011 1.27046323688 0)
(0.110431078779 1.40670741547 0)
(0.125411039092 1.62188954082 0)
(0.146792705071 1.73471268437 0)
(0.163066344602 1.76469541983 0)
(0.167529626962 1.73779806152 0)
(0.157810663871 1.66339105764 0)
(0.133882614805 1.52903639703 0)
(0.0760223368814 1.25423490371 0)
(0.0125612068302 1.0719480129 0)
(-0.0244577360507 0.986751097824 0)
(-0.0507714847865 0.952318551948 0)
(-0.0646421065348 0.956545492282 0)
(-0.0603950561707 0.985556538194 0)
(-0.0392467175721 1.02765615811 0)
(-0.0184276598517 1.09290968934 0)
(-0.0129791259939 1.07968935976 0)
(-0.020778563177 1.0074965939 0)
(0.0408630183357 1.26723556623 0)
(0.0842926413754 1.23240596262 0)
(0.0838275921369 1.24879235645 0)
(0.0818459650713 1.37725588759 0)
(0.0872200745808 1.56164368942 0)
(0.103033986654 1.66048112465 0)
(0.127181252927 1.70091367067 0)
(0.145358292382 1.72175253572 0)
(0.149098281855 1.69595922089 0)
(0.140323244101 1.60472543607 0)
(0.124180592194 1.42146833106 0)
(0.100824881629 1.16722752839 0)
(0.0752508648351 1.04052567091 0)
(0.0545049611907 0.973901473864 0)
(0.0369693541367 0.953817659927 0)
(0.0252647029175 0.969210098578 0)
(0.0270974958079 1.00377230809 0)
(0.0378958652412 1.08139669722 0)
(0.0405315436855 1.09666075811 0)
(0.0286296068544 1.03783987834 0)
(0.0370083086274 1.30936220825 0)
(0.0728863329484 1.2734002347 0)
(0.0638427361617 1.28301152713 0)
(0.0529315939951 1.40152429941 0)
(0.0522102415539 1.57355850139 0)
(0.0632884953983 1.63332571078 0)
(0.0828409116299 1.65351469036 0)
(0.103398395889 1.688701558 0)
(0.120883395094 1.69318617405 0)
(0.135532409348 1.62469747916 0)
(0.145230454385 1.45946499715 0)
(0.142984024185 1.24407717194 0)
(0.13288221572 1.10340587742 0)
(0.123003232125 1.01879476971 0)
(0.112396666788 0.981853684212 0)
(0.0990471335329 0.983414897395 0)
(0.08738256165 1.00796819892 0)
(0.0823448797742 1.08423629199 0)
(0.0757472065818 1.11909804805 0)
(0.0617305927747 1.07294986854 0)
(0.0348479345448 1.41196694842 0)
(0.0648253494118 1.36691094148 0)
(0.0484947727372 1.37012496826 0)
(0.0305704212694 1.47212524401 0)
(0.023463937066 1.62494859164 0)
(0.0287525354286 1.65732599362 0)
(0.0461217703383 1.65370998082 0)
(0.0703181489136 1.67339101751 0)
(0.0955907372935 1.67548002291 0)
(0.119568570693 1.60801135662 0)
(0.138975807289 1.46504126919 0)
(0.149616497181 1.29221501877 0)
(0.15306458057 1.15848892946 0)
(0.153728006665 1.07117179692 0)
(0.150271970019 1.02850596637 0)
(0.138637728153 1.02027335102 0)
(0.121049963086 1.03755230081 0)
(0.103641376347 1.10768987258 0)
(0.0873915558416 1.14701660608 0)
(0.0726325878301 1.10501870928 0)
(0.0399915987119 1.53491192266 0)
(0.074188843574 1.48041983061 0)
(0.05661890362 1.47844023934 0)
(0.0367083063556 1.5594832466 0)
(0.0250631846677 1.69083649483 0)
(0.0208580866063 1.71342734299 0)
(0.0260526955336 1.69069234743 0)
(0.0434467570045 1.68875345458 0)
(0.0680482326424 1.67377783611 0)
(0.0936303966118 1.60105242455 0)
(0.116387466197 1.47078182715 0)
(0.133599771458 1.3220187521 0)
(0.145350288275 1.20147702293 0)
(0.151994131365 1.12136001224 0)
(0.149697339145 1.0785112342 0)
(0.13739802359 1.06712903301 0)
(0.117826290024 1.08907817728 0)
(0.094044100872 1.15195559577 0)
(0.0739101001428 1.17762982499 0)
(0.0618888202722 1.12808697449 0)
(0.0490858824782 1.62188468686 0)
(0.0953136444632 1.56142941846 0)
(0.0847157738164 1.55612607624 0)
(0.072175111465 1.61914648786 0)
(0.0643814689731 1.74128097591 0)
(0.056303241352 1.78373810897 0)
(0.0482494140276 1.75732275484 0)
(0.049049654282 1.7299407099 0)
(0.0612674418654 1.69101619059 0)
(0.079200170975 1.60679031504 0)
(0.0969299152521 1.47944860708 0)
(0.111257618728 1.34019681867 0)
(0.121516043064 1.22739554575 0)
(0.126246748867 1.15486380588 0)
(0.123023049487 1.11370492156 0)
(0.110662088244 1.11328947852 0)
(0.0845194331031 1.16039377421 0)
(0.0538486783447 1.2088559752 0)
(0.0371502931925 1.20241138769 0)
(0.0339034658483 1.13566343603 0)
(0.0603551586824 1.6326097691 0)
(0.123738136549 1.56792871355 0)
(0.127317855344 1.55893598435 0)
(0.128551479558 1.61519698722 0)
(0.127425237482 1.7496885465 0)
(0.119259225335 1.82973007927 0)
(0.105262711772 1.81280063026 0)
(0.0938599182356 1.76678917025 0)
(0.0906639299704 1.70546580336 0)
(0.0936897194286 1.60992590299 0)
(0.0984231543922 1.48240709681 0)
(0.102486756774 1.34628887578 0)
(0.105565549226 1.23339591296 0)
(0.105979469312 1.16064937335 0)
(0.0993166621924 1.121989817 0)
(0.0771060096701 1.14577580914 0)
(0.034376173606 1.2349089165 0)
(-0.00173844660084 1.25668915724 0)
(-0.00953847957208 1.20853665423 0)
(-0.00167366926555 1.12081346167 0)
(0.0634206270432 1.56300913203 0)
(0.134687190119 1.49089558819 0)
(0.147807358681 1.48239072589 0)
(0.15328817977 1.54679357959 0)
(0.153692529131 1.69251646464 0)
(0.157283019039 1.78857829248 0)
(0.162417266549 1.78888643354 0)
(0.163045381457 1.74811770344 0)
(0.159740640927 1.68431190708 0)
(0.154416131911 1.59008656211 0)
(0.147024174672 1.46907590066 0)
(0.137973592234 1.33844891383 0)
(0.126950114135 1.22355566691 0)
(0.110311819018 1.14395062804 0)
(0.0831756415702 1.10795309442 0)
(0.0448316252717 1.15761034891 0)
(0.00130406796168 1.28356297781 0)
(-0.0280146778479 1.27104115287 0)
(-0.032445275031 1.18715802038 0)
(-0.0209028590152 1.08260640612 0)
(0.0573070925971 1.4427324727 0)
(0.120145765024 1.37413319717 0)
(0.125675845698 1.37443408503 0)
(0.122418317195 1.45739269248 0)
(0.125678851256 1.57698085581 0)
(0.150783518402 1.63480608414 0)
(0.187023467845 1.65586833409 0)
(0.216121271641 1.65089244205 0)
(0.231221354034 1.61999609257 0)
(0.232110641646 1.55074808652 0)
(0.221759663538 1.44996547138 0)
(0.202705673903 1.33126172842 0)
(0.17497344501 1.21823854762 0)
(0.137178465259 1.13838229058 0)
(0.0915513589425 1.11366568831 0)
(0.0456026552275 1.18698445307 0)
(0.0184201239335 1.29570921627 0)
(0.00577802251629 1.26337195693 0)
(-0.00175879640554 1.15098408546 0)
(0.00289545307171 1.03766622957 0)
(0.0543189231469 1.30677886295 0)
(0.112934420694 1.26158644984 0)
(0.116721109036 1.27353852762 0)
(0.117817194703 1.37272789796 0)
(0.129686231912 1.44772412231 0)
(0.149082263032 1.48719399585 0)
(0.167759295076 1.51921443248 0)
(0.187677848221 1.53532989109 0)
(0.20845071396 1.52970008081 0)
(0.226076355123 1.48979008838 0)
(0.234391162524 1.42044018479 0)
(0.227902575527 1.33199924188 0)
(0.203076022354 1.24617724269 0)
(0.162664679375 1.18889012141 0)
(0.11640415815 1.17840838374 0)
(0.0832402358308 1.23717301672 0)
(0.0718410464118 1.29530847477 0)
(0.0637535288239 1.26665580062 0)
(0.0561768391602 1.12634551005 0)
(0.0564518014547 1.01107401884 0)
(0.0502320084762 1.19407308368 0)
(0.104445971881 1.16985283735 0)
(0.10844829289 1.19080180175 0)
(0.11158484205 1.2975745451 0)
(0.116791097339 1.36902754627 0)
(0.122335972023 1.42154749602 0)
(0.130186849366 1.45092544749 0)
(0.139936449892 1.46055753 0)
(0.151237607891 1.45218418999 0)
(0.162884094627 1.42340447551 0)
(0.172825787396 1.3769976368 0)
(0.177589107546 1.32325557212 0)
(0.173222677906 1.27942270178 0)
(0.158878195219 1.25461264379 0)
(0.138339121051 1.25304098002 0)
(0.118737377031 1.27702420151 0)
(0.106657909177 1.3010399591 0)
(0.103915709104 1.26898310728 0)
(0.106542010367 1.11828601697 0)
(0.108922846954 1.01029223654 0)
(0.0448968340512 1.1237548964 0)
(0.0922252812752 1.11216490636 0)
(0.092990485803 1.13956259257 0)
(0.0878048499867 1.272153784 0)
(0.0799537691572 1.36606239627 0)
(0.0716552221968 1.41440961116 0)
(0.0675238045514 1.4233447603 0)
(0.0701375644061 1.41728520798 0)
(0.0784169244225 1.39781341149 0)
(0.0933250217016 1.35887982284 0)
(0.113582426427 1.31609764438 0)
(0.13432404846 1.27839089038 0)
(0.148356355676 1.26917175984 0)
(0.148833728595 1.27927838357 0)
(0.138279780496 1.28988109691 0)
(0.125543661865 1.30133048231 0)
(0.118783575072 1.29948116644 0)
(0.129259855406 1.23696198289 0)
(0.145179946225 1.11798025181 0)
(0.150438732996 1.0284143476 0)
(0.0396323027453 1.09787307845 0)
(0.0802668147833 1.09366689172 0)
(0.0773018240352 1.12460257476 0)
(0.0684878075079 1.29795622019 0)
(0.0491837798247 1.44247062441 0)
(0.0250298144872 1.46756099469 0)
(0.0200230061325 1.39950154732 0)
(0.0340427291866 1.36407472352 0)
(0.0543376736751 1.33156685393 0)
(0.0745597490698 1.29037128641 0)
(0.0909211220293 1.25414326579 0)
(0.103171312685 1.22556425559 0)
(0.11481043521 1.22677596665 0)
(0.125852912365 1.26164998355 0)
(0.129610572799 1.29469965412 0)
(0.13061789808 1.29629116721 0)
(0.14070087998 1.27225701179 0)
(0.157231028 1.2041899782 0)
(0.172656643749 1.12772889546 0)
(0.179039331309 1.06152302632 0)
(0.0327683388603 1.12839733598 0)
(0.0650606473233 1.11381980313 0)
(0.0590936508477 1.1418748829 0)
(0.049619318028 1.33957591822 0)
(0.0341242926401 1.5598288061 0)
(0.021659208597 1.51979332667 0)
(0.0252832851008 1.3709688215 0)
(0.03727629175 1.3076659921 0)
(0.0526847097632 1.27061227054 0)
(0.068202412311 1.24170352609 0)
(0.0819329245556 1.21826629307 0)
(0.0923395594534 1.19940345627 0)
(0.0993518251103 1.19550259364 0)
(0.106501193211 1.22856907151 0)
(0.11862658389 1.26838344393 0)
(0.134652308716 1.26921752362 0)
(0.152550741382 1.24406133757 0)
(0.173609862872 1.20221500324 0)
(0.191033203323 1.1520062387 0)
(0.190184726416 1.10846048214 0)
(0.0291347185728 1.21021473771 0)
(0.0568602035695 1.16758364626 0)
(0.0475393197521 1.18749291118 0)
(0.0361748191359 1.38915152746 0)
(0.0293391012696 1.64326925064 0)
(0.0267703655278 1.54822663685 0)
(0.0312016737001 1.36795409593 0)
(0.0409929054898 1.28036427799 0)
(0.0540565496097 1.23848195701 0)
(0.0673293042672 1.21384715549 0)
(0.0788989613547 1.19721794131 0)
(0.0877959633561 1.18586503931 0)
(0.0945213703707 1.18536101837 0)
(0.102674468982 1.20974193283 0)
(0.116512528287 1.2387658426 0)
(0.136716206524 1.24790314906 0)
(0.161493869245 1.23981201211 0)
(0.184370799987 1.21769877991 0)
(0.192086298123 1.18967295729 0)
(0.17421005281 1.16686644539 0)
(0.0290835476574 1.31601687429 0)
(0.0570437917608 1.2463343237 0)
(0.0460747191712 1.25724548284 0)
(0.0336857798664 1.44367782089 0)
(0.0330642313523 1.68924454713 0)
(0.0377893886936 1.58568031836 0)
(0.0432960105759 1.39093453693 0)
(0.0500347388704 1.27484334383 0)
(0.0589006699361 1.22288626341 0)
(0.068437278918 1.19988521767 0)
(0.0773612729949 1.18803138642 0)
(0.0852783232951 1.18178910856 0)
(0.0928303271113 1.1835529664 0)
(0.103216293835 1.20225532585 0)
(0.12027624858 1.22573350705 0)
(0.143026233786 1.24152961703 0)
(0.164267484047 1.24841808518 0)
(0.173387351182 1.24428137294 0)
(0.161103289363 1.23637747248 0)
(0.12669242496 1.23082966444 0)
(0.032758078445 1.42282861217 0)
(0.065837779347 1.34092442936 0)
(0.0553455829871 1.34449948118 0)
(0.0420443103842 1.50136750081 0)
(0.0444975143184 1.7199949122 0)
(0.0531213515466 1.63084313927 0)
(0.05832057072 1.43319067824 0)
(0.0614495329427 1.28616400224 0)
(0.0654167580127 1.22039270323 0)
(0.070696035114 1.19723685821 0)
(0.0771544828597 1.1879199171 0)
(0.0848396155056 1.1841640751 0)
(0.0941502441426 1.1863715107 0)
(0.106403798235 1.1996187941 0)
(0.121173168002 1.2164127718 0)
(0.1341119922 1.23893433697 0)
(0.138486803247 1.26209769383 0)
(0.127688683514 1.27595584877 0)
(0.0990281663425 1.28535458642 0)
(0.0637787189612 1.28688942429 0)
(0.0365700755424 1.52086625103 0)
(0.0750793473289 1.44124746077 0)
(0.0669639602272 1.4408128749 0)
(0.0541990733481 1.56378581271 0)
(0.056458724632 1.74768758463 0)
(0.064168863613 1.68490996843 0)
(0.0671471122764 1.49035170418 0)
(0.0676555624953 1.30794707993 0)
(0.0684601486925 1.22682618117 0)
(0.0703254471033 1.20123032816 0)
(0.0742864381557 1.19124661739 0)
(0.0807000045886 1.18642632336 0)
(0.0885840416873 1.1856464325 0)
(0.0950125854014 1.19140391816 0)
(0.0976666043021 1.20151890228 0)
(0.095543804154 1.23451671411 0)
(0.0843900981014 1.27743969719 0)
(0.0608987302411 1.30838897767 0)
(0.033253804019 1.32533683939 0)
(0.014760284442 1.31794000798 0)
(0.0381954085226 1.61376750103 0)
(0.0791785584171 1.53705146706 0)
(0.0746014631054 1.53256344979 0)
(0.0645955577168 1.6270494645 0)
(0.0638330398855 1.78242064021 0)
(0.0651058105899 1.75387408655 0)
(0.0622727070987 1.56582194481 0)
(0.0586416713883 1.33991713706 0)
(0.0557566712296 1.23665225083 0)
(0.0532464129363 1.20407735885 0)
(0.0525918996623 1.18983164717 0)
(0.0541696805504 1.1812194375 0)
(0.0553924439557 1.17576271348 0)
(0.0530821751522 1.17509808501 0)
(0.0475019440919 1.18481858606 0)
(0.0387678820634 1.23200496967 0)
(0.0241297171092 1.29313445842 0)
(0.00621363863653 1.3334873634 0)
(-0.00570480599783 1.3438301762 0)
(-0.0068238423592 1.31604877203 0)
(0.0445132505116 1.68948563529 0)
(0.0936280948076 1.60961741956 0)
(0.0923990373623 1.60038437732 0)
(0.0830817041054 1.68170255555 0)
(0.0760615712478 1.82984980774 0)
(0.0658815509586 1.84282654405 0)
(0.0505787894716 1.66592828819 0)
(0.0343292987541 1.39313827811 0)
(0.020084755824 1.25304252897 0)
(0.00958590710439 1.20320740656 0)
(0.00408162196446 1.18218444338 0)
(0.00173086774086 1.17090036423 0)
(-0.000819263334056 1.16366887309 0)
(-0.00497696256308 1.16207013076 0)
(-0.00925518005658 1.17653709648 0)
(-0.0133125493441 1.23366166068 0)
(-0.0173507207925 1.30355408139 0)
(-0.0195140715891 1.34314519885 0)
(-0.0175203214413 1.34083166062 0)
(-0.00624430905347 1.29139860766 0)
(0.0486487236928 1.73434548745 0)
(0.103235524599 1.64222899794 0)
(0.102573793566 1.6378107766 0)
(0.0903760248331 1.72395588796 0)
(0.0772235035306 1.88933429411 0)
(0.0586986262719 1.94783455582 0)
(0.0350817962077 1.782805717 0)
(0.0109181105983 1.47020017572 0)
(-0.0108393769031 1.28658280426 0)
(-0.0284083919846 1.20966864205 0)
(-0.0400008921421 1.17943580956 0)
(-0.0463437814887 1.16505780853 0)
(-0.049554320444 1.15704243808 0)
(-0.0500304973156 1.15613393229 0)
(-0.0469011259115 1.17271133887 0)
(-0.0405879044377 1.23014138963 0)
(-0.0319698454967 1.29743303346 0)
(-0.0215021471519 1.33123527038 0)
(-0.00914377884159 1.32100739102 0)
(0.00653914526603 1.26123056051 0)
(0.100517797731 0.779687657823 0)
(0.0886346451978 0.808354191738 0)
(0.069123505935 0.835655929845 0)
(0.033173155492 0.864562333462 0)
(-0.0296565899268 0.928935871453 0)
(-0.0785258274407 0.993574480023 0)
(0.0089512416742 1.0100060294 0)
(0.199872180888 1.02541302943 0)
(0.251174596166 0.879498850939 0)
(0.130600504178 0.626932180915 0)
(0.0276285392961 0.491478462364 0)
(-0.00109317565525 0.426125021815 0)
(-0.0102364603682 0.388130010348 0)
(-0.0228031563597 0.361308660582 0)
(-0.0541928791901 0.338472465431 0)
(-0.0390368745122 0.339716653031 0)
(0.242269045021 0.738475724998 0)
(0.234281188696 0.74672359823 0)
(0.225434661592 0.769882320224 0)
(0.219207625462 0.810887159037 0)
(0.215952770052 0.866254625984 0)
(0.210143905582 0.929003369405 0)
(0.197272155257 0.987013720565 0)
(0.173025657154 1.03890307043 0)
(0.122558378255 1.11585568797 0)
(0.0572361117649 1.18418920527 0)
(0.0776082849261 1.23006149085 0)
(0.120976696099 1.24396658322 0)
(0.038605422389 1.00319646593 0)
(-0.0575932239662 0.541896774912 0)
(-0.0799330401906 0.437026684336 0)
(-0.0749475722988 0.38594782993 0)
(-0.0650724725133 0.353322464831 0)
(-0.0594643507251 0.327707928352 0)
(-0.0732624386825 0.305816630451 0)
(-0.044305747535 0.290958202836 0)
(0.336353500346 0.750940522613 0)
(0.34115783612 0.77301303889 0)
(0.346977132312 0.818484547914 0)
(0.346331412958 0.884859283138 0)
(0.331294409051 0.957390104636 0)
(0.304945840339 1.02942311729 0)
(0.276263703033 1.08469139185 0)
(0.248858912922 1.12020795323 0)
(0.224690459395 1.16742622458 0)
(0.188633341106 1.24062256495 0)
(0.121504971805 1.31616590025 0)
(0.0215692046967 1.36715130165 0)
(-0.0906470247816 1.14054679027 0)
(-0.140973078997 0.356582533044 0)
(-0.128665309749 0.279719289939 0)
(-0.106963698149 0.247382330851 0)
(-0.0849251193098 0.227709784969 0)
(-0.0695814318595 0.210226540547 0)
(-0.0744491622338 0.193352323379 0)
(-0.0428927729328 0.163565696365 0)
(0.414527547224 0.77542260858 0)
(0.41782185628 0.81448291743 0)
(0.388101137296 0.868198229891 0)
(0.323423036076 0.943086840735 0)
(0.247225756177 1.01621053858 0)
(0.186841901224 1.06304412888 0)
(0.157889589073 1.07043787678 0)
(0.180654027429 0.991031946309 0)
(0.22130743116 1.03655774641 0)
(0.203335500859 1.22340169526 0)
(0.138591799009 1.35778627162 0)
(0.0820480140089 1.42708277086 0)
(0.0200686100477 1.25367637959 0)
(-0.0313777337735 0.32313751235 0)
(-0.0412868624417 0.164360106236 0)
(-0.0363575839675 0.118693927809 0)
(-0.0342388858769 0.101559151139 0)
(-0.0358078439246 0.0897009696816 0)
(-0.0539445801414 0.0748441182392 0)
(-0.0358724375425 0.047984972907 0)
(0.409390505622 0.809318672767 0)
(0.316755080285 0.870360299509 0)
(0.189809554201 0.959904334216 0)
(0.0752505832979 1.02569505046 0)
(0.00940152514152 1.04535714216 0)
(-0.00424638290435 1.03129043212 0)
(0.0399355021008 0.914715929761 0)
(0.110940215449 0.771121611046 0)
(0.143567760083 0.910012905254 0)
(0.12608293815 1.25984690932 0)
(0.100391548001 1.42202140859 0)
(0.0885300284283 1.47395455612 0)
(0.0674312350397 1.35801178202 0)
(0.0324188933643 0.488606500549 0)
(0.00940953140631 0.198893167993 0)
(0.00825606431896 0.095273340887 0)
(0.00591094354916 0.0541864231538 0)
(-0.006367445325 0.0332017175467 0)
(-0.0385678847252 0.0120289075809 0)
(-0.0316627955328 -0.00800910423194 0)
(0.202010065076 0.903980081922 0)
(0.048498107656 1.00664758197 0)
(-0.051122900532 1.07451617475 0)
(-0.0839126364364 1.08489418521 0)
(-0.0775904924257 1.03041028761 0)
(-0.0281712406558 0.896216928229 0)
(0.0415289997718 0.723660640402 0)
(0.0876661991 0.63349235012 0)
(0.099626428198 0.867410451097 0)
(0.0903812759842 1.28752179124 0)
(0.0906996390756 1.42267394475 0)
(0.103326252006 1.45908641304 0)
(0.117701160091 1.36681284275 0)
(0.083890894245 0.687963344873 0)
(0.0386662350383 0.287061102663 0)
(0.0349808555009 0.1331558047 0)
(0.0311066266724 0.0663769346885 0)
(0.0146078194353 0.0318922505687 0)
(-0.0253177074299 0.00224841178458 0)
(-0.0268964103891 -0.0175503944738 0)
(-0.0468983185153 1.06121392973 0)
(-0.110814888054 1.13144645014 0)
(-0.122262628959 1.11140358378 0)
(-0.10563280705 1.04845472237 0)
(-0.0506168110683 0.911277056672 0)