/*--------------------------------*- C++ -*----------------------------------*\
| =========                 |                                                 |
| \\      /  F ield         | OpenFOAM: The Open Source CFD Toolbox           |
|  \\    /   O peration     | Version:  2312                                  |
|   \\  /    A nd           | Website:  www.openfoam.com                      |
|    \\/     M anipulation  |                                                 |
\*---------------------------------------------------------------------------*/
FoamFile
{
    version     2.0;
    format      ascii;
    arch        "LSB;label=32;scalar=64";
    class       volScalarField;
    location    "0.14/water";
    object      alpha.gas_0;
}
// * * * * * * * * * * * * * * * * * * * * * * * * * * * * * * * * * * * * * //

dimensions      [0 0 0 0 0 0 0];

internalField   nonuniform List<scalar> 
750
(
0.871568923177
0.870781429269
0.87162837423
0.874713835438
0.881657788699
0.891695137531
0.900768090702
0.905286406764
0.906242545943
0.906245818783
0.906255604923
0.906358514717
0.906453860887
0.906472988733
0.906483735105
0.906503683784
0.905510461581
0.902810457648
0.899057108454
0.893812550019
0.871563861809
0.869987553153
0.869979981508
0.870175578075
0.875668177913
0.887486231391
0.899637844594
0.905812726275
0.906384781982
0.906394541336
0.906414250783
0.906424565333
0.906445002609
0.906453914415
0.906473783159
0.906483555939
0.906051770563
0.90226680377
0.896208691775
0.886074385468
0.871556208632
0.87043700674
0.870836695341
0.873306013099
0.880224558558
0.891486238273
0.902001011841
0.906353734583
0.906365166117
0.90638708892
0.906394564134
0.906415726161
0.906424567465
0.906445500827
0.906453860887
0.906469123101
0.906453860887
0.904507757679
0.899149555629
0.886040207408
0.871550973541
0.871025938557
0.872677700667
0.877088100826
0.885008503581
0.895261545369
0.903652316393
0.906335104206
0.906357509386
0.906365166117
0.906386134428
0.906394564134
0.906413818212
0.906424565333
0.906443108724
0.906453860887
0.906443553156
0.906424240049
0.903200684261
0.886592948083
0.87154512993
0.870532620526
0.871329359199
0.874211728339
0.880219712211
0.888580964085
0.89670826582
0.902046304733
0.90457833111
0.905419819373
0.905588117069
0.905608223005
0.905563628492
0.905369710475
0.905031172825
0.90465640832
0.904333998512
0.904059801799
0.902374116536
0.888459898171
0.866195778257
0.864915272152
0.864796002838
0.865872633668
0.869542963891
0.875823159449
0.883424347649
0.890540540501
0.895584242303
0.897947611876
0.898603645212
0.898596482198
0.898138784505
0.896829364382
0.894836516818
0.892591127312
0.890478426026
0.88862377996
0.888761268791
0.881284079794
0.860325787218
0.858437334393
0.858422112721
0.858994135634
0.862532556855
0.868393452813
0.875337756419
0.881928636671
0.886630199375
0.888991909289
0.889685050969
0.889509733548
0.88830345814
0.885396595081
0.880796460646
0.875150363175
0.869332650707
0.862487813562
0.858096266385
0.856469635803
0.865033481784
0.862410036465
0.861174574071
0.862064626444
0.865320881928
0.87070009197
0.876852238277
0.882178859909
0.885453908888
0.886944510296
0.887273973736
0.886990610715
0.885528721733
0.882284246161
0.876577235546
0.869024638809
0.860714648672
0.849555722519
0.833738135881
0.830455527718
0.865039760639
0.86450307875
0.865563377977
0.867673687633
0.871154153045
0.875821862643
0.88093633244
0.885126844651
0.887186717998
0.887218465847
0.887246226131
0.887218465847
0.887093658239
0.885639529353
0.882424812443
0.87731574221
0.870606047416
0.859712300675
0.833189248658
0.826560052949
0.865033481784
0.864173706763
0.864877848666
0.866628769373
0.869840668374
0.874131763414
0.878705103876
0.88250732176
0.884708567395
0.885499257048
0.885768447107
0.885911154473
0.885993088848
0.885950325702
0.885627603947
0.883948474394
0.879883340653
0.872138538977
0.852859758775
0.826654113768
0.857452060231
0.855766751672
0.855286115757
0.85600887426
0.858584163213
0.862584369258
0.866750403845
0.870133842358
0.872088020491
0.872484744385
0.871618104082
0.869887127102
0.868541067594
0.868605689301
0.869735016564
0.871848625445
0.87344656692
0.872694707857
0.866959646682
0.858336196997
0.841757072394
0.840810238821
0.840827190249
0.841752409898
0.844052197941
0.846981353682
0.849401602052
0.850511214417
0.849948401434
0.846582725917
0.839294894139
0.829013707791
0.818386725732
0.811265892975
0.809514193789
0.814330600141
0.827697384235
0.842035598556
0.858637398352
0.882813775325
0.850036573272
0.846613196427
0.843505862738
0.842407569801
0.842972481802
0.844347588895
0.845727875179
0.845424822486
0.841909705458
0.833467932347
0.819884764247
0.801219606963
0.779539525181
0.758673256414
0.742300168565
0.73307856514
0.733046207743
0.747789874167
0.783715372421
0.861986741768
0.858187710999
0.856685242305
0.856593162917
0.858396843878
0.861933704557
0.861842064729
0.861891028082
0.861801875219
0.858213176588
0.849784723655
0.837039735674
0.820054882358
0.801233529084
0.77521313862
0.72633598612
0.655292581872
0.655085195903
0.65994053112
0.862017130798
0.861995699217
0.861986910045
0.86193774053
0.862000968911
0.861899087228
0.861916561361
0.861842064729
0.861905853745
0.861801875219
0.861819863258
0.861745142715
0.858685591586
0.848529684604
0.830785888704
0.79859866984
0.755929734357
0.708024446994
0.686513553395
0.846110856455
0.84469950492
0.844617541147
0.845162239356
0.846813616779
0.849229119282
0.851690556124
0.853513855756
0.85433819857
0.854336580625
0.853697574936
0.852053474786
0.848915684514
0.844126041259
0.83772283213
0.827612346469
0.812450246692
0.7921951952
0.76814440001
0.845711348757
0.842174597818
0.838017372204
0.834512079321
0.832338354859
0.830826287311
0.82923639388
0.826721175001
0.822402822951
0.815870930912
0.807655604012
0.799438579332
0.794246678394
0.794657066423
0.799290456483
0.804391401485
0.808145075984
0.812327208279
0.815486157105
0.829222686818
0.82571579928
0.82113953577
0.816071655064
0.810687218268
0.804270874086
0.796051250846
0.784968177317
0.769587218249
0.748384533369
0.720494385589
0.687809618039
0.654347867772
0.629424723171
0.622057190468
0.631440283412
0.669430904269
0.72848177325
0.790169457468
0.835477578424
0.832383984011
0.828201870101
0.822835474785
0.816668464772
0.809334615796
0.800518044509
0.789835255102
0.776769755643
0.760734750954
0.741168811275
0.716883342681
0.683873431839
0.631273819458
0.554280254386
0.497867565601
0.497162278722
0.514348344478
0.6050003367
0.828035627335
0.824749382216
0.821039277753
0.817805910002
0.815393185199
0.813260823677
0.810870380713
0.807903910675
0.804324923382
0.800134788565
0.795062597413
0.788028222237
0.776657793879
0.758180867761
0.73546439957
0.713401320734
0.693856318807
0.693521642441
0.704017414291
0.837648993244
0.837055387798
0.83702394945
0.837048047586
0.836993124346
0.836982692506
0.836931402208
0.836980220836
0.836900245051
0.836889216669
0.836837588193
0.836859512643
0.836805492613
0.836788193691
0.836742159079
0.836678900728
0.834986384553
0.8304694108
0.815925059662
0.831146967662
0.828245620015
0.825762623776
0.824485682124
0.824281235591
0.824155158696
0.823606531327
0.821814146799
0.818055732798
0.8126649993
0.807060884373
0.80343398665
0.803145011293
0.805903880376
0.8133038959
0.822648525333
0.829179689845
0.830745295085
0.832440412142
0.824080220497
0.82059278885
0.815289557079
0.808265082323
0.799577079444
0.788302244467
0.77303837767
0.751422211275
0.719751029258
0.673162940669
0.606322664175
0.523496680538
0.458238007304
0.448906972171
0.481145719991
0.583843378907
0.715437880969
0.800448304371
0.8445941511
0.882533590996
0.82335035437
0.81940476027
0.812816531199
0.803589773072
0.79196083356
0.777458682127
0.759496878754
0.73780845819
0.711895785364
0.680334138692
0.639693370031
0.58632907852
0.518302479698
0.438310369038
0.372317801354
0.372245129505
0.405123857784
0.527009915469
0.713327843382
0.847039764503
0.801771000047
0.798443229449
0.793177317317
0.78699335693
0.78143407202
0.777065229793
0.773892820508
0.771642888091
0.77005629281
0.768881836866
0.767760277909
0.76562146307
0.760586203396
0.750724988102
0.73786110458
0.724780722364
0.716560682891
0.719235707988
0.740399916406
0.792546563966
0.805979248184
0.80474517002
0.807442450661
0.820366831239
0.829064708204
0.829658204051
0.829098399025
0.829669672976
0.829131858476
0.829609217758
0.829165658548
0.829550378851
0.82919923551
0.829440945557
0.829232589418
0.829333578531
0.82926629436
0.82928314498
0.824735612915
0.832638036961
0.809855008612
0.806440664764
0.802525807927
0.800220867885
0.799905521472
0.800208591822
0.800893228264
0.801705112741
0.802368936247
0.80271905768
0.802874243814
0.803483483903
0.805572118161
0.809751063637
0.814953128277
0.820044497228
0.824224540094
0.830461177259
0.845760290996
0.874129058438
0.80982286569
0.80629656194
0.799980940566
0.790427128859
0.777769600693
0.761973540043
0.743098402958
0.720917717926
0.693591300313
0.655630381793
0.596559054563
0.512254985133
0.43720082876
0.426420126097
0.434889724776
0.536419517625
0.71362327383
0.838549300556
0.897108551045
0.929594661728
0.808487615644
0.804395201865
0.796341689038
0.783942135641
0.76754826598
0.747488048169
0.724430869849
0.699361443758
0.673023770177
0.643856479615
0.60706981346
0.556603948842
0.49164070451
0.426482671685
0.392895778599
0.39289581924
0.447809038479
0.602911667466
0.78744088196
0.893490937602
0.776691887299
0.772525502043
0.764504349133
0.753477621634
0.742177769091
0.73356814263
0.729230772016
0.728132289631
0.728843445542
0.732255406774
0.740125549222
0.750167948657
0.75574615593
0.755240045426
0.753011657273
0.749405129469
0.747329882052
0.751557650612
0.774045089799
0.825021087668
0.788379947462
0.78504363749
0.780109628589
0.775542505913
0.773355455586
0.773082823109
0.77400288209
0.776982209602
0.782334746002
0.789597961004
0.797976481501
0.8067586964
0.815923509492
0.827539230183
0.846081182561
0.858318739348
0.858323485086
0.858318739348
0.856270996081
0.86546239272
0.771811670863
0.768311367556
0.763056815434
0.75775126932
0.754402765309
0.753309892868
0.753379900732
0.754078037624
0.75626441266
0.760642705061
0.767324569656
0.775912920378
0.786159013988
0.797890328668
0.810415588199
0.823312853238
0.83642662794
0.852808430316
0.879982522326
0.916166112322
0.801301162601
0.797141398126
0.788736091877
0.775683948582
0.758617988071
0.738188062612
0.715321132912
0.690580480858
0.662757112753
0.626520478955
0.571338706508
0.49113762829
0.42000855578
0.419831267678
0.425717839108
0.544568871498
0.733454476915
0.852221378511
0.907884117959
0.947747806261
0.801272702552
0.797116025629
0.788605635029
0.775014649824
0.75663556163
0.734244407589
0.709370992314
0.683800422178
0.658477649205
0.632309747409
0.601675205232
0.561009804451
0.505994724628
0.443233304227
0.402381240009
0.402428464704
0.451295692056
0.589871156763
0.77457574194
0.899750720631
0.757820889012
0.752711027829
0.739784113036
0.718613632402
0.694246370878
0.675974105822
0.669591331973
0.669693840551
0.675855205911
0.692916190682
0.720729861532
0.752838530781
0.778976274726
0.792675452953
0.796871687891
0.797546791895
0.797613731014
0.799020626242
0.809122694722
0.835426411869
0.768172822744
0.764248872192
0.757209015757
0.748591333975
0.741839430162
0.739124278823
0.739208953004
0.74098833849
0.74694199693
0.758563633891
0.774921988124
0.793457808041
0.81181161046
0.828845913144
0.844305067415
0.858073521701
0.869826127996
0.878385360355
0.881005788094
0.885531024771
0.756027615848
0.751272429725
0.739645363158
0.72112803368
0.700439423184
0.685434527533
0.68039160695
0.680489603419
0.685031149958
0.69706276606
0.715941429241
0.738345566397
0.76072895448
0.781140726984
0.79922376427
0.8157657778
0.834612742689
0.866441510728
0.90713768961
0.940016073149
0.801687636727
0.797625112512
0.789492032532
0.776703681911
0.759861594205
0.739918942986
0.71810699621
0.695231901512
0.670535506025
0.640290950397
0.596867656835
0.531889049614
0.452023890701
0.39815940196
0.422189290079
0.532938273245
0.72201380567
0.875715693902
0.951037475557
0.972237889035
)
;

boundaryField
{
    emptyPatch
    {
        type            empty;
    }
    minY
    {
        type            fixedValue;
        value           nonuniform List<scalar> 0();
    }
    maxY
    {
        type            inletOutlet;
        phi             phi.gas;
        inletValue      uniform 1;
        value           nonuniform List<scalar> 
20
(
0.801687636727
0.797625112512
0.789492032532
0.776703681911
0.759861594205
0.739918942986
0.71810699621
0.695231901512
0.670535506025
0.640290950397
0.596867656835
0.531889049614
0.452023890701
0.39815940196
0.422189290079
0.532938273245
0.72201380567
0.875715693902
0.951037475557
0.972237889035
)
;
    }
    maxX
    {
        type            zeroGradient;
    }
    water_to_heater
    {
        type            zeroGradient;
    }
    procBoundary3to0
    {
        type            processor;
        value           nonuniform List<scalar> 
20
(
0.878293562025
0.877477502735
0.878809953348
0.883215336215
0.89045771161
0.897844772336
0.902984288093
0.905375096684
0.905910722102
0.905891316707
0.905942355083
0.906106982977
0.906312764881
0.906477489273
0.906500574492
0.906513130385
0.90615134826
0.90521074143
0.904505351261
0.903106363327
)
;
    }
    procBoundary3to1
    {
        type            processor;
        value           uniform 0.911146457656;
    }
    procBoundary3to2
    {
        type            processor;
        value           nonuniform List<scalar> 
39
(
0.900051051795
0.891967001167
0.890582500424
0.896269449934
0.903555946652
0.903863481365
0.896124711357
0.888691993791
0.894910634485
0.914014368543
0.839460183208
0.92865069299
0.839460183208
0.721677428181
0.708453403619
0.762621787782
0.827415476417
0.854658645565
0.763263779674
0.748898927102
0.800011006913
0.837839358566
0.837839358566
0.92378185957
0.922292471635
0.913739743053
0.919672074604
0.936954046599
0.948215750824
0.944950507615
0.935393467496
0.944280826828
0.964016496781
0.97116548334
0.971165680764
0.9711653762
0.972238334208
0.972237889035
0.97223811197
)
;
    }
}


// ************************************************************************* //
