/*--------------------------------*- C++ -*----------------------------------*\
| =========                 |                                                 |
| \\      /  F ield         | OpenFOAM: The Open Source CFD Toolbox           |
|  \\    /   O peration     | Version:  2312                                  |
|   \\  /    A nd           | Website:  www.openfoam.com                      |
|    \\/     M anipulation  |                                                 |
\*---------------------------------------------------------------------------*/
FoamFile
{
    version     2.0;
    format      ascii;
    arch        "LSB;label=32;scalar=64";
    class       volScalarField;
    location    "0.585/water";
    object      p_rgh;
}
// * * * * * * * * * * * * * * * * * * * * * * * * * * * * * * * * * * * * * //

dimensions      [1 -1 -2 0 0 0 0];

internalField   nonuniform List<scalar> 
1504
(
101406.275642
101410.650556
101418.642012
101418.722839
101434.569064
101481.907175
101535.67432
101583.059575
101624.521296
101652.028591
101661.562822
101662.97296
101661.097785
101654.101724
101626.632525
101607.153141
101608.667059
101623.121241
101684.047023
101761.373306
101362.595893
101394.09946
101411.05295
101414.084125
101429.763819
101480.480749
101539.297105
101589.957103
101631.348816
101655.683983
101662.099752
101662.737727
101660.068508
101652.809786
101627.587876
101603.491702
101605.384721
101615.305682
101667.394131
101745.205394
101356.945778
101383.720465
101403.085514
101410.802648
101427.782552
101478.43614
101542.931497
101599.007853
101640.840923
101662.190779
101665.819695
101665.386883
101661.315989
101653.086814
101630.561772
101603.297463
101603.615325
101609.634362
101652.279728
101728.301421
101355.098278
101378.545124
101396.171532
101407.728285
101426.580871
101474.871212
101542.880804
101604.926137
101650.245311
101670.145288
101672.056946
101670.228727
101664.073722
101653.919332
101634.122237
101609.482619
101603.866991
101605.707436
101638.321037
101711.200434
101357.108024
101376.936526
101392.908525
101406.142146
101426.527926
101472.924104
101541.824464
101609.83399
101659.590976
101679.06183
101679.998133
101676.247843
101666.959037
101654.407416
101638.88941
101621.054201
101607.068065
101602.635546
101626.458324
101695.301327
101355.51998
101377.562333
101393.162414
101407.082778
101428.935171
101475.650881
101545.048082
101616.652166
101670.198925
101689.104742
101688.784166
101682.313763
101668.796967
101654.718511
101645.581215
101635.303572
101615.86797
101600.403444
101617.413476
101682.472416
101358.95491
101379.609785
101395.708256
101410.430848
101434.894322
101483.45489
101553.953186
101628.267311
101683.351474
101697.917695
101697.355472
101687.670274
101669.187914
101657.134408
101655.090661
101650.731839
101627.03537
101598.980733
101611.324449
101673.695587
101357.215726
101384.327165
101401.99996
101419.208673
101448.846031
101501.373608
101573.280791
101647.856665
101698.374713
101705.940951
101704.952696
101691.371376
101670.593472
101663.442558
101666.322986
101663.759797
101633.84518
101597.991023
101608.177364
101668.372643
101360.401873
101394.266704
101415.880112
101438.155814
101474.562271
101532.27078
101605.271888
101675.971907
101712.303859
101713.600917
101711.694663
101693.603248
101675.176496
101673.093268
101677.992657
101672.094692
101635.507655
101596.868508
101606.291684
101664.212763
101358.762351
101411.831669
101441.530897
101472.630325
101517.311062
101579.550883
101650.57753
101708.067252
101722.048559
101721.123112
101716.192666
101695.690368
101682.694775
101684.29539
101687.242286
101674.990253
101632.002233
101594.487941
101602.269356
101657.420581
101361.894123
101438.289191
101482.278329
101527.316029
101581.014161
101644.505547
101703.705188
101729.335587
101728.373844
101726.874009
101719.548336
101699.302009
101693.20038
101694.833048
101691.83582
101670.627048
101623.408622
101591.388913
101592.910545
101644.50199
101359.283211
101480.662712
101541.30549
101602.504252
101661.607046
101713.320189
101735.970142
101734.913643
101733.110528
101731.90452
101721.515908
101704.755461
101702.748829
101701.037423
101690.900589
101659.429537
101613.977516
101588.46632
101588.273921
101625.271868
101363.196864
101538.211161
101616.500067
101688.3261
101731.579656
101742.432446
101739.593796
101737.703383
101736.425574
101733.544965
101724.512024
101711.179965
101708.607026
101702.637297
101685.488582
101650.74971
101608.753335
101584.823389
101583.917808
101596.795761
101362.904373
101604.99222
101699.087769
101745.880968
101745.748594
101743.604184
101741.506176
101740.522803
101737.177838
101735.849371
101726.070336
101715.807703
101711.139411
101702.142676
101682.553974
101647.245267
101604.592384
101579.08363
101578.025684
101577.373712
101378.188876
101691.486505
101751.48654
101750.271844
101748.798972
101745.910405
101745.32111
101740.766327
101739.490902
101734.034874
101728.444718
101717.868855
101712.564289
101703.429016
101685.05041
101649.743254
101603.076291
101572.213511
101569.426548
101569.024824
101458.818425
101760.384837
101757.637495
101757.100682
101752.669699
101751.779089
101745.483898
101743.961997
101736.175892
101732.983188
101724.219029
101717.396793
101713.082595
101707.284437
101695.425509
101662.713692
101609.313085
101567.264941
101558.256375
101557.035136
101571.935444
101748.939227
101753.926847
101753.224039
101751.384375
101743.124197
101739.876542
101729.492728
101722.600095
101716.177777
101711.01969
101708.130132
101705.175414
101702.106135
101697.696431
101678.415296
101626.815842
101568.799738
101543.752625
101543.101462
101484.173478
101546.448139
101574.339639
101603.416443
101626.910486
101646.477343
101659.561682
101669.703933
101675.750639
101679.609979
101681.41689
101681.309206
101680.822137
101680.263877
101679.789164
101677.542268
101650.320266
101582.698066
101531.894358
101527.019762
101281.015808
101230.922072
101269.388963
101304.530939
101350.501439
101409.319693
101487.940755
101560.430617
101604.889973
101626.317967
101637.346769
101643.544275
101647.761538
101651.316671
101654.42696
101657.259209
101657.556671
101612.089847
101533.966387
101511.516776
101132.86688
101101.948065
101125.44524
101144.422076
101167.085214
101204.715796
101280.664985
101393.840924
101503.805725
101571.2915
101602.326836
101615.283502
101622.157306
101628.259124
101633.816417
101638.707836
101643.257944
101637.924545
101554.788985
101496.688099
101076.924348
101082.201827
101098.036652
101113.045094
101125.715065
101144.926961
101186.206744
101264.520555
101380.860447
101494.766047
101571.261875
101603.2088
101609.878863
101616.116398
101621.771824
101627.169921
101631.867989
101636.298639
101586.637736
101491.31934
101073.099193
101081.5943
101096.848712
101112.980656
101125.729206
101143.160237
101176.497025
101234.784529
101324.699778
101430.481947
101531.330452
101599.496152
101607.351307
101612.237898
101617.141804
101621.590835
101626.09898
101629.735103
101615.86123
101500.540943
101074.170551
101083.274196
101101.271524
101119.998194
101134.687171
101152.473884
101184.027628
101239.199229
101321.406925
101415.992238
101512.57707
101594.925419
101609.742476
101613.521501
101616.876257
101620.63843
101623.676732
101627.320987
101629.427002
101517.75593
101074.38975
101090.913999
101116.228612
101140.230701
101158.137016
101177.764499
101208.962973
101261.186505
101335.342214
101424.923791
101519.358589
101598.799178
101615.024821
101617.128257
101619.872503
101621.833396
101624.673015
101626.291175
101628.630821
101535.96549
101075.150248
101110.103985
101143.005702
101171.219347
101190.955601
101214.350204
101250.44566
101304.081129
101373.366142
101456.198002
101545.305159
101611.916907
101620.968531
101622.549464
101623.509663
101625.45
101626.251512
101628.415014
101628.398356
101544.904571
101081.773763
101143.042876
101174.382037
101202.142286
101222.288027
101252.596845
101297.873249
101357.927681
101429.823674
101511.598231
101591.754129
101626.511911
101626.946621
101627.293569
101628.358944
101628.407438
101629.740103
101629.624672
101629.114462
101541.636263
101123.23644
101183.828567
101201.10709
101220.490301
101243.775333
101285.153511
101343.877834
101414.64009
101493.888221
101575.769898
101628.955374
101632.427641
101632.133709
101632.467867
101631.935003
101632.510527
101631.783502
101632.545832
101612.393894
101542.385453
101221.684635
101221.809178
101217.28719
101224.626971
101251.755339
101307.119419
101382.996589
101468.600679
101556.580087
101625.9912
101638.728025
101637.709922
101637.500069
101636.479548
101636.495751
101635.138044
101635.19327
101633.497102
101595.801196
101550.588408
101313.339222
101250.57037
101224.789229
101227.004629
101256.360031
101322.926698
101414.05269
101513.657904
101604.603448
101644.905355
101643.838971
101643.081893
101641.745056
101641.359649
101639.535451
101639.159094
101637.175898
101624.057466
101590.947643
101567.407751
101318.092338
101275.428352
101234.313623
101233.888645
101265.378853
101339.742901
101440.312501
101546.909164
101631.199311
101650.82162
101649.145272
101647.59965
101646.774632
101644.627381
101643.82049
101641.316486
101640.25574
101612.096832
101597.287333
101588.045516
101317.342702
101287.740386
101251.10733
101250.394017
101283.053391
101361.0461
101465.351574
101572.591524
101646.716771
101656.544512
101654.389312
101653.013024
101650.591342
101649.352631
101646.445504
101645.100903
101635.421286
101613.390679
101610.934309
101608.042238
101301.050647
101315.777296
101282.956415
101280.723849
101312.225992
101389.830469
101494.011647
101598.220214
101660.031482
101662.540419
101660.201312
101657.3844
101655.539698
101652.147518
101650.233092
101646.419472
101626.640627
101614.962408
101623.808423
101623.46613
101310.307332
101365.699928
101330.301962
101327.585071
101356.14732
101430.436534
101531.67973
101628.853298
101671.118416
101667.89064
101664.617916
101662.067045
101658.230037
101655.724768
101651.547061
101642.954401
101617.487112
101618.091944
101629.746487
101631.981975
101315.003887
101443.777084
101402.154477
101398.875202
101422.942802
101490.165567
101582.841274
101661.97858
101675.225035
101670.851256
101667.649144
101663.356908
101660.301611
101655.71279
101650.832879
101623.346995
101616.587389
101619.345097
101630.166406
101632.127205
101318.428528
101536.554921
101496.801617
101494.493713
101512.936694
101567.684111
101640.185671
101677.260975
101672.725995
101669.229799
101664.977075
101661.746836
101656.990956
101650.621319
101628.451596
101617.212043
101613.957668
101618.527205
101627.855143
101630.025069
101303.432446
101581.186741
101573.633553
101575.875995
101587.855
101623.20626
101662.312304
101666.319591
101663.532481
101659.871879
101653.661287
101645.929532
101638.940002
101627.487098
101615.350275
101611.410363
101610.426033
101615.676141
101622.543452
101625.724109
101290.911637
101558.403729
101559.568067
101562.452585
101576.462074
101607.427484
101637.722782
101638.813981
101631.512271
101621.527305
101613.323232
101611.799891
101612.604291
101613.745336
101609.145681
101607.263437
101607.616401
101610.337766
101614.262129
101618.218556
101270.773507
101449.013527
101447.306643
101456.426749
101478.03832
101505.99385
101520.639206
101808.415649
101809.657075
101810.703483
101811.590215
101812.342747
101812.979555
101813.514315
101813.958651
101814.323564
101814.619111
101814.854134
101815.036406
101815.172797
101815.269721
101815.334031
101815.373275
101815.384299
101798.356609
101804.627594
101806.569748
101808.136453
101809.446905
101810.549938
101811.482272
101812.270966
101812.936077
101813.493086
101813.955372
101814.335153
101814.643145
101814.888631
101815.079669
101815.223342
101815.326139
101815.394869
101815.437133
101815.451614
101794.620472
101805.323073
101807.441689
101808.994246
101810.293068
101811.384731
101812.305283
101813.08184
101813.734863
101814.280572
101814.733072
101815.104846
101815.406571
101815.64739
101815.835195
101815.976885
101816.078715
101816.147127
101816.189418
101816.205991
101789.661755
101807.058114
101809.567315
101811.006052
101812.208517
101813.217485
101814.066097
101814.779946
101815.37858
101815.877794
101816.291295
101816.630893
101816.906516
101817.126596
101817.298381
101817.428196
101817.521714
101817.584697
101817.623786
101817.640929
101783.305866
101809.519443
101812.883754
101814.116081
101815.137544
101815.992925
101816.710058
101817.311289
101817.813826
101818.231794
101818.577356
101818.86076
101819.090496
101819.273737
101819.41663
101819.524535
101819.602225
101819.65451
101819.687057
101819.703023
101776.129967
101812.346855
101817.233789
101818.188901
101818.950253
101819.586398
101820.117289
101820.560159
101820.928405
101821.233228
101821.484191
101821.689185
101821.854667
101821.986061
101822.088007
101822.164554
101822.219298
101822.255822
101822.278598
101822.29152
101769.350298
101815.269849
101822.357193
101823.00365
101823.439972
101823.803089
101824.102948
101824.350009
101824.552608
101824.717965
101824.852195
101824.960233
101825.046032
101825.112893
101825.163622
101825.200689
101825.226257
101825.242553
101825.252661
101825.260676
101763.967885
101818.146818
101827.911656
101828.263926
101828.332701
101828.386909
101828.425558
101828.451343
101828.466765
101828.474379
101828.476341
101828.474269
101828.46934
101828.462489
101828.454489
101828.446039
101828.437764
101828.430355
101828.425489
101828.426903
101760.096656
101820.826719
101833.516296
101833.625521
101833.309679
101833.039585
101832.803766
101832.596859
101832.415255
101832.256567
101832.118816
101832.000198
101831.899023
101831.813777
101831.743114
101831.685903
101831.641119
101831.607974
101831.586658
101831.580074
101756.549224
101822.942937
101838.776158
101838.724106
101838.031802
101837.442876
101836.936878
101836.500672
101836.124687
101835.801671
101835.525633
101835.291453
101835.094655
101834.931334
101834.798078
101834.691946
101834.610373
101834.551033
101834.512774
101834.497258
101750.71651
101823.65365
101843.272995
101843.197318
101842.162545
101841.281147
101840.526648
101839.879193
101839.323869
101838.84902
101838.445029
101838.103771
101837.818228
101837.582311
101837.390696
101837.238801
101837.122581
101837.038427
101836.983811
101836.958902
101739.185551
101821.390792
101846.545802
101846.720828
101845.39791
101844.267097
101843.300243
101842.472144
101841.763399
101841.158606
101840.645058
101840.212046
101839.850363
101839.552026
101839.310078
101839.118502
101838.972095
101838.866042
101838.796677
101838.762475
101717.21505
101813.722734
101848.052391
101849.017858
101847.480068
101846.155677
101845.023878
101844.055883
101843.228749
101842.524017
101841.926433
101841.423163
101841.003206
101840.657054
101840.376428
101840.154208
101839.984238
101839.860928
101839.779471
101839.736533
101684.470662
101799.013965
101847.069277
101849.873099
101848.207742
101846.749144
101845.506628
101844.447652
101843.545554
101842.778885
101842.130069
101841.584451
101841.129592
101840.754822
101840.450929
101840.21002
101840.025442
101839.891082
101839.801299
101839.750763
101653.261583
101776.198155
101842.079047
101848.985718
101847.368998
101845.855841
101844.57609
101843.492565
101842.574321
101841.796948
101841.140898
101840.590206
101840.131564
101839.753726
101839.447086
101839.203528
101839.016312
101838.879439
101838.786599
101838.730246
101625.973959
101744.174071
101830.421485
101845.72192
101844.682234
101843.269957
101842.077404
101841.072924
101840.225187
101839.509539
101838.90658
101838.400749
101837.979291
101837.631571
101837.348617
101837.122913
101836.948442
101836.819943
101836.730985
101836.671451
101594.720195
101702.368226
101808.672633
101839.133076
101840.01471
101838.93716
101837.99481
101837.200738
101836.530469
101835.963912
101835.485393
101835.082532
101834.745314
101834.465489
101834.23613
101834.051497
101833.907168
101833.79954
101833.722603
101833.663125
101551.720699
101651.9856
101773.271466
101827.334621
101833.455359
101833.093075
101832.560591
101832.102431
101831.710568
101831.374691
101831.086629
101830.840054
101830.62995
101830.452241
101830.303525
101830.181006
101830.08283
101830.007799
101829.950919
101829.894806
101527.52784
101603.265557
101724.194222
101806.736878
101824.941202
101826.24983
101826.254109
101826.216028
101826.169262
101826.117537
101826.06294
101826.007222
101825.951903
101825.898323
101825.847597
101825.80073
101825.759147
101825.724821
101825.694366
101825.644269
101511.955372
101561.437607
101670.136955
101774.641668
101813.443079
101818.982397
101819.708078
101820.112153
101820.425674
101820.669443
101820.856995
101820.998815
101821.103403
101821.177807
101821.227917
101821.258763
101821.275357
101821.283789
101821.284046
101821.243148
101498.106176
101527.775798
101620.999556
101734.178237
101796.941967
101811.499283
101813.591658
101814.399625
101815.029218
101815.5323
101815.932635
101816.248277
101816.49366
101816.680705
101816.819387
101816.918201
101816.985197
101817.030353
101817.061154
101817.035629
101485.936909
101502.108083
101580.554916
101692.015848
101774.272525
101803.137398
101808.382114
101809.600616
101810.452471
101811.139643
101811.692621
101812.134158
101812.482365
101812.752225
101812.956386
101813.105679
101813.209922
101813.280365
101813.332703
101813.325974
101477.051242
101480.939662
101547.508882
101652.06071
101746.046833
101792.259867
101803.928269
101806.018373
101806.992726
101807.773631
101808.406552
101808.915854
101809.320959
101809.638099
101809.881261
101810.062807
101810.193786
101810.284331
101810.343973
101810.347207
101469.720629
101471.261524
101520.390258
101614.525282
101713.204045
101776.581248
101799.070994
101803.623177
101804.747615
101805.541453
101806.187399
101806.709508
101807.126852
101807.455377
101807.709099
101807.900878
101808.04246
101808.141611
101808.200114
101808.200316
101464.709741
101465.633162
101499.06273
101579.511657
101676.680122
101754.096928
101791.626502
101801.826857
101803.656683
101804.417003
101805.024228
101805.516535
101805.911247
101806.222798
101806.463647
101806.645264
101806.777016
101806.866369
101806.916021
101806.915683
101463.938923
101461.784392
101483.297844
101547.949339
101637.469895
101724.084083
101779.003581
101799.226522
101803.422117
101804.255376
101804.783708
101805.211622
101805.554365
101805.824104
101806.031331
101806.18358
101806.289083
101806.35627
101806.391282
101806.39189
101471.471043
101460.351655
101473.692326
101518.921217
101595.98161
101687.431291
101759.418545
101793.844088
101803.250495
101804.812817
101805.265795
101805.606916
101805.879392
101806.092563
101806.251515
101806.362778
101806.435111
101806.476893
101806.497128
101806.498814
101486.915439
101466.577601
101465.903309
101487.626599
101551.657439
101645.103057
101731.736968
101783.202977
101801.665412
101805.620551
101806.224389
101806.476912
101806.673831
101806.821692
101806.924765
101806.99145
101807.028938
101807.046032
101807.053362
101807.055202
101509.40007
101476.517456
101453.812589
101451.974319
101502.602949
101595.908511
101694.207931
101764.17728
101796.482646
101805.714904
101807.34958
101807.594454
101807.709784
101807.785014
101807.827941
101807.846041
101807.847286
101807.840781
101807.836725
101807.83426
101534.169122
101486.761357
101439.782589
101435.85758
101462.843647
101544.296941
101647.669875
101734.890819
101785.002081
101803.586627
101808.041169
101808.681107
101808.732212
101808.727902
101808.703679
101808.670008
101808.63586
101808.608281
101808.594836
101808.581949
101558.457251
101497.576687
101434.076938
101431.69313
101432.253096
101492.597465
101596.303388
101697.514016
101765.759693
101797.324896
101807.177779
101809.235339
101809.416008
101809.341953
101809.256095
101809.17984
101809.120859
101809.081763
101809.065351
101809.040743
101580.864154
101509.523372
101431.233334
101427.905878
101426.969535
101458.592209
101548.716842
101655.559087
101738.307033
101784.585397
101803.016523
101808.284168
101809.249548
101809.241116
101809.146921
101809.073537
101809.028463
101809.008204
101809.008916
101808.982156
101599.72049
101524.562111
101432.237844
101421.856052
101421.797543
101426.659458
101496.987264
101602.531372
101697.336142
101760.117543
101791.674984
101803.893193
101807.463593
101808.148877
101808.196062
101808.218844
101808.268389
101808.333903
101808.393937
101808.383556
101613.344085
101545.312851
101441.628617
101416.879527
101414.41066
101414.468554
101442.566467
101525.990856
101625.525708
101707.042514
101759.377261
101786.006251
101798.569891
101805.909161
101806.716962
101806.953791
101807.185174
101807.485139
101807.716575
101807.768237
101622.0267
101572.388099
101466.698145
101411.02525
101409.754243
101407.101518
101406.828478
101436.313822
101508.91904
101593.052025
101664.921502
101693.398821
101721.598085
101794.95414
101805.623698
101806.468387
101806.662606
101807.020595
101807.75508
101808.517182
101625.715037
101597.64518
101509.242921
101418.994348
101404.744626
101404.08605
101401.594868
101401.808651
101404.407036
101430.857991
101465.754732
101468.198199
101414.463708
101624.753693
101791.989265
101808.23362
101808.981419
101808.459023
101808.664616
101812.21747
101623.382603
101614.042355
101560.402184
101463.457814
101403.270043
101400.829105
101401.163031
101399.045879
101400.852794
101398.974691
101401.928269
101400.604553
101403.949004
101403.184751
101525.597961
101781.186836
101813.972616
101814.918475
101815.385102
101818.932269
101619.738606
101619.083701
101598.435327
101532.763478
101447.708187
101403.767395
101397.774503
101398.41499
101397.286409
101399.502221
101399.082748
101402.033273
101402.979734
101407.211267
101429.09844
101529.910661
101749.748381
101820.767448
101827.544669
101829.548002
)
;

boundaryField
{
    emptyPatch
    {
        type            empty;
    }
    minY
    {
        type            zeroGradient;
    }
    maxY
    {
        type            prghTotalPressure;
        U               U.gas;
        p0              nonuniform List<scalar> 0();
        value           nonuniform List<scalar> 0();
    }
    maxX
    {
        type            fixedFluxPressure;
        gradient        uniform 0;
        value           nonuniform List<scalar> 
38
(
101815.384299
101815.451614
101816.205991
101817.640929
101819.703023
101822.29152
101825.260676
101828.426903
101831.580074
101834.497258
101836.958902
101838.762475
101839.736533
101839.750763
101838.730246
101836.671451
101833.663125
101829.894806
101825.644269
101821.243148
101817.035629
101813.325974
101810.347207
101808.200316
101806.915683
101806.39189
101806.498814
101807.055202
101807.83426
101808.581949
101809.040743
101808.982156
101808.383556
101807.768237
101808.517182
101812.21747
101818.932269
101829.548002
)
;
    }
    water_to_heater
    {
        type            fixedFluxPressure;
        gradient        uniform 0;
        value           nonuniform List<scalar> 
60
(
101406.275642
101406.275642
101362.595893
101356.945778
101355.098278
101355.098278
101357.108024
101357.108024
101355.51998
101355.51998
101358.95491
101357.215726
101360.401873
101360.401873
101358.762351
101358.762351
101361.894123
101361.894123
101359.283211
101363.196864
101362.904373
101362.904373
101378.188876
101378.188876
101458.818425
101458.818425
101571.935444
101484.173478
101281.015808
101281.015808
101132.86688
101132.86688
101076.924348
101076.924348
101073.099193
101074.170551
101074.38975
101074.38975
101075.150248
101075.150248
101081.773763
101081.773763
101123.23644
101221.684635
101313.339222
101313.339222
101318.092338
101318.092338
101317.342702
101317.342702
101301.050647
101310.307332
101315.003887
101315.003887
101318.428528
101318.428528
101303.432446
101303.432446
101290.911637
101270.773507
)
;
    }
    procBoundary3to1
    {
        type            processor;
        value           nonuniform List<scalar> 
41
(
101519.764159
101521.044363
101531.114972
101550.147621
101571.895502
101591.75703
101604.033431
101606.561292
101605.753581
101604.463861
101604.590559
101607.104168
101609.591769
101185.49087
101202.043677
101205.24661
101219.137082
101242.062504
101258.275502
101519.764159
101265.786411
101613.409379
101615.383177
101612.433709
101588.973054
101531.332432
101464.610689
101424.269743
101400.365624
101392.791211
101392.651191
101394.296001
101400.66179
101421.184839
101453.824169
101456.280293
101428.352072
101414.729172
101669.116077
101822.810917
101826.206868
)
;
    }
    procBoundary3to2
    {
        type            processor;
        value           nonuniform List<scalar> 
41
(
101463.354726
101440.184211
101434.705604
101431.792413
101447.083068
101491.465142
101542.088354
101585.628398
101624.455412
101653.001492
101664.507106
101666.187748
101664.484012
101657.337657
101629.116397
101612.525181
101614.545834
101634.062585
101703.69009
101776.533735
101809.750427
101810.848817
101811.776949
101812.566274
101813.239206
101813.811399
101814.293856
101814.695485
101815.025224
101815.291767
101815.503017
101815.666021
101815.787097
101815.872263
101815.928104
101815.961765
101815.968387
101801.433585
101805.137986
101806.931318
101806.931318
)
;
    }
}


// ************************************************************************* //
