/*--------------------------------*- C++ -*----------------------------------*\
| =========                 |                                                 |
| \\      /  F ield         | OpenFOAM: The Open Source CFD Toolbox           |
|  \\    /   O peration     | Version:  2312                                  |
|   \\  /    A nd           | Website:  www.openfoam.com                      |
|    \\/     M anipulation  |                                                 |
\*---------------------------------------------------------------------------*/
FoamFile
{
    version     2.0;
    format      ascii;
    arch        "LSB;label=32;scalar=64";
    class       surfaceScalarField;
    location    "22";
    object      phi.air;
}
// * * * * * * * * * * * * * * * * * * * * * * * * * * * * * * * * * * * * * //

dimensions      [0 3 -1 0 0 0 0];

oriented        oriented;

internalField   nonuniform List<scalar> 
3650
(
0.000435908
-5.48573e-05
0.000865703
9.31215e-06
0.0010866
4.26913e-05
0.00120915
8.17722e-05
0.00126866
0.000113352
0.00128529
0.000135014
0.00127304
0.000145364
0.00124847
0.000157116
0.00121745
0.000166462
0.0011996
0.000159249
0.00120593
0.000147423
0.00120015
0.000155962
0.00120991
0.000161759
0.00122644
0.000148028
0.001173
0.000149769
0.00109605
0.000204631
0.00110646
0.000219225
0.00100311
0.000196841
0.000760328
0.000278036
0.000538355
0.000324128
0.000422651
0.000315924
0.000206502
0.0003442
1.71369e-05
0.000345658
2.98555e-05
0.000307595
0.000292688
0.000320669
-0.000275563
0.000510003
-0.000168227
0.000653647
-8.99132e-05
0.000707483
-1.17319e-05
0.000726541
4.31332e-05
0.000731368
8.22368e-05
0.000732561
0.00010671
0.000733577
0.000124937
0.000725989
0.000134276
0.000727519
0.000139307
0.00075317
0.000133846
0.000787505
0.00012004
0.000803257
0.000112308
0.000829774
0.000111193
0.000865664
0.00012236
0.000865447
0.000145805
0.000786838
0.000171422
0.000696276
0.000246861
0.000561041
0.000325365
0.000463259
0.000389519
0.000340668
0.000413844
0.000176277
0.000482283
2.87173e-06
0.000542609
-3.62773e-05
0.000498305
0.000431516
0.000139764
-0.000403006
0.000213638
-0.000257251
0.000244558
-0.00016559
0.00023953
-6.08103e-05
0.00026512
-8.15315e-06
0.000298733
3.35128e-05
0.000340357
6.31315e-05
0.000375234
9.39303e-05
0.00041352
0.000108005
0.000440294
0.0001183
0.000450913
0.0001146
0.000450548
0.000112284
0.000470388
0.000112025
0.000503195
0.000112147
0.000525959
0.000119386
0.00052584
0.000136284
0.000507175
0.000175023
0.000458893
0.000257231
0.000355262
0.000339879
0.000249047
0.000409902
0.000168306
0.000479369
7.13182e-05
0.000548836
-2.97509e-05
0.000616072
-5.60025e-05
0.0005945
0.000518522
5.98016e-05
-0.000440437
9.82704e-05
-0.000285952
9.54046e-05
-0.000210462
0.000110131
-0.000113127
0.000162034
-7.68821e-05
0.00022758
-4.60463e-05
0.000289937
-1.55705e-05
0.000344182
1.70169e-05
0.000380025
4.92778e-05
0.000391934
7.88676e-05
0.000382923
0.000103222
0.000358217
0.000127063
0.000319521
0.000139152
0.000285805
0.000131502
0.000274814
0.000123806
0.000246845
0.000144464
0.000177483
0.000203105
0.000107776
0.000270544
5.37142e-05
0.000340091
2.17213e-05
0.000412423
-2.21099e-05
0.000484765
-7.73823e-05
0.000557444
-0.000112289
0.00061835
-7.95445e-05
0.000599109
0.000533608
3.71303e-05
-0.000431561
4.46785e-05
-0.000271206
1.30679e-05
-0.000222916
1.67071e-05
-0.000149554
5.28235e-05
-0.000121385
9.29089e-05
-0.000100043
0.000136309
-7.50122e-05
0.000175172
-4.52716e-05
0.000212095
-1.13663e-05
0.000242934
2.86274e-05
0.00025484
6.68284e-05
0.00023544
0.00011369
0.000211279
0.000140261
0.000181068
0.000147841
0.000146872
0.000146097
9.62348e-05
0.000169847
3.29035e-05
0.000235555
-1.46497e-05
0.00029597
-4.75604e-05
0.000355241
-7.2756e-05
0.00042006
-9.93378e-05
0.000490842
-0.00013059
0.000559636
-0.000145907
0.000608872
-9.04937e-05
0.00058114
0.000513637
3.29532e-07
-0.000369815
2.54007e-06
-0.00017246
-5.15862e-05
-0.000151301
-0.000104917
-0.000115125
-0.000125439
-0.000103407
-0.000136581
-9.27097e-05
-0.000140942
-8.16304e-05
-0.000144075
-6.59409e-05
-0.00014111
-5.30302e-05
-0.000125012
-3.03614e-05
-9.85568e-05
-6.56136e-06
-6.24239e-05
3.36695e-05
-2.26683e-05
6.55022e-05
-8.59623e-06
9.59488e-05
-3.74949e-05
0.000122209
-9.43253e-05
0.000158585
-0.000138653
0.000217084
-0.000171203
0.000275183
-0.000200834
0.000339229
-0.000225729
0.000407636
-0.000246431
0.000478715
-0.00024941
0.000540633
-0.000209788
0.000559058
-0.000105554
0.000513725
0.000444846
-1.31622e-05
-0.000299092
-2.65924e-05
-4.91574e-05
-6.95782e-05
-1.75191e-05
-0.000166289
-6.71833e-06
-0.000270561
-3.7192e-06
-0.000351791
-1.67258e-05
-0.000406051
-2.2175e-05
-0.000430126
-2.24335e-05
-0.000448503
-2.26837e-05
-0.000463404
-1.59744e-05
-0.00047017
-9.88926e-06
-0.000454564
4.29442e-06
-0.000437299
2.54119e-05
-0.000428092
5.55711e-05
-0.00043721
9.18763e-05
-0.000460551
0.000134986
-0.000478462
0.000190852
-0.000493147
0.000247984
-0.000501861
0.000311331
-0.000494831
0.000373348
-0.000466894
0.000430148
-0.000401788
0.000466157
-0.000284758
0.000458054
-0.000128235
0.000411443
0.000357803
-2.1956e-05
-0.000260766
-5.07385e-05
4.15988e-05
-7.84006e-05
0.000105778
-0.000186992
0.000136724
-0.000325388
0.000130035
-0.000452238
9.84501e-05
-0.00055627
7.21383e-05
-0.00064773
5.637e-05
-0.000712265
3.97883e-05
-0.000752881
3.22437e-05
-0.000779153
2.38774e-05
-0.0007886
2.225e-05
-0.00077911
2.82661e-05
-0.000763763
4.82808e-05
-0.00075106
8.02859e-05
-0.000738186
0.000118534
-0.000718712
0.000168633
-0.000692228
0.000221314
-0.000651943
0.00027687
-0.000594581
0.000328184
-0.00050956
0.000365474
-0.000388677
0.000377827
-0.000244439
0.000366405
-0.000111455
0.000333176
0.000286428
-1.08561e-05
-0.00022535
-4.55843e-05
0.000140523
-0.000101089
0.000226256
-0.000211014
0.000260085
-0.000326504
0.000239473
-0.000428829
0.000196838
-0.000523158
0.000168726
-0.000614437
0.000142665
-0.000689973
0.000113921
-0.000748486
8.98498e-05
-0.000775312
6.5237e-05
-0.000781747
5.36536e-05
-0.000771375
5.28123e-05
-0.000745528
7.14944e-05
-0.000721529
0.000100944
-0.000689275
0.00013105
-0.000649385
0.000171503
-0.000601711
0.000212713
-0.000538306
0.000251145
-0.000452662
0.000282896
-0.000339885
0.000302587
-0.00021754
0.000305276
-0.000122913
0.00030518
-5.72212e-05
0.000285971
0.000245164
1.64454e-06
-0.000209106
-1.2925e-05
0.000207787
-5.59073e-05
0.000338006
-0.00015756
0.000380449
-0.000275989
0.00034652
-0.000369734
0.000283496
-0.000452321
0.000245744
-0.000533875
0.000211889
-0.000608768
0.000169615
-0.00066362
0.000123424
-0.00067802
7.23133e-05
-0.000654207
4.1287e-05
-0.000607891
3.48063e-05
-0.000547543
5.88573e-05
-0.000496771
9.95473e-05
-0.000445778
0.000134409
-0.000387573
0.000170434
-0.000323688
0.000202968
-0.000250083
0.0002297
-0.00017111
0.000251447
-0.000105353
0.00026919
-5.04842e-05
0.000272825
-9.5927e-06
0.00027935
2.79593e-06
0.000275531
0.000251461
2.10482e-05
-0.00022484
2.89194e-05
0.000212692
2.5708e-05
0.000389015
-2.17458e-05
0.000462836
-0.000145702
0.000463079
-0.000275708
0.000387737
-0.000364998
0.000306239
-0.000432198
0.000243759
-0.000492516
0.000190636
-0.0005459
0.000126222
-0.000569961
4.74696e-05
-0.000534199
-7.75423e-06
-0.000467411
-2.25749e-05
-0.000386183
5.43168e-06
-0.000313919
6.25861e-05
-0.000258015
0.000106928
-0.000203935
0.000143627
-0.000148432
0.000173428
-9.54345e-05
0.000199741
-4.38415e-05
0.000219319
-3.3391e-06
0.000242336
2.24923e-05
0.000253258
3.87887e-05
0.000268847
2.38156e-05
0.000290693
0.000278114
3.42628e-05
-0.000259653
3.32472e-05
0.000182787
7.15552e-05
0.000373327
0.000111574
0.000455293
6.81114e-05
0.000511685
-3.79314e-05
0.000469141
-0.000163767
0.000375332
-0.000246665
0.00026708
-0.00029932
0.000184513
-0.000344932
0.000107974
-0.00037631
2.02403e-05
-0.000365322
-4.34519e-05
-0.000315095
-5.50369e-05
-0.000264008
-2.38378e-05
-0.000232684
3.126e-05
-0.000202004
7.04619e-05
-0.000161705
0.000102938
-0.000111952
0.000129541
-6.06271e-05
0.000155938
-1.48981e-05
0.000179106
1.95844e-05
0.000211873
3.76037e-05
0.000233741
4.61396e-05
0.000259515
2.9763e-05
0.000303061
0.000313158
4.86942e-06
-0.000269606
3.5345e-05
0.000141474
7.36201e-05
0.000340424
0.000139954
0.000407906
0.0001684
0.000493845
0.000132758
0.000496951
3.14388e-05
0.000441713
-7.98227e-05
0.000326738
-0.000152772
0.000211856
-0.000187694
0.000114594
-0.000189481
1.88885e-05
-0.000181679
-4.57562e-05
-0.000183377
-5.16799e-05
-0.000217247
-7.88684e-06
-0.000234041
3.26565e-05
-0.000219409
4.99083e-05
-0.000182269
6.08006e-05
-0.000131744
7.54571e-05
-7.58892e-05
9.56865e-05
-3.28078e-05
0.000125819
-3.81529e-06
0.000168186
1.2014e-05
0.00020545
7.56587e-06
0.000248169
1.59806e-06
0.000302303
0.000319193
-1.59061e-05
-0.000256047
5.20229e-05
8.5967e-05
5.78542e-05
0.000326408
0.000112162
0.000363504
0.000158248
0.000459238
0.000150468
0.000506115
9.75281e-05
0.000481287
1.7576e-05
0.000387639
-5.99696e-05
0.000270137
-9.48901e-05
0.000150445
-0.000111239
4.66938e-05
-0.000142267
6.38867e-06
-0.000192552
3.07559e-05
-0.000260483
6.58928e-05
-0.00029603
6.10399e-05
-0.000286052
4.44167e-05
-0.000256314
2.87522e-05
-0.000216452
2.469e-05
-0.000171724
3.1602e-05
-0.000143088
6.49693e-05
-0.000127229
0.000112088
-0.000109781
0.000157493
-9.72444e-05
0.00020693
-6.03033e-05
0.000253988
0.000265399
-2.335e-05
-0.000235786
7.17216e-05
2.54109e-05
6.19773e-05
0.000326513
7.59816e-05
0.000351385
9.87072e-05
0.000433698
8.85393e-05
0.000514692
5.05334e-05
0.000517116
-5.87989e-06
0.000447508
-5.46983e-05
0.000330081
-8.02393e-05
0.000193997
-0.000117575
0.000113422
-0.000168293
0.000105204
-0.000270572
0.000131205
-0.000360199
0.00013346
-0.000407495
9.76594e-05
-0.000435805
5.70828e-05
-0.000437495
3.0589e-05
-0.000427698
1.43883e-05
-0.000410126
1.15658e-05
-0.000377472
3.01333e-05
-0.000334886
6.83977e-05
-0.000290873
0.000113286
-0.000225877
0.000144735
-0.000123718
0.000170575
0.000169871
-2.01555e-05
-0.00021632
8.93893e-05
-3.37035e-05
8.82237e-05
0.000331923
7.05002e-05
0.00037098
4.37687e-05
0.00044956
8.76004e-06
0.000541262
-2.36555e-05
0.000554802
-5.33905e-05
0.000491187
-6.80695e-05
0.000360942
-9.53272e-05
0.000229597
-0.000149095
0.00018393
-0.000203036
0.000183479
-0.00026044
0.000194307
-0.000327984
0.000181444
-0.000404107
0.000139223
-0.000474011
8.73925e-05
-0.000516236
3.8921e-05
-0.000520836
6.14228e-06
-0.000504101
-5.11462e-06
-0.000455577
-5.3806e-06
-0.000375995
1.37818e-05
-0.00029235
5.52728e-05
-0.000210183
8.51033e-05
-0.000103528
0.000101646
8.78298e-05
8.15353e-06
-0.000228831
9.49038e-05
-8.20937e-05
9.60276e-05
0.000333802
4.68823e-05
0.000412451
-2.455e-06
0.000488459
-4.6322e-05
0.000578899
-7.21948e-05
0.000586314
-7.48666e-05
0.000504347
-5.73516e-05
0.000353393
-6.27202e-05
0.000236531
-7.80345e-05
0.000204455
-9.7152e-05
0.000205179
-0.000120714
0.000213635
-0.000160247
0.000203493
-0.000214315
0.000162323
-0.000268136
0.000102567
-0.000315505
4.37754e-05
-0.000340092
1.18493e-05
-0.000344593
-4.8128e-06
-0.00032743
-1.60206e-05
-0.000279931
-1.48381e-05
-0.000208117
-8.99137e-07
-0.000133992
3.07518e-05
-6.41118e-05
5.09113e-05
3.21215e-05
4.652e-05
-0.000272879
7.85944e-05
-0.000107013
6.96155e-05
0.000337866
1.50415e-05
0.000467666
-4.52791e-05
0.000540076
-8.26079e-05
0.000609821
-0.000102932
0.000608623
-0.000107299
0.000508875
-8.26863e-05
0.000336762
-8.2244e-05
0.000239511
-9.14534e-05
0.000219616
-0.000110078
0.000223977
-0.000126053
0.000225663
-0.00013545
0.000210741
-0.000136998
0.000162977
-0.000131207
8.98578e-05
-0.000117982
2.61421e-05
-0.000134133
-6.87371e-07
-0.000165971
-1.00107e-05
-0.000179325
-4.66517e-07
-0.000180991
6.26589e-06
-0.000161759
-9.37813e-06
-0.000111806
-5.3816e-06
-5.76594e-05
5.87514e-06
-1.66316e-05
4.878e-05
-0.000321975
2.83278e-05
-0.000114946
3.12271e-05
0.000335719
-5.53777e-06
0.000518035
-4.63487e-05
0.000580191
-7.63802e-05
0.000633954
-9.67019e-05
0.000625284
-0.000114754
0.000517356
-0.000117442
0.000339126
-0.000126336
0.000261703
-0.00015169
0.00024727
-0.000175444
0.00024221
-0.000186229
0.000229073
-0.0001769
0.000198342
-0.000158336
0.000138751
-0.000110834
4.6116e-05
-4.04759e-05
-3.16347e-05
1.32057e-05
-4.45253e-05
3.0978e-05
-2.4765e-05
-2.18139e-06
1.81444e-05
-5.27952e-05
4.40802e-05
-7.20271e-05
3.05923e-05
-6.27342e-05
6.80308e-06
-3.7275e-05
-2.34201e-05
-5.11012e-05
2.65233e-05
-0.000344456
-2.24728e-05
-0.000108565
2.76783e-05
0.000297154
1.51309e-05
0.000543074
-5.20793e-08
0.000601277
-1.81365e-05
0.000652205
-4.7233e-05
0.000646958
-7.95189e-05
0.000535019
-0.000119742
0.000362392
-0.000149791
0.00029829
-0.000183792
0.000282992
-0.000209904
0.000259325
-0.00021559
0.000225147
-0.000191492
0.000171397
-0.000161338
0.000102579
-8.19756e-05
-2.11879e-05
1.00073e-05
-0.00010174
7.05404e-05
-9.22876e-05
8.20776e-05
-3.96492e-05
4.97667e-05
3.23079e-05
-2.4287e-06
7.65982e-05
-4.95311e-05
8.01637e-05
-7.38914e-05
5.61241e-05
-4.3071e-05
-3.69675e-05
-9.10901e-05
5.91854e-07
-0.000331505
-4.48371e-05
-9.1362e-05
7.99116e-05
0.000206782
9.68858e-05
0.0005368
8.27075e-05
0.00062367
6.96207e-05
0.000665464
3.76633e-05
0.000672957
-2.21031e-05
0.000580355
-7.8978e-05
0.000404482
-0.000110208
0.000331002
-0.000152024
0.000315356
-0.000195654
0.000280001
-0.000206774
0.000214097
-0.00018833
0.000139696
-0.000143874
5.07212e-05
-7.68955e-05
-8.97921e-05
-3.52998e-06
-0.000159836
3.62961e-05
-0.000134227
1.45718e-05
-4.14592e-05
-3.03896e-05
6.04582e-05
-6.28211e-05
0.000103018
-8.46871e-05
0.000103957
-9.91425e-05
7.50932e-05
-7.27332e-05
-6.864e-05
-0.000167168
-8.55564e-06
-0.00031423
-1.8145e-05
-8.12707e-05
0.000128738
9.7832e-05
0.000168524
0.000498555
0.000167345
0.000636023
0.000159827
0.000672814
0.00013947
0.000688464
6.33278e-05
0.000638138
-4.18447e-05
0.00048082
-7.69864e-05
0.000354802
-0.000105786
0.00032386
-0.000143559
0.00028408
-0.000166042
0.000196808
-0.000165078
9.64426e-05
-0.000132067
-8.20506e-06
-9.72565e-05
-0.000129894
-4.95554e-05
-0.000190034
-3.97075e-05
-0.000148908
-8.52796e-05
-1.77351e-05
-0.000114736
7.5233e-05
-0.000108444
9.88809e-05
-8.39986e-05
8.50293e-05
-6.4008e-05
3.71877e-05
-6.06445e-05
-0.000107679
-0.000232311
5.97356e-06
-0.000319551
2.51888e-05
-8.85433e-05
0.000115053
2.46805e-05
0.000202977
0.000420972
0.000230506
0.000619774
0.000244148
0.000664879
0.000252893
0.000677796
0.000219655
0.000654693
0.000106138
0.000556885
4.0231e-06
0.00040932
-4.57267e-05
0.00033239
-7.01054e-05
0.00026694
-0.000102096
0.000176984
-0.000131655
6.66548e-05
-0.000139082
-4.21216e-05
-0.000123997
-0.000140648
-0.000100243
-0.000186356
-0.000119911
-0.000134153
-0.00015562
-1.66568e-06
-0.000139373
5.83242e-05
-9.65396e-05
6.2416e-05
-3.60753e-05
1.90094e-05
-4.10204e-06
-2.28394e-05
-1.19242e-05
-0.000112398
-0.000242872
1.86552e-05
-0.000343828
4.20213e-05
-0.000113623
6.98511e-05
-1.46082e-05
0.000201122
0.000306506
0.000260445
0.000564064
0.000299478
0.000629562
0.000345427
0.000638192
0.000372975
0.000623915
0.000329139
0.000568154
0.000218648
0.000467506
0.000140587
0.000365429
9.21242e-05
0.000274521
4.59338e-05
0.000187101
-2.27147e-05
9.14783e-05
-8.69937e-05
-1.0168e-05
-0.000109743
-8.10841e-05
-0.000132755
-0.000118894
-0.000166955
-0.000102433
-0.00015285
-1.31302e-05
-0.000105689
1.81253e-05
-4.09573e-05
1.65105e-06
2.75848e-05
-3.98342e-05
4.94107e-05
-5.50834e-05
1.76936e-05
-8.98347e-05
-0.000201585
1.99771e-05
-0.000370271
3.87422e-05
-0.000143851
3.42769e-05
-3.81007e-05
0.000109637
0.000208481
0.000199436
0.000469795
0.000268598
0.00056574
0.00033035
0.000581761
0.000381773
0.00057936
0.00040291
0.000548131
0.000371142
0.000475445
0.000313245
0.000398077
0.000244734
0.000313928
0.000173331
0.000248391
0.000103885
0.000160511
3.64269e-05
6.67046e-05
-4.48418e-05
3.30085e-05
-0.000145278
-2.0936e-05
-0.000178952
-7.12168e-05
-0.000130788
-4.23563e-05
-6.50565e-05
-3.64884e-05
7.14704e-06
-5.56967e-05
4.03935e-05
-6.47259e-05
4.63977e-05
-5.53126e-05
1.94893e-05
-5.47293e-05
-0.000157401
-7.48808e-06
-0.000359143
-2.21684e-05
-0.000136478
-6.74962e-05
-2.97363e-05
-3.95484e-05
0.000164645
5.1574e-05
0.000376819
0.000159771
0.000462288
0.000258607
0.000496661
0.000336311
0.00051136
0.000382183
0.000509864
0.000385172
0.000473699
0.000356017
0.000417545
0.000301412
0.000365521
0.000250023
0.000315231
0.000224592
0.000213113
0.000169533
0.000134394
5.6593e-05
0.000122639
-6.06916e-05
7.11214e-05
-0.000116263
-9.69556e-06
-9.98306e-05
-5.14799e-05
-5.62786e-05
-7.54853e-05
-1.98597e-05
-8.82184e-05
-2.80246e-06
-7.96061e-05
7.11201e-06
-5.11089e-05
-2.37291e-06
-3.33324e-05
-0.000150167
-3.87396e-05
-0.000317079
-8.01673e-05
-0.000103576
-0.000128574
6.21708e-06
-6.05658e-05
0.000122088
1.60977e-05
0.00030869
0.000121625
0.000378659
0.000222156
0.000412439
0.00028979
0.000450726
0.000326528
0.000473327
0.000327994
0.000473906
0.000302266
0.000449526
0.000254684
0.000424558
0.000220332
0.000365866
0.000214827
0.000244544
0.000175112
0.000177612
0.000125888
0.000153673
6.35279e-05
0.0001031
-2.61927e-05
2.88904e-05
-7.02021e-05
-3.06772e-05
-6.07328e-05
-8.31631e-05
-4.30248e-05
-0.000103883
-1.99479e-05
-9.06681e-05
-4.88157e-06
-4.57366e-05
-2.84472e-06
-2.65672e-05
-0.000153175
-2.12307e-05
-0.000287175
-3.65524e-05
-9.27126e-05
-5.64216e-05
2.26835e-05
-3.65712e-05
9.41614e-05
7.04774e-05
0.000224883
0.0001523
0.000314187
0.000218387
0.000357041
0.000251294
0.000420221
0.000267809
0.00045854
0.000275085
0.000465464
0.000267911
0.000459866
0.000251933
0.000444523
0.000232892
0.000381479
0.000197584
0.000270638
0.00015369
0.000197008
0.000130585
0.000144941
0.000110107
8.52376e-05
6.86962e-05
2.46801e-05
9.06981e-06
-2.4832e-05
-1.61137e-05
-7.43604e-05
-7.15447e-06
-8.64458e-05
-1.82352e-06
-6.63792e-05
-7.53368e-06
-1.65854e-05
6.01303e-06
-2.34343e-05
-0.000145897
-8.61978e-07
-0.000275949
1.08204e-05
-0.000104254
2.09124e-05
-3.64818e-06
1.12257e-05
7.16154e-05
7.45097e-05
0.000154559
0.000121085
0.000256329
0.00016124
0.000312382
0.000187218
0.00038835
0.000223276
0.000426203
0.000254932
0.000434811
0.000280159
0.000433956
0.000305471
0.000417673
0.000307618
0.000369198
0.000266693
0.000271133
0.000225673
0.000194237
0.000209657
0.000130281
0.000186814
8.56229e-05
0.000151501
3.60758e-05
9.86187e-05
-5.83169e-06
4.37469e-05
-3.68076e-05
3.32195e-05
-4.2384e-05
1.90421e-05
2.14696e-06
-1.52837e-05
4.77673e-05
1.6844e-05
-3.26298e-05
-0.000133759
2.53555e-06
-0.00024765
-1.76404e-05
-8.07115e-05
-2.77328e-05
-7.27192e-06
-3.52067e-05
5.28068e-05
-6.28411e-05
0.000128071
-4.20846e-05
0.000209298
7.53226e-06
0.000258367
7.07995e-05
0.000322713
0.000150663
0.000353268
0.000224031
0.000368656
0.000291093
0.00037511
0.000346313
0.000361212
0.000386272
0.000324603
0.000393929
0.000241794
0.000381396
0.00018313
0.000358856
0.000135536
0.000315446
0.000108274
0.000254625
8.15207e-05
0.000186988
5.08368e-05
0.00012695
3.32223e-05
7.19587e-05
5.96827e-05
1.35793e-05
0.000119469
-1.35126e-05
0.000110634
6.5413e-07
-4.42064e-05
-0.000135145
-2.45436e-05
-0.000180019
-6.03226e-05
8.05393e-06
-0.000148864
8.12423e-05
-0.000206748
9.68973e-05
-0.00021729
0.000123501
-0.000165452
0.000164482
-8.95232e-05
0.000201197
2.13212e-05
0.000231601
0.000135398
0.000265769
0.000235309
0.000291938
0.000327979
0.000302914
0.000419164
0.0002943
0.000497494
0.000255886
0.000531669
0.000212665
0.000529063
0.000185276
0.000499474
0.000163141
0.000464888
0.000142108
0.000408446
0.000133642
0.000311016
0.000140076
0.000193786
0.000172348
0.000113249
0.000212267
5.02385e-05
0.000229505
2.80862e-06
0.000136577
-2.59904e-05
-4.37664e-05
-0.000164491
-2.99295e-05
-0.00013981
4.6083e-06
3.83755e-05
-0.000105815
0.000194917
-0.000181876
0.000168149
-0.000174696
0.000127519
-0.000120922
0.00013404
-4.62775e-05
0.000156438
5.16205e-05
0.000167516
0.00015344
0.000197055
0.000257983
0.000219155
0.000363507
0.000231153
0.000464744
0.000223692
0.000532055
0.00020899
0.000555448
0.000199284
0.00054168
0.000200142
0.000495574
0.000202993
0.000427602
0.000205991
0.000342993
0.000225754
0.000238941
0.000268813
0.000131523
0.000304372
6.95314e-05
0.000293036
3.28859e-05
0.000251499
5.67774e-06
0.000125429
-2.03382e-05
-4.17534e-05
-0.000190474
-1.23948e-06
-0.000143323
7.01793e-05
-7.6699e-06
1.87172e-05
0.000240985
-6.68973e-05
0.000242344
-7.30152e-05
0.000142926
-3.56784e-05
0.000117635
1.75272e-05
0.000125506
7.3488e-05
0.000135619
0.000147548
0.000147664
0.000227886
0.000159521
0.000298331
0.000174612
0.000350604
0.000183756
0.000372965
0.000194483
0.000361399
0.00020989
0.000321396
0.000229835
0.000259617
0.000252413
0.000174557
0.000276231
6.82153e-05
0.000300774
-4.19365e-06
0.000318554
2.69178e-06
0.000306481
2.83255e-05
0.000276833
2.46688e-05
0.00022122
1.94916e-05
9.5162e-05
-2.75952e-06
-3.23986e-05
-0.000195066
1.93477e-05
-0.000162397
3.52235e-05
-3.1884e-05
5.94078e-05
0.00022703
-1.76237e-06
0.000305008
-2.92543e-05
0.000184671
-1.08972e-05
0.000124325
1.32493e-05
0.000119006
3.25213e-05
0.000127427
5.40095e-05
0.000137734
6.3466e-05
0.000152737
5.55049e-05
0.000175117
3.38383e-05
0.000191723
-1.18336e-05
0.000211221
-6.53412e-05
0.000231848
-0.000105669
0.000248256
-0.000131707
0.000265353
-0.000143113
0.000278941
-0.00012386
0.000281313
-6.99729e-05
0.000274922
1.06816e-07
0.000254325
4.43776e-05
0.000226034
6.77414e-05
0.000174598
5.93711e-05
8.3621e-05
2.1406e-05
-9.81457e-08
-0.000157622
1.60764e-05
-0.000175058
1.83689e-06
-2.90562e-05
6.26305e-05
0.000189717
2.96482e-05
0.000345125
-4.29002e-05
0.000278786
-7.25578e-05
0.000183938
-7.56564e-05
0.00014568
-8.82028e-05
0.00014316
-0.00012216
0.000150792
-0.000164548
0.000168515
-0.000199502
0.000187739
-0.000227049
0.000199133
-0.000249926
0.000217883
-0.000266064
0.000238179
-0.000268644
0.000246704
-0.00025108
0.000249155
-0.000209165
0.000245604
-0.000141566
0.000230312
-6.04044e-05
0.000214294
7.99064e-06
0.000199528
6.16482e-05
0.000173386
8.90032e-05
0.000144061
7.5644e-05
9.8906e-05
3.27782e-05
5.0932e-05
-0.000110653
1.08399e-05
-0.000181711
1.8605e-06
-2.73549e-05
7.10542e-05
0.000137124
6.77694e-05
0.000346917
-2.18614e-05
0.000368437
-0.000108612
0.000297683
-0.000174161
0.000237952
-0.000237945
0.000212804
-0.000300669
0.000208441
-0.000357164
0.000209013
-0.000382135
0.000202686
-0.000384274
0.000196534
-0.000374609
0.00020515
-0.00035453
0.000223571
-0.000329323
0.000230371
-0.000289907
0.000222806
-0.000223515
0.000204242
-0.000146902
0.000179202
-7.9224e-05
0.000162997
-2.73384e-05
0.000160025
2.66362e-05
0.000129536
5.96686e-05
0.000117428
5.09367e-05
0.000112447
1.20785e-05
9.43766e-05
-9.04973e-05
2.15502e-05
-0.000203549
3.66023e-05
-4.46317e-05
5.0097e-05
9.27668e-05
9.60347e-05
0.00029789
6.66617e-05
0.000382485
-1.73015e-05
0.000360764
-0.000106867
0.000321862
-0.000170947
0.000290987
-0.000224855
0.000277237
-0.000268016
0.00026448
-0.00031041
0.000239662
-0.000339859
0.000214407
-0.000346605
0.000207735
-0.000337977
0.000213709
-0.000327254
0.000216131
-0.000324562
0.00021001
-0.000330597
0.00017863
-0.000296741
0.000124815
-0.000232812
0.000101157
-0.000168875
9.9244e-05
-0.00010196
7.09432e-05
-3.47681e-05
6.33893e-05
1.89685e-06
8.01393e-05
-2.39057e-07
9.53287e-05
-8.86862e-05
1.71663e-05
-0.000221064
1.77633e-05
-5.71443e-05
4.37854e-06
7.1004e-05
5.97824e-05
0.000223501
7.61009e-05
0.000342084
7.39187e-05
0.000350211
6.22362e-05
0.0003274
5.31321e-05
0.000300497
5.08412e-05
0.000281626
3.90249e-05
0.000267888
-1.43664e-07
0.000252794
-4.87101e-05
0.000233038
-8.19069e-05
0.000223087
-9.5145e-05
0.000220211
-0.000103321
0.000216743
-0.000127342
0.000209299
-0.000164177
0.000180468
-0.000188146
0.00012407
-0.000191358
9.19472e-05
-0.000182782
7.6998e-05
-0.000164109
3.63646e-05
-0.000107256
1.22308e-05
-3.31625e-05
3.14738e-05
1.66373e-06
7.63392e-05
-8.96082e-05
-1.52531e-06
-0.000207838
-1.84803e-05
-4.49419e-05
-3.84078e-05
7.20314e-05
-2.22129e-05
0.000179565
1.93526e-05
0.000274362
4.62409e-05
0.000309245
6.63147e-05
0.000306536
9.12223e-05
0.000284411
0.00012169
0.000263158
0.000155673
0.00024716
0.00019059
0.000230132
0.000220937
0.000213444
0.000243468
0.00020713
0.000254571
0.000209312
0.000258065
0.000211422
0.000251886
0.000208697
0.000213264
0.00019649
0.000125962
0.000164213
5.42269e-05
0.000135163
1.0675e-05
0.000120262
-1.63619e-05
8.56566e-05
7.52929e-06
4.46281e-05
2.42897e-05
4.96195e-05
4.65446e-06
9.71974e-05
-7.73526e-05
-3.62279e-05
-0.000168535
-4.50483e-05
-1.34915e-05
-5.08868e-05
0.000109907
-8.19378e-05
0.000200944
-6.08374e-05
0.000240706
-2.97257e-05
0.000270729
-7.71393e-07
0.000276442
3.39063e-05
0.000263295
7.1351e-05
0.000240256
0.000111663
0.000224934
0.000157279
0.000207701
0.000239418
0.000166398
0.000306036
0.000167819
0.000338998
0.000186461
0.000344135
0.000206636
0.000322278
0.000227275
0.000261149
0.000239218
0.000169529
0.000237379
0.000125076
0.000206238
0.000126997
0.000169608
0.000133505
0.000124044
0.000108376
8.93077e-05
5.33088e-05
0.000103485
-6.42964e-06
0.000146461
-6.53107e-05
-2.74728e-05
-0.000133055
-3.15734e-05
2.28019e-06
1.14945e-05
0.000107256
1.80385e-05
0.000220562
4.99609e-06
0.000268524
-1.45533e-05
0.000289692
-2.38062e-05
0.000286995
-2.64656e-05
0.000266911
-5.55114e-06
0.000222684
6.44875e-05
0.000173254
0.000168165
0.000140773
0.000289052
7.38342e-05
0.000323857
9.5175e-05
0.000270942
0.000181358
0.000211172
0.000238824
0.000124621
0.000284411
4.24203e-05
0.000312541
2.84593e-06
0.00031322
2.22466e-05
0.000244806
6.48235e-05
0.000170811
9.09929e-05
0.000125075
5.06564e-05
0.000123177
-1.76722e-05
0.000150519
-5.10882e-06
0.000144133
-6.38612e-05
-2.41662e-05
-0.000116315
2.0747e-05
-2.10991e-05
8.96666e-05
7.08891e-05
0.000177883
0.00016956
0.000183352
0.00028226
0.000152007
0.000333157
0.000104826
0.000325803
4.81441e-05
0.000296547
1.81996e-05
0.000234429
6.51757e-06
0.000172528
2.76495e-05
0.000109987
0.000114641
3.15498e-05
0.00010747
7.76427e-05
-2.11411e-05
0.000220359
-0.000147247
0.000307871
-0.0002429
0.000343489
-0.000285318
0.000344605
-0.000218291
0.000278739
-0.000104303
0.000186689
-4.66174e-05
0.00014565
-6.75434e-05
0.000144599
-0.000129674
0.000161212
-0.000150582
0.000150649
-2.13556e-05
5.66553e-05
-7.71562e-05
9.32742e-06
-0.000126307
8.39665e-05
-7.33843e-05
0.000133193
3.49166e-05
0.000215033
0.000117737
0.000307408
0.000215067
0.000324441
0.000318773
0.000294519
0.000344559
0.000224054
0.00033137
0.000117406
0.000285728
1.05642e-05
0.000242674
-4.85998e-05
0.000188528
-0.000126013
0.000114802
-0.000161869
0.000111599
-0.000122846
0.000211371
-0.00016654
0.000344921
-0.000203042
0.000373285
-0.000229045
0.000351346
-0.000205576
0.000249657
-0.00016835
0.000155191
-0.000151265
0.000138493
-0.000163633
0.000156702
-0.000190484
0.000170213
-0.000153502
9.72679e-05
-6.82049e-05
-3.25801e-05
-0.000136607
5.71026e-05
-0.000171525
0.000123179
-0.000128215
0.000177676
-1.86885e-05
0.000197744
0.000100119
0.000247023
0.000180142
0.000287607
0.00027821
0.000295559
0.000332185
0.0002846
0.000334285
0.000239297
0.000312816
0.000174598
0.000287086
5.80078e-05
0.000261413
-8.62996e-05
0.000228604
-9.01374e-05
0.000184026
-6.68071e-07
0.000198858
2.95734e-05
0.000340363
-1.21509e-06
0.000399432
-4.49491e-05
0.00036582
-0.000110134
0.000257571
-0.000135497
0.000148948
-0.000111579
0.000125735
-9.1995e-05
0.000141003
-9.52432e-05
0.000146402
-7.17171e-05
5.10139e-05
-6.5042e-05
-7.62582e-05
-0.000205038
8.39789e-05
-0.000247829
0.000143447
-0.000201735
0.000160137
-7.96354e-05
0.000145812
7.48476e-05
0.000125104
0.000177644
0.000161472
0.000244352
0.000190592
0.000299784
0.000206702
0.000315507
0.000213057
0.00030624
0.000198683
0.000297313
0.000163318
0.000289673
0.00010801
0.000283566
5.86978e-05
0.000240443
7.27705e-05
0.00021729
0.000138759
0.000312912
0.000128162
0.000413178
0.000100365
0.000381307
4.27897e-05
0.000272573
-1.55526e-06
0.000154894
5.99826e-06
0.000116291
3.95433e-05
0.000118868
5.64567e-05
0.000114871
2.68071e-05
5.11879e-05
-4.72786e-06
-6.20153e-05
-0.000215035
5.51898e-05
-0.000293039
7.97379e-05
-0.00024137
4.83792e-05
-0.000109074
1.71891e-05
4.83306e-05
1.62033e-05
0.000140253
5.42802e-05
0.000193676
9.81009e-05
0.000251654
0.00013015
0.000284262
0.000142758
0.000293332
0.000129194
0.00030025
0.000105958
0.000307128
9.36985e-05
0.000305518
0.000110652
0.000247228
0.000108229
0.000229251
9.57626e-05
0.000322252
8.74484e-05
0.000424297
8.96477e-05
0.000378656
0.000101876
0.000254965
0.000100013
0.000148017
0.000107966
0.000103381
0.000128766
9.75737e-05
0.000154304
9.2555e-05
0.000120369
6.61329e-05
4.58038e-05
-8.28647e-06
-0.000147383
1.61441e-05
-0.000275534
2.60374e-06
-0.00022149
-4.37612e-05
-0.000101957
-7.78594e-05
3.27541e-05
-7.65297e-05
0.000103037
-6.5652e-05
0.000150809
-5.30625e-05
0.000212313
-3.2084e-05
0.000257214
-2.0674e-05
0.000282688
-1.61066e-05
0.000300089
-3.36584e-06
0.000294537
4.53729e-05
0.000267575
7.88575e-05
0.000228229
3.00014e-05
0.000260145
-2.29986e-05
0.000358614
-2.40628e-05
0.000425624
2.26412e-05
0.00034017
7.79887e-05
0.000210847
0.000107753
0.000127305
0.000124216
8.84575e-05
0.000135643
8.38457e-05
0.000142418
8.67241e-05
0.000123272
8.41423e-05
6.75134e-05
5.26111e-05
-4.75958e-05
-4.94508e-05
-0.000202927
-9.51727e-05
-0.000151111
-0.000107797
-4.77836e-05
-0.000132056
6.63901e-05
-0.000164556
0.000124317
-0.000205035
0.00016711
-0.000227387
0.000212227
-0.000216724
0.000237018
-0.00018323
0.000249431
-0.000130028
0.000251856
-6.20128e-05
0.000247081
-6.19892e-06
0.000234129
-3.13009e-05
0.000242688
-0.000104605
0.000300496
-0.000126969
0.000365553
-8.6003e-05
0.000381985
1.55189e-06
0.000262094
5.68305e-05
0.000162715
8.2331e-05
0.000105091
9.00714e-05
8.09969e-05
9.28725e-05
8.2341e-05
8.79846e-05
9.51737e-05
6.27587e-05
0.000111262
3.22221e-05
9.47987e-05
7.63221e-06
-6.57705e-05
-0.000147058
-9.04465e-05
-9.38967e-05
-6.16231e-05
3.70793e-06
-6.82879e-05
0.000126232
-0.000131103
0.000195439
-0.00017703
0.000209334
-0.000197713
0.000230464
-0.000199886
0.000240737
-0.000182573
0.000240683
-0.000152535
0.000236763
-0.000131344
0.00023984
-0.000142812