/*--------------------------------*- C++ -*----------------------------------*\
| =========                 |                                                 |
| \\      /  F ield         | OpenFOAM: The Open Source CFD Toolbox           |
|  \\    /   O peration     | Version:  2312                                  |
|   \\  /    A nd           | Website:  www.openfoam.com                      |
|    \\/     M anipulation  |                                                 |
\*---------------------------------------------------------------------------*/
FoamFile
{
    version     2.0;
    format      ascii;
    arch        "LSB;label=32;scalar=64";
    class       volScalarField;
    location    "0.515/water";
    object      Tf.gasAndLiquid;
}
// * * * * * * * * * * * * * * * * * * * * * * * * * * * * * * * * * * * * * //

dimensions      [0 0 0 1 0 0 0];

internalField   nonuniform List<scalar> 
1496
(
335.686942037
313.367577712
305.837959098
303.085854937
301.935324593
301.331125464
300.970140308
300.731688039
300.558968002
300.444935214
300.356825752
300.279614035
300.210161797
300.147041967
300.089177147
300.042317431
300.015079255
300.005866473
300.003815528
300.003297235
337.387268101
313.728115632
305.933361479
303.127786044
301.948868671
301.334422197
300.973849199
300.740186055
300.56988552
300.449572245
300.35530789
300.274317034
300.202868323
300.138776622
300.081027409
300.036583687
300.013202903
300.006073115
300.004483342
300.003990387
337.719206371
313.42257859
305.615525221
302.933083618
301.851755859
301.288419715
300.951779323
300.732867779
300.572329252
300.453172971
300.355460114
300.272268829
300.199791314
300.135307361
300.077544168
300.034578555
300.013307228
300.006952878
300.005451112
300.004866826
336.670281579
312.52594102
304.844757962
302.489705265
301.638530566
301.192556532
300.908567652
300.715073379
300.569097186
300.455314575
300.358220612
300.274193411
300.201356076
300.136735883
300.078416477
300.035588175
300.014902243
300.008511428
300.006777334
300.005993254
331.741853941
310.150084424
303.505830672
301.906662943
301.370889558
301.065872637
300.847987449
300.688072246
300.560803561
300.455073508
300.361424467
300.278660172
300.206485756
300.142063337
300.08297219
300.039106973
300.01785981
300.010910723
300.008655665
300.007499378
324.611067008
307.403818109
302.346818469
301.432415915
301.131051323
300.941218425
300.787346407
300.659299682
300.548633826
300.452665511
300.363515679
300.283343224
300.212782262
300.149060427
300.089466051
300.044526443
300.022229215
300.01438208
300.011359355
300.009584374
320.021655276
307.247884513
302.247457548
301.214314226
300.976357051
300.843854774
300.734036845
300.633661311
300.53699949
300.448683046
300.364299405
300.287438786
300.218916288
300.156115916
300.096459291
300.050782954
300.027737399
300.019101531
300.015158908
300.012519422
318.06106778
307.10215838
302.46379428
301.171839125
300.897428519
300.781089491
300.695059998
300.613117749
300.528753986
300.446786225
300.366688181
300.292564048
300.225520778
300.162896558
300.103206941
300.057252569
300.034106749
300.025064391
300.020244788
300.016625429
317.268664896
307.168988015
302.709720178
301.442295915
300.886620779
300.752416643
300.674695182
300.60300255
300.527457429
300.450276636
300.373560657
300.301358637
300.23454131
300.170442731
300.109650934
300.063938596
300.041335876
300.032230993
300.026605909
300.022011087
316.93537529
307.183127896
302.855702674
301.524188447
300.991342378
300.762065936
300.675022349
300.605912121
300.535074901
300.461007004
300.386631321
300.315544645
300.247567909
300.180715974
300.11781273
300.071637039
300.049753742
300.040500124
300.034095113
300.028381081
316.879682831
307.262420097
303.004811894
301.733088899
301.246312116
300.875582707
300.703920486
300.623620587
300.552514253
300.480203986
300.40749676
300.336410571
300.266503663
300.196798071
300.130370868
300.08178799
300.059901061
300.049674158
300.042282166
300.035511718
316.96079043
307.393147352
303.141252091
301.859678027
301.324876851
301.009969717
300.79113656
300.666012118
300.582817721
300.508995974
300.436396393
300.36457686
300.292749755
300.220328778
300.149329919
300.096256764
300.072313971
300.05982939
300.050842442
300.043020931
317.180764142
307.463858327
303.257851803
301.981124642
301.430764465
301.126044805
300.897226871
300.737652447
300.629622508
300.545825335
300.470377574
300.397331693
300.324096989
300.249572557
300.175120503
300.117236842
300.087820208
300.071702088
300.060283027
300.050828617
317.40452585
307.525151775
303.328454907
302.041532833
301.478986781
301.169350956
300.962839276
300.80182611
300.680891071
300.586036867
300.504749265
300.429272278
300.355208065
300.280346119
300.205432607
300.144487151
300.106982332
300.085627459
300.071024939
300.059504136
317.620928046
307.445274285
303.320656348
302.001140438
301.44506671
301.149840654
300.960717965
300.82374828
300.709615587
300.61315707
300.52897655
300.4523125
300.378834314
300.304927666
300.231048472
300.169986717
300.127663752
300.101053062
300.082794771
300.069017575
317.708653779
307.405858244
303.275243097
301.902250923
301.361115026
301.102736714
300.940815726
300.813130159
300.704869101
300.61234472
300.531259699
300.457393855
300.386371599
300.314604697
300.245438449
300.187918749
300.145046765
300.115643114
300.0945152
300.078538713
317.722576681
307.311590189
303.205274999
301.811834675
301.293811774
301.058103213
300.896644329
300.772810252
300.672702756
300.588115448
300.51362316
300.445036975
300.37831396
300.311670979
300.249757387
300.197659031
300.157233242
300.127378982
300.104792692
300.08736824
317.560320022
307.154627529
303.086911741
301.719853315
301.223343845
300.977355195
300.824548586
300.716074923
300.630030726
300.556050094
300.488843566
300.425416323
300.363426673
300.302816814
300.247893001
300.201417972
300.164411098
300.135619104
300.112857196
300.09500016
317.260201336
306.89365181
302.911642038
301.585171358
301.103296857
300.880082728
300.753745128
300.665991236
300.593758584
300.528380099
300.466563601
300.4068652
300.348625411
300.293072893
300.243527635
300.201593283
300.167690422
300.140445209
300.118496119
300.101439368
316.795438742
306.617977183
302.71944547
301.447162339
300.987440027
300.804955411
300.707293515
300.634819694
300.570793259
300.509954087
300.450951664
300.393326768
300.337477937
300.285269818
300.239212868
300.200464419
300.168655245
300.142740823
300.122478271
300.107352053
316.373175966
306.495066832
302.677585574
301.372127434
300.922219102
300.770178542
300.687751707
300.621827282
300.5608041
300.501001169
300.442649935
300.385569195
300.330662747
300.280096551
300.236019527
300.198858973
300.168101653
300.143887957
300.12673339
300.114975831
316.055395815
306.614018539
302.783276516
301.376056587
300.909669083
300.76818978
300.687982312
300.621889151
300.560529222
300.50020778
300.440783907
300.382942822
300.327622303
300.277313843
300.233837948
300.197102608
300.167648897
300.146919667
300.134184178
300.125051099
316.070612214
306.864753077
303.000192898
301.439609918
300.938517395
300.789525644
300.702216871
300.632178781
300.568170955
300.505920356
300.444634292
300.384950969
300.328109484
300.277104109
300.233650362
300.197458866
300.170509595
300.154537401
300.145016658
300.137267864
316.415597689
307.180907551
303.106711045
301.50387094
301.02367028
300.837361073
300.730080121
300.651343302
300.582892591
300.517746983
300.454048297
300.391908519
300.333052131
300.281023536
300.237616434
300.202470562
300.178958483
300.166421249
300.158529234
300.150755582
317.563096864
307.417210948
303.014715195
301.540256626
301.155932458
300.921585019
300.776449761
300.680597943
300.604632844
300.535420617
300.468873306
300.404169149
300.343228098
300.289971127
300.246628209
300.213073458
300.192309548
300.181510143
300.173729544
300.165121001
319.768762268
307.921177031
303.142771417
301.731616798
301.294543942
301.022470916
300.840143759
300.72093727
300.633410481
300.558478556
300.488650272
300.421484012
300.358497608
300.303728968
300.260092039
300.2280587
300.208895376
300.19850389
300.190166478
300.180839667
320.194232963
307.801238534
303.427399694
301.957488056
301.437048147
301.134681814
300.916115766
300.770606776
300.668520662
300.586304105
300.512730912
300.443121336
300.378144591
300.321604106
300.276924944
300.245571159
300.226952613
300.216568944
300.208101574
300.198635289
318.416245765
308.157333493
303.927506393
302.272199402
301.622810596
301.256726463
300.996096352
300.824097009
300.707258038
300.617483354
300.539999871
300.467944099
300.401188367
300.3429547
300.296659893
300.264591555
300.245888587
300.235713015
300.227893947
300.2189953
316.267729325
307.785970033
304.128252795
302.517281537
301.795293875
301.351722767
301.056914251
300.868566725
300.74321412
300.648791427
300.568363901
300.494289108
300.42630216
300.366946987
300.319415725
300.286040094
300.266633187
300.256802295
300.250217173
300.242362864
314.94836959
307.104830138
303.997680887
302.56994369
301.83540189
301.37427903
301.079107359
300.894427847
300.771322246
300.677341793
300.595822624
300.520951279
300.452592546
300.392827596
300.344509064
300.310077087
300.289820102
300.280350066
300.275124055
300.268580553
314.498955547
306.633574676
303.729596386
302.464980898
301.7735944
301.341998121
301.074250607
300.908151058
300.794809021
300.704430146
300.623922925
300.549402682
300.481164349
300.421153992
300.372042893
300.336223771
300.31466361
300.305332821
300.301642356
300.297066891
314.331904759
306.413206534
303.523670696
302.320751489
301.683639355
301.298185316
301.066948629
300.923618491
300.82197374
300.736477231
300.657637294
300.583312957
300.514524371
300.453490018
300.402795226
300.364787663
300.34101237
300.331435222
300.32972594
300.327462561
314.260349959
306.400307394
303.417140895
302.219144918
301.621119343
301.27738585
301.078446738
300.954108159
300.86135825
300.779265899
300.700661883
300.624767508
300.553471661
300.489651819
300.436289848
300.395640648
300.369834812
300.360774016
300.360715438
300.355309451
314.324238657
306.412702521
303.322829827
302.12328397
301.575561057
301.281085291
301.112128436
301.001720465
300.913962356
300.832730793
300.752264394
300.672374867
300.59595182
300.527616826
300.471824198
300.431198485
300.408692557
300.402271538
300.393545926
300.380415658
314.924141928
306.458924692
303.010386183
301.931571182
301.511007455
301.288154276
301.15144799
301.052870906
300.968670683
300.887813822
300.80558426
300.72130745
300.63926074
300.568649538
300.516383474
300.482846846
300.465218638
300.44982383
300.427658593
300.405541501
318.75670621
306.508564131
302.767617087
301.801211365
301.453586823
301.28356682
301.169396848
301.080818731
301.002743056
300.926677493
300.847818044
300.763709433
300.681710961
300.614397758
300.565751945
300.531147389
300.504865825
300.480395611
300.454751091
300.428685777
324.581964828
308.213600562
303.44879447
301.952985202
301.484897495
301.284400859
301.164528354
301.076669586
301.002177525
300.931888632
300.859019313
300.779748714
300.702319553
300.639006238
300.590707313
300.553162525
300.522722592
300.495654983
300.46980631
300.444341655
300.003078286
300.003321271
300.003577838
300.003863937
300.004181173
300.004535589
300.004885238
300.005136695
300.005181805
300.005383378
300.005360842
300.005266904
300.005163706
300.005066247
300.004981875
300.004805939
300.003035852
300.002993001
300.003168511
300.00343638
300.003725967
300.004023655
300.004335462
300.004676124
300.005070979
300.005520857
300.005946236
300.006202235
300.006218683
300.00651408
300.006424854
300.006227264
300.006022563
300.005851378
300.005720616
300.005510013
300.003686593
300.003627847
300.003836475
300.004171264
300.004537115
300.004894865
300.005256742
300.005662227
300.00615167
300.006697572
300.007172573
300.00743231
300.00737703
300.007731426
300.0075455
300.00720012
300.006857075
300.006592954
300.006409357
300.006153886
300.004498153
300.004411027
300.004651449
300.005083274
300.005556227
300.005992836
300.006408696
300.00687533
300.007462845
300.00809565
300.00860966
300.008837866
300.008735555
300.009000158
300.00869661
300.008151561
300.007625895
300.00724442
300.006998544
300.006700539
300.005511682
300.005358871
300.005617444
300.006183783
300.006832254
300.00740148
300.007863528
300.008329628
300.008961589
300.009672854
300.010282999
300.010511464
300.01034643
300.010310055
300.009836985
300.009062156
300.008311237
300.007784046
300.007467377
300.007130859
300.006789581
300.006507391
300.006734941
300.007470611
300.00839708
300.009195752
300.009731186
300.01011276
300.010714568
300.011433366
300.012044298
300.012351085
300.012114728
300.011673284
300.010937224
300.009942824
300.008920123
300.008206213
300.007814935
300.007451458
300.008449553
300.007919289
300.008023263
300.008940975
300.010274399
300.011483036
300.012216567
300.012493377
300.0129697
300.013548132
300.01400911
300.014143694
300.01369548
300.012998638
300.01191141
300.010613356
300.009378628
300.00849041
300.008035586
300.007713172
300.010682965
300.009712987
300.009546684
300.010636271
300.012529466
300.01435002
300.015440607
300.015651352
300.015913538
300.016272876
300.016405206
300.016081687
300.015154345
300.014049329
300.012529989
300.010888908
300.009554277
300.008696709
300.008255024
300.008012769
300.01367492
300.012039789
300.011426004
300.012673721
300.015272894
300.017855021
300.019340925
300.019483639
300.01954474
300.01955867
300.01911994
300.018164057
300.016658489
300.014755856
300.012848584
300.011170266
300.009875991
300.009028161
300.008542259
300.008226683
300.017662523
300.014942205
300.013722561
300.015101039
300.018503815
300.021945429
300.02380341
300.023895283
300.023766683
300.02330671
300.022136372
300.020474781
300.018321411
300.015890272
300.013675957
300.011797433
300.0103426
300.009377066
300.008812797
300.008352743
300.022762619
300.01847614
300.016412318
300.017884054
300.022172139
300.026551634
300.028831704
300.028957183
300.028653344
300.027587202
300.025694789
300.02333221
300.020629735
300.017732065
300.015029689
300.012678876
300.010840236
300.009622759
300.008929167
300.008411686
300.028666779
300.022734856
300.019512925
300.020934723
300.026190161
300.031666511
300.034551536
300.034830184
300.03441937
300.032836764
300.030256193
300.027059997
300.02371254
300.020257924
300.016820782
300.013677003
300.011215661
300.009553798
300.008632007
300.008111338
300.03521265
300.0277914
300.0230871
300.02413807
300.030368341
300.037285996
300.041165824
300.041720581
300.041346397
300.039608695
300.036311773
300.031857762
300.027397359
300.023136346
300.018909871
300.014740499
300.01148203
300.009070001
300.00754641
300.006650245
300.042327898
300.033642375
300.02729522
300.027433259
300.034406119
300.043133969
300.048585135
300.049593671
300.049327138
300.047850622
300.044153964
300.038214453
300.031712413
300.026048974
300.020868517
300.015830257
300.012019503
300.009140893
300.006251911
300.002575143
300.049876618
300.040204941
300.032420963
300.030999811
300.037868573
300.048639792
300.056383863
300.05834865
300.05821685
300.057063008
300.053347248
300.046335083
300.037340859
300.028813349
300.022110956
300.016111761
300.011839583
300.008798464
300.005466488
300.001754332
300.057770425
300.047173065
300.038409472
300.035487373
300.040952033
300.05281427
300.063628508
300.06777691
300.067484287
300.066319046
300.062682576
300.055038609
300.043824206
300.031954354
300.022340677
300.015755446
300.011358659
300.008159597
300.004783803
300.001430655
300.065752688
300.054339743
300.045003399
300.040988193
300.044804598
300.056027114
300.068866622
300.076480958
300.076925619
300.07489989
300.071335056
300.06319818
300.049765966
300.034922244
300.02239227
300.015262148
300.010851433
300.007521486
300.004332631
300.001240863
300.073462899
300.061574043
300.052092288
300.04734504
300.049673368
300.059773126
300.07312238
300.083323584
300.086021609
300.08346121
300.079140041
300.069947776
300.054062584
300.036745008
300.023053637
300.014785942
300.010475834
300.007015408
300.004140733
300.001170234
300.08078062
300.069040829
300.05975582
300.054497148
300.055626715
300.064609906
300.077877133
300.089399157
300.093952981
300.091264102
300.085789913
300.075033031
300.056370778
300.037351255
300.023204761
300.014304215
300.010108023
300.006706344
300.003975853
300.001139736
300.087966753
300.077105059
300.068118635
300.062416031
300.0627049
300.070843498
300.08380369
300.095782585
300.101149598
300.09825549
300.091510663
300.078803118
300.057537613
300.037399849
300.022966334
300.013814472
300.009789237
300.006559996
300.003751972
300.001166537
300.095981327
300.086096769
300.077186685
300.071144608
300.070968176
300.078606523
300.091164154
300.102909001
300.108099949
300.104703653
300.096939303
300.081916016
300.058470104
300.037568616
300.022882379
300.013496138
300.009602676
300.006534173
300.003606931
300.001283147
300.105481158
300.096075272
300.087037548
300.080768982
300.080502514
300.087914774
300.099927019
300.110841253
300.114986609
300.111020984
300.102582281
300.08484821
300.059776109
300.038061488
300.023007928
300.013229879
300.0093797
300.006484078
300.003525079
300.001505379
300.116465
300.106923064
300.097662446
300.091399565
300.091392623
300.09868872
300.109882635
300.119391539
300.121936397
300.117465025
300.108588721
300.087801646
300.061600244
300.038640837
300.02308236
300.012760474
300.008852173
300.006134768
300.003358994
300.00171935
300.128468084
300.11852015
300.109139561
300.103196702
300.103701611
300.11078486
300.120743502
300.128323615
300.129086541
300.124180405
300.114680395
300.091090321
300.063517515
300.039005255
300.022887927
300.011909817
300.00798779
300.005409666
300.002933273
300.002099339
300.141239582
300.130919141
300.121674595
300.116376461
300.117445104
300.123981824
300.132197091
300.13744968
300.136596673
300.131047458
300.120189952
300.094436852
300.064806405
300.038581691
300.022142629
300.010570344
300.007127863
300.004701246
300.002800592
300.002316592
300.154977277
300.144472783
300.135531713
300.131097847
300.132560085
300.138038545
300.143976637
300.146801651
300.144191606
300.137624319
300.124596452
300.096912596
300.06439772
300.036802617
300.020238633
300.009199593
300.006592827
300.004191231
300.002904333
300.002627525
300.17026967
300.159630086
300.151045598
300.147445348
300.148890836
300.152675886
300.155912135
300.156310463
300.151883992
300.143492786
300.127491849
300.096938118
300.061073718
300.033344214
300.01422139
300.008026809
300.00600916
300.003972828
300.003253994
300.003087711
300.18778162
300.176785633
300.168448607
300.16539209
300.16620474
300.167732398
300.168418556
300.165488121
300.159119148
300.147981433
300.127703078
300.093338084
300.054758649
300.02538497
300.010663153
300.007236908
300.005543421
300.004225443
300.003887781
300.003768682
300.208054876
300.196555596
300.188099322
300.184957957
300.184503459
300.183828075
300.181226828
300.174829887
300.165877589
300.150739435
300.124603244
300.086239717
300.045062415
300.017555734
300.00947529
300.007026276
300.005633881
300.004922429
300.00483541
300.00473594
300.231700132
300.219991611
300.210789245
300.206658413
300.204515634
300.20089974
300.193934213
300.184416515
300.172314447
300.151887494
300.11935436
300.076516343
300.032510791
300.013983494
300.009342635
300.007444698
300.006337403
300.006091902
300.006150575
300.006036344
300.259334686
300.248518696
300.237980185
300.230970549
300.225548106
300.217927849
300.207749537
300.194693268
300.178604625
300.152306294
300.114254435
300.062035876
300.026077345
300.012972593
300.009794288
300.008385367
300.007641826
300.00772024
300.00794432
300.007828726
300.290720577
300.280783186
300.26846284
300.25718133
300.246863073
300.236050826
300.223039148
300.206015408
300.185222965
300.154276225
300.106136698
300.054253181
300.022483175
300.013123177
300.010797334
300.009804429
300.009588231
300.009955211
300.01056245
300.010781911
300.320516247
300.309263328
300.295782876
300.282244129
300.268925451
300.255542383
300.239353407
300.218117407
300.192819421
300.158308052
300.102872078
300.050638004
300.021706104
300.014189335
300.012420618
300.011865722
300.012227394
300.012905548
300.014115573
300.015426236
300.34534538
300.333029252
300.318681255
300.303873039
300.289872807
300.275075006
300.255845198
300.230347381
300.201223371
300.161943653
300.103643344
300.050576693
300.023116107
300.016010343
300.014573399
300.014431205
300.01527663
300.016300571
300.01808502
300.020823277
300.367337428
300.353678896
300.33853309
300.322818878
300.3080087
300.291919408
300.270716032
300.241669337
300.209110043
300.166305106
300.106367044
300.053025899
300.026024484
300.018358502
300.01711506
300.017382665
300.018605548
300.020025203
300.022494189
300.026779359
300.387434568
300.371389087
300.355694696
300.339540062
300.323356906
300.305569044
300.281918083
300.25042801
300.214852311
300.170079441
300.109174823
300.056915463
300.029926463
300.021041199
300.019914304
300.02060314
300.022258536
300.024094678
300.027277559
300.03261017
300.405512921
300.386693942
300.370031313
300.353243505
300.335757679
300.316120663
300.289837917
300.255309835
300.217639301
300.17137709
300.110837359
300.061034597
300.03406582
300.02387893
300.022809613
300.023968354
300.026063031
300.028425329
300.032210179
300.037143192
300.419794688
300.398954672
300.380953922
300.363310456
300.344680728
300.323060075
300.294024088
300.257484219
300.218222057
300.169043089
300.111106521
300.063725808
300.036548041
300.026558973
300.025389843
300.027137385
300.029732278
300.032873668
300.036542991
300.039684138
)
;

boundaryField
{
    emptyPatch
    {
        type            empty;
    }
    minY
    {
        type            calculated;
        value           nonuniform List<scalar> 0();
    }
    maxY
    {
        type            calculated;
        value           nonuniform List<scalar> 
40
(
324.58219532
308.213608975
303.448799773
301.952986741
301.48489773
301.284400738
301.164528098
301.076669267
301.002177226
300.931888418
300.859019184
300.779748652
300.702319551
300.639006285
300.590707378
300.553162587
300.52272264
300.49565502
300.469806342
300.444341686
300.419794725
300.398954713
300.380953957
300.36331048
300.344680737
300.323060064
300.294024032
300.257484021
300.218221697
300.169042548
300.111106031
300.063725442
300.036547808
300.026558947
300.025389835
300.027137386
300.029732279
300.032873671
300.036543003
300.039684195
)
;
    }
    maxX
    {
        type            calculated;
        value           nonuniform List<scalar> 
38
(
300
300
300
300
300
300
300
300
300
300
300
300
300
300
300
300
300
300
300
300
300
300
300
300
300
300
300
300
300
300
300
300
300
300
300
300
300
300
)
;
    }
    water_to_heater
    {
        type            calculated;
        value           nonuniform List<scalar> 
59
(
793.158345464
793.129807325
793.133476552
793.085313856
793.078161635
793.035310758
792.997812892
792.973413834
792.931070454
792.93418571
792.922012552
792.946223442
792.945233634
792.986198742
792.986065417
793.030800062
793.030381606
793.066110904
793.066453261
793.085056464
793.085462704
793.11439148
793.114237042
793.155426501
793.155669245
793.190234527
793.190076182
793.209832001
793.209519215
793.21605336
793.21603776
793.225975583
793.225505804
793.252985816
793.253243526
793.286840499
793.287551313
793.319869747
793.320583978
793.349071785
793.352620571
793.379069968
793.381368659
793.41343348
793.417099039
793.45639777
793.45998398
793.488078309
793.487777592
793.49213824
793.49180869
793.464109341
793.463427999
793.375302939
793.3766902
793.232143247
793.224590833
793.079002111
793.115885316
)
;
    }
    procBoundary0to1
    {
        type            processor;
        value           nonuniform List<scalar> 
41
(
329.847867454
311.942267522
305.252851578
302.765225284
301.771038016
301.243401912
300.915592773
300.691572791
300.537545886
300.437830913
300.358294225
300.286186982
300.220063507
300.159023952
300.10174011
300.052436804
300.019788597
300.006630907
300.003507511
300.00277227
300.002552236
300.00274699
300.002955639
300.003180549
300.003433489
300.003703715
300.003976302
300.004199758
300.004259369
300.00438136
300.004405736
300.004383697
300.004347799
300.004307628
300.004259608
300.004096546
300.0025131
300.002483379
300.002626196
300.002842803
300.002842803
)
;
    }
}


// ************************************************************************* //
