/*--------------------------------*- C++ -*----------------------------------*\
| =========                 |                                                 |
| \\      /  F ield         | OpenFOAM: The Open Source CFD Toolbox           |
|  \\    /   O peration     | Version:  2312                                  |
|   \\  /    A nd           | Website:  www.openfoam.com                      |
|    \\/     M anipulation  |                                                 |
\*---------------------------------------------------------------------------*/
FoamFile
{
    version     2.0;
    format      ascii;
    arch        "LSB;label=32;scalar=64";
    class       volScalarField;
    location    "69";
    object      k.water;
}
// * * * * * * * * * * * * * * * * * * * * * * * * * * * * * * * * * * * * * //

dimensions      [0 2 -2 0 0 0 0];

internalField   nonuniform List<scalar> 
1875
(
0.0562754
0.058838
0.061989
0.064915
0.0676648
0.0701605
0.0726873
0.0751159
0.0773776
0.0794962
0.0814386
0.0830709
0.0842243
0.0848881
0.0850375
0.0846693
0.0834056
0.0806356
0.076067
0.0698435
0.0624338
0.0546425
0.0471528
0.0402243
0.0341341
0.0784726
0.0794723
0.0803542
0.0809025
0.081224
0.0813308
0.0812333
0.0810274
0.080849
0.0807784
0.0808841
0.0812426
0.0819861
0.0830405
0.0842365
0.0854548
0.0863629
0.0864677
0.0856328
0.0831746
0.0787996
0.0730959
0.0667372
0.0600488
0.0545822
0.0844889
0.0844983
0.0845665
0.0844342
0.0841525
0.0837998
0.0834065
0.0830206
0.0826828
0.0824381
0.0823215
0.0823802
0.0826607
0.0832773
0.0841395
0.0850661
0.0858191
0.0861124
0.0855956
0.0838332
0.08039
0.0755715
0.0702072
0.0652965
0.0628618
0.0866105
0.0856
0.0850806
0.0844311
0.083765
0.0831883
0.08279
0.0826225
0.0826548
0.0828259
0.0831435
0.0835795
0.084128
0.084728
0.085356
0.0859646
0.0863606
0.0862841
0.0854796
0.0835615
0.0802605
0.07594
0.0715333
0.0680555
0.0671776
0.0889173
0.0876604
0.0864602
0.0851576
0.0839937
0.0831201
0.0825999
0.0824324
0.0825314
0.0827938
0.0831872
0.0836755
0.0842261
0.0847818
0.0853015
0.0857313
0.0859136
0.0855627
0.0844162
0.0823053
0.079238
0.0755624
0.0719705
0.0695104
0.0694887
0.0931255
0.091863
0.0903373
0.0885895
0.0870249
0.0856976
0.0846472
0.083933
0.0835564
0.083461
0.0835624
0.0838292
0.0841986
0.0846193
0.0849792
0.0851317
0.085001
0.0844074
0.0830646
0.0808795
0.0779303
0.0746223
0.0716476
0.0698458
0.0704993
0.0977515
0.0970872
0.0956875
0.0936894
0.0915946
0.0892942
0.0870143
0.0851411
0.0839137
0.0833256
0.0831562
0.0832281
0.0835834
0.0840207
0.0843241
0.0844203
0.0841435
0.0832117
0.0815298
0.0791711
0.0763605
0.073487
0.0710608
0.0697202
0.0702232
0.102341
0.102517
0.101482
0.0991445
0.0958865
0.0918868
0.0880559
0.0850947
0.0832684
0.0824381
0.0822551
0.0826611
0.0831626
0.083577
0.0837628
0.0835989
0.0828592
0.0815066
0.0796093
0.0773261
0.0748702
0.0725012
0.0705565
0.0695395
0.0699473
0.10575
0.106809
0.105794
0.102726
0.0980732
0.0927141
0.0880396
0.0849853
0.0836068
0.0832242
0.083149
0.0831177
0.0832098
0.0832578
0.0830354
0.082503
0.0815581
0.0802324
0.0785961
0.0767447
0.0747931
0.0728789
0.0712514
0.0703707
0.0704734
0.107857
0.10941
0.108087
0.104376
0.0989848
0.093185
0.0884214
0.0854191
0.0840001
0.083465
0.0833674
0.0834393
0.0834721
0.0834169
0.0831901
0.0827118
0.0819959
0.0810643
0.0799348
0.0786336
0.0772115
0.0757534
0.0744468
0.0736729
0.0734772
0.109162
0.110244
0.108725
0.104898
0.0996564
0.0941733
0.0897128
0.0868559
0.0854167
0.0848166
0.084656
0.0847206
0.0848777
0.0849533
0.0849502
0.084815
0.0845289
0.0840731
0.0834425
0.0826462
0.0817188
0.0807387
0.0799021
0.0795358
0.0795252
0.108928
0.109657
0.108391
0.10497
0.100455
0.0957288
0.0918381
0.0892369
0.0878276
0.0872171
0.0870423
0.0870955
0.0872843
0.0875084
0.0877079
0.087822
0.0878421
0.0877318
0.08748
0.0870955
0.0866106
0.0860988
0.085763
0.0858295
0.0862409
0.108434
0.108843
0.107659
0.104855
0.1012
0.0973659
0.0941259
0.091797
0.0904276
0.0897879
0.0895883
0.0896375
0.0898605
0.0901658
0.0904858
0.090774
0.0910004
0.091137
0.0911812
0.0911376
0.091019
0.0908718
0.0908051
0.0910295
0.091687
0.107827
0.108014
0.106994
0.104863
0.10209
0.099072
0.0963715
0.0942928
0.092967
0.0922787
0.0920289
0.0920407
0.0922393
0.0925445
0.092899
0.0932632
0.0936117
0.093926
0.0941962
0.0944192
0.0946089
0.0947647
0.0948592
0.0949526
0.0955635
0.107323
0.107493
0.106765
0.10513
0.103024
0.100671
0.0984835
0.0966915
0.0954214
0.0946452
0.0942674
0.0941739
0.0942814
0.0945258
0.0948539
0.095227
0.0956183
0.0960117
0.0964003
0.0967902
0.0972107
0.0976492
0.0980367
0.0982383
0.0988136
0.107331
0.107597
0.107104
0.105867
0.104244
0.102398
0.100568
0.0989355
0.0976735
0.0968119
0.0963115
0.0961054
0.0961231
0.0963011
0.0965871
0.0969386
0.0973246
0.0977259
0.098139
0.0985773
0.0990692
0.0996578
0.100371
0.100978
0.101738
0.107604
0.10803
0.107933
0.107129
0.105877
0.10436
0.102776
0.101291
0.100019
0.0990611
0.0984324
0.098105
0.0980284
0.0981399
0.0983917
0.0987322
0.0991191
0.0995229
0.0999321
0.100361
0.10085
0.10147
0.102375
0.103296
0.104226
0.107786
0.108317
0.108811
0.108549
0.107744
0.106558
0.105178
0.103784
0.102528
0.101501
0.100757
0.100312
0.100145
0.100203
0.100434
0.100792
0.101216
0.101661
0.102102
0.102544
0.103033
0.10365
0.104579
0.105621
0.106571
0.107747
0.108168
0.109053
0.10944
0.10921
0.108484
0.107411
0.106175
0.104974
0.103944
0.103164
0.102665
0.102452
0.102498
0.102746
0.103161
0.103663
0.104193
0.104709
0.105201
0.105706
0.1063
0.107174
0.108166
0.109054
0.106987
0.10707
0.108081
0.10907
0.109498
0.109375
0.108819
0.107931
0.106916
0.105952
0.105171
0.104728
0.104649
0.104802
0.105186
0.105739
0.106379
0.107039
0.107667
0.108242
0.108792
0.109376
0.110189
0.111087
0.111805
0.104836
0.105154
0.106242
0.107664
0.108773
0.109287
0.109277
0.108912
0.108268
0.107578
0.106968
0.1066
0.10661
0.106934
0.107551
0.108337
0.109199
0.11005
0.110827
0.111505
0.112116
0.112712
0.113481
0.114305
0.114805
0.103927
0.104103
0.104995
0.106369
0.107787
0.108841
0.109384
0.109478
0.109296
0.108972
0.108795
0.108704
0.108719
0.109067
0.109847
0.110872
0.111995
0.113084
0.114049
0.11485
0.115525
0.116135
0.116862
0.117582
0.117819
0.105088
0.104952
0.105545
0.106592
0.107884
0.10909
0.109961
0.110434
0.110579
0.110541
0.110477
0.110587
0.110876
0.111367
0.112235
0.113442
0.114784
0.116095
0.117248
0.118182
0.118922
0.119541
0.120213
0.120741
0.120789
0.108454
0.108047
0.108353
0.109022
0.109923
0.110912
0.111795
0.112423
0.112757
0.112866
0.112868
0.112951
0.113357
0.114086
0.115055
0.116292
0.117721
0.119155
0.120439
0.121482
0.122289
0.122931
0.123576
0.123888
0.123741
0.113724
0.113138
0.11322
0.113551
0.114027
0.114621
0.11525
0.11578
0.116124
0.116283
0.116344
0.116448
0.116731
0.117344
0.118307
0.119535
0.120943
0.122386
0.123706
0.124797
0.125636
0.126277
0.126877
0.127021
0.126748
0.120197
0.119698
0.119668
0.1196
0.119626
0.119788
0.120061
0.120356
0.120582
0.120689
0.120717
0.120777
0.120997
0.121488
0.122284
0.123335
0.124587
0.125921
0.127179
0.128241
0.129059
0.129648
0.130115
0.130193
0.129816
0.12714
0.126933
0.126892
0.12635
0.125945
0.125755
0.125726
0.125782
0.125835
0.125825
0.125761
0.125719
0.125808
0.12611
0.126714
0.127601
0.128668
0.129819
0.130938
0.131911
0.13267
0.133195
0.133553
0.133542
0.133104
0.133893
0.133856
0.133635
0.132864
0.132252
0.131888
0.131701
0.131607
0.131509
0.131375
0.131202
0.131052
0.131019
0.131178
0.131591
0.132253
0.1331
0.134047
0.134992
0.135832
0.136495
0.136936
0.137185
0.137092
0.136576
0.14013
0.140159
0.139748
0.138936
0.138296
0.137869
0.137606
0.137428
0.137254
0.137036
0.136775
0.136527
0.136382
0.136403
0.136641
0.137105
0.137751
0.138497
0.139255
0.13994
0.14048
0.140816
0.140955
0.140772
0.140219
0.145767
0.145833
0.145399
0.144612
0.144013
0.143596
0.143319
0.143102
0.142873
0.142592
0.142267
0.141952
0.141721
0.141636
0.141739
0.142033
0.142486
0.143037
0.14361
0.14413
0.144533
0.14475
0.144773
0.144506
0.143901
0.150902
0.150984
0.150596
0.149914
0.149402
0.149036
0.148776
0.148543
0.148274
0.147943
0.147569
0.1472
0.146901
0.146732
0.146721
0.146871
0.147158
0.147532
0.147932
0.148294
0.148556
0.148643
0.14854
0.14817
0.14754
0.155716
0.155824
0.155525
0.154961
0.154535
0.154218
0.153971
0.153714
0.1534
0.15301
0.152588
0.152196
0.151853
0.151614
0.151506
0.151531
0.15167
0.151884
0.152125
0.152341
0.152468
0.152415
0.152181
0.151714
0.151068
0.160393
0.160551
0.160327
0.159836
0.159462
0.159171
0.158916
0.15863
0.158279
0.157863
0.157405
0.156962
0.156566
0.156258
0.156058
0.155969
0.155972
0.15604
0.156136
0.156212
0.156202
0.156005
0.155626
0.155051
0.15443
0.164991
0.165209
0.165042
0.164568
0.164206
0.163909
0.163624
0.1633
0.162917
0.162483
0.162012
0.161497
0.161041
0.160664
0.160377
0.16018
0.16006
0.159997
0.159958
0.159896
0.159738
0.159411
0.158882
0.158181
0.157581
0.169428
0.169725
0.169602
0.169117
0.168743
0.168418
0.168091
0.16772
0.167293
0.166817
0.166302
0.16577
0.165277
0.164844
0.16448
0.164187
0.163958
0.163776
0.163612
0.163418
0.16313
0.162684
0.162028
0.161266
0.160713
0.173571
0.173912
0.173829
0.173386
0.173027
0.172685
0.172323
0.171912
0.171442
0.170922
0.170363
0.169831
0.169315
0.168836
0.168407
0.168031
0.167705
0.167417
0.167137
0.16682
0.166414
0.16586
0.165093
0.164296
0.163808
0.177425
0.177784
0.17776
0.177418
0.177094
0.176745
0.176362
0.175924
0.17543
0.174886
0.174329
0.173766
0.173217
0.172695
0.172208
0.171763
0.171357
0.170978
0.170599
0.170181
0.169677
0.169031
0.168183
0.167373
0.16695
0.181177
0.181566
0.181596
0.181312
0.181002
0.180643
0.180245
0.179793
0.179287
0.178739
0.178167
0.177587
0.177014
0.176459
0.175928
0.17543
0.174963
0.174516
0.174064
0.173572
0.172999
0.172297
0.171419
0.170615
0.170233
0.184798
0.185218
0.185288
0.185056
0.184759
0.184398
0.183995
0.183536
0.183028
0.182478
0.181903
0.181315
0.180728
0.180153
0.179595
0.179063
0.178557
0.178065
0.177567
0.177032
0.176426
0.175716
0.174861
0.174068
0.173697
0.188311
0.188747
0.188854
0.188664
0.188382
0.188026
0.187624
0.187168
0.186663
0.186119
0.185548
0.184962
0.184373
0.183791
0.183222
0.182674
0.182149
0.181636
0.181118
0.180569
0.179962
0.179281
0.178492
0.177697
0.177319
0.191698
0.192154
0.192289
0.192138
0.191876
0.191532
0.191138
0.190691
0.190196
0.189664
0.189104
0.188528
0.187947
0.18737
0.186802
0.186255
0.185728
0.185213
0.184697
0.184155
0.183567
0.182963
0.182294
0.181495
0.18109
0.194978
0.195442
0.195605
0.195485
0.195244
0.194916
0.194536
0.194103
0.193623
0.193107
0.192564
0.192005
0.191439
0.190875
0.19032
0.189782
0.189263
0.188756
0.188246
0.187741
0.187235
0.186707
0.186127
0.185341
0.184904
0.198135
0.198611
0.198792
0.198705
0.198486
0.198175
0.197808
0.197391
0.196936
0.196442
0.195918
0.195374
0.194834
0.194291
0.193755
0.193236
0.192738
0.192255
0.191778
0.191302
0.190815
0.190328
0.189798
0.189089
0.188641
0.201188
0.201663
0.201863
0.201806
0.201607
0.201312
0.200965
0.200571
0.200138
0.199664
0.199156
0.198641
0.198125
0.197604
0.197086
0.196584
0.196098
0.195649
0.195236
0.194793
0.194312
0.193869
0.193397
0.192781
0.192324
0.204133
0.204618
0.204847
0.204797
0.204622
0.204357
0.204053
0.203677
0.203238
0.202776
0.202302
0.20182
0.201295
0.200785
0.200296
0.199811
0.199362
0.198928
0.198506
0.198093
0.197698
0.197289
0.196889
0.196389
0.195924
0.20697
0.207463
0.207682
0.207656
0.207503
0.207271
0.20696
0.206602
0.206205
0.205778
0.205341
0.204857
0.20437
0.203882
0.203399
0.202953
0.202535
0.202108
0.201666
0.201261
0.200892
0.200558
0.20025
0.199842
0.199346
0.209659
0.210149
0.210391
0.210408
0.210259
0.210027
0.209737
0.209407
0.20905
0.20866
0.208217
0.207766
0.207334
0.206874
0.206398
0.205953
0.205497
0.205078
0.204698
0.204312
0.203927
0.203595
0.203296
0.202922
0.202423
0.212266
0.212748
0.213019
0.213032
0.212921
0.212702
0.212458
0.21215
0.211786
0.211382
0.21096
0.210546
0.210089
0.20964
0.209204
0.20874
0.208296
0.207881
0.207491
0.207116
0.20676
0.206405
0.20609
0.20569
0.20521
0.214753
0.215248
0.215489
0.215517
0.215422
0.215241
0.214977
0.214675
0.214341
0.213972
0.213593
0.213159
0.212718
0.212281
0.211852
0.211431
0.211042
0.210639
0.210224
0.209843
0.209489
0.209149
0.208824
0.208416
0.207931
0.217127
0.217608
0.217876
0.217938
0.21783
0.217644
0.217405
0.217127
0.216817
0.216487
0.216095
0.215693
0.215297
0.214884
0.214442
0.214035
0.213614
0.213222
0.212863
0.212496
0.212118
0.211767
0.211433
0.211018
0.210533
0.219443
0.219921
0.220207
0.220257
0.220189
0.220009
0.219804
0.219551
0.219244
0.218886
0.218517
0.21815
0.217741
0.217323
0.216914
0.216494
0.216079
0.215687
0.215317
0.21496
0.214616
0.214286
0.213949
0.213531
0.213044
0.221685
0.222168
0.222424
0.222484
0.222423
0.222283
0.222067
0.221805
0.22151
0.221189
0.220858
0.220477
0.220093
0.219681
0.219283
0.218883
0.218513
0.218132
0.21774
0.217381
0.21705
0.216701
0.216364
0.215946
0.215464
0.223839
0.224313
0.224591
0.224681
0.224608
0.224461
0.224272
0.224018
0.22374
0.223446
0.223092
0.222726
0.222357
0.221991
0.221596
0.221191
0.220804
0.220439
0.220101
0.219757
0.219403
0.219056
0.21873
0.218313
0.21783
0.225993
0.226455
0.226747
0.226817
0.226772
0.226615
0.226429
0.226216
0.225947
0.225625
0.225289
0.224952
0.224568
0.224188
0.223808
0.223435
0.223047
0.222678
0.22233
0.221994
0.221673
0.221357
0.221007
0.220591
0.220112
0.22811
0.228582
0.22884
0.228915
0.228871
0.228748
0.228547
0.228317
0.228056
0.227766
0.227466
0.227118
0.22677
0.226381
0.226004
0.225645
0.225299
0.224942
0.224574
0.224238
0.223929
0.223588
0.223245
0.22284
0.222373
0.230221
0.230675
0.23095
0.231049
0.230989
0.230858
0.230687
0.230449
0.230192
0.22992
0.229595
0.22926
0.228923
0.228582
0.228216
0.22783
0.22747
0.22713
0.226815
0.226493
0.226162
0.225837
0.225522
0.225111
0.224638
0.23239
0.232836
0.233119
0.233193
0.233153
0.233004
0.232826
0.232623
0.232369
0.232067
0.231757
0.231448
0.231093
0.230734
0.230377
0.230028
0.229669
0.229329
0.229009
0.228701
0.228407
0.228116
0.227778
0.227382
0.226921
0.234635
0.23508
0.235323
0.235393
0.235345
0.235217
0.235016
0.234791
0.234538
0.234263
0.233984
0.23366
0.233329
0.232968
0.232618
0.232288
0.231968
0.23164
0.231307
0.23101
0.230743
0.230431
0.230106
0.229721
0.229274
0.236983
0.237414
0.237662
0.237744
0.237668
0.237522
0.237341
0.237099
0.236844
0.236584
0.236281
0.235968
0.235654
0.235334
0.234993
0.234647
0.234306
0.233991
0.233704
0.233439
0.233163
0.232878
0.232589
0.232204
0.231769
0.239542
0.239951
0.240204
0.240253
0.240186
0.240013
0.239815
0.239594
0.239341
0.239049
0.238757
0.238464
0.238138
0.237794
0.237454
0.237127
0.236816
0.236527
0.236265
0.236004
0.235761
0.235515
0.235224
0.23487
0.23445
0.242371
0.242771
0.24298
0.243021
0.242939
0.242782
0.242564
0.242329
0.242063
0.241787
0.241511
0.241191
0.24087
0.240548
0.240232
0.239934
0.239667
0.239396
0.239124
0.238881
0.238667
0.238435
0.238166
0.237838
0.237437
0.245594
0.245977
0.246172
0.246215
0.246107
0.245944
0.245748
0.245508
0.245242
0.244984
0.244688
0.244383
0.244086
0.243808
0.243511
0.24321
0.242905
0.242635
0.242396
0.242201
0.242002
0.241792
0.24155
0.241227
0.240836
0.249331
0.249694
0.249889
0.249913
0.249823
0.249654
0.249471
0.249268
0.249058
0.248806
0.248547
0.248294
0.248012
0.247702
0.247398
0.247097
0.246806
0.246541
0.246312
0.246078
0.245875
0.245674
0.245438
0.245151
0.244793
0.253816
0.254154
0.25434
0.254389
0.25435
0.254254
0.254139
0.254006
0.253855
0.253679
0.253478
0.25325
0.252995
0.252716
0.252421
0.252114
0.251808
0.251493
0.251178
0.25089
0.250632
0.250389
0.250145
0.249876
0.249549
0.259396
0.259738
0.259981
0.260152
0.260265
0.26035
0.260408
0.260433
0.260412
0.260359
0.260244
0.260076
0.259866
0.259616
0.259308
0.258952
0.258556
0.258134
0.257697
0.257276
0.256865
0.256478
0.256135
0.255823
0.255504
0.266836
0.267286
0.267759
0.268245
0.268707
0.269113
0.269448
0.269712
0.269899
0.269992
0.270008
0.269932
0.269768
0.269513
0.269178
0.268766
0.268279
0.267722
0.267104
0.266422
0.265701
0.264995
0.264357
0.263846
0.263421
0.277555
0.278268
0.279266
0.280291
0.281206
0.281961
0.28256
0.283018
0.28335
0.283566
0.283671
0.28367
0.283564
0.283354
0.283037
0.282612
0.282083
0.281454
0.280717
0.279846
0.278813
0.277665
0.276517
0.275487
0.274773
0.29328
0.294151
0.295469
0.296596
0.297471
0.298124
0.29862
0.299004
0.299298
0.299507
0.299633
0.299672
0.299619
0.299472
0.299235
0.298908
0.298497
0.298007
0.297444
0.296782
0.29597
0.294996
0.29376
0.292339
0.291361
0.295837
0.296075
0.296417
0.296866
0.297313
0.297705
0.298043
0.298339
0.298591
0.298793
0.298937
0.299012
0.299002
0.298896
0.298684
0.298373
0.297973
0.297499
0.296977
0.296449
0.295949
0.295464
0.294912
0.294363
0.293937
0.288136
0.287245
0.285463
0.284401
0.284037
0.28408
0.284312
0.284589
0.284817
0.285015
0.285225
0.285444
0.285621
0.285652
0.285436
0.285044
0.284511
0.283762
0.282736
0.281813
0.281501
0.282101
0.283368
0.285212
0.286048
0.264637
0.259032
0.250473
0.245667
0.244207
0.243752
0.243484
0.242982
0.241302
0.239545
0.238805
0.239574
0.241651
0.244018
0.243953
0.243285
0.243556
0.243785
0.239176
0.232511
0.228395
0.230097
0.240414
0.254479
0.261618
0.235747
0.225044
0.204602
0.186114
0.179434
0.178474
0.175026
0.159572
0.141427
0.125151
0.116685
0.118294
0.129003
0.153759
0.186042
0.199642
0.192806
0.162303
0.12175
0.08119
0.0601242
0.0667035
0.11312
0.181996
0.214914
0.199674
0.170844
0.116006
0.0694729
0.0574334
0.0621825
0.0655695
0.0420582
0.0156006
0.00795509
0.00608697
0.00616197
0.00800027
0.0210067
0.0620909
0.12879
0.160229
0.14968
0.101868
0.0413456
0.0201746
0.0254226
0.0649019
0.137224
0.180285
0.165699
0.115364
0.0426293
0.00974858
0.00464495
0.0059774
0.0084111
0.00194298
0.0001558
4.8178e-05
4.59458e-05
7.89067e-05
0.000245351
0.00116745
0.0107046
0.0484276
0.108939
0.126721
0.110486
0.0728949
0.0277387
0.0274848
0.0530429
0.110445
0.159563
0.143413
0.0834578
0.0256918
0.00429951
0.000346499
4.21901e-05
0.000117151
2.12857e-05
2.42872e-05
2.73709e-05
3.4353e-05
8.16536e-05
0.000338921
0.00175109
0.00936738
0.0354172
0.082288
0.104147
0.101661
0.0691853
0.0129101
0.0236307
0.0630398
0.106451
0.151316
)
;

boundaryField
{
    inlet
    {
        type            fixedValue;
        value           uniform 3.75e-05;
    }
    outlet
    {
        type            inletOutlet;
        phi             phi.water;
        inletValue      uniform 3.75e-05;
        value           nonuniform List<scalar> 
25
(
0.143413
0.0834578
3.75e-05
3.75e-05
3.75e-05
3.75e-05
3.75e-05
3.75e-05
3.75e-05
3.75e-05
3.75e-05
3.75e-05
3.75e-05
3.75e-05
3.75e-05
3.75e-05
0.082288
0.104147
0.101661
3.75e-05
3.75e-05
3.75e-05
3.75e-05
3.75e-05
0.151316
)
;
    }
    walls
    {
        type            kqRWallFunction;
        value           nonuniform List<scalar> 
150
(
0.0562754
0.0784726
0.0844889
0.0866105
0.0889173
0.0931255
0.0977515
0.102341
0.10575
0.107857
0.109162
0.108928
0.108434
0.107827
0.107323
0.107331
0.107604
0.107786
0.107747
0.106987
0.104836
0.103927
0.105088
0.108454
0.113724
0.120197
0.12714
0.133893
0.14013
0.145767
0.150902
0.155716
0.160393
0.164991
0.169428
0.173571
0.177425
0.181177
0.184798
0.188311
0.191698
0.194978
0.198135
0.201188
0.204133
0.20697
0.209659
0.212266
0.214753
0.217127
0.219443
0.221685
0.223839
0.225993
0.22811
0.230221
0.23239
0.234635
0.236983
0.239542
0.242371
0.245594
0.249331
0.253816
0.259396
0.266836
0.277555
0.29328
0.295837
0.288136
0.264637
0.235747
0.199674
0.165699
0.143413
0.0341341
0.0545822
0.0628618
0.0671776
0.0694887
0.0704993
0.0702232
0.0699473
0.0704734
0.0734772
0.0795252
0.0862409
0.091687
0.0955635
0.0988136
0.101738
0.104226
0.106571
0.109054
0.111805
0.114805
0.117819
0.120789
0.123741
0.126748
0.129816
0.133104
0.136576
0.140219
0.143901
0.14754
0.151068
0.15443
0.157581
0.160713
0.163808
0.16695
0.170233
0.173697
0.177319
0.18109
0.184904
0.188641
0.192324
0.195924
0.199346
0.202423
0.20521
0.207931
0.210533
0.213044
0.215464
0.21783
0.220112
0.222373
0.224638
0.226921
0.229274
0.231769
0.23445
0.237437
0.240836
0.244793
0.249549
0.255504
0.263421
0.274773
0.291361
0.293937
0.286048
0.261618
0.214914
0.180285
0.159563
0.151316
)
;
    }
    defaultFaces
    {
        type            empty;
    }
}


// ************************************************************************* //
