/*--------------------------------*- C++ -*----------------------------------*\
| =========                 |                                                 |
| \\      /  F ield         | OpenFOAM: The Open Source CFD Toolbox           |
|  \\    /   O peration     | Version:  2312                                  |
|   \\  /    A nd           | Website:  www.openfoam.com                      |
|    \\/     M anipulation  |                                                 |
\*---------------------------------------------------------------------------*/
FoamFile
{
    version     2.0;
    format      ascii;
    arch        "LSB;label=32;scalar=64";
    class       volScalarField;
    location    "0.095/water";
    object      p_rgh;
}
// * * * * * * * * * * * * * * * * * * * * * * * * * * * * * * * * * * * * * //

dimensions      [1 -1 -2 0 0 0 0];

internalField   nonuniform List<scalar> 
1503
(
101469.638419
101466.339872
101465.870484
101465.265287
101464.668268
101464.110377
101463.595741
101463.128477
101462.712795
101462.347434
101462.03107
101461.760803
101461.531941
101461.339852
101461.180704
101461.051341
101460.94923
101460.872369
101460.819322
101460.789035
101453.004689
101457.74219
101460.975111
101462.486681
101462.759756
101462.705738
101462.52973
101462.318594
101462.095208
101461.873829
101461.67023
101461.490603
101461.332982
101461.194634
101461.074456
101460.972456
101460.88912
101460.825011
101460.780737
101460.756822
101441.052225
101447.519671
101453.946628
101457.864377
101459.61565
101460.438985
101460.804199
101460.945614
101460.980797
101460.961541
101460.915911
101460.863551
101460.813599
101460.767468
101460.725011
101460.686912
101460.654788
101460.630709
101460.616909
101460.615348
101431.592236
101438.717229
101447.389042
101453.402373
101456.743466
101458.536998
101459.430491
101459.844491
101460.033322
101460.126061
101460.175725
101460.205861
101460.228819
101460.249483
101460.268795
101460.286938
101460.304667
101460.323377
101460.344929
101460.371093
101422.914275
101429.608796
101439.068473
101447.008885
101452.578756
101456.122383
101458.07119
101458.990389
101459.371097
101459.532072
101459.616539
101459.675114
101459.725659
101459.774517
101459.823436
101459.872271
101459.920718
101459.968874
101460.017328
101460.066689
101416.598276
101422.025167
101430.476881
101438.969397
101446.434885
101452.223446
101455.98523
101457.982719
101458.824032
101459.115689
101459.216595
101459.2689
101459.31529
101459.364932
101459.419645
101459.478863
101459.541348
101459.60597
101459.67198
101459.738673
101410.961038
101415.513726
101422.389839
101430.094329
101438.275101
101445.970122
101452.015724
101455.921414
101457.905779
101458.650115
101458.846325
101458.89413
101458.92914
101458.97326
101459.028214
101459.09285
101459.165098
101459.242794
101459.324069
101459.407026
101404.586082
101409.087325
101415.037865
101421.523462
101429.23447
101437.645385
101445.473517
101451.670212
101455.727146
101457.708876
101458.316321
101458.427342
101458.473431
101458.529882
101458.600174
101458.682703
101458.774863
101458.873834
101458.976982
101459.081749
101397.226407
101401.96306
101407.193187
101412.814476
101419.815693
101428.110158
101436.703519
101444.666047
101451.280753
101455.635396
101457.41582
101457.794005
101457.899393
101458.001165
101458.11466
101458.238113
101458.368842
101458.503892
101458.640515
101458.776126
101389.29133
101393.821369
101398.192906
101403.183066
101409.773171
101417.82165
101426.442969
101435.22805
101443.984342
101451.566086
101455.816285
101456.989496
101457.245225
101457.426521
101457.609837
101457.795204
101457.980652
101458.163906
101458.342863
101458.51555
101380.304045
101384.708654
101388.598748
101393.367817
101399.76603
101407.521904
101415.734746
101424.413803
101434.246143
101444.886695
101452.95855
101456.017775
101456.643625
101456.925009
101457.184885
101457.435947
101457.677598
101457.908805
101458.128628
101458.33616
101369.856262
101375.231804
101380.371657
101385.588498
101391.47947
101398.52103
101405.839601
101413.728374
101423.571828
101436.070409
101448.258061
101454.68982
101456.245576
101456.652822
101456.963006
101457.256299
101457.53417
101457.796237
101458.042388
101458.272491
101358.673167
101366.99489
101374.304327
101380.188257
101386.048206
101391.700311
101397.444238
101404.109031
101413.407969
101426.628815
101441.777153
101452.414729
101455.97187
101456.685844
101457.012266
101457.308353
101457.589992
101457.856357
101458.107209
101458.342362
101349.173919
101360.29613
101368.748082
101375.734516
101381.549047
101386.3206
101390.327379
101395.500666
101404.318737
101417.933213
101434.452009
101448.540617
101455.283408
101456.925367
101457.307674
101457.574496
101457.831705
101458.079342
101458.31619
101458.54126
101339.501673
101354.178221
101363.239162
101371.12278
101377.314182
101381.303174
101383.657082
101387.455136
101396.245683
101410.508126
101427.164739
101442.736483
101453.118748
101457.00103
101457.748996
101457.987929
101458.208388
101458.426991
101458.641183
101458.848851
101332.703154
101349.384707
101358.63196
101366.712748
101372.967101
101376.105571
101377.24728
101380.586729
101390.123838
101404.816195
101420.221164
101434.867506
101448.112428
101456.115508
101458.174268
101458.468166
101458.659783
101458.854417
101459.049128
101459.241023
101325.483254
101342.670164
101352.621695
101360.895879
101367.024872
101369.738754
101371.050662
101375.850813
101386.773635
101400.784334
101413.34717
101424.719546
101439.148498
101453.148473
101458.365846
101458.958974
101459.147063
101459.333086
101459.518716
101459.701623
101318.930848
101337.454175
101347.277984
101354.793709
101360.145201
101362.956177
101365.649633
101372.155569
101384.325536
101397.971423
101405.946991
101412.097484
101426.26683
101447.632322
101458.198438
101459.480495
101459.683906
101459.868895
101460.05085
101460.228556
101310.981032
101329.862653
101339.373764
101346.628703
101352.106909
101356.184112
101361.074394
101369.757727
101383.602746
101395.191627
101396.919134
101397.63563
101411.478064
101440.616353
101457.656349
101460.076285
101460.304852
101460.480985
101460.654878
101460.825169
101303.325059
101323.546823
101330.486934
101337.262498
101343.873808
101350.283971
101357.711891
101369.300683
101383.630608
101390.209009
101385.541825
101382.04994
101397.968737
101433.215452
101456.285968
101460.637518
101460.99125
101461.159065
101461.323846
101461.486164
101296.178696
101315.570863
101319.539918
101325.907146
101334.812474
101344.838501
101355.908886
101370.02641
101381.056574
101381.634271
101370.535064
101367.726843
101387.260393
101424.758722
101452.681557
101460.752023
101461.698551
101461.884011
101462.044988
101462.203014
101289.900357
101310.109336
101311.383711
101316.465773
101326.626973
101340.080584
101354.947943
101369.657879
101377.062527
101370.896446
101358.532927
101360.203533
101379.777548
101413.905572
101444.332522
101459.119449
101462.306893
101462.649512
101462.816854
101462.976014
101284.161161
101304.067987
101304.825965
101309.641429
101319.896644
101335.324553
101352.601787
101366.492499
101368.837632
101359.636382
101354.664397
101356.99653
101373.867681
101400.560929
101429.081874
101453.152528
101462.424142
101463.469123
101463.661879
101463.823463
101277.089514
101299.106839
101299.739827
101304.314016
101314.855866
101331.2078
101349.027915
101361.662503
101359.836978
101352.812215
101351.3941
101355.466918
101370.25696
101386.755471
101409.365792
101442.044216
101461.65375
101464.460751
101464.662999
101464.791086
101270.931092
101293.743712
101294.005176
101298.5296
101309.636168
101326.88409
101344.589967
101354.685417
101352.642945
101349.745866
101349.815384
101357.888535
101369.194767
101375.871151
101392.888615
101430.750884
101460.304206
101465.680491
101465.846346
101465.874435
101264.260203
101289.785961
101288.724353
101293.118661
101304.54156
101322.197221
101339.021567
101347.713019
101348.406894
101348.126003
101353.108675
101364.787822
101368.0436
101368.470694
101382.792405
101423.55615
101458.880105
101466.808745
101466.991465
101466.914477
101258.486832
101285.062169
101283.424811
101287.743955
101299.20587
101316.686921
101332.885308
101342.272446
101345.643349
101349.998862
101361.220515
101369.253633
101364.864197
101356.782489
101372.691883
101416.756084
101456.358953
101467.308916
101467.775204
101467.692556
101251.474354
101279.154078
101278.187024
101282.23112
101293.761218
101311.372663
101327.667689
101338.293831
101344.947022
101355.67074
101367.367013
101366.820553
101351.283427
101331.535216
101353.69435
101402.148941
101449.224397
101466.586468
101468.073236
101468.138691
101244.24251
101271.210482
101270.38052
101275.098276
101287.624588
101306.150119
101323.295558
101335.994143
101348.165346
101362.154024
101363.886375
101357.077039
101322.477187
101321.576627
101325.117458
101370.574969
101430.65339
101463.538179
101468.128611
101468.448402
101236.478587
101258.262851
101257.887238
101263.963347
101279.362968
101300.500871
101320.291811
101337.37333
101354.002297
101360.467927
101359.648561
101328.678918
101316.223721
101317.297999
101317.049712
101327.490858
101393.619972
101455.046328
101468.177607
101468.908448
101225.084103
101240.569447
101239.455923
101246.826277
101266.930019
101293.126612
101317.45793
101338.9816
101355.948499
101356.108235
101348.378217
101311.363593
101312.380173
101311.855265
101312.901767
101312.913271
101355.844084
101437.55236
101467.761118
101469.663064
101213.951244
101223.188074
101219.227929
101226.395167
101250.018294
101282.897105
101311.620699
101335.492817
101351.556555
101350.45236
101325.179739
101307.041393
101307.065669
101308.208723
101307.869025
101309.0128
101330.916549
101413.749746
101465.548745
101470.659036
101205.637871
101209.931346
101204.569254
101209.219891
101230.987541
101268.030359
101303.13933
101328.859827
101341.086939
101333.788969
101306.660428
101302.526432
101303.542453
101303.528539
101304.594719
101304.669758
101318.260323
101392.860032
101461.103881
101471.902482
101197.970688
101199.203844
101198.113207
101198.726223
101214.969029
101250.03321
101288.698075
101314.390141
101317.99022
101308.513826
101299.626179
101301.484432
101303.716287
101301.003636
101301.020617
101302.013271
101312.747025
101380.736535
101455.903008
101473.330098
101191.835625
101192.429565
101192.466954
101193.20574
101204.464757
101234.064463
101269.650162
101291.686885
101292.420093
101290.121246
101296.560946
101308.896969
101319.832114
101310.372751
101299.219112
101299.31508
101310.622302
101375.378844
101452.114523
101474.889603
101187.170175
101187.001969
101187.978575
101188.119911
101197.295648
101223.348044
101254.144122
101273.344843
101279.397703
101285.352571
101297.867769
101321.98463
101339.559702
101330.954298
101305.534582
101297.473368
101310.351318
101373.116094
101450.004542
101476.483103
101182.38141
101182.183796
101182.450036
101183.361302
101191.371253
101216.640344
101246.933388
101267.036062
101276.23333
101284.334302
101302.975361
101333.219754
101344.09531
101342.936179
101323.481385
101302.659246
101315.254551
101371.273226
101448.014702
101477.941834
101177.883159
101176.544933
101177.527519
101177.358003
101184.938807
101210.423637
101242.578389
101264.150952
101274.599793
101286.150849
101310.200132
101339.3921
101342.452394
101342.68655
101339.394383
101321.584828
101324.224298
101367.357362
101444.830882
101479.027743
101460.780954
101460.793362
101460.823378
101460.868672
101460.92762
101460.999178
101461.082808
101461.178361
101461.286025
101461.406258
101461.539792
101461.687698
101461.851621
101462.034128
101462.238713
101462.467387
101462.717078
101462.993335
101463.366481
101467.11861
101460.753398
101460.76913
101460.801418
101460.847848
101460.906571
101460.976126
101461.055362
101461.1433
101461.239117
101461.342142
101461.452
101461.568801
101461.693307
101461.826483
101461.967371
101462.110168
101462.247763
101462.382127
101462.53135
101462.539374
101460.626525
101460.649742
101460.68369
101460.726611
101460.776776
101460.832522
101460.89237
101460.954996
101461.019323
101461.084595
101461.150501
101461.217129
101461.284524
101461.351376
101461.413252
101461.46346
101461.498656
101461.524232
101461.551043
101461.448528
101460.401567
101460.435457
101460.472672
101460.512567
101460.554128
101460.59628
101460.638115
101460.678939
101460.718385
101460.75644
101460.79342
101460.829667
101460.864892
101460.897204
101460.923034
101460.939974
101460.95138
101460.967128
101460.987421
101460.897812
101460.115148
101460.160754
101460.203945
101460.24494
101460.283454
101460.319209
101460.352089
101460.382167
101460.409789
101460.435513
101460.459976
101460.483508
101460.50558
101460.524363
101460.537495
101460.544984
101460.552036
101460.564399
101460.571529
101460.494095
101459.802577
101459.860399
101459.912333
101459.958837
101460.000124
101460.036478
101460.068345
101460.096309
101460.121121
101460.14358
101460.164354
101460.183626
101460.20072
101460.214037
101460.222252
101460.227064
101460.234394
101460.244462
101460.244737
101460.185384
101459.486897
101459.559009
101459.622796
101459.678745
101459.727371
101459.769316
101459.805377
101459.836437
101459.863452
101459.887298
101459.908608
101459.927481
101459.943292
101459.954872
101459.961941
101459.967538
101459.976606
101459.983861
101459.98044
101459.93559
101459.182507
101459.273203
101459.352695
101459.421764
101459.481277
101459.532218
101459.575684
101459.612786
101459.644621
101459.67212
101459.695921
101459.716163
101459.732422
101459.744064
101459.751781
101459.759496
101459.769656
101459.774033
101459.769719
101459.735927
101458.904516
101459.018739
101459.117687
101459.202859
101459.275722
101459.33773
101459.390338
101459.434911
101459.472704
101459.504744
101459.531752
101459.554017
101459.571423
101459.583919
101459.593104
101459.603248
101459.613553
101459.615842
101459.612203
101459.58652
101458.675698
101458.816031
101458.936056
101459.038375
101459.125275
101459.198795
101459.26081
101459.312967
101459.356712
101459.39321
101459.423328
101459.447574
101459.466205
101459.47977
101459.490674
101459.502905
101459.512694
101459.514018
101459.511682
101459.492028
101458.525482
101458.689397
101458.828233
101458.945722
101459.044948
101459.128504
101459.198638
101459.257247
101459.305951
101459.346052
101459.378579
101459.404283
101459.423803
101459.438264
101459.450744
101459.46439
101459.473479
101459.474844
101459.473909
101459.458798
101458.480905
101458.660468
101458.811951
101458.939757
101459.047446
101459.137927
101459.213656
101459.276658
101459.328643
101459.371001
101459.404884
101459.431258
101459.451114
101459.466087
101459.479752
101459.494122
101459.502696
101459.50476
101459.505103
101459.493455
101458.556031
101458.740702
101458.896849
101459.028826
101459.140184
101459.233813
101459.312143
101459.377171
101459.430582
101459.473768
101459.507938
101459.534207
101459.553855
101459.568927
101459.583309
101459.597907
101459.606329
101459.609394
101459.610816
101459.601815
101458.748239
101458.9289
101459.082777
101459.213569
101459.324407
101459.41789
101459.496236
101459.561282
101459.614599
101459.657501
101459.691182
101459.716829
101459.735926
101459.750815
101459.765524
101459.780116
101459.788749
101459.792856
101459.79513
101459.788142
101459.043055
101459.214798
101459.362483
101459.488928
101459.596687
101459.687963
101459.764697
101459.828522
101459.880853
101459.922891
101459.95576
101459.980644
101459.999142
101460.013778
101460.028595
101460.043159
101460.052249
101460.057277
101460.060161
101460.054687
101459.422908
101459.585448
101459.726295
101459.847604
101459.951478
101460.039809
101460.114312
101460.176455
101460.227526
101460.268619
101460.300763
101460.325081
101460.343193
101460.357701
101460.37258
101460.387198
101460.396829
101460.402555
101460.405807
101460.401443
101459.87531
101460.030949
101460.166186
101460.282972
101460.383232
101460.468706
101460.540998
101460.60149
101460.6514
101460.691749
101460.723479
101460.747609
101460.765694
101460.780313
101460.795326
101460.810074
101460.820169
101460.826323
101460.829704
101460.826116
101460.396543
101460.546823
101460.677392
101460.790237
101460.887243
101460.970086
101461.040322
101461.099297
101461.148202
101461.188025
101461.219641
101461.243945
101461.262349
101461.277325
101461.292575
101461.307468
101461.317841
101461.32414
101461.327439
101461.324335
101460.98643
101461.130904
101461.25661
101461.36543
101461.459144
101461.539336
101461.607499
101461.664944
101461.712852
101461.752196
101461.783813
101461.808477
101461.827406
101461.842894
101461.858447
101461.873413
101461.883832
101461.890023
101461.89307
101461.890191
101461.640414
101461.778874
101461.89951
101462.004074
101462.094263
101462.171577
101462.237443
101462.293137
101462.33983
101462.378495
101462.409954
101462.434893
101462.454322
101462.470313
101462.486136
101462.501031
101462.511268
101462.517154
101462.519829
101462.516947
101462.352492
101462.486002
101462.601851
101462.701991
101462.788255
101462.862202
101462.925261
101462.978695
101463.023676
101463.061181
101463.09203
101463.11686
101463.136497
101463.152777
101463.168707
101463.183328
101463.193185
101463.198624
101463.200848
101463.19776
101463.123182
101463.252168
101463.362571
101463.457135
101463.538174
101463.60749
101463.666599
101463.716763
101463.759138
101463.794678
101463.824186
101463.848258
101463.86757
101463.883732
101463.899476
101463.913589
101463.922908
101463.927805
101463.929529
101463.926058
101463.96486
101464.084366
101464.184502
101464.269327
101464.341731
101464.403711
101464.456761
101464.50202
101464.540499
101464.573033
101464.600326
101464.622889
101464.641256
101464.656823
101464.67205
101464.685456
101464.694145
101464.698455
101464.69966
101464.695653
101464.899683
101464.990832
101465.067933
101465.134439
101465.192469
101465.243283
101465.287737
101465.326416
101465.35989
101465.388655
101465.413177
101465.433789
101465.450851
101465.465552
101465.480102
101465.49279
101465.500904
101465.504691
101465.505424
101465.500774
101465.909006
101465.948049
101465.98897
101466.030171
101466.070413
101466.108692
101466.144318
101466.176792
101466.205913
101466.231642
101466.254081
101466.273321
101466.289536
101466.303732
101466.31793
101466.330275
101466.338158
101466.341687
101466.342127
101466.336817
101466.877577
101466.871453
101466.884661
101466.909118
101466.939539
101466.97236
101467.005262
101467.036699
101467.06578
101467.092014
101467.115227
101467.135351
101467.152456
101467.16747
101467.182359
101467.195274
101467.20366
101467.207478
101467.207995
101467.202151
101467.658504
101467.661794
101467.687229
101467.724679
101467.767751
101467.812302
101467.855745
101467.896447
101467.933528
101467.966549
101467.995424
101468.020199
101468.041061
101468.059042
101468.076259
101468.091068
101468.100983
101468.105858
101468.106978
101468.100889
101468.212834
101468.299347
101468.388796
101468.476357
101468.559182
101468.635566
101468.704654
101468.766078
101468.819913
101468.866443
101468.906143
101468.939511
101468.967106
101468.990266
101469.011462
101469.02945
101469.041881
101469.048562
101469.050814
101469.044879
101468.681736
101468.889435
101469.070783
101469.229101
101469.367095
101469.486925
101469.590467
101469.679329
101469.75506
101469.819049
101469.872607
101469.916889
101469.95297
101469.982607
101470.008718
101470.030569
101470.046037
101470.054945
101470.058648
101470.053253
101469.275102
101469.589268
101469.854252
101470.07851
101470.268728
101470.430113
101470.566839
101470.682239
101470.779197
101470.860139
101470.927174
101470.982079
101471.026434
101471.062387
101471.09324
101471.11874
101471.137072
101471.148113
101471.153243
101471.148637
101470.120004
101470.505481
101470.82848
101471.099667
101471.327686
101471.519499
101471.680731
101471.815848
101471.928647
101472.02229
101472.099463
101472.162402
101472.213052
101472.253835
101472.288253
101472.316395
101472.336789
101472.349387
101472.35558
101472.351797
101471.233463
101471.672772
101472.032635
101472.331055
101472.579764
101472.787582
101472.961369
101473.106419
101473.227106
101473.32704
101473.409241
101473.476191
101473.530032
101473.573298
101473.609462
101473.638757
101473.660033
101473.673306
101473.679971
101473.676824
101472.672052
101473.132671
101473.497714
101473.79658
101474.044039
101474.249984
101474.421807
101474.565046
101474.684165
101474.782811
101474.864012
101474.930236
101474.983604
101475.026581
101475.06238
101475.091165
101475.112014
101475.124971
101475.131422
101475.12853
101474.461041
101474.902433
101475.232324
101475.498539
101475.718958
101475.902963
101476.057114
101476.186209
101476.294064
101476.383798
101476.458022
101476.518864
101476.568178
101476.608164
101476.641584
101476.668345
101476.687595
101476.699338
101476.704935
101476.70181
101476.530275
101476.927717
101477.190891
101477.397328
101477.569558
101477.715494
101477.83961
101477.945057
101478.034337
101478.109525
101478.172427
101478.224543
101478.267245
101478.302323
101478.33198
101478.355752
101478.372671
101478.382627
101478.386938
101478.38308
101478.692236
101479.068245
101479.265782
101479.407956
101479.526863
101479.63029
101479.720868
101479.800002
101479.868755
101479.927992
101479.978556
101480.021208
101480.056747
101480.086515
101480.112197
101480.132959
101480.147549
101480.155688
101480.158643
101480.153698
101480.743164
101481.158155
101481.325848
101481.427226
101481.508608
101481.580266
101481.645137
101481.703997
101481.757084
101481.804298
101481.845717
101481.881428
101481.911783
101481.937739
101481.96069
101481.97954
101481.992681
101481.999624
101482.001581
101481.995252
101482.48859
101483.041273
101483.248759
)
;

boundaryField
{
    emptyPatch
    {
        type            empty;
    }
    minY
    {
        type            zeroGradient;
    }
    maxY
    {
        type            prghTotalPressure;
        U               U.gas;
        p0              nonuniform List<scalar> 0();
        value           nonuniform List<scalar> 0();
    }
    maxX
    {
        type            fixedFluxPressure;
        gradient        uniform 0;
        value           nonuniform List<scalar> 
37
(
101467.11861
101462.539374
101461.448528
101460.897812
101460.494095
101460.185384
101459.93559
101459.735927
101459.58652
101459.492028
101459.458798
101459.493455
101459.601815
101459.788142
101460.054687
101460.401443
101460.826116
101461.324335
101461.890191
101462.516947
101463.19776
101463.926058
101464.695653
101465.500774
101466.336817
101467.202151
101468.100889
101469.044879
101470.053253
101471.148637
101472.351797
101473.676824
101475.12853
101476.70181
101478.38308
101480.153698
101481.995252
)
;
    }
    water_to_heater
    {
        type            fixedFluxPressure;
        gradient        uniform 0;
        value           nonuniform List<scalar> 
61
(
101469.638419
101453.004689
101453.004689
101441.052225
101441.052225
101431.592236
101431.592236
101422.914275
101416.598276
101410.961038
101410.961038
101404.586082
101404.586082
101397.226407
101397.226407
101389.29133
101380.304045
101369.856262
101369.856262
101358.673167
101358.673167
101349.173919
101349.173919
101339.501673
101332.703154
101325.483254
101325.483254
101318.930848
101318.930848
101310.981032
101310.981032
101303.325059
101296.178696
101289.900357
101289.900357
101284.161161
101284.161161
101277.089514
101277.089514
101270.931092
101264.260203
101258.486832
101258.486832
101251.474354
101251.474354
101244.24251
101244.24251
101236.478587
101225.084103
101213.951244
101213.951244
101205.637871
101205.637871
101197.970688
101197.970688
101191.835625
101187.170175
101182.38141
101182.38141
101177.883159
101177.883159
)
;
    }
    procBoundary2to3
    {
        type            processor;
        value           nonuniform List<scalar> 
41
(
101170.951629
101170.242968
101170.75449
101171.768186
101176.548964
101202.483558
101237.614233
101262.252237
101276.057027
101291.90945
101317.605329
101340.164642
101340.443413
101340.901747
101341.072645
101338.364645
101328.997621
101360.638843
101440.098899
101479.574067
101483.361407
101483.442656
101483.508654
101483.566207
101483.618897
101483.667327
101483.711402
101483.750672
101483.785035
101483.814466
101483.839911
101483.862645
101483.881695
101483.894993
101483.901969
101483.903748
101483.896401
101483.802353
101484.615171
101483.361407
101484.953611
)
;
    }
}


// ************************************************************************* //
