/*--------------------------------*- C++ -*----------------------------------*\
| =========                 |                                                 |
| \\      /  F ield         | OpenFOAM: The Open Source CFD Toolbox           |
|  \\    /   O peration     | Version:  2312                                  |
|   \\  /    A nd           | Website:  www.openfoam.com                      |
|    \\/     M anipulation  |                                                 |
\*---------------------------------------------------------------------------*/
FoamFile
{
    version     2.0;
    format      ascii;
    arch        "LSB;label=32;scalar=64";
    class       volScalarField;
    location    "0.835/water";
    object      Tf.gasAndLiquid;
}
// * * * * * * * * * * * * * * * * * * * * * * * * * * * * * * * * * * * * * //

dimensions      [0 0 0 1 0 0 0];

internalField   nonuniform List<scalar> 
1504
(
319.811122174
308.062574679
303.320596894
301.492246762
300.782401738
300.477180552
300.323313396
300.228716599
300.159519777
300.103476977
300.057265006
300.023254629
300.005548482
300.000784324
300.000103522
300.000016012
300.000001895
300
300
300
319.667605603
308.013773407
303.284927824
301.470865
300.767234718
300.468483026
300.318731092
300.225308446
300.155650739
300.098794161
300.053450269
300.021381514
300.005187354
300.000774022
300.000103127
300.000016317
300.000001913
300
300
300
319.650297602
308.048125571
303.301266708
301.467036433
300.756149469
300.459342229
300.311879756
300.218948811
300.148460066
300.091938232
300.048724397
300.019316068
300.004796951
300.000747744
300.000097748
300.00001627
300.000001847
300
300
300
319.683301273
308.067832994
303.304709302
301.461834372
300.747040473
300.450406265
300.303222463
300.209266335
300.138417108
300.083928188
300.043902298
300.017492879
300.004523286
300.000734627
300.000092719
300.000016215
300.00000172
300
300
300
319.818397935
307.976678469
303.234734106
301.427177301
300.729043345
300.437992899
300.290700552
300.195834725
300.126780353
300.07593599
300.039763659
300.016288877
300.004500158
300.000768774
300.000097886
300.000015889
300.000001448
300
300
300
319.976833564
307.973939078
303.203287667
301.399453201
300.708899832
300.421287802
300.273375373
300.180446293
300.115505274
300.069359647
300.037124108
300.016060276
300.004886672
300.000917014
300.000115926
300.000015067
300.000001047
300
300
300
320.244591833
308.047988829
303.187414718
301.374099764
300.684994437
300.398084262
300.253770965
300.165917697
300.106780154
300.065617298
300.036763298
300.017168863
300.005830608
300.001217844
300.000151554
300.000013554
300.000000577
300
300
300
319.770459289
307.920334632
303.077129116
301.30991567
300.646850467
300.370790686
300.23513844
300.155696028
300.102965871
300.065957051
300.039043793
300.019718948
300.007387143
300.001726689
300.000216386
300.000012144
300.000000225
300
300
300
317.335543594
307.110518767
302.770163026
301.178672515
300.58222108
300.339084827
300.22196385
300.15244867
300.105167447
300.070527246
300.044198027
300.023939955
300.009842994
300.002539411
300.00033563
300.000017476
300.00000022
300
300
300
314.567570211
305.976198729
302.335214969
300.979667243
300.495889848
300.312276757
300.219714511
300.158967623
300.114374068
300.080262781
300.052834548
300.030461407
300.013611352
300.003889379
300.000572331
300.000036178
300.000000526
300.000000048
300
300
313.24034856
305.504593223
302.127629423
300.846004763
300.451351488
300.318314009
300.238623809
300.179172152
300.133105076
300.096284064
300.065785117
300.040012422
300.019365545
300.00619068
300.001049039
300.000083296
300.000001085
300.000000517
300
300
314.19869982
306.025896421
302.333260538
300.912570416
300.512119863
300.370929981
300.282609129
300.215237969
300.162011936
300.118993047
300.083377045
300.053003517
300.027560675
300.009772734
300.001892294
300.000179798
300.000003693
300.000000807
300.000000296
300
317.791153569
307.56125266
303.050045204
301.290535593
300.693526608
300.471077463
300.350834022
300.265303798
300.199554328
300.147277207
300.104781901
300.068905918
300.038050697
300.014763198
300.003224967
300.000357502
300.00001392
300.000000875
300.000000471
300
321.166215924
308.822339414
303.868454197
301.778789269
300.955444085
300.608374583
300.432827368
300.321090966
300.240264086
300.177491825
300.127483635
300.085905981
300.049767052
300.020831096
300.005069164
300.000646389
300.000037321
300.000001228
300.000000428
300.000000002
322.865246858
309.402469699
304.189809925
302.002718815
301.089475548
300.689769855
300.491401035
300.369398783
300.275236879
300.204045245
300.14800394
300.101678826
300.06115957
300.027280391
300.0073298
300.001076314
300.00008481
300.000003457
300.000000436
300
323.673981074
309.569468486
304.227330307
302.037414407
301.119995339
300.715786589
300.514115432
300.390412868
300.296495395
300.222783173
300.163847051
300.114538586
300.070974941
300.033433696
300.009888403
300.001681117
300.000170236
300.000009527
300.000000919
300
324.147360107
309.581801751
304.147924039
301.979897082
301.093303848
300.70833698
300.516574822
300.397087518
300.306353082
300.233422963
300.174034028
300.123410453
300.078019423
300.038264967
300.012298285
300.00237818
300.00028717
300.00002062
300.000002115
300
324.404905233
309.547483557
304.035873866
301.891976373
301.042999171
300.685385659
300.508302579
300.395624201
300.309322389
300.238732315
300.179987297
300.128788092
300.082036963
300.040902188
300.013801308
300.002935871
300.000408496
300.000036659
300.000003801
300
324.600230237
309.491439134
303.923527007
301.798728465
300.986694773
300.656463307
300.494753744
300.389612612
300.308352288
300.240694569
300.182930351
300.131344374
300.083332735
300.041459665
300.014235248
300.003180592
300.00048117
300.000050275
300.000005343
300.000000013
324.675347497
309.454699462
303.841424218
301.725090814
300.938945034
300.630547929
300.481328323
300.382956461
300.305679787
300.240717403
300.183707997
300.131502115
300.082198106
300.040261491
300.013754047
300.003121575
300.000491742
300.000056033
300.000006259
300.000000055
324.767586418
309.391963856
303.752192379
301.64903092
300.890719892
300.603907127
300.466849999
300.375830817
300.302505522
300.239553802
300.182751428
300.129417067
300.079023794
300.037743146
300.012632429
300.002845399
300.000453216
300.000054186
300.000006408
300.000000053
324.734863202
309.262174036
303.632479086
301.565548059
300.842806352
300.578773361
300.453754934
300.369378678
300.29932613
300.237400561
300.180129223
300.125142509
300.074282011
300.034390686
300.011168399
300.002456873
300.000387601
300.000047595
300.000005937
300.000000031
324.620337051
309.023621492
303.463861745
301.476517722
300.803022183
300.561182374
300.446205159
300.364463933
300.295995692
300.23409773
300.175580994
300.118878203
300.06843215
300.030634962
300.00961164
300.002043465
300.000314114
300.000039215
300.000005078
300
324.20147127
308.427435986
303.110484937
301.337659112
300.758944364
300.549151302
300.441218641
300.360447162
300.291909811
300.229170827
300.168686278
300.111013956
300.061936231
300.026845974
300.008146379
300.001663265
300.000245122
300.000031039
300.000004088
300
322.962799775
307.263235624
302.606670145
301.20131975
300.739688714
300.5519232
300.439191986
300.356154532
300.286188128
300.221856342
300.159401096
300.101964207
300.055220955
300.023309828
300.006894344
300.001349837
300.000186653
300.000024227
300.000003139
300
321.061633456
306.884965568
302.539187857
301.232493609
300.772910977
300.561354359
300.437707207
300.350154278
300.27805866
300.211662512
300.14827115
300.09229592
300.048741485
300.020286768
300.005942583
300.001121485
300.000142894
300.00001931
300.000002345
300
319.370844668
307.41990839
302.975490509
301.412097594
300.826496293
300.571253057
300.433471121
300.341148725
300.266974036
300.198941393
300.136087456
300.082680169
300.042982384
300.017984675
300.005362931
300.001000443
300.000119159
300.000016336
300.000001743
300
318.137511077
307.545728679
303.261420861
301.547224679
300.861661966
300.57043303
300.42277789
300.328136496
300.252787085
300.184717743
300.123776683
300.07385093
300.038382578
300.016581869
300.005233754
300.001034562
300.000128403
300.000014439
300.000001201
300
317.131576806
307.315328754
303.254451863
301.5533453
300.847418065
300.550059513
300.403860307
300.311201759
300.236756257
300.170564139
300.112560232
300.066674147
300.035417648
300.016258901
300.005746515
300.001304232
300.000165908
300.000012441
300.000000688
300
316.110056181
306.8467307
303.020491257
301.432796964
300.781614249
300.511937865
300.37963081
300.293020876
300.222099587
300.158905144
300.10415192
300.062285864
300.034645767
300.017475587
300.007132789
300.001810667
300.000243006
300.000012387
300.00000033
300
315.034487148
306.416671493
302.77593548
301.286970374
300.70237175
300.472758775
300.359236553
300.280539193
300.213714322
300.153253958
300.100934663
300.061964815
300.036734152
300.020684381
300.009400815
300.002683051
300.000413806
300.000027228
300.000000274
300
314.593601499
306.318202816
302.706908467
301.227726264
300.667853846
300.457763898
300.354647301
300.280813063
300.21621888
300.156443712
300.10457353
300.066923309
300.042533076
300.025828635
300.012875518
300.004241661
300.00080442
300.000082029
300.000001011
300
315.643893681
306.887409538
303.013141446
301.402123455
300.758271338
300.49935967
300.376841436
300.297506865
300.231370583
300.170569304
300.117631889
300.078216769
300.051964868
300.033125514
300.017985879
300.006940669
300.001678911
300.000254452
300.000019216
300.000000319
317.17372395
307.639623027
303.498026242
301.714533134
300.944091191
300.597209711
300.42809629
300.330513099
300.258580655
300.195531255
300.139933741
300.095726286
300.064718903
300.042455335
300.024779487
300.011137459
300.003454915
300.000739828
300.00010719
300.000007787
317.953049727
308.036967103
303.762106923
301.898743326
301.071864457
300.683604594
300.483352225
300.369130261
300.29112818
300.225829858
300.166453457
300.116408528
300.079493785
300.052943475
300.032579858
300.016702584
300.006466899
300.001838587
300.000387253
300.0000592
318.484572552
308.255805689
303.8842026
301.970695197
301.123934348
300.727563304
300.521129844
300.400331423
300.318606651
300.251535962
300.190205513
300.136271625
300.09455834
300.063661994
300.040748895
300.022887162
300.010313421
300.00354683
300.000935297
300.000193817
318.890850061
308.410293147
303.919265817
301.984157911
301.133853785
300.74226747
300.539830698
300.419765459
300.337600142
300.270066189
300.208010273
300.152221719
300.107777664
300.073800376
300.048475481
300.028812831
300.014271417
300.005553856
300.001691343
300.000417559
319.305666151
308.501220955
303.915387649
301.957862152
301.118142851
300.738133064
300.544464369
300
300
300
300
300
300
300
300
300
300
300
300
300
300
300
300
300
300
300
300
300
300
300
300
300
300
300
300
300
300
300
300
300
300
300
300
300
300
300
300
300
300
300
300
300
300
300
300
300
300
300
300
300
300
300
300
300
300
300
300
300
300
300
300
300
300
300
300
300
300
300
300
300
300
300
300
300
300
300
300.000000001
300
300
300
300
300
300
300
300
300
300
300
300
300
300
300
300
300
300
300
300.000000003
300
300
300
300
300
300
300
300
300
300
300
300
300
300
300
300
300
300
300
300.000000006
300
300
300
300
300
300
300
300
300
300
300
300
300
300
300
300
300
300
300
300.000000003
300
300
300
300
300
300
300
300
300
300
300
300
300
300
300
300
300
300
300
300
300
300
300
300
300
300
300
300
300
300
300
300
300
300
300
300
300
300
300
300
300
300
300
300
300
300
300
300
300
300
300
300
300
300
300
300
300
300
300
300
300
300
300
300
300
300
300
300
300
300
300
300
300
300
300
300
300
300
300
300
300
300
300
300
300
300
300
300
300
300
300
300
300
300
300
300
300
300
300
300
300
300
300
300
300
300
300
300
300
300
300
300
300
300
300
300
300
300
300
300
300
300
300
300
300
300
300
300
300
300
300
300
300
300
300
300
300
300
300
300
300
300
300
300
300
300
300
300
300
300
300
300
300
300
300
300
300
300
300
300
300
300
300
300
300
300
300
300
300
300
300
300
300
300
300
300
300
300
300
300
300
300
300
300
300
300
300
300
300
300
300
300
300
300
300
300
300
300
300
300
300
300
300
300
300
300
300
300
300
300
300
300
300
300
300
300
300
300
300
300
300
300
300
300.000000002
300
300
300
300
300
300
300
300
300
300
300
300
300
300
300
300
300
300
300
300.000000018
300
300
300
300
300
300
300
300
300
300
300
300
300
300
300
300
300
300
300
300.000000027
300
300
300
300
300
300
300
300
300
300
300
300
300
300
300
300
300
300
300
300.000000018
300.000000005
300
300
300
300
300
300
300
300
300
300
300
300
300
300
300
300
300
300
300.000000006
300.000000031
300
300
300
300
300
300
300
300
300
300
300
300
300
300
300
300
300
300
300
300.00000004
300.000000001
300
300
300
300
300
300
300
300
300
300
300
300
300
300
300.000000012
300.000000008
300
300
300.000000013
300.00000001
300
300
300
300
300
300
300
300
300
300
300
300
300
300
300
300.000000066
300.000000007
300
300
300.00000001
300.000000001
300
300
300
300
300
300
300
300
300
300.000000245
300
300
300
300
300.00000011
300.000000014
300
300
300
300.000000006
300
300
300.000000038
300.000000533
300.000001225
300.000002023
300.000002923
300.000003982
300.000005243
300.000006297
300
300
300
300
300.000000092
300
300
300
300
300.000000474
300.00000173
300.000003382
300.000005399
300.000007744
300.000010296
300.000012961
300.000015686
300.000018428
300.000020948
300.00002235
300
300
300
300
300.000000009
300
300
300.000001057
300.00000337
300.000006546
300.0000108
300.000015446
300.000020498
300.000025788
300.000031043
300.000035989
300.000040394
300.000044025
300.00004649
300.00004726
300
300
300
300
300
300
300.000003138
300.00000807
300.000014042
300.00002077
300.000028727
300.000036948
300.000044869
300.000052226
300.000058561
300.000063593
300.000067285
300.000069438
300.00007017
300.000069975
300
300
300
300
300
300.000004101
300.000011903
300.000021129
300.000030759
300.000040481
300.000050543
300.000060225
300.000068094
300.000074244
300.000078646
300.000081325
300.000082493
300.000082677
300.000082202
300.000081231
300
300
300
300
300.000001895
300.000011301
300.000023349
300.00003565
300.000046969
300.000056991
300.000065713
300.000073143
300.000077969
300.000080913
300.000082591
300.000083662
300.000084341
300.000084553
300.000084167
300.000083122
300
300
300
300
300.000004824
300.000017851
300.000032268
300.000045327
300.00005579
300.000063657
300.000069277
300.000073403
300.000075745
300.000077212
300.000078779
300.000080486
300.000082121
300.000083268
300.000083542
300.000082645
300
300.000000122
300
300
300.000006003
300.000020497
300.000035431
300.000047714
300.00005623
300.00006143
300.000064391
300.000066136
300.00006736
300.00006908
300.000071598
300.000074889
300.000078509
300.000081317
300.000082313
300.000081123
300.000000376
300.00000018
300.00000015
300
300.000004267
300.00001848
300.000033055
300.000044618
300.000051915
300.000055379
300.000056389
300.000056523
300.000057048
300.000058974
300.000062457
300.000067379
300.000073606
300.000079168
300.000081453
300.000079615
300.000004825
300.000000505
300.000000287
300.000000124
300.000000919
300.000013145
300.000026954
300.000038172
300.000045267
300.000048713
300.000049575
300.000049147
300.000049035
300.000050559
300.000053828
300.000059453
300.000067931
300.00007628
300.000080022
300.000077959
300.000030854
300.000002761
300.00000051
300.000000289
300.000000265
300.000007488
300.000019222
300.000029539
300.000036417
300.000040193
300.000041734
300.000041864
300.000041322
300.000041608
300.000044135
300.00004997
300.000060721
300.000072876
300.000078292
300.000076325
300.000087471
300.0000148
300.000001478
300.000000474
300.000000374
300.00000351
300.000012005
300.000020491
300.000026978
300.000031141
300.000033212
300.000033494
300.000032935
300.000032822
300.000034652
300.000040631
300.000053009
300.000069446
300.000076786
300.00007541
)
;

boundaryField
{
    emptyPatch
    {
        type            empty;
    }
    minY
    {
        type            calculated;
        value           nonuniform List<scalar> 0();
    }
    maxY
    {
        type            calculated;
        value           nonuniform List<scalar> 0();
    }
    water_to_cooler
    {
        type            calculated;
        value           nonuniform List<scalar> 
38
(
300
300
300
300
300
300
300
300
300
300
300
300
300
300
300.000000001
300.000000002
300.000000003
300.000000007
300.000000016
300.000000033
300.000000072
300.000000156
300.000000332
300.00000069
300.000001397
300.000002757
300.000005319
300.00000922
300.000013868
300.000018066
300.000021061
300.00002301
300.000024438
300.000025572
300.000025785
300.000025603
300.000025696
300.000026343
)
;
    }
    water_to_heater
    {
        type            calculated;
        value           nonuniform List<scalar> 
60
(
787.028080369
787.084256576
787.0837965
787.164921703
787.16453221
787.268210559
787.26868028
787.395915617
787.395644503
787.54581873
787.546037928
787.713931698
787.713946967
787.8918996
787.902021484
788.083568461
788.087234143
788.27283224
788.266036817
788.448044389
788.457510812
788.640445826
788.643115087
788.810764403
788.810754312
788.957604704
788.958981256
789.078423088
789.079590031
789.163391118
789.162318655
789.20405472
789.204794824
789.201555933
789.200512658
789.15415856
789.153030525
789.067658566
789.066825172
788.944500694
788.941988637
788.791894977
788.787201359
788.627799131
788.627329825
788.49786109
788.49902425
788.413505228
788.416353725
788.379054482
788.379260403
788.390238814
788.389539194
788.458443955
788.45925585
788.566269697
788.566835258
788.693295747
788.693438083
788.825177044
)
;
    }
    procBoundary3to1
    {
        type            processor;
        value           nonuniform List<scalar> 
41
(
300.429103166
300.348933617
300.282179679
300.220358897
300.164018305
300.118218189
300.082450611
300.055332494
300.034061062
300.017839963
300.007492538
300.002502758
300.000691354
319.635899483
308.547781146
303.857477682
301.899195901
301.07830899
300.718649553
300.429103166
300.538041309
300.000169717
300.000037976
300.000007241
300.000000912
300.000000458
300.000001023
300.000006137
300.000012249
300.000017513
300.000021326
300.000023648
300.000024666
300.000024726
300.00002466
300.000026229
300.000031824
300.000045919
300.000066162
300.000075567
300.000075076
)
;
    }
    procBoundary3to2
    {
        type            processor;
        value           nonuniform List<scalar> 
41
(
319.88952116
308.199951552
303.4103119
301.526430807
300.794958056
300.481688637
300.323961422
300.228671945
300.16010867
300.105287588
300.059425271
300.024426027
300.00569679
300.000748208
300.000096536
300.000014831
300.000001728
300
300
300
300
300
300
300
300
300
300
300
300
300
300
300
300
300
300
300
300
300
300.000000014
300
300
)
;
    }
}


// ************************************************************************* //
