/*--------------------------------*- C++ -*----------------------------------*\
| =========                 |                                                 |
| \\      /  F ield         | OpenFOAM: The Open Source CFD Toolbox           |
|  \\    /   O peration     | Version:  2312                                  |
|   \\  /    A nd           | Website:  www.openfoam.com                      |
|    \\/     M anipulation  |                                                 |
\*---------------------------------------------------------------------------*/
FoamFile
{
    version     2.0;
    format      ascii;
    arch        "LSB;label=32;scalar=64";
    class       volScalarField;
    location    "0.045/water";
    object      d.gas;
}
// * * * * * * * * * * * * * * * * * * * * * * * * * * * * * * * * * * * * * //

dimensions      [0 1 0 0 0 0 0];

internalField   nonuniform List<scalar> 
1497
(
0.00499479469644
0.00499478825609
0.00499478327453
0.00499477924799
0.00499477568935
0.00499477308097
0.00499477145124
0.00499476989306
0.00499476790818
0.00499476571591
0.00499476344256
0.00499476112069
0.00499475877159
0.00499485749073
0.00499489748689
0.00499488639439
0.00499488490881
0.00499488599595
0.00499488549898
0.00499488104348
0.00499487433137
0.00499486822785
0.00499486372557
0.00499486024469
0.00499485720745
0.00499485511384
0.00499485414735
0.00499485340046
0.00499485217877
0.00499485067631
0.00499484906319
0.0049948473678
0.00499484561282
0.00499492900513
0.00499497390285
0.00499496849848
0.00499496753926
0.00499496822184
0.00499496711224
0.00499496206547
0.00499495497548
0.00499494881835
0.00499494451735
0.00499494142744
0.00499493885619
0.00499493723326
0.00499493691281
0.00499493689425
0.00499493635962
0.00499493550961
0.00499493452203
0.00499493343122
0.00499493225104
0.00499502165908
0.00499506317188
0.00499505246685
0.00499505093962
0.00499505121376
0.00499504954738
0.00499504398989
0.00499503660173
0.00499503041256
0.00499502631897
0.00499502361083
0.00499502146854
0.00499502030534
0.00499502050693
0.00499502104902
0.00499502109299
0.00499502080566
0.00499502035211
0.00499501977794
0.00499501909288
0.00499511384002
0.00499515353285
0.00499513921865
0.0049951368515
0.00499513656325
0.00499513436581
0.00499512835303
0.00499512064414
0.00499511431091
0.00499511030973
0.00499510783464
0.00499510593096
0.00499510501166
0.00499510552495
0.00499510645371
0.00499510690643
0.00499510702291
0.00499510696596
0.00499510677435
0.00499510646352
0.00499520283188
0.00499524244826
0.0049952279378
0.00499522487769
0.0049952240773
0.00499522152995
0.00499521524847
0.0049952073061
0.00499520086132
0.00499519691142
0.0049951945549
0.00499519272482
0.00499519185886
0.00499519245759
0.00499519352813
0.00499519414858
0.00499519445455
0.00499519460837
0.00499519464157
0.00499519456214
0.00499528727117
0.00499532945053
0.00499531767549
0.00499531439535
0.00499531327088
0.00499531055213
0.00499530416734
0.00499529610019
0.0049952896222
0.00499528569838
0.00499528338256
0.0049952815412
0.00499528063412
0.00499528117074
0.00499528218289
0.00499528277724
0.00499528309713
0.00499528330005
0.00499528341209
0.00499528343403
0.00499536880465
0.00499541520842
0.00499540914289
0.00499540642002
0.00499540508476
0.00499540215287
0.00499539554111
0.00499538716046
0.00499538039582
0.0049953762567
0.00499537380446
0.00499537183631
0.00499537079202
0.00499537115229
0.00499537198177
0.00499537244749
0.00499537268988
0.00499537285235
0.00499537295416
0.00499537299584
0.00499547125085
0.00499551340785
0.00499550190782
0.00499549830423
0.00499549647988
0.00499549320519
0.00499548645903
0.00499547797443
0.00499547107518
0.00499546693607
0.00499546451721
0.00499546255047
0.00499546145408
0.00499546168952
0.00499546237467
0.00499546273577
0.0049954629063
0.00499546301917
0.00499546309175
0.00499546312356
0.00499557104446
0.00499560999434
0.00499559466544
0.0049955899968
0.00499558759588
0.00499558386601
0.00499557689112
0.00499556830512
0.00499556143589
0.00499555745437
0.00499555520663
0.00499555335773
0.00499555230373
0.00499555250847
0.0049955531409
0.00499555346209
0.00499555359831
0.00499555367937
0.00499555372734
0.00499555373958
0.0049956625279
0.00499570126278
0.00499568614828
0.00499568112487
0.00499567842398
0.00499567440903
0.00499566732282
0.00499565875909
0.00499565209014
0.00499564835592
0.00499564636378
0.00499564468367
0.00499564369865
0.00499564388935
0.0049956444757
0.00499564474782
0.00499564483107
0.00499564485731
0.00499564485345
0.00499564482145
0.00499575188439
0.00499579273283
0.00499578001025
0.00499577454371
0.00499577148181
0.00499576714701
0.00499575993259
0.00499575132585
0.00499574459923
0.0049957409157
0.00499573899618
0.00499573732895
0.00499573627579
0.0049957362798
0.00499573665283
0.0049957367423
0.00499573666873
0.00499573656191
0.0049957364464
0.00499573632849
0.00499583665654
0.00499588181227
0.00499587517108
0.00499587011811
0.00499586691887
0.0049958624073
0.00499585515308
0.00499584644791
0.00499583949881
0.00499583560704
0.00499583342736
0.00499583144873
0.00499582994842
0.00499582947702
0.00499582944557
0.00499582921798
0.00499582889671
0.00499582860095
0.00499582834448
0.00499582812578
0.00499594051128
0.00499598212931
0.00499597053868
0.0049959644498
0.00499596089153
0.00499595608355
0.00499594901563
0.00499594063268
0.00499593387429
0.00499592997356
0.00499592757516
0.00499592519638
0.00499592323774
0.00499592236151
0.00499592197927
0.00499592148969
0.0049959209862
0.00499592057307
0.004995920251
0.00499592000302
0.00499603557791
0.00499607505184
0.00499606083247
0.00499605397331
0.00499605047457
0.00499604562137
0.00499603896372
0.00499603117748
0.00499602485012
0.00499602120255
0.00499601882521
0.00499601642222
0.00499601451299
0.00499601360863
0.00499601320811
0.00499601277489
0.00499601237071
0.00499601208442
0.00499601190524
0.00499601180265
0.00499611847491
0.00499615820848
0.00499614319366
0.00499613554049
0.00499613257198
0.00499612807109
0.00499612217848
0.00499611543667
0.00499611009276
0.00499610726372
0.00499610558398
0.00499610387694
0.00499610256423
0.00499610222879
0.00499610247912
0.00499610267822
0.00499610284245
0.00499610306192
0.00499610332473
0.00499610359853
0.00499618985799
0.00499623269259
0.00499622007296
0.00499621167354
0.00499620864173
0.00499620432372
0.0049961992743
0.00499619392598
0.00499619008609
0.00499618868584
0.0049961883515
0.0049961878826
0.0049961877729
0.00499618879225
0.00499619041587
0.0049961918262
0.00499619301541
0.00499619408795
0.00499619504389
0.00499619586347
0.00499625487909
0.00499630393048
0.00499629719968
0.00499628893117
0.00499628544016
0.00499628068789
0.00499627589591
0.00499627148958
0.0049962690302
0.00499626923913
0.00499627055837
0.0049962717099
0.00499627326485
0.00499627602147
0.00499627931276
0.00499628217942
0.00499628455163
0.00499628655262
0.00499628820614
0.00499628951731
0.00499634718143
0.00499639363034
0.00499638202454
0.00499637176407
0.00499636706723
0.00499636081203
0.00499635578795
0.00499635239312
0.00499635163291
0.00499635381003
0.00499635709787
0.00499636005164
0.00499636329844
0.00499636771745
0.00499637257791
0.0049963766657
0.00499637988818
0.00499638242837
0.00499638436356
0.00499638574532
0.00499645507763
0.00499650198815
0.00499648677177
0.00499647316347
0.00499646605812
0.0049964568532
0.00499645112586
0.00499644842462
0.00499644890243
0.00499645237395
0.00499645678928
0.00499646056462
0.00499646448565
0.00499646955371
0.00499647484275
0.0049964789175
0.00499648180696
0.00499648378855
0.00499648501087
0.0049964855808
0.00499659458981
0.00499664640815
0.00499663075169
0.00499661187432
0.00499660134322
0.0049965886604
0.00499658149709
0.0049965776898
0.00499657705972
0.00499657898366
0.00499658142307
0.00499658293378
0.00499658459237
0.00499658744155
0.00499659025736
0.00499659171425
0.00499659208118
0.00499659167923
0.00499659067905
0.00499658919852
0.00499677999151
0.00499683582089
0.00499682471725
0.0049967994549
0.00499678516336
0.00499677033106
0.0049967606166
0.0049967518167
0.00499674486633
0.00499673970385
0.00499673480159
0.00499672930994
0.00499672440674
0.00499672091993
0.0049967175269
0.00499671339959
0.00499670894026
0.00499670435922
0.0049966997362
0.00499669511447
0.00499696327346
0.00499702371571
0.0049970231371
0.00499699506154
0.00499698349138
0.00499696815739
0.0049969551405
0.00499693936365
0.00499692328179
0.00499690849149
0.00499689454132
0.00499688098917
0.00499686839655
0.00499685703619
0.0049968461565
0.00499683564462
0.00499682580396
0.00499681664201
0.00499680809138
0.00499680009638
0.00499708689909
0.00499713826696
0.00499712922597
0.00499709694834
0.00499709232067
0.00499708310521
0.00499707693005
0.00499706623404
0.0049970519891
0.00499703701876
0.00499702195583
0.00499700681759
0.00499699179072
0.00499697682007
0.00499696193351
0.00499694772046
0.00499693450152
0.00499692225246
0.00499691089735
0.00499690038449
0.00499716680573
0.00499721131128
0.00499719750052
0.00499717395798
0.00499717494862
0.00499716687067
0.00499716309019
0.00499715615995
0.00499714503494
0.0049971323292
0.00499711890526
0.00499710499942
0.00499709067425
0.00499707569352
0.00499706030246
0.00499704531825
0.00499703112741
0.00499701776602
0.00499700523054
0.0049969935273
0.00499722226574
0.0049972637052
0.00499724850787
0.00499723253214
0.00499723290665
0.00499722743151
0.00499722621944
0.00499722308908
0.00499721577178
0.00499720631047
0.00499719564588
0.00499718411771
0.00499717177497
0.00499715832543
0.00499714409975
0.00499712995597
0.00499711631121
0.00499710324964
0.00499709081396
0.00499707905415
0.00499727249728
0.00499731519771
0.00499730158495
0.00499728889389
0.00499728936751
0.00499728631973
0.00499728471771
0.00499728250675
0.00499727687837
0.0049972693824
0.00499726082454
0.00499725143928
0.00499724123673
0.00499722977926
0.00499721732409
0.00499720471135
0.00499719236187
0.00499718037566
0.00499716880642
0.00499715772438
0.00499731847514
0.00499736451517
0.00499735521206
0.00499734376648
0.00499734420327
0.00499734343006
0.00499734129336
0.00499733906139
0.00499733402676
0.00499732756172
0.00499732028706
0.004997312242
0.00499730355216
0.00499729388842
0.0049972832774
0.00499727236156
0.00499726155387
0.0049972509649
0.00499724063682
0.00499723063757
0.00499737917834
0.00499742213802
0.00499740756573
0.00499739635493
0.00499739688847
0.00499739743967
0.00499739381396
0.00499739149296
0.00499738716888
0.00499738171477
0.00499737553528
0.00499736860644
0.00499736117079
0.00499735308289
0.00499734419145
0.00499733493042
0.0049973256931
0.00499731658493
0.00499730764004
0.00499729891281
0.00499743127351
0.00499747324165
0.00499745450156
0.00499744474104
0.00499744514118
0.00499744570672
0.00499744004876
0.00499743836973
0.00499743520387
0.00499743098523
0.00499742615836
0.00499742066892
0.00499741478111
0.00499740838761
0.00499740125938
0.00499739370536
0.00499738608807
0.00499737850606
0.00499737100293
0.00499736362788
0.00499747601707
0.00499751964297
0.00499749947233
0.00499749086107
0.00499749113018
0.00499749142549
0.00499748383269
0.00499748300851
0.00499748077949
0.00499747768845
0.00499747419818
0.00499747010272
0.00499746572634
0.00499746103903
0.00499745571187
0.00499744988526
0.00499744389
0.00499743784264
0.00499743178568
0.00499742576936
0.00499751772411
0.00499756484924
0.00499754673614
0.00499753793577
0.00499753826747
0.00499753862213
0.00499752951032
0.00499752890253
0.0049975272873
0.00499752504253
0.00499752252148
0.00499751943679
0.00499751618028
0.00499751286915
0.00499750908838
0.00499750477739
0.00499750023681
0.00499749559666
0.00499749089181
0.00499748616304
0.00499755606654
0.00499760817526
0.00499759607291
0.00499758625161
0.00499758657574
0.00499758690379
0.00499757706253
0.00499757659779
0.00499757552386
0.00499757394017
0.00499757210112
0.00499756974028
0.00499756730531
0.00499756501873
0.00499756241571
0.00499755931627
0.00499755598747
0.00499755255026
0.00499754903578
0.00499754547023
0.00499761348707
0.00499766387353
0.00499764796358
0.00499763562845
0.00499763597852
0.00499763631123
0.00499762515963
0.00499762475613
0.00499762438596
0.00499762355946
0.00499762241582
0.00499762074667
0.00499761906176
0.00499761764239
0.00499761600828
0.00499761392695
0.00499761163454
0.00499760923888
0.00499760676706
0.00499760423522
0.00499766819693
0.00499771912348
0.00499770072583
0.00499768620872
0.00499768656663
0.00499768688961
0.00499767461568
0.00499767420492
0.00499767447069
0.00499767427399
0.00499767367811
0.00499767256742
0.00499767152114
0.00499767085608
0.00499767007606
0.00499766889969
0.00499766753087
0.00499766606548
0.00499766452484
0.00499766291699
0.00499772062136
0.00499777406207
0.00499775562837
0.00499773808316
0.0049977384479
0.00499773874821
0.00499772520899
0.00499772495973
0.00499772587767
0.00499772625182
0.00499772609317
0.0049977254259
0.0049977249168
0.00499772492541
0.00499772492537
0.00499772457271
0.00499772404077
0.00499772341461
0.00499772270943
0.00499772192536
0.00499777175304
0.00499782966037
0.00499781450652
0.0049977917653
0.00499779211292
0.00499779235953
0.00499777701378
0.00499777720108
0.00499777878925
0.00499777968404
0.00499777990571
0.00499777961585
0.0049977795815
0.00499778021796
0.00499778094623
0.00499778134926
0.00499778157538
0.00499778169958
0.00499778173143
0.0049977816636
0.00499782530267
0.00499788608858
0.00499787694731
0.004997848088
0.00499784841194
0.00499784860498
0.0049978310664
0.00499783206615
0.00499783409009
0.00499783529422
0.00499783574423
0.0049978357071
0.00499783605786
0.0049978372638
0.00499783865205
0.0049978397272
0.0049978406165
0.0049978413825
0.00499784202877
0.00499784254242
0.0049947564867
0.00499475437058
0.00499475246172
0.00499475077558
0.00499474930029
0.00499474801221
0.00499474688901
0.00499474590081
0.00499474503116
0.00499474428674
0.00499474365993
0.00499474313357
0.00499474269594
0.00499474233683
0.00499474205141
0.00499474187898
0.00499474187201
0.00499474198813
0.00499474209339
0.00499474207368
0.00499484387503
0.00499484224002
0.00499484074292
0.00499483940557
0.0049948382254
0.0049948371875
0.00499483627599
0.00499483546918
0.00499483475371
0.0049948341375
0.00499483361651
0.00499483317699
0.00499483280974
0.00499483250673
0.00499483226528
0.00499483212749
0.00499483214867
0.00499483228591
0.00499483240607
0.00499483237915
0.00499493104108
0.00499492986834
0.0049949287662
0.00499492776272
0.00499492686423
0.00499492606442
0.0049949253543
0.00499492471929
0.00499492414979
0.0049949236549
0.00499492323393
0.00499492287628
0.00499492257505
0.00499492232421
0.00499492212322
0.00499492201688
0.00499492206245
0.0049949222185
0.00499492235119
0.00499492233342
0.0049950183411
0.00499501757166
0.00499501681585
0.0049950161064
0.00499501545662
0.0049950148674
0.00499501433598
0.00499501385332
0.00499501341333
0.0049950130262
0.00499501269403
0.00499501240896
0.00499501216618
0.00499501196135
0.00499501179587
0.00499501171683
0.00499501178398
0.00499501195562
0.00499501209781
0.00499501208609
0.0049951060641
0.00499510560962
0.00499510512781
0.00499510465357
0.00499510420456
0.00499510378663
0.00499510340141
0.00499510304405
0.00499510271114
0.00499510241348
0.00499510215518
0.00499510193075
0.00499510173694
0.00499510157095
0.00499510143576
0.0049951013802
0.00499510146545
0.00499510165028
0.00499510180029
0.00499510179385
0.00499519439187
0.00499519415087
0.00499519386052
0.00499519355454
0.00499519325191
0.00499519296082
0.00499519268525
0.00499519242304
0.00499519217241
0.00499519194403
0.00499519174328
0.0049951915663
0.00499519141105
0.00499519127572
0.00499519116456
0.00499519112774
0.00499519122755
0.00499519142234
0.00499519157815
0.00499519157648
0.00499528338109
0.00499528326085
0.00499528308593
0.00499528288606
0.00499528267903
0.00499528247312
0.00499528227282
0.0049952820773
0.00499528188531
0.00499528170681
0.00499528154774
0.00499528140537
0.00499528127832
0.00499528116549
0.00499528107207
0.00499528104906
0.00499528115963
0.00499528136135
0.00499528152106
0.00499528152362
0.00499537298537
0.00499537292041
0.00499537280498
0.00499537266402
0.00499537251311
0.00499537235935
0.00499537220672
0.00499537205458
0.00499537190149
0.00499537175644
0.00499537162561
0.00499537150695
0.00499537139943
0.00499537130232
0.00499537122151
0.00499537120861
0.00499537132699
0.00499537153347
0.00499537169556
0.0049953717017
0.00499546312023
0.00499546307447
0.00499546298462
0.00499546287212
0.00499546275074
0.00499546262616
0.00499546250146
0.00499546237566
0.00499546224663
0.00499546212246
0.0049954620094
0.00499546190578
0.00499546181066
0.00499546172354
0.0049954616508
0.00499546164432
0.00499546176787
0.00499546197682
0.00499546213999
0.00499546214941
0.00499555372565
0.00499555367802
0.00499555359249
0.00499555348873
0.00499555337913
0.00499555326808
0.00499555315767
0.00499555304608
0.00499555293047
0.00499555281814
0.00499555271532
0.00499555262056
0.00499555253293
0.00499555245191
0.00499555238432
0.00499555238223
0.0049955525092
0.00499555271961
0.00499555288309
0.00499555289534
0.0049956447734
0.00499564470282
0.00499564460365
0.00499564449333
0.00499564438249
0.00499564427389
0.00499564416832
0.00499564406255
0.00499564395325
0.00499564384682
0.0049956437492
0.00499564365907
0.00499564357533
0.00499564349748
0.00499564343261
0.00499564343279
0.00499564356171
0.00499564377224
0.00499564393537
0.00499564395034
0.00499573621879
0.00499573610656
0.00499573598118
0.00499573585503
0.00499573573585
0.00499573562388
0.00499573551801
0.00499573541447
0.00499573530852
0.00499573520545
0.0049957351108
0.00499573502333
0.00499573494187
0.00499573486579
0.0049957348025
0.00499573480409
0.00499573493408
0.00499573514431
0.00499573530684
0.00499573532448
0.00499582795265
0.00499582780473
0.00499582766018
0.00499582752535
0.00499582740369
0.00499582729284
0.00499582718976
0.00499582709041
0.00499582698923
0.00499582689034
0.00499582679891
0.00499582671397
0.00499582663435
0.0049958265595
0.00499582649719
0.00499582649936
0.00499582662962
0.00499582683894
0.00499582700059
0.00499582702103
0.00499591982693
0.00499591969377
0.00499591957085
0.00499591945895
0.00499591935783
0.00499591926466
0.00499591917632
0.00499591908871
0.00499591899708
0.00499591890539
0.00499591881894
0.00499591873734
0.00499591865978
0.00499591858589
0.00499591852395
0.00499591852585
0.00499591865547
0.00499591886318
0.00499591902375
0.00499591904741
0.00499601175925
0.00499601173737
0.00499601170562
0.00499601166385
0.00499601161523
0.00499601156069
0.00499601150026
0.00499601143244
0.00499601135433
0.00499601127121
0.00499601118953
0.00499601111011
0.0049960110329
0.0049960109581
0.0049960108947
0.00499601089439
0.00499601102129
0.00499601122612
0.00499601138484
0.00499601141189
0.00499610385602
0.00499610405598
0.00499610418242
0.00499610424969
0.00499610427432
0.0049961042669
0.00499610423494
0.00499610418256
0.00499610411186
0.00499610402992
0.00499610394512
0.00499610386011
0.004996103776
0.0049961036937
0.00499610362293
0.0049961036151
0.00499610373495
0.00499610393345
0.00499610408858
0.00499610411942
0.00499619652207
0.00499619699114
0.00499619728607
0.00499619745253
0.00499619752794
0.00499619753883
0.00499619750421
0.00499619743634
0.00499619734347
0.00499619723625
0.00499619712485
0.00499619701382
0.00499619690543
0.00499619680124
0.00499619671152
0.00499619668678
0.00499619679164
0.00499619697859
0.00499619712676
0.00499619716069
0.00499629048168
0.00499629110651
0.00499629145438
0.00499629160863
0.00499629163096
0.00499629156631
0.00499629144594
0.00499629129033
0.00499629111232
0.00499629092589
0.00499629074249
0.00499629056761
0.00499629040384
0.0049962902525
0.00499629012357
0.00499629006573
0.00499629014344
0.0049962903095
0.00499629044532
0.00499629048139
0.00499638661543
0.00499638704424
0.00499638714839
0.00499638704003
0.0049963867996
0.00499638648463
0.00499638613306
0.00499638576884
0.00499638540596
0.00499638505763
0.00499638473441
0.00499638444061
0.00499638417721
0.00499638394381
0.00499638374877
0.00499638363746
0.00499638367223
0.00499638380668
0.00499638392306
0.00499638395853
0.0049964856049
0.00499648523005
0.00499648460958
0.00499648385648
0.00499648304955
0.00499648224174
0.00499648146446
0.00499648073474
0.00499648006016
0.0049964794477
0.00499647890258
0.00499647842427
0.00499647800925
0.00499647765306
0.00499647736052
0.00499647717198
0.00499647714675
0.00499647723665
0.00499647732568
0.0049964773576
0.00499658739236
0.00499658546325
0.00499658354999
0.00499658171969
0.00499658001482
0.00499657845784
0.00499657705482
0.00499657580193
0.00499657469041
0.00499657371432
0.00499657286873
0.00499657214419
0.00499657152953
0.00499657101384
0.00499657059651
0.00499657031123
0.00499657021178
0.00499657024749
0.00499657030242
0.00499657032667
0.00499669065225
0.004996686565
0.00499668291749
0.00499667968425
0.00499667683918
0.00499667435083
0.00499667218361
0.00499667030122
0.00499666866931
0.00499666726416
0.00499666606754
0.00499666505793
0.00499666421401
0.00499666351659
0.00499666295816
0.00499666256483
0.00499666238423
0.00499666236
0.00499666237711
0.00499666239064
0.00499679280949
0.00499678644509
0.00499678097879
0.0049967762833
0.00499677225934
0.00499676881463
0.00499676586731
0.00499676334515
0.00499676118632
0.00499675934882
0.00499675780013
0.00499675650587
0.00499675543423
0.00499675455742
0.00499675386097
0.00499675336367
0.00499675310587
0.00499675302496
0.00499675300546
0.0049967530058
0.0049968909155
0.00499688274433
0.00499687580694
0.00499686991167
0.00499686491097
0.00499686066806
0.00499685706616
0.00499685400419
0.00499685140007
0.00499684919665
0.0049968473498
0.00499684581467
0.00499684455059
0.00499684352263
0.00499684271053
0.00499684212727
0.00499684180724
0.00499684167979
0.00499684162992
0.00499684161696
0.00499698292875
0.0049969737553
0.00499696595921
0.00499695933638
0.00499695372399
0.00499694896904
0.0049969449394
0.00499694152022
0.0049969386175
0.0049969361658
0.00499693411567
0.00499693241596
0.00499693102051
0.00499692988979
0.00499692900002
0.00499692836077
0.00499692800164
0.00499692784479
0.00499692777481
0.00499692774968
0.00499706828955
0.00499705889228
0.00499705085333
0.00499704399416
0.00499703816318
0.00499703321257
0.00499702901111
0.00499702544352
0.00499702241163
0.0049970198496
0.00499701770798
0.00499701593381
0.00499701447898
0.00499701330221
0.00499701237863
0.00499701171699
0.00499701134483
0.00499701117721
0.00499701109906
0.00499701106461
0.00499714746269
0.00499713841513
0.00499713061163
0.00499712391343
0.00499711819512
0.004997113324
0.00499710917925
0.00499710565194
0.00499710264795
0.00499710010544
0.00499709797854
0.00499709621609
0.00499709477106
0.00499709360291
0.00499709268795
0.00499709203649
0.00499709167583
0.00499709151584
0.00499709144107
0.00499709140042
0.00499722128506
0.00499721296294
0.00499720572717
0.00499719947696
0.00499719411728
0.00499718953481
0.00499718562394
0.00499718228637
0.00499717943692
0.0049971770199
0.00499717499507
0.00499717331564
0.00499717193781
0.00499717082362
0.00499716995217
0.00499716933704
0.00499716900762
0.00499716886968
0.00499716880783
0.00499716876445
0.00499729068764
0.00499728331497
0.00499727685888
0.0049972712479
0.00499726641287
0.0049972622624
0.00499725870823
0.00499725566665
0.00499725306264
0.0049972508481
0.00499724898932
0.00499724744538
0.00499724617715
0.00499724515046
0.00499724434841
0.00499724378897
0.00499724350488
0.00499724339967
0.00499724335769
0.00499724331456
0.00499735662633
0.00499735030862
0.00499734474178
0.00499733987561
0.00499733566001
0.00499733202575
0.00499732890211
0.00499732622133
0.00499732391894
0.00499732195535
0.00499732030332
0.00499731892843
0.00499731779697
0.00499731687925
0.00499731616293
0.00499731567082
0.00499731544027
0.00499731537378
0.00499731535589
0.00499731531574
0.00499742000405
0.00499741476026
0.00499741011067
0.00499740602238
0.00499740246152
0.00499739937826
0.00499739671816
0.00499739442715
0.00499739245361
0.00499739076491
0.00499738934022
0.00499738815156
0.00499738717088
0.0049973863732
0.00499738575101
0.00499738533198
0.00499738515848
0.00499738513334
0.00499738514138
0.00499738510632
0.00499748158399
0.00499747738032
0.00499747362433
0.00499747029934
0.00499746738768
0.004997464855
0.00499746266113
0.0049974607637
0.00499745912425
0.00499745771638
0.00499745652441
0.00499745552661
0.00499745470051
0.00499745402581
0.00499745349972
0.0049974531544
0.0049974530375
0.0049974530532
0.00499745308718
0.00499745305901
0.00499754198477
0.00499753875437
0.00499753584169
0.00499753324308
0.00499753095295
0.00499752894989
0.00499752720624
0.00499752569114
0.00499752437539
0.00499752324081
0.00499752227585
0.00499752146436
0.00499752078916
0.00499752023442
0.00499751980183
0.00499751952749
0.00499751946421
0.00499751951829
0.00499751957685
0.00499751955697
0.00499760173454
0.00499759939134
0.00499759725597
0.00499759533275
0.00499759362203
0.00499759211392
0.00499759079186
0.00499758963567
0.00499758862389
0.00499758774545
0.00499758699359
0.00499758635705
0.00499758582352
0.00499758538135
0.00499758503626
0.00499758482756
0.00499758481276
0.00499758490124
0.00499758498203
0.00499758497157
0.00499766129869
0.00499765975256
0.00499765831762
0.00499765700418
0.00499765581737
0.00499765475715
0.0049976538166
0.00499765298479
0.004997652249
0.00499765160294
0.00499765104424
0.00499765056621
0.00499765016093
0.0049976498205
0.00499764955427
0.00499764940396
0.00499764943135
0.00499764954902
0.00499764964883
0.00499764964853
0.00499772108949
0.00499772024693
0.00499771942756
0.0049977186477
0.00499771791817
0.00499771724778
0.00499771663848
0.00499771608755
0.00499771559051
0.00499771514596
0.00499771475457
0.00499771441373
0.00499771411939
0.00499771386702
0.00499771366898
0.00499771356853
0.0049977136307
0.00499771377179
0.00499771388672
0.00499771389214
0.0049977814984
0.00499778125194
0.00499778094917
0.0049977806129
0.00499778026026
0.00499777990885
0.00499777956902
0.00499777924565
0.00499777894122
0.00499777865898
0.00499777840221
0.00499777817166
0.00499777796648
0.00499777778485
0.00499777764145
0.0049977775803
0.00499777766858
0.00499777782487
0.00499777794744
0.00499777797846
0.00499784290775
0.00499784312249
0.00499784321171
0.004997843206
)
;

boundaryField
{
    emptyPatch
    {
        type            empty;
    }
    minY
    {
        type            calculated;
        value           nonuniform List<scalar> 0();
    }
    maxY
    {
        type            calculated;
        value           nonuniform List<scalar> 0();
    }
    water_to_cooler
    {
        type            calculated;
        value           nonuniform List<scalar> 
37
(
0.00499474207368
0.00499483237915
0.00499492233342
0.00499501208609
0.00499510179385
0.00499519157648
0.00499528152362
0.0049953717017
0.00499546214941
0.00499555289534
0.00499564395034
0.00499573532448
0.00499582702103
0.00499591904741
0.00499601141189
0.00499610411942
0.00499619716069
0.00499629048139
0.00499638395853
0.0049964773576
0.00499657032667
0.00499666239064
0.0049967530058
0.00499684161696
0.00499692774968
0.00499701106461
0.00499709140042
0.00499716876445
0.00499724331456
0.00499731531574
0.00499738510632
0.00499745305901
0.00499751955697
0.00499758497157
0.00499764964853
0.00499771389214
0.00499777797846
)
;
    }
    water_to_heater
    {
        type            calculated;
        value           nonuniform List<scalar> 
60
(
0.00499482224143
0.00499486552688
0.00499490452326
0.00499494784358
0.00499500796289
0.00499505131224
0.00499511095391
0.00499519991264
0.00499525136192
0.00499529529868
0.0049953438294
0.00499538779278
0.00499545722315
0.00499550121254
0.00499556797824
0.00499565942296
0.00499571563889
0.00499575978173
0.00499581141511
0.00499585554701
0.00499592626236
0.00499597041453
0.00499603232849
0.00499611519451
0.00499615336016
0.0049961976017
0.00499622940573
0.00499627364403
0.00499633271504
0.00499637701819
0.00499645168386
0.00499659122009
0.00499674077927
0.00499678854343
0.00499693596932
0.00499698372031
0.00499707150561
0.00499711921856
0.00499716330957
0.00499721873471
0.00499723325337
0.00499728080959
0.0049972913434
0.00499733833532
0.00499736372917
0.00499741087347
0.00499742760129
0.00499747233095
0.00499747778816
0.00499752606876
0.00499752834529
0.00499757622659
0.00499759765309
0.00499764576751
0.0049976643886
0.0049977168018
0.00499773083955
0.00499778025173
0.00499779668955
0.00499784613191
)
;
    }
    procBoundary1to0
    {
        type            processor;
        value           nonuniform List<scalar> 
41
(
0.00499790287828
0.0049979648246
0.00499794775049
0.00499790769103
0.00499790813321
0.0049979083821
0.00499788622128
0.00499788872325
0.00499789138829
0.00499789302246
0.00499789378696
0.00499789405905
0.00499789484643
0.00499789664733
0.00499789864733
0.00499790029816
0.0049979017231
0.00499790297655
0.00499790406279
0.00499790497029
0.00499784312952
0.00499784300871
0.0049978428616
0.00499784269978
0.00499784253128
0.00499784236294
0.00499784220045
0.00499784204729
0.00499784190493
0.00499784177364
0.00499784166966
0.00499784163686
0.00499784174277
0.00499784190823
0.00499784203625
0.004997842073
0.00499790567618
0.00499790617254
0.00499790649072
0.00499784312952
0.00499790666948
)
;
    }
    procBoundary1to3
    {
        type            processor;
        value           nonuniform List<scalar> 
41
(
0.00499471302489
0.00499470633936
0.00499470102537
0.0049946966139
0.00499469269845
0.00499468970752
0.00499468756127
0.00499468537786
0.00499468276379
0.00499467997193
0.00499467711705
0.0049946742264
0.00499467132528
0.00499478426429
0.00499482096041
0.00499480680277
0.00499480513322
0.00499480643209
0.00499480606291
0.00499480158259
0.00499480158259
0.00499466852175
0.00499466594314
0.00499466363407
0.00499466160661
0.00499465983995
0.00499465830383
0.00499465696846
0.00499465579768
0.00499465477265
0.00499465389923
0.00499465316574
0.00499465255198
0.00499465204382
0.00499465162896
0.00499465130024
0.00499465109364
0.00499465105901
0.00499465115372