/*--------------------------------*- C++ -*----------------------------------*\
| =========                 |                                                 |
| \\      /  F ield         | OpenFOAM: The Open Source CFD Toolbox           |
|  \\    /   O peration     | Version:  2312                                  |
|   \\  /    A nd           | Website:  www.openfoam.com                      |
|    \\/     M anipulation  |                                                 |
\*---------------------------------------------------------------------------*/
FoamFile
{
    version     2.0;
    format      ascii;
    arch        "LSB;label=32;scalar=64";
    class       volVectorField;
    location    "129.56841677350852/fluidRegion";
    object      U;
}
// * * * * * * * * * * * * * * * * * * * * * * * * * * * * * * * * * * * * * //

dimensions      [0 1 -1 0 0 0 0];

internalField   nonuniform List<vector> 
625
(
(1.205983e-10 0 1)
(4.225799e-10 0 1)
(6.923654e-10 0 1)
(8.254528e-10 0 1)
(8.15541e-10 0 1)
(6.810129e-10 0 1)
(4.660057e-10 0 1)
(2.263145e-10 0 1)
(1.371689e-11 0 1)
(-1.364949e-10 0 1)
(-2.117135e-10 0 1)
(-2.198776e-10 0 1)
(-1.820767e-10 0 1)
(-1.239708e-10 0 1)
(-6.794033e-11 0 1)
(-2.833035e-11 0 1)
(-1.027471e-11 0 1)
(-1.11658e-11 0 1)
(-2.371636e-11 0 1)
(-3.933809e-11 0 1)
(-5.075327e-11 0 1)
(-5.351087e-11 0 1)
(-4.636977e-11 0 1)
(-3.078673e-11 0 1)
(-1.005084e-11 0 1)
(1.013471e-10 0 1)
(1.814887e-10 0 1)
(2.844775e-10 0 1)
(3.270958e-10 0 1)
(3.063076e-10 0 1)
(2.362927e-10 0 1)
(1.393254e-10 0 1)
(4.116688e-11 0 1)
(-3.678366e-11 0 1)
(-8.311295e-11 0 1)
(-9.692135e-11 0 1)
(-8.502711e-11 0 1)
(-5.867321e-11 0 1)
(-2.959885e-11 0 1)
(-6.507606e-12 0 1)
(6.248754e-12 0 1)
(8.378517e-12 0 1)
(2.567888e-12 0 1)
(-7.013216e-12 0 1)
(-1.624043e-11 0 1)
(-2.213131e-11 0 1)
(-2.32727e-11 0 1)
(-1.965853e-11 0 1)
(-1.174635e-11 0 1)
(-6.911795e-12 0 1)
(9.987628e-11 0 1)
(-6.860637e-11 0 1)
(-1.09861e-10 0 1)
(-1.504112e-10 0 1)
(-1.751041e-10 0 1)
(-1.801896e-10 0 1)
(-1.641304e-10 0 1)
(-1.2942e-10 0 1)
(-8.272419e-11 0 1)
(-3.39729e-11 0 1)
(8.343522e-12 0 1)
(3.898069e-11 0 1)
(5.550312e-11 0 1)
(5.879016e-11 0 1)
(5.242641e-11 0 1)
(4.086057e-11 0 1)
(2.810874e-11 0 1)
(1.716696e-11 0 1)
(9.616456e-12 0 1)
(5.59551e-12 0 1)
(4.173493e-12 0 1)
(4.149113e-12 0 1)
(4.21576e-12 0 1)
(4.801771e-12 0 1)
(-6.75357e-12 0 1)
(1.196712e-10 0 1)
(-2.564743e-10 0 1)
(-4.029794e-10 0 1)
(-5.03797e-10 0 1)
(-5.285235e-10 0 1)
(-4.814295e-10 0 1)
(-3.775169e-10 0 1)
(-2.422263e-10 0 1)
(-1.03888e-10 0 1)
(1.347469e-11 0 1)
(9.509966e-11 0 1)
(1.364648e-10 0 1)
(1.423551e-10 0 1)
(1.238874e-10 0 1)
(9.383058e-11 0 1)
(6.30373e-11 0 1)
(3.883881e-11 0 1)
(2.431774e-11 0 1)
(1.880768e-11 0 1)
(1.933822e-11 0 1)
(2.195975e-11 0 1)
(2.328108e-11 0 1)
(2.104853e-11 0 1)
(1.640091e-11 0 1)
(-8.148991e-12 0 1)
(1.638935e-10 0 1)
(-1.362609e-10 0 1)
(-2.172072e-10 0 1)
(-2.824704e-10 0 1)
(-3.028223e-10 0 1)
(-2.857655e-10 0 1)
(-2.350602e-10 0 1)
(-1.623713e-10 0 1)
(-8.26526e-11 0 1)
(-9.319291e-12 0 1)
(4.724184e-11 0 1)
(8.114746e-11 0 1)
(9.261414e-11 0 1)
(8.65567e-11 0 1)
(6.975452e-11 0 1)
(4.899129e-11 0 1)
(3.003277e-11 0 1)
(1.617697e-11 0 1)
(8.321814e-12 0 1)
(5.665257e-12 0 1)
(6.087259e-12 0 1)
(7.393619e-12 0 1)
(7.524721e-12 0 1)
(6.643922e-12 0 1)
(-1.118128e-11 0 1)
(2.110599e-10 0 1)
(-3.544636e-11 0 1)
(-5.802489e-11 0 1)
(-9.244553e-11 0 1)
(-1.090633e-10 0 1)
(-1.151467e-10 0 1)
(-1.069188e-10 0 1)
(-8.497533e-11 0 1)
(-5.322268e-11 0 1)
(-1.804143e-11 0 1)
(1.420787e-11 0 1)
(3.839817e-11 0 1)
(5.144758e-11 0 1)
(5.313201e-11 0 1)
(4.568126e-11 0 1)
(3.270874e-11 0 1)
(1.815326e-11 0 1)
(5.434717e-12 0 1)
(-3.353116e-12 0 1)
(-7.666882e-12 0 1)
(-8.275747e-12 0 1)
(-6.386238e-12 0 1)
(-4.047723e-12 0 1)
(-1.371675e-12 0 1)
(-1.477351e-11 0 1)
(2.558203e-10 0 1)
(-5.290206e-12 0 1)
(6.085662e-12 0 1)
(-1.81687e-11 0 1)
(-2.917523e-11 0 1)
(-4.031497e-11 0 1)
(-4.546437e-11 0 1)
(-4.171604e-11 0 1)
(-2.907358e-11 0 1)
(-1.10511e-11 0 1)
(8.162419e-12 0 1)
(2.451668e-11 0 1)
(3.454906e-11 0 1)
(3.667081e-11 0 1)
(3.137293e-11 0 1)
(2.080152e-11 0 1)
(8.11994e-12 0 1)
(-3.426652e-12 0 1)
(-1.152586e-11 0 1)
(-1.529103e-11 0 1)
(-1.524552e-11 0 1)
(-1.230454e-11 0 1)
(-9.152766e-12 0 1)
(-4.388528e-12 0 1)
(-1.863069e-11 0 1)
(2.969414e-10 0 1)
(-1.160872e-10 0 1)
(-1.46156e-10 0 1)
(-2.012208e-10 0 1)
(-2.086748e-10 0 1)
(-1.864622e-10 0 1)
(-1.392094e-10 0 1)
(-7.883396e-11 0 1)
(-1.795039e-11 0 1)
(3.25059e-11 0 1)
(6.611629e-11 0 1)
(8.066643e-11 0 1)
(7.82037e-11 0 1)
(6.372376e-11 0 1)
(4.277793e-11 0 1)
(2.103908e-11 0 1)
(3.242244e-12 0 1)
(-8.086959e-12 0 1)
(-1.247109e-11 0 1)
(-1.123565e-11 0 1)
(-7.004119e-12 0 1)
(-2.138443e-12 0 1)
(-4.917334e-14 0 1)
(2.887376e-12 0 1)
(-2.276698e-11 0 1)
(3.362677e-10 0 1)
(-2.278632e-10 0 1)
(-2.988661e-10 0 1)
(-3.805945e-10 0 1)
(-3.788143e-10 0 1)
(-3.197298e-10 0 1)
(-2.189184e-10 0 1)
(-1.03969e-10 0 1)
(1.674968e-12 0 1)
(8.05859e-11 0 1)
(1.245004e-10 0 1)
(1.338984e-10 0 1)
(1.166939e-10 0 1)
(8.426419e-11 0 1)
(4.759343e-11 0 1)
(1.581535e-11 0 1)
(-5.423752e-12 0 1)
(-1.469476e-11 0 1)
(-1.375419e-11 0 1)
(-6.339906e-12 0 1)
(2.701824e-12 0 1)
(9.671116e-12 0 1)
(1.045829e-11 0 1)
(1.087392e-11 0 1)
(-2.713742e-11 0 1)
(3.821069e-10 0 1)
(-2.380713e-10 0 1)
(-2.986265e-10 0 1)
(-3.714377e-10 0 1)
(-3.598387e-10 0 1)
(-2.901605e-10 0 1)
(-1.794316e-10 0 1)
(-6.059022e-11 0 1)
(4.237946e-11 0 1)
(1.126948e-10 0 1)
(1.440543e-10 0 1)
(1.397311e-10 0 1)
(1.101943e-10 0 1)
(6.862616e-11 0 1)
(2.70958e-11 0 1)
(-5.293926e-12 0 1)
(-2.379091e-11 0 1)
(-2.826222e-11 0 1)
(-2.188544e-11 0 1)
(-9.500294e-12 0 1)
(3.112988e-12 0 1)
(1.185672e-11 0 1)
(1.304171e-11 0 1)
(1.310268e-11 0 1)
(-3.211599e-11 0 1)
(4.302043e-10 0 1)
(-2.523316e-10 0 1)
(-3.065485e-10 0 1)
(-3.729822e-10 0 1)
(-3.469068e-10 0 1)
(-2.631007e-10 0 1)
(-1.383812e-10 0 1)
(-1.219044e-11 0 1)
(8.93582e-11 0 1)
(1.496639e-10 0 1)
(1.655167e-10 0 1)
(1.441096e-10 0 1)
(9.943462e-11 0 1)
(4.729485e-11 0 1)
(9.48582e-13 0 1)
(-3.070864e-11 0 1)
(-4.439906e-11 0 1)
(-4.18569e-11 0 1)
(-2.803778e-11 0 1)
(-9.426298e-12 0 1)
(7.115686e-12 0 1)
(1.758524e-11 0 1)
(1.811767e-11 0 1)
(1.673857e-11 0 1)
(-3.734486e-11 0 1)
(4.825963e-10 0 1)
(-2.71924e-10 0 1)
(-3.158743e-10 0 1)
(-3.746743e-10 0 1)
(-3.326518e-10 0 1)
(-2.337443e-10 0 1)
(-9.400119e-11 0 1)
(3.967358e-11 0 1)
(1.389914e-10 0 1)
(1.879586e-10 0 1)
(1.866475e-10 0 1)
(1.463591e-10 0 1)
(8.527802e-11 0 1)
(2.213232e-11 0 1)
(-2.866276e-11 0 1)
(-5.866576e-11 0 1)
(-6.62609e-11 0 1)
(-5.525377e-11 0 1)
(-3.269642e-11 0 1)
(-7.018106e-12 0 1)
(1.369409e-11 0 1)
(2.560501e-11 0 1)
(2.50324e-11 0 1)
(2.176062e-11 0 1)
(-4.27916e-11 0 1)
(5.366638e-10 0 1)
(-3.425922e-10 0 1)
(-3.995418e-10 0 1)
(-4.679135e-10 0 1)
(-4.042631e-10 0 1)
(-2.733446e-10 0 1)
(-9.482127e-11 0 1)
(7.082952e-11 0 1)
(1.882941e-10 0 1)
(2.390594e-10 0 1)
(2.257429e-10 0 1)
(1.653401e-10 0 1)
(8.308696e-11 0 1)
(3.374252e-12 0 1)
(-5.601307e-11 0 1)
(-8.598633e-11 0 1)
(-8.654149e-11 0 1)
(-6.461104e-11 0 1)
(-3.074113e-11 0 1)
(4.020434e-12 0 1)
(2.97199e-11 0 1)
(4.271251e-11 0 1)
(3.867823e-11 0 1)
(3.113888e-11 0 1)
(-4.807949e-11 0 1)
(5.95403e-10 0 1)
(-4.171462e-10 0 1)
(-4.841222e-10 0 1)
(-5.591516e-10 0 1)
(-4.726541e-10 0 1)
(-3.073258e-10 0 1)
(-8.813394e-11 0 1)
(1.096822e-10 0 1)
(2.440391e-10 0 1)
(2.938296e-10 0 1)
(2.64772e-10 0 1)
(1.810656e-10 0 1)
(7.571757e-11 0 1)
(-2.149126e-11 0 1)
(-8.903359e-11 0 1)
(-1.171393e-10 0 1)
(-1.082701e-10 0 1)
(-7.318675e-11 0 1)
(-2.638969e-11 0 1)
(1.83093e-11 0 1)
(4.909177e-11 0 1)
(6.245265e-11 0 1)
(5.438117e-11 0 1)
(4.189998e-11 0 1)
(-5.317005e-11 0 1)
(6.553354e-10 0 1)
(-5.001374e-10 0 1)
(-5.799522e-10 0 1)
(-6.610672e-10 0 1)
(-5.441085e-10 0 1)
(-3.365193e-10 0 1)
(-7.055324e-11 0 1)
(1.618064e-10 0 1)
(3.11814e-10 0 1)
(3.56153e-10 0 1)
(3.05364e-10 0 1)
(1.922324e-10 0 1)
(5.885371e-11 0 1)
(-5.745243e-11 0 1)
(-1.314432e-10 0 1)
(-1.540324e-10 0 1)
(-1.314715e-10 0 1)
(-7.940915e-11 0 1)
(-1.698766e-11 0 1)
(3.86351e-11 0 1)
(7.412651e-11 0 1)
(8.683752e-11 0 1)
(7.276194e-11 0 1)
(5.382048e-11 0 1)
(-5.763686e-11 0 1)
(7.190632e-10 0 1)
(-5.692273e-10 0 1)
(-6.510176e-10 0 1)
(-7.282255e-10 0 1)
(-5.787037e-10 0 1)
(-3.303179e-10 0 1)
(-2.253232e-11 0 1)
(2.358254e-10 0 1)
(3.912205e-10 0 1)
(4.199064e-10 0 1)
(3.3899e-10 0 1)
(1.907392e-10 0 1)
(2.701795e-11 0 1)
(-1.073122e-10 0 1)
(-1.845691e-10 0 1)
(-1.975766e-10 0 1)
(-1.571744e-10 0 1)
(-8.48808e-11 0 1)
(-5.124649e-12 0 1)
(6.16905e-11 0 1)
(1.010599e-10 0 1)
(1.11761e-10 0 1)
(9.136529e-11 0 1)
(6.57302e-11 0 1)
(-6.131648e-11 0 1)
(7.821106e-10 0 1)
(-6.529507e-10 0 1)
(-7.389765e-10 0 1)
(-8.111245e-10 0 1)
(-6.193645e-10 0 1)
(-3.212208e-10 0 1)
(3.536733e-11 0 1)
(3.23082e-10 0 1)
(4.831768e-10 0 1)
(4.911422e-10 0 1)
(3.725753e-10 0 1)
(1.824216e-10 0 1)
(-1.549078e-11 0 1)
(-1.686769e-10 0 1)
(-2.469061e-10 0 1)
(-2.457426e-10 0 1)
(-1.824541e-10 0 1)
(-8.579556e-11 0 1)
(1.347527e-11 0 1)
(9.175743e-11 0 1)
(1.338569e-10 0 1)
(1.409223e-10 0 1)
(1.119933e-10 0 1)
(7.827374e-11 0 1)
(-6.379139e-11 0 1)
(8.447238e-10 0 1)
(-7.498515e-10 0 1)
(-8.392558e-10 0 1)
(-9.029651e-10 0 1)
(-6.643897e-10 0 1)
(-3.10703e-10 0 1)
(1.010045e-10 0 1)
(4.210255e-10 0 1)
(5.849375e-10 0 1)
(5.68177e-10 0 1)
(4.066263e-10 0 1)
(1.694517e-10 0 1)
(-6.627021e-11 0 1)
(-2.391397e-10 0 1)
(-3.162868e-10 0 1)
(-2.972722e-10 0 1)
(-2.072019e-10 0 1)
(-8.309159e-11 0 1)
(3.730808e-11 0 1)
(1.271106e-10 0 1)
(1.707126e-10 0 1)
(1.723991e-10 0 1)
(1.340884e-10 0 1)
(9.171923e-11 0 1)
(-6.479229e-11 0 1)
(8.983816e-10 0 1)
(-8.819706e-10 0 1)
(-9.812026e-10 0 1)
(-1.034065e-09 0 1)
(-7.358965e-10 0 1)
(-3.114765e-10 0 1)
(1.707487e-10 0 1)
(5.327337e-10 0 1)
(7.023192e-10 0 1)
(6.564454e-10 0 1)
(4.441691e-10 0 1)
(1.517371e-10 0 1)
(-1.274942e-10 0 1)
(-3.212916e-10 0 1)
(-3.945765e-10 0 1)
(-3.522816e-10 0 1)
(-2.292351e-10 0 1)
(-7.315873e-11 0 1)
(7.019799e-11 0 1)
(1.708601e-10 0 1)
(2.137304e-10 0 1)
(2.077125e-10 0 1)
(1.575372e-10 0 1)
(1.052925e-10 0 1)
(-6.405215e-11 0 1)
(9.382672e-10 0 1)
(-1.041841e-09 0 1)
(-1.15681e-09 0 1)
(-1.191789e-09 0 1)
(-8.204593e-10 0 1)
(-3.099625e-10 0 1)
(2.560978e-10 0 1)
(6.66996e-10 0 1)
(8.418661e-10 0 1)
(7.593384e-10 0 1)
(4.851519e-10 0 1)
(1.266856e-10 0 1)
(-2.032012e-10 0 1)
(-4.195415e-10 0 1)
(-4.858809e-10 0 1)
(-4.139923e-10 0 1)
(-2.50948e-10 0 1)
(-5.767746e-11 0 1)
(1.110195e-10 0 1)
(2.219712e-10 0 1)
(2.615501e-10 0 1)
(2.448842e-10 0 1)
(1.815066e-10 0 1)
(1.1899e-10 0 1)
(-6.115567e-11 0 1)
(9.456535e-10 0 1)
(-1.25721e-09 0 1)
(-1.398869e-09 0 1)
(-1.400605e-09 0 1)
(-9.295004e-10 0 1)
(-3.034537e-10 0 1)
(3.710004e-10 0 1)
(8.437395e-10 0 1)
(1.022241e-09 0 1)
(8.893838e-10 0 1)
(5.326868e-10 0 1)
(8.840452e-11 0 1)
(-3.047532e-10 0 1)
(-5.467656e-10 0 1)
(-5.999524e-10 0 1)
(-4.869963e-10 0 1)
(-2.717314e-10 0 1)
(-3.233473e-11 0 1)
(1.651692e-10 0 1)
(2.850457e-10 0 1)
(3.16838e-10 0 1)
(2.850389e-10 0 1)
(2.052941e-10 0 1)
(1.314256e-10 0 1)
(-5.606905e-11 0 1)
(9.032313e-10 0 1)
(-1.535078e-09 0 1)
(-1.743133e-09 0 1)
(-1.713193e-09 0 1)
(-1.103324e-09 0 1)
(-3.088389e-10 0 1)
(5.249927e-10 0 1)
(1.091706e-09 0 1)
(1.281791e-09 0 1)
(1.081962e-09 0 1)
(6.097102e-10 0 1)
(4.338751e-11 0 1)
(-4.419969e-10 0 1)
(-7.230494e-10 0 1)
(-7.601891e-10 0 1)
(-5.908404e-10 0 1)
(-3.029961e-10 0 1)
(9.399383e-14 0 1)
(2.368744e-10 0 1)
(3.673777e-10 0 1)
(3.872317e-10 0 1)
(3.339843e-10 0 1)
(2.332056e-10 0 1)
(1.46112e-10 0 1)
(-4.731807e-11 0 1)
(7.625018e-10 0 1)
(-1.952026e-09 0 1)
(-2.272971e-09 0 1)
(-2.208122e-09 0 1)
(-1.402809e-09 0 1)
(-3.464132e-10 0 1)
(7.377406e-10 0 1)
(1.466354e-09 0 1)
(1.684747e-09 0 1)
(1.393239e-09 0 1)
(7.47562e-10 0 1)
(-8.849069e-12 0 1)
(-6.37784e-10 0 1)
(-9.863543e-10 0 1)
(-1.001797e-09 0 1)
(-7.499268e-10 0 1)
(-3.545107e-10 0 1)
(4.490934e-11 0 1)
(3.384441e-10 0 1)
(4.844933e-10 0 1)
(4.85068e-10 0 1)
(3.997799e-10 0 1)
(2.701735e-10 0 1)
(1.655837e-10 0 1)
(-3.314888e-11 0 1)
(4.405238e-10 0 1)
(-2.6443e-09 0 1)
(-3.194288e-09 0 1)
(-3.067917e-09 0 1)
(-1.933061e-09 0 1)
(-4.234132e-10 0 1)
(1.098534e-09 0 1)
(2.101744e-09 0 1)
(2.378e-09 0 1)
(1.926594e-09 0 1)
(9.840819e-10 0 1)
(-9.454282e-11 0 1)
(-9.714466e-10 0 1)
(-1.425799e-09 0 1)
(-1.403203e-09 0 1)
(-1.006766e-09 0 1)
(-4.289155e-10 0 1)
(1.269864e-10 0 1)
(5.123354e-10 0 1)
(6.736305e-10 0 1)
(6.358864e-10 0 1)
(4.926067e-10 0 1)
(3.161871e-10 0 1)
(1.903587e-10 0 1)
(-1.138953e-11 0 1)
(-2.002142e-10 0 1)
(-3.872333e-09 0 1)
(-4.880849e-09 0 0.9999999)
(-4.626906e-09 0 0.9999999)
(-2.887748e-09 0 0.9999999)
(-5.281796e-10 0 0.9999999)
(1.787763e-09 0 0.9999999)
(3.289924e-09 0 0.9999999)
(3.645314e-09 0 0.9999999)
(2.876334e-09 0 0.9999999)
(1.38088e-09 0 0.9999999)
(-2.901969e-10 0 0.9999999)
(-1.600674e-09 0 0.9999999)
(-2.227704e-09 0 0.9999999)
(-2.112538e-09 0 0.9999999)
(-1.435727e-09 0 0.9999999)
(-5.216277e-10 0 0.9999999)
(3.144413e-10 0 0.9999999)
(8.469419e-10 0 0.9999999)
(1.013161e-09 0 0.9999999)
(8.830613e-10 0 0.9999999)
(6.218501e-10 0 0.9999999)
(3.674258e-10 0 0.9999999)
(2.142682e-10 0 0.9999999)
(1.934406e-11 0 0.9999999)
)
;

boundaryField
{
    inlet
    {
        type            fixedValue;
        value           uniform (0 0 1);
    }
    outlet
    {
        type            zeroGradient;
    }
    fixedWalls
    {
        type            slip;
    }
    frontAndBack
    {
        type            empty;
    }
}


// ************************************************************************* //
