/*--------------------------------*- C++ -*----------------------------------*\
| =========                 |                                                 |
| \\      /  F ield         | OpenFOAM: The Open Source CFD Toolbox           |
|  \\    /   O peration     | Version:  2312                                  |
|   \\  /    A nd           | Website:  www.openfoam.com                      |
|    \\/     M anipulation  |                                                 |
\*---------------------------------------------------------------------------*/
FoamFile
{
    version     2.0;
    format      ascii;
    arch        "LSB;label=32;scalar=64";
    class       surfaceScalarField;
    location    "0.065/water";
    object      phi;
}
// * * * * * * * * * * * * * * * * * * * * * * * * * * * * * * * * * * * * * //

dimensions      [0 3 -1 0 0 0 0];

oriented        oriented;

internalField   nonuniform List<scalar> 
2928
(
8.14363658397e-08
2.01429870418e-07
5.29104811772e-08
1.51439014842e-07
3.82366213786e-08
1.4792920182e-07
2.95026354808e-08
1.49308121793e-07
2.36495781831e-08
1.53472975312e-07
1.97164092236e-08
1.58856035666e-07
1.70440996601e-08
1.65250287239e-07
1.51284770493e-08
1.72526198939e-07
1.35468741603e-08
1.8062166555e-07
1.2075928913e-08
1.89356928451e-07
1.06664953815e-08
1.9857843574e-07
9.33276457281e-09
2.08244363523e-07
8.09583988281e-09
2.18370536873e-07
6.9683420252e-09
2.2898914671e-07
5.95167950791e-09
2.40136428927e-07
5.03756247214e-09
2.51848205416e-07
4.21186649583e-09
2.64157853392e-07
3.45820110868e-09
2.77096423913e-07
2.76023478986e-09
2.90694173707e-07
3.04983701102e-07
2.10075050761e-09
1.27541749362e-07
2.44892419742e-07
9.01587081513e-08
1.79034893457e-07
7.08509676403e-08
1.6487440117e-07
5.74214107243e-08
1.62320009826e-07
4.72064965261e-08
1.63625320944e-07
3.94754462637e-08
1.66579191726e-07
3.36003162573e-08
1.71124431937e-07
2.91154873505e-08
1.77010867533e-07
2.57121868549e-08
1.84024956234e-07
2.29643948141e-08
1.92104714394e-07
2.05361125278e-08
2.01006734237e-07
1.82634616869e-08
2.10517014002e-07
1.60960844502e-08
2.20537930599e-07
1.40317449976e-08
2.3105348898e-07
1.20811350734e-08
2.42087056185e-07
1.02515874572e-08
2.53677758962e-07
8.54210906624e-09
2.65867349719e-07
6.94357746374e-09
2.78694964636e-07
5.44019414802e-09
2.92197576003e-07
3.06414065035e-07
4.00984201164e-09
1.27219331401e-07
2.85139445352e-07
9.07553342058e-08
2.05177403011e-07
7.22232767236e-08
1.80933453653e-07
6.01011504697e-08
1.73941592717e-07
5.06702140037e-08
1.72964892237e-07
4.33563308791e-08
1.73877340882e-07
3.79205258165e-08
1.76557373641e-07
3.36109202785e-08
1.8131981749e-07
3.00136463773e-08
1.87622082989e-07
2.69690532598e-08
1.95149277592e-07
2.42659715713e-08
2.03709831889e-07
2.17441939575e-08
2.13038790565e-07
1.93222535799e-08
2.22959887601e-07
1.69698752625e-08
2.33405869049e-07
1.46838552415e-08
2.44373092737e-07
1.24708500997e-08
2.55890769142e-07
1.03377930629e-08
2.68000423674e-07
8.28736683549e-09
2.80745399202e-07
6.31611373234e-09
2.94168847376e-07
3.08316597421e-07
4.41359231729e-09
1.40891200206e-07
3.0793602919e-07
1.00587040679e-07
2.32558712505e-07
7.86341638444e-08
1.99641552769e-07
6.36713272533e-08
1.88207551143e-07
5.19769758411e-08
1.84519854774e-07
4.27631868364e-08
1.83062912923e-07
3.62304102432e-08
1.8308361625e-07
3.17770083263e-08
1.85771331495e-07
2.84005386635e-08
1.90998019466e-07
2.55655594663e-08
1.97984149058e-07
2.30265776131e-08
2.06248822909e-07
2.06510546273e-08
2.15414310182e-07
1.8368208006e-08
2.25242748882e-07
1.61404695252e-08
2.35633608128e-07
1.39501980667e-08
2.46563379698e-07
1.17911687896e-08
2.58049802437e-07
9.66348757748e-09
2.70128121102e-07
7.57004954425e-09
2.82838845183e-07
5.51380123732e-09
2.96225113159e-07
3.10334773396e-07
3.49563620178e-09
1.49819900068e-07
3.19302853853e-07
1.11346584451e-07
2.55675419556e-07
8.61816047562e-08
2.20355649132e-07
6.77143795625e-08
2.05592640074e-07
5.28807071533e-08
1.99112289199e-07
4.10316863759e-08
1.94856998564e-07
3.25809747467e-08
1.91519712324e-07
2.74052097851e-08
1.90942490261e-07
2.41430357851e-08
1.94258872806e-07
2.16288384743e-08
2.00498100957e-07
1.93896330408e-08
2.08488028942e-07
1.72815353185e-08
2.17522404465e-07
1.52524721485e-08
2.27271827589e-07
1.32754358151e-08
2.37610644249e-07
1.13313341859e-08
2.4850749643e-07
9.40530381944e-09
2.59975836196e-07
7.48775726663e-09
2.72045683085e-07
5.57499763706e-09
2.84751611802e-07
3.66852635499e-09
2.9813160142e-07
3.12230014114e-07
1.77329543148e-09
1.59519326656e-07
3.19170903941e-07
1.27672993893e-07
2.70545366799e-07
1.01435166121e-07
2.40952023197e-07
7.95884063725e-08
2.25838773004e-07
6.02839804448e-08
2.18001662869e-07
4.38621046306e-08
2.11169897e-07
3.15881654871e-08
2.03760987918e-07
2.41313564547e-08
1.98388612724e-07
2.01384760546e-08
1.98248862749e-07
1.75646504932e-08
2.03071436577e-07
1.54263425983e-08
2.10626311623e-07
1.34594015681e-08
2.19489338101e-07
1.15899735206e-08
2.2914126833e-07
9.79348838484e-09
2.39407127778e-07
8.05340090657e-09
2.50247597635e-07
6.35116622051e-09
2.61678073119e-07
4.66966281739e-09
2.73727201048e-07
2.9967584254e-09
2.86424522623e-07
1.32719631018e-09
2.99801179294e-07
3.13893577681e-07
-3.36357804785e-10
1.62624002388e-07
3.15493523843e-07
1.38299669949e-07
2.77779931927e-07
1.15695538058e-07
2.57336721236e-07
9.30685409405e-08
2.46452594308e-07
7.0771520178e-08
2.39692316237e-07
5.02593527648e-08
2.31495658039e-07
3.37707543568e-08
2.20185148718e-07
2.30096495666e-08
2.09126927169e-07
1.72911339315e-08
2.03961261788e-07
1.41376256184e-08
2.06223932967e-07
1.18427611609e-08
2.12921085273e-07
9.86260969061e-09
2.21469475448e-07
8.03858517622e-09
2.30965306297e-07
6.32771222763e-09
2.41117998319e-07
4.71331292591e-09
2.51862010267e-07
3.17714122607e-09
2.63214246401e-07
1.69818634599e-09
2.75206169477e-07
2.57357026643e-10
2.87865357074e-07
-1.15767295048e-09
3.01216224144e-07
3.15287492617e-07
-2.55158021206e-09
1.62052435937e-07
3.12581808587e-07
1.42215369463e-07
2.81430369716e-07
1.23021888164e-07
2.70420919969e-07
1.00608570579e-07
2.66722835188e-07
7.71381536897e-08
2.62440333886e-07
5.50178238233e-08
2.53360771783e-07
3.62636127401e-08
2.38836988559e-07
2.27297346791e-08
2.22619761647e-07
1.47939900975e-08
2.11884779386e-07
1.07064092351e-08
2.10309197282e-07
8.22596438471e-09
2.15401205548e-07
6.29651493984e-09
2.2339887375e-07
4.58170305987e-09
2.32680126659e-07
2.99490598386e-09
2.42704791559e-07
1.5198738665e-09
2.53337054094e-07
1.4695968419e-10
2.6458716087e-07
-1.13717066782e-09
2.76490312235e-07
-2.35038170588e-09
2.89078572515e-07
-3.51014828857e-09
3.02376003984e-07
3.16404464295e-07
-4.62711287672e-09
1.62626256475e-07
3.08638266311e-07
1.45250895931e-07
2.83044252402e-07
1.26717912564e-07
2.82868101145e-07
1.04167366505e-07
2.87050076147e-07
7.93102889558e-08
2.86499414119e-07
5.71714292095e-08
2.75192814879e-07
3.85802767929e-08
2.57290998797e-07
2.34907214137e-08
2.37646737617e-07
1.30425097358e-08
2.22310590206e-07
7.33849189023e-09
2.16007636825e-07
4.47329429019e-09
2.18265286049e-07
2.70808624984e-09
2.25163889022e-07
1.26702421393e-09
2.34121188595e-07
-6.42130482696e-11
2.4403602439e-07
-1.30856981069e-09
2.5458142228e-07
-2.46557046044e-09
2.65744161261e-07
-3.53501429949e-09
2.77559767456e-07
-4.52168846221e-09
2.90065249724e-07
-5.43589510541e-09
3.03290222925e-07
3.17256661974e-07
-6.28808766601e-09
1.59688777085e-07
3.07631435623e-07
1.42800387452e-07
2.84499135813e-07
1.25395621355e-07
2.94120769046e-07
1.03756869409e-07
3.06381649019e-07
8.00368904248e-08
3.09359536941e-07
5.88443057723e-08
2.96037277579e-07
4.19431324971e-08
2.74025446463e-07
2.6733253558e-08
2.52771272771e-07
1.39168365369e-08
2.35089196424e-07
5.54918026416e-09
2.24362133773e-07
1.44225889216e-09
2.22368453766e-07
-3.67240499969e-10
2.2697261836e-07
-1.47402532259e-09
2.35227921803e-07
-2.47215095788e-09
2.45034143565e-07
-3.42940071652e-09
2.55538681607e-07
-4.3377345858e-09
2.66652493637e-07
-5.18388630434e-09
2.78405929384e-07
-5.95731688842e-09
2.90838682749e-07
-6.65454698068e-09
3.03987463657e-07
3.1788058175e-07
-7.27846203395e-09
1.58314842468e-07
3.09827465642e-07
1.39388520975e-07
2.88580711612e-07
1.22959981697e-07
3.04597010513e-07
1.03679069219e-07
3.23367887654e-07
8.36151115925e-08
3.28532301908e-07
6.55229051816e-08
3.13746837181e-07
5.02127108702e-08
2.8914101375e-07
3.5234648396e-08
2.67640141355e-07
2.02655616019e-08
2.49999613379e-07
7.98583254123e-09
2.36613710709e-07
7.44189933562e-10
2.29598717078e-07
-2.10449553828e-09
2.29818350852e-07
-3.11114604794e-09
2.36234305024e-07
-3.86095841087e-09
2.4578394494e-07
-4.5838692069e-09
2.56261601408e-07
-5.27859923004e-09
2.67347221624e-07
-5.93021820757e-09
2.79057557345e-07
-6.52242774615e-09
2.91430893329e-07
-7.0427936289e-09
3.04507839094e-07
3.18323860665e-07
-7.48606987129e-09
1.56543545808e-07
3.12586986622e-07
1.34629422483e-07
2.95516360859e-07
1.18729482134e-07
3.14718421565e-07
1.03477048209e-07
3.36397347281e-07
8.88537313249e-08
3.42269850917e-07
7.52719178613e-08
3.26932676634e-07
6.19288565757e-08
3.02272626888e-07
4.74274151915e-08
2.82013521203e-07
3.10265066227e-08
2.66319710948e-07
1.47992704153e-08
2.52789720777e-07
2.89186255371e-09
2.41477598454e-07
-2.35222024403e-09
2.35052746229e-07
-3.67652038208e-09
2.37557498006e-07
-4.33047672871e-09
2.46437869471e-07
-4.91870550544e-09
2.56849837049e-07
-5.46311992406e-09
2.67891632651e-07
-5.95743849308e-09
2.79551883486e-07
-6.39149456159e-09
2.91864949734e-07
-6.75540858412e-09
3.04871760827e-07
3.18611933429e-07
-7.04347917714e-09
1.52554004883e-07
3.19440881692e-07
1.28411958029e-07
3.05123248762e-07
1.12254558852e-07
3.25410153756e-07
1.00259311976e-07
3.46313892584e-07
9.02348876726e-08
3.51451552645e-07
8.08722460142e-08
3.35905492276e-07
7.01170764029e-08
3.12812072261e-07
5.66845877958e-08
2.95306917922e-07
3.98926002232e-08
2.83010972358e-07
2.14331325121e-08
2.71169569727e-07
5.97747287686e-09
2.56876877008e-07
-1.79059801274e-09
2.42796960062e-07
-3.78181484775e-09
2.39545413447e-07
-4.48848769718e-09
2.47144445676e-07
-5.01492766408e-09
2.57376282846e-07
-5.4380139488e-09
2.6831471495e-07
-5.77191636795e-09
2.79885792216e-07
-6.02467260363e-09
2.92117704963e-07
-6.20160096541e-09
3.05048695814e-07
3.18718259155e-07
-6.30792649774e-09
1.50527593064e-07
3.27792732204e-07
1.25002365515e-07
3.16100222789e-07
1.07702076862e-07
3.37321160775e-07
9.64616894149e-08
3.55569679774e-07
8.9308669397e-08
3.57808114087e-07
8.29193425046e-08
3.41921825768e-07
7.36747646349e-08
3.21845208757e-07
6.03735165248e-08
3.0846411771e-07
4.2804783961e-08
3.00461010729e-07
2.3470209578e-08
2.9039501646e-07
7.17433980615e-09
2.73084900778e-07
-1.69825318713e-09
2.51627931621e-07
-4.51858444791e-09
2.42359064577e-07
-5.34496388082e-09
2.47970581288e-07
-5.75426531372e-09
2.57785586607e-07
-5.9629547751e-09
2.68523399255e-07
-6.02678201753e-09
2.79949624522e-07
-5.98541009959e-09
2.92076331563e-07
-5.86963595561e-09
3.04932926634e-07
3.18552353649e-07
-5.7037304773e-09
1.48666284854e-07
3.3765418005e-07
1.21097636653e-07
3.28867088727e-07
1.03010956951e-07
3.49944551694e-07
9.19319084741e-08
3.64676129036e-07
8.67523915283e-08
3.62216762412e-07
8.19960691521e-08
3.46321918808e-07
7.28262593887e-08
3.30809809609e-07
5.81483806157e-08
3.2299152661e-07
3.91664975587e-08
3.19303191124e-07
1.99452330784e-08
3.09477858571e-07
4.98726677578e-09
2.87929078016e-07
-3.90888768806e-09
2.60468858571e-07
-7.552489265e-09
2.45992181774e-07
-8.20825795459e-09
2.48625755816e-07
-8.07619862497e-09
2.57653520059e-07
-7.71092510386e-09
2.68158120086e-07
-7.21372948495e-09
2.79452432723e-07
-6.64721715285e-09
2.91509816524e-07
-6.05952381404e-09
3.04345237198e-07
3.17979629628e-07
-5.48680166747e-09
1.45980680212e-07
3.50301257873e-07
1.16729286851e-07
3.43256637327e-07
9.98996305058e-08
3.61215907971e-07
9.06484485454e-08
3.71899579968e-07
8.62143559237e-08
3.6586827538e-07
8.09498470818e-08
3.51232251651e-07
7.04969410082e-08
3.41053465336e-07
5.3395877035e-08
3.39926219983e-07
3.33022004361e-08
3.39230234111e-07
1.5714967889e-08
3.2689847338e-07
2.8644994647e-09
3.00647268313e-07
-6.89318413422e-09
2.7015975421e-07
-1.24380817262e-08
2.51520227938e-07
-1.30313765525e-08
2.49217189761e-07
-1.1847954083e-08
2.56470024912e-07
-1.04683152454e-08
2.66778473596e-07
-9.09367638365e-09
2.78077796162e-07
-7.78512011328e-09
2.90201256907e-07
-6.5852317021e-09
3.03145350914e-07
3.16916740065e-07
-5.52234439113e-09
1.42559773203e-07
3.66541597357e-07
1.14008635003e-07
3.56177920989e-07
1.00870845765e-07
3.68394943654e-07
9.50114984473e-08
3.75547382998e-07
9.0992133214e-08
3.69029469921e-07
8.39339254424e-08
3.57904556201e-07
7.0451603897e-08
3.54306156441e-07
5.1819873678e-08
3.58360962431e-07
3.35710245385e-08
3.57278320688e-07
2.00192693272e-08
3.40257350545e-07
8.96962159941e-09
3.11547959296e-07
-3.64153231099e-09
2.8268527416e-07
-1.43808228546e-08
2.62225875008e-07
-1.71405198909e-08
2.51969450297e-07
-1.50807997945e-08
2.54409783644e-07
-1.2618112305e-08
2.64315770608e-07
-1.03742605306e-08
2.75833944643e-07
-8.38934624224e-09
2.88216337843e-07
-6.677931691e-09
3.01433937291e-07
3.15480813015e-07
-5.24200864734e-09
1.48973703701e-07
3.77131245704e-07
1.24727986843e-07
3.64040263426e-07
1.12708236865e-07
3.74070422072e-07
1.066007137e-07
3.79236868241e-07
1.00240068451e-07
3.74432334841e-07
8.94763699923e-08
3.68235032184e-07
7.34201747449e-08
3.70094625624e-07
5.73414134846e-08
3.74206727759e-07
4.56321550687e-08
3.68758932658e-07
3.75854273313e-08
3.4809459967e-07
2.77927780432e-08
3.211746207e-07
1.18633995922e-08
2.98495136449e-07
-6.44270073934e-09
2.80456197649e-07
-1.56853800209e-08
2.61183350046e-07
-1.44799594243e-08
2.53201264208e-07
-1.1630788016e-08
2.61466534085e-07
-9.14022696108e-09
2.73343378844e-07
-7.03997449744e-09
2.86116079258e-07
-5.30580474971e-09
2.9969976672e-07
3.14085203878e-07
-3.9101998158e-09
1.61447001299e-07
3.74502577043e-07
1.42060745851e-07
3.65655716113e-07
1.31459524605e-07
3.77483776004e-07
1.22065180874e-07
3.85829367406e-07
1.10659301738e-07
3.84735553714e-07
9.65973930634e-08
3.8179566594e-07
8.27115085182e-08
3.83667511062e-07
7.24133442421e-08
3.8424272657e-07
6.61723753721e-08
3.74758502613e-07
6.10444080881e-08
3.53008547909e-07
5.17705883014e-08
3.30267632762e-07
3.48350830633e-08
3.15266078947e-07
1.27364324906e-08
3.02408648323e-07
-3.89041969471e-09
2.77728291797e-07
-6.84193083243e-09
2.56139454837e-07
-5.374512354e-09
2.59998757504e-07
-3.96127128619e-09
2.71930114043e-07
-2.79531890767e-09
2.84950114673e-07
-1.86107732921e-09
2.98765522078e-07
3.13365851332e-07
-1.14173088481e-09
1.62502057719e-07
3.70290884862e-07
1.45909501866e-07
3.64376860302e-07
1.38933679697e-07
3.77177688174e-07
1.30514438393e-07
3.91349108958e-07
1.1825096978e-07
3.95842866872e-07
1.05938487086e-07
3.93578655467e-07
9.64484269974e-08
3.9282842638e-07
8.97682561923e-08
3.9065432762e-07
8.5130116338e-08
3.79153270018e-07
8.00143027327e-08
3.57910567354e-07
7.0328998948e-08
3.39760892413e-07
5.41805547844e-08
3.31210602714e-07
3.35855217085e-08
3.22791388521e-07
1.54481106567e-08
2.9571487415e-07
7.17453365808e-09
2.64376488167e-07
5.37290613755e-09
2.61798749437e-07
4.3948961801e-09
2.72908030801e-07
3.65040359332e-09
2.85694572773e-07
3.06391801681e-09
2.99351996396e-07
3.13848608884e-07
2.58115208941e-09
1.61346165637e-07
3.68239989676e-07
1.4536951507e-07
3.62690161538e-07
1.37367456644e-07
3.78017362519e-07
1.30417907138e-07
3.95456431897e-07
1.21146969179e-07
4.03955924558e-07
1.12289782017e-07
4.01894154971e-07
1.0509161035e-07
3.99689247502e-07
9.95966799685e-08
3.95875406416e-07
9.54243729423e-08
3.83083151814e-07
8.93563036302e-08
3.63770584289e-07
7.83982768827e-08
3.50523451927e-07
6.342562478e-08
3.4595740415e-07
4.55722243604e-08
3.40393617934e-07
3.08015862637e-08
3.1029083e-07
2.07500464004e-08
2.74365779373e-07
1.58210508284e-08
2.66723225797e-07
1.24005816535e-08
2.76328200883e-07
9.70659312869e-09
2.8838845617e-07
7.57783245983e-09
3.01480718814e-07
3.15535955721e-07
5.89046736621e-09
1.58615838823e-07
3.68737612168e-07
1.4244023782e-07
3.61683394057e-07
1.32521503681e-07
3.81000528147e-07
1.24930368995e-07
4.00360280977e-07
1.1788481763e-07
4.09913894834e-07
1.1137506029e-07
4.07890528721e-07
1.06119114385e-07
4.04619029261e-07
1.02756104646e-07
3.98972857738e-07
9.93511758127e-08
3.86258085968e-07
9.0518605631e-08
3.72409037201e-07
7.76699169784e-08
3.63177416839e-07
6.36141524625e-08
3.59779790675e-07
4.7713344896e-08
3.5602631565e-07
3.57629870592e-08
3.22029644019e-07
2.72289894627e-08
2.82824965875e-07
2.1061532791e-08
2.72883244077e-07
1.63628526275e-08
2.81026132818e-07
1.26227193754e-08
2.92128305513e-07
9.65753742661e-09
3.04445784909e-07
3.17873561221e-07
7.31988462114e-09
1.53768695762e-07
3.75276824538e-07
1.35100702731e-07
3.64314328469e-07
1.2353506744e-07
3.86286050073e-07
1.15496053351e-07
4.06007615591e-07
1.09990075185e-07
4.14444710493e-07
1.06140339843e-07
4.11263272588e-07
1.04072689055e-07
4.06374575206e-07
1.03123173667e-07
3.99670542027e-07
9.97665816537e-08
3.89403260299e-07
8.74247301913e-08
3.84563878649e-07
7.24864823323e-08
3.77916357869e-07
5.8737022547e-08
3.73295373464e-07
4.27081578422e-08
3.71779315084e-07
3.21274777302e-08
3.32392782206e-07
2.54482858688e-08
2.89427309556e-07
1.96745393358e-08
2.78647775378e-07
1.50042891518e-08
2.85694859923e-07
1.13149052195e-08
2.95817028939e-07
8.430742032e-09
3.0732965098e-07
3.20106239333e-07
6.19793698596e-09
1.51715448541e-07
3.83395469015e-07
1.30306332829e-07
3.70181809973e-07
1.17166194109e-07
3.93599509534e-07
1.0845572895e-07
4.12590052171e-07
1.03828757741e-07
4.18215152018e-07
1.02019599663e-07
4.12642230471e-07
1.02187687646e-07
4.05919230706e-07
1.02243079285e-07
3.99385672339e-07
9.61214820325e-08
3.95333986447e-07
8.2760066654e-08
3.97725978922e-07
6.61214840964e-08
3.94358408351e-07
5.0705976871e-08
3.88490705929e-07
3.20631413065e-08
3.90137378539e-07
2.23158207397e-08
3.41918166768e-07
1.74702046614e-08
2.94197475773e-07
1.28170724985e-08
2.83290538812e-07
9.08807116381e-09
2.89421125334e-07
6.30844625995e-09
2.98595309307e-07
4.27552251112e-09
3.09361911135e-07
3.21566355588e-07
2.81509654171e-09
1.51972566233e-07
3.90994555174e-07
1.29779595078e-07
3.76629414114e-07
1.17282915199e-07
4.00314944235e-07
1.08970775394e-07
4.18848975443e-07
1.04257999231e-07
4.22125545763e-07
1.0226692382e-07
4.14234052473e-07
1.02133821571e-07
4.05787964534e-07
1.01725916106e-07
3.99585172611e-07
9.37679452505e-08
4.03101326758e-07
8.15904275691e-08
4.09719000373e-07
6.48057734017e-08
4.10942292125e-07
4.25456938153e-08
4.10514346088e-07
1.71448782294e-08
4.15241430193e-07
7.76380118317e-09
3.51074577708e-07
4.83112022504e-09
2.97060017176e-07
1.97201785365e-09
2.8613756518e-07
4.01243783532e-11
2.91348395034e-07
-1.08333004412e-09
2.99716271193e-07
-1.64824165387e-09
3.09925479241e-07
3.21756960288e-07
-1.83953994438e-09
1.55456051775e-07
3.94695839627e-07
1.3486118455e-07
3.80887125547e-07
1.24927042285e-07
4.04150138948e-07
1.18814812319e-07
4.22767902837e-07
1.1456066364e-07
4.25530702756e-07
1.11698259197e-07
4.1668533655e-07
1.0998947419e-07
4.07233639289e-07
1.08378203607e-07
4.00996077868e-07
1.02519474409e-07
4.08774565539e-07
9.32367631362e-08
4.18796773355e-07
7.82079505012e-08
4.25757054195e-07
3.68008698907e-08
4.51684004043e-07
1.64392253253e-09
4.50070294257e-07
-7.9791681116e-09
3.60463423924e-07
-9.64106118199e-09
2.98651227094e-07
-1.0155708489e-08
2.86635833989e-07
-9.64054770718e-09
2.90825533194e-07
-8.63467558916e-09
2.98705990593e-07
-7.4256118939e-09
3.08713846102e-07
3.2049971837e-07
-6.16982060767e-09
1.5940497066e-07
3.94224225494e-07
1.41470539232e-07
3.81902345387e-07
1.35244972722e-07
4.03825817414e-07
1.3301202592e-07
4.22542354598e-07
1.31228312852e-07
4.26344245192e-07
1.29339515918e-07
4.18114240113e-07
1.27861819044e-07
4.08427509503e-07
1.26704566924e-07
4.01943087871e-07
1.24869208647e-07
4.10403146569e-07
1.20092369393e-07
4.23373711797e-07
9.85988513308e-08
4.47038383565e-07
3.89470341967e-08
5.10962671731e-07
-3.1741846939e-09
4.91790428149e-07
-1.69740101632e-08
3.73997914777e-07
-1.95119629034e-08
3.01103554304e-07
-1.81224616866e-08
2.85219845815e-07
-1.55748229019e-08
2.88264771898e-07
-1.28806984418e-08
2.96004157521e-07
-1.03503849229e-08
3.06178791835e-07
3.18237431899e-07
-8.09097391422e-09
1.61374703388e-07
3.91885976432e-07
1.46178118334e-07
3.80263865842e-07
1.43459799131e-07
3.99886885229e-07
1.45167604315e-07
4.18217946625e-07
1.46392705831e-07
4.24033185739e-07
1.4597529127e-07
4.18008085929e-07
1.45079401087e-07
4.09004798253e-07
1.43985253117e-07
4.02803290496e-07
1.4389317319e-07
4.10288639005e-07
1.35170086894e-07
4.31885356383e-07
9.12676016085e-08
4.90621630373e-07
5.28945580565e-08
5.4886470655e-07
1.7895929052e-08
5.2632423817e-07
-6.5187502779e-09
3.98091987464e-07
-1.46812863228e-08
3.09137191888e-07
-1.4657230205e-08
2.85150159762e-07
-1.26686841875e-08
2.86253561147e-07
-1.02540800123e-08
2.93576266284e-07
-7.90381760152e-09
3.0382014953e-07
3.16137344131e-07
-5.80908496528e-09
1.65488523677e-07
3.84914632855e-07
1.53315214426e-07
3.75087303419e-07
1.52392519664e-07
3.93761679722e-07
1.55484810085e-07
4.12305440456e-07
1.57443798565e-07
4.20878092331e-07
1.5672606313e-07
4.1814430097e-07
1.54498117603e-07
4.10885661691e-07
1.50341883401e-07
4.06710971444e-07
1.43430412195e-07
4.16979353152e-07
1.18218034568e-07
4.56824222949e-07
7.646933786e-08
5.31922370936e-07
6.45842084001e-08
5.60293885555e-07
4.74301065029e-08
5.42995482212e-07
1.80303550277e-08
4.27085941651e-07
4.31717179284e-09
3.22652542372e-07
3.99376773884e-10
2.88993396393e-07
-5.72679926882e-10
2.8718788426e-07
-4.51312887164e-10
2.93432909773e-07
1.48251127439e-10
3.03206680677e-07
3.15411287888e-07
8.65129546545e-10
1.67454338512e-07
3.75806856412e-07
1.5722904461e-07
3.6739147615e-07
1.57636884923e-07
3.85971970497e-07
1.60430181703e-07
4.06496005536e-07
1.60781547274e-07
4.19238618593e-07
1.57971951778e-07
4.20320807794e-07
1.53302179932e-07
4.15169858034e-07
1.46077440851e-07
4.13643859895e-07
1.3231670302e-07
4.30456126795e-07
1.01199244705e-07
4.8756318584e-07
8.50942736211e-08
5.47592748085e-07
7.60988168022e-08
5.6882341922e-07
6.51048953712e-08
5.53491849277e-07
4.0703311606e-08
4.51047150504e-07
2.60809147265e-08
3.37021000667e-07
1.93546587324e-08
2.95615610566e-07
1.56597897511e-08
2.90827846528e-07
1.3169225353e-08
2.95890426512e-07
1.15267620453e-08
3.04828100328e-07
3.16547275914e-07
1.03766072109e-08
1.67564968777e-07
3.66641915444e-07
1.57924131685e-07
3.58868323207e-07
1.57655265609e-07
3.78709516306e-07
1.58335159505e-07
4.02716726295e-07
1.5564745672e-07
4.20593960683e-07
1.4952990252e-07
4.25779168891e-07
1.4221113386e-07
4.22079035523e-07
1.34077270085e-07
4.21455795588e-07
1.22613510339e-07
4.41594314567e-07
1.04876464474e-07
5.04898660808e-07
9.40523480773e-08
5.5795065107e-07
8.56138508195e-08
5.76782410156e-07
7.5147133345e-08
5.63466156528e-07
5.63010953982e-08
4.69413985576e-07
4.31491257772e-08
3.49875647701e-07
3.56988551e-08
3.02937375767e-07
3.08194749195e-08
2.9563806471e-07
2.67299745033e-08
2.99936027419e-07
2.33871207922e-08
3.0814229734e-07
3.19268520794e-07
2.0646264528e-08
1.66115605777e-07
3.59346589975e-07
1.55391408324e-07
3.51531492275e-07
1.53646086025e-07
3.72921096075e-07
1.52341325087e-07
4.00913384804e-07
1.47647662947e-07
4.23943188024e-07
1.39666023407e-07
4.33087432869e-07
1.31829191105e-07
4.29489550229e-07
1.25372870408e-07
4.27572348633e-07
1.18159861984e-07
4.48465197163e-07
1.07458483826e-07
5.15172799103e-07
9.88006760922e-08
5.66155045694e-07
9.12414278121e-08
5.83861732615e-07
8.17790803402e-08
5.72415149251e-07
6.67474754441e-08
4.83963433469e-07
5.5078514195e-08
3.61225698775e-07
4.78645297643e-08
3.10006576691e-07
4.28328477804e-08
3.00591402877e-07
3.82268581626e-08
3.04489837387e-07
3.40152051997e-08
3.12318603449e-07
3.22989433016e-07
3.02696349688e-08
1.62081743506e-07
3.5659517266e-07
1.49062210962e-07
3.47367627065e-07
1.45644543169e-07
3.69312908155e-07
1.42888409123e-07
4.00767669059e-07
1.37377184539e-07
4.28174612676e-07
1.29870274259e-07
4.3993283054e-07
1.2368610742e-07
4.35242828794e-07
1.19235020488e-07
4.31675972675e-07
1.13912898172e-07
4.53436530658e-07
1.05290752633e-07
5.23376646207e-07
9.93451744098e-08
5.71627034774e-07
9.38316091711e-08
5.88885831972e-07
8.66480705648e-08
5.79095804889e-07
7.44690417864e-08
4.95638946844e-07
6.38355428956e-08
3.71518378119e-07
5.7007299132e-08
3.16676053078e-07
5.21900529327e-08
3.05323685695e-07
4.76289107545e-08
3.08992888051e-07
4.31272276304e-08
3.16779529385e-07
3.27226308389e-07
3.88613995698e-08
1.619473985e-07
3.53768724468e-07
1.46964724296e-07
3.45178851364e-07
1.40224627845e-07
3.69185398342e-07
1.33444572961e-07
4.04790126899e-07
1.25383342019e-07
4.35025870632e-07
1.18633212954e-07
4.46043843702e-07
1.14778257875e-07
4.38669063035e-07
1.12040769732e-07
4.34060755472e-07
1.07873836243e-07
4.57243863473e-07
1.01207470679e-07
5.29601393471e-07
9.8535896684e-08
5.73837209768e-07
9.59829900872e-08
5.90950620307e-07
9.17034147382e-08
5.82853952672e-07
8.17824620025e-08
5.05059759856e-07
7.14705003257e-08
3.81477443951e-07
6.47855152804e-08
3.23190595235e-07
6.0218873139e-08
3.09800204387e-07
5.58587140332e-08
3.13290575119e-07
5.13025425851e-08
3.21290474075e-07
3.31750112923e-07
4.67460730247e-08
1.62173196073e-07
3.50362974817e-07
1.44979951684e-07
3.44968761846e-07
1.33932319359e-07
3.73327229533e-07
1.20993683671e-07
4.15038026461e-07
1.0908932929e-07
4.45783024601e-07
1.03350090186e-07
4.51174470544e-07
1.02368921045e-07
4.3923003341e-07
1.01889844153e-07
4.3418380875e-07
9.9802450118e-08
4.58962054183e-07
9.70838510203e-08
5.31882375263e-07
9.81680991427e-08
5.72273531043e-07
9.9277653294e-08
5.89344193905e-07
9.87355147068e-08
5.82884709902e-07
9.05686818286e-08
5.12707013444e-07
7.98172782434e-08
3.91854429329e-07
7.27852533976e-08
3.30036685236e-07
6.82653102874e-08
3.14224246282e-07
6.40264312847e-08
3.17463069438e-07
5.93987766982e-08
3.25868781962e-07
3.36569020475e-07
5.45436410821e-08
1.61096621481e-07
3.48080541182e-07
1.40409498963e-07
3.48246748992e-07
1.23973281937e-07
3.82893838484e-07
1.04146445431e-07
4.32246568421e-07
8.87808532154e-08
4.60069733712e-07
8.4554988767e-08
4.5482830378e-07
8.6572055641e-08
4.36804785372e-07
8.92343667088e-08
4.3116302107e-07
9.08883139997e-08
4.56929959367e-07
9.34153242233e-08
5.2889961724e-07
9.87851599641e-08
5.66434941283e-07
1.04119153971e-07
5.83515040073e-07
1.07669761595e-07
5.78806293792e-07
1.01662800504e-07
5.18195167514e-07
9.03721052398e-08
4.02752387038e-07
8.24854907073e-08
3.37718478086e-07
7.7550808536e-08
3.19056015691e-07
7.31367651058e-08
3.21806978913e-07
6.82200200972e-08
3.30732149329e-07
3.41878539255e-07
6.28705112227e-08
1.57587180443e-07
3.50308331123e-07
1.31875997563e-07
3.56991808431e-07
1.09935048866e-07
3.98166796327e-07
8.5280196556e-08
4.54387151763e-07
6.92625535423e-08
4.75074740333e-07
6.69901755886e-08
4.56559313375e-07
7.14703664615e-08
4.31926601856e-07
7.72727684783e-08
4.25002856534e-07
8.31998725407e-08
4.50621993774e-07
9.0934408314e-08
5.20716658458e-07
1.00328155168e-07
5.56558793019e-07
1.09630627202e-07
5.73710590525e-07
1.1713496756e-07
5.70784306317e-07
1.14492735445e-07
5.20297735641e-07
1.03884798585e-07
4.12936896428e-07
9.50444863347e-08
3.46326510629e-07
8.90268724836e-08
3.24960111037e-07
8.38900539422e-08
3.26869446115e-07
7.82781953619e-08
3.36286561499e-07
3.48009877953e-07
7.21027408035e-08
1.49266708965e-07
1.17537321806e-07
9.17710418515e-08
6.83731399688e-08
5.61989675699e-08
5.62515384801e-08
6.22536355677e-08
6.99176156505e-08
7.8993881338e-08
9.10619280262e-08
1.03483127136e-07
1.15371289448e-07
1.25306143191e-07
1.27053902939e-07
1.19379603981e-07
1.10328215077e-07
1.02776269935e-07
9.62666085455e-08
8.94677405362e-08
8.21085338655e-08
1.48520380007e-09
3.04939775848e-07
9.15214953289e-10
2.90566189228e-07
3.71406105557e-10
2.76886585152e-07
-1.61574010783e-10
2.63865134692e-07
-6.97256483754e-10
2.51469794292e-07
-1.24771325338e-09
2.39670222939e-07
-1.82380409411e-09
2.28437766805e-07
-2.43500219635e-09
2.17744812622e-07
-3.08861788548e-09
2.07564278413e-07
-3.78907444017e-09
1.97869462103e-07
-4.53723889412e-09
1.88634178489e-07
-5.33064656452e-09
1.79833474374e-07
-6.16528328965e-09
1.71445246783e-07
-7.04034346904e-09
1.63453075051e-07
-7.96677928843e-09
1.55850050479e-07
-8.97411563005e-09
1.48636922506e-07
-1.00737964159e-08
1.41778654748e-07
-1.09746381952e-08
1.34956449203e-07
-9.95029378437e-09
1.26719734985e-07
1.11779389478e-07
2.68686741988e-09
3.06262772264e-07
1.48791657398e-09
2.91765154859e-07
3.6938941685e-10
2.78005137604e-07
-7.01460393422e-10
2.64936002215e-07
-1.74901924229e-09
2.52517380673e-07
-2.79179297208e-09
2.40713016071e-07
-3.84310240847e-09
2.29489104791e-07
-4.91118021682e-09
2.18812910865e-07
-5.99960766474e-09
2.08652734093e-07
-7.10853201617e-09
1.98978407355e-07
-8.23694545792e-09
1.89762618958e-07
-9.3866008138e-09
1.80983151523e-07
-1.05673190946e-08
1.72625991952e-07
-1.18030679764e-08
1.64688846701e-07
-1.31340357307e-08
1.57181045636e-07
-1.45884805472e-08
1.50091390668e-07
-1.59774191319e-08
1.4316761569e-07
-1.62142186382e-08
1.35193270853e-07
-1.22590279645e-08
1.22764567341e-07
9.95203621759e-08
2.64676965769e-09
3.08029615917e-07
1.05557992087e-09
2.93356358925e-07
-4.07649363216e-10
2.79468391469e-07
-1.77892322433e-09
2.6630729302e-07
-3.0847187951e-09
2.53823202722e-07
-4.34391633717e-09
2.41972231693e-07
-5.56832735297e-09
2.30713542544e-07
-6.76435443132e-09
2.20008956384e-07
-7.93472628757e-09
2.09823131605e-07
-9.08086674381e-09
2.00124566062e-07
-1.02054164344e-08
1.90887192639e-07
-1.13144362983e-08
1.82092190049e-07
-1.24178302688e-08
1.7372940921e-07
-1.35255247565e-08
1.65796560669e-07
-1.46297037639e-08
1.58285248093e-07
-1.56250296084e-08
1.51086736615e-07
-1.60078849875e-08
1.43550490221e-07
-1.43098667307e-08
1.3349527175e-07