/*--------------------------------*- C++ -*----------------------------------*\
| =========                 |                                                 |
| \\      /  F ield         | OpenFOAM: The Open Source CFD Toolbox           |
|  \\    /   O peration     | Version:  2312                                  |
|   \\  /    A nd           | Website:  www.openfoam.com                      |
|    \\/     M anipulation  |                                                 |
\*---------------------------------------------------------------------------*/
FoamFile
{
    version     2.0;
    format      ascii;
    arch        "LSB;label=32;scalar=64";
    class       volVectorField;
    location    "0.18/water";
    object      U.gas;
}
// * * * * * * * * * * * * * * * * * * * * * * * * * * * * * * * * * * * * * //

dimensions      [0 1 -1 0 0 0 0];

internalField   nonuniform List<vector> 
1496
(
(0.0461865180559 0.921502712251 0)
(0.0836427669884 1.49225729163 0)
(0.0710625163897 1.57079157642 0)
(0.070910176859 1.56308575588 0)
(0.0815470923858 1.54388540423 0)
(0.0964626820756 1.4972765828 0)
(0.113396689542 1.43061416325 0)
(0.131699273579 1.32413027095 0)
(0.15152901191 1.2106412791 0)
(0.176851922942 1.11408059965 0)
(0.212412205904 1.04576549602 0)
(0.244914930713 0.999160450869 0)
(0.221827154871 0.96035247449 0)
(0.151886786126 0.927147454929 0)
(0.108789777058 0.908134220574 0)
(0.105569747822 0.870770053201 0)
(0.120362897132 0.82191911453 0)
(0.1390390729 0.773492797292 0)
(0.149214127419 0.728434764243 0)
(0.144753516824 0.68521475343 0)
(0.0361806972296 0.922776519533 0)
(0.0716548376186 1.53709260705 0)
(0.0698208192558 1.58026978816 0)
(0.0719254986663 1.52900602631 0)
(0.0814344064654 1.48973847863 0)
(0.0956888387477 1.44787859709 0)
(0.113603455713 1.38982294217 0)
(0.134324240912 1.30205934911 0)
(0.158155817977 1.2090681637 0)
(0.189197550026 1.13071502479 0)
(0.22798167047 1.07418034849 0)
(0.242672832345 1.03296844965 0)
(0.196077299379 0.992176483193 0)
(0.132905982736 0.962373447371 0)
(0.109999499371 0.930661745636 0)
(0.118487959674 0.88481110794 0)
(0.137393911106 0.836604864856 0)
(0.152093975283 0.790717057178 0)
(0.152931549905 0.745005511945 0)
(0.139702652037 0.700471022955 0)
(0.0314843073189 1.01413525926 0)
(0.0658251609333 1.55667621611 0)
(0.0683589955435 1.57578538874 0)
(0.0717989326762 1.50669178461 0)
(0.0818206606995 1.45415211496 0)
(0.0970469260467 1.41364562762 0)
(0.116843865611 1.36186765869 0)
(0.140294535733 1.29157461381 0)
(0.169319264281 1.2185432113 0)
(0.204638903185 1.15741816257 0)
(0.237182409841 1.11006520878 0)
(0.228540264151 1.06953414123 0)
(0.169586540503 1.02933255969 0)
(0.122174704869 0.996710083971 0)
(0.117183294015 0.953525015664 0)
(0.133133312937 0.90543389424 0)
(0.150145441294 0.859119111783 0)
(0.155791586028 0.811858516592 0)
(0.14750682298 0.763277025652 0)
(0.129772261704 0.716695429636 0)
(0.0228771728476 1.16405870317 0)
(0.0545739363795 1.57530035827 0)
(0.0646977912878 1.56929757685 0)
(0.0713431580719 1.4932258471 0)
(0.0840253470163 1.4353589338 0)
(0.101485849538 1.39540772478 0)
(0.124168875033 1.35234208006 0)
(0.152390226231 1.29896239982 0)
(0.185754151575 1.24440178201 0)
(0.219365298543 1.19568956764 0)
(0.234944058332 1.15388656895 0)
(0.202615828698 1.11047587738 0)
(0.145638423688 1.07082620886 0)
(0.119488478374 1.02917778282 0)
(0.12668633229 0.980325215027 0)
(0.142647016107 0.932907439119 0)
(0.151126940717 0.884947085231 0)
(0.147332500648 0.83371161258 0)
(0.134506646353 0.781908424706 0)
(0.117561328541 0.733177512205 0)
(0.0104185824809 1.38617627102 0)
(0.0370051328692 1.58875302818 0)
(0.0578976131121 1.56366893699 0)
(0.0709690102863 1.48899042253 0)
(0.0885796096812 1.4322449831 0)
(0.110094196846 1.39723565613 0)
(0.137753809337 1.36516379036 0)
(0.169501672809 1.32734910039 0)
(0.198933356899 1.28554596099 0)
(0.220941434562 1.24394437978 0)
(0.21528503752 1.20310888839 0)
(0.169360155524 1.15677021631 0)
(0.126045388205 1.11311219473 0)
(0.118592348248 1.0621417284 0)
(0.129616740432 1.01146841487 0)
(0.137892963367 0.962112392593 0)
(0.136710872874 0.909662144615 0)
(0.128247296216 0.854476816591 0)
(0.115941113278 0.799127578817 0)
(0.102913852017 0.747230962067 0)
(0.00673085520872 1.63327416822 0)
(0.036764489153 1.60578126959 0)
(0.0649716986042 1.56954067655 0)
(0.0804317356499 1.50026537935 0)
(0.101993364549 1.44939006431 0)
(0.12687321551 1.42281456779 0)
(0.15439279975 1.40133589575 0)
(0.178409516287 1.37318793974 0)
(0.197415914089 1.33832367424 0)
(0.20541704791 1.30173252904 0)
(0.181046476332 1.25742283466 0)
(0.135281345801 1.20734112442 0)
(0.109658344984 1.1527910773 0)
(0.109693047947 1.09543230635 0)
(0.114821194082 1.04196212796 0)
(0.114361742907 0.987823590497 0)
(0.10864847081 0.931156462665 0)
(0.100385056557 0.872099149833 0)
(0.0911446677971 0.812201056695 0)
(0.0819398657122 0.754976688412 0)
(0.0128392646084 1.84968774005 0)
(0.0554950262777 1.65319270778 0)
(0.0861671714463 1.60613733074 0)
(0.0968417149119 1.53940497867 0)
(0.117349728101 1.49425697266 0)
(0.137952850649 1.47471150485 0)
(0.155947796257 1.45949381469 0)
(0.171897106055 1.4363278419 0)
(0.185592786566 1.40565239975 0)
(0.176291754863 1.36759760323 0)
(0.134698097588 1.31600137799 0)
(0.0961245909434 1.25737406194 0)
(0.082934151923 1.18785171168 0)
(0.0817795548015 1.12430213457 0)
(0.0800266189043 1.06560870257 0)
(0.0757337199842 1.00713468248 0)
(0.0702519896446 0.946797017238 0)
(0.0645433686118 0.883485283753 0)
(0.0587119249688 0.817963788248 0)
(0.0524649011221 0.75408941967 0)
(0.0233433322446 2.05284635534 0)
(0.078099947507 1.76019838626 0)
(0.104121861083 1.69483080295 0)
(0.103386963004 1.62298283253 0)
(0.115462775155 1.57543249822 0)
(0.1289287299 1.55840504344 0)
(0.141064758662 1.54555239221 0)
(0.152078083957 1.52270387019 0)
(0.147316404524 1.48634246115 0)
(0.112293302575 1.43568078909 0)
(0.069342907489 1.37348661847 0)
(0.0458152061693 1.29899653145 0)
(0.0376134000818 1.2135235452 0)
(0.0336218082322 1.14121765592 0)
(0.0302669107498 1.07688851242 0)
(0.0270853315899 1.0149617341 0)
(0.0245054804205 0.951474725736 0)
(0.0227230585534 0.884268228899 0)
(0.0210326270911 0.813624768258 0)
(0.0183970332403 0.744032200205 0)
(0.0402280286941 2.22552979838 0)
(0.0964297325451 1.89966624671 0)
(0.101239727681 1.81495587783 0)
(0.0884588642945 1.73395366711 0)
(0.0890302589237 1.6743666623 0)
(0.0923579594889 1.65500151938 0)
(0.0918121968829 1.64258193017 0)
(0.0793339713306 1.6127131127 0)
(0.0483225505437 1.55971055818 0)
(0.0117929508053 1.49021127576 0)
(-0.0105699470912 1.40966020882 0)
(-0.0188114228213 1.31703767351 0)
(-0.0223696339401 1.21860322925 0)
(-0.0242739455745 1.13542887935 0)
(-0.024732128924 1.06589282123 0)
(-0.0239216033005 1.00279639013 0)
(-0.0215255459896 0.938738077942 0)
(-0.0176520038786 0.870423069668 0)
(-0.0137180463927 0.797678401978 0)
(-0.0116936541617 0.725345132753 0)
(0.0599791894684 2.24541174434 0)
(0.113158536673 1.94582809185 0)
(0.0961052295377 1.86493582507 0)
(0.0791856242789 1.78892188668 0)
(0.0650754926315 1.72637358074 0)
(0.0461339215441 1.70675498832 0)
(0.0180325775078 1.69901976142 0)
(-0.0182082135765 1.66596619776 0)
(-0.0520282939975 1.59790605582 0)
(-0.0706269229809 1.50505763133 0)
(-0.0746029752127 1.40170493605 0)
(-0.0729153221366 1.29615540213 0)
(-0.0703883460331 1.19166502619 0)
(-0.0673924171851 1.10074099261 0)
(-0.0635984998798 1.0267112183 0)
(-0.0587385209811 0.966620776135 0)
(-0.0517006932793 0.906946124711 0)
(-0.0423769986551 0.842284849416 0)
(-0.0332935081592 0.771873452017 0)
(-0.0274551547278 0.700535425525 0)
(0.0840357704862 1.94640964131 0)
(0.151801854241 1.84869831724 0)
(0.126049290144 1.83529688423 0)
(0.104850612888 1.78320314573 0)
(0.0779573719656 1.73451831517 0)
(0.0445667471921 1.72187269615 0)
(0.0065341810878 1.72129839838 0)
(-0.0318882879269 1.69096092167 0)
(-0.0621918499153 1.6092677763 0)
(-0.0782352024233 1.48906940538 0)
(-0.0822580423378 1.36235283092 0)
(-0.0793854217887 1.24679079704 0)
(-0.0735714591439 1.1411727544 0)
(-0.0671281900159 1.04921493768 0)
(-0.0614383957935 0.972912729413 0)
(-0.0564186148584 0.917230648734 0)
(-0.0492719734512 0.865189180689 0)
(-0.0386958311597 0.807721740588 0)
(-0.0282856110132 0.74301958157 0)
(-0.0220357719309 0.675505449601 0)
(0.040052915354 1.52392486005 0)
(0.0713116137043 1.7685685484 0)
(0.0615632769462 1.79417275241 0)
(0.0588040297191 1.75849732308 0)
(0.0518937803846 1.73418399032 0)
(0.0388030752455 1.73857861524 0)
(0.0217589310211 1.74531941348 0)
(0.00253843804452 1.72026247072 0)
(-0.0181901223982 1.63110466239 0)
(-0.0349746241715 1.4814045705 0)
(-0.0418479749125 1.32663039544 0)
(-0.0401806354424 1.20046972691 0)
(-0.0346548637008 1.09488267587 0)
(-0.0284627890884 1.00534809031 0)
(-0.0234673874202 0.929809106709 0)
(-0.0199913978376 0.875979849282 0)
(-0.0154576965781 0.829896851822 0)
(-0.00783922212823 0.779416750123 0)
(-0.000280627011595 0.720937235406 0)
(0.00285660850965 0.657836500147 0)
(0.012814631858 1.30021812425 0)
(0.0282789334396 1.74042381003 0)
(0.0314791582889 1.76091218848 0)
(0.032052688549 1.73144536085 0)
(0.0315375721978 1.7274796846 0)
(0.0302131387703 1.74782561798 0)
(0.0285381016912 1.76150340662 0)
(0.0262484034974 1.74299064963 0)
(0.0218954601265 1.65765481007 0)
(0.0147648533665 1.49516687543 0)
(0.0110186562495 1.31124821575 0)
(0.0133326476666 1.17730916083 0)
(0.0174248317364 1.07178363292 0)
(0.021654021122 0.984474043308 0)
(0.0252099782558 0.910660229056 0)
(0.0281528862433 0.856493245206 0)
(0.031542317791 0.812635904563 0)
(0.0361331646958 0.766313206233 0)
(0.0397572393884 0.71212502819 0)
(0.0387003722589 0.651931084383 0)
(0.00759617197818 1.22495037569 0)
(0.0177079341828 1.69999658829 0)
(0.0210481185883 1.7397297194 0)
(0.02168721852 1.71983789962 0)
(0.0209276601105 1.72388023405 0)
(0.0207474734496 1.74688832477 0)
(0.0226725189876 1.76005811567 0)
(0.0273176746023 1.74046109157 0)
(0.0340409894062 1.65809488238 0)
(0.0438526069934 1.49031787786 0)
(0.0527782742835 1.30678972552 0)
(0.0576476832535 1.1733951275 0)
(0.061587539928 1.06943840166 0)
(0.0649950599979 0.984078822776 0)
(0.068273981042 0.911848919262 0)
(0.0721477289201 0.857270825608 0)
(0.0765416398166 0.813758557073 0)
(0.0801815537048 0.769038285344 0)
(0.081127449895 0.716861042854 0)
(0.0765059784451 0.65769452713 0)
(0.00537836080285 1.18953189132 0)
(0.0141394405689 1.66527056923 0)
(0.0184950000531 1.72296143679 0)
(0.0183162143335 1.71684028225 0)
(0.0148212741243 1.72736590841 0)
(0.0112856907901 1.74611106494 0)
(0.011998018412 1.74834190252 0)
(0.0208124685914 1.71204926424 0)
(0.0409606230213 1.61003148496 0)
(0.0637994167758 1.45039799592 0)
(0.0784892192838 1.29884553759 0)
(0.0867316050974 1.17580315422 0)
(0.0921236838416 1.07693859157 0)
(0.0964390406678 0.994793499757 0)
(0.101201543811 0.925028247457 0)
(0.107779057255 0.871626095402 0)
(0.11472825578 0.828596825636 0)
(0.118617698796 0.78403470415 0)
(0.118065488699 0.732463442643 0)
(0.1105662006 0.672805922708 0)
(0.0048238965256 1.16527077464 0)
(0.0153651375063 1.62259879813 0)
(0.0231031230371 1.70467197323 0)
(0.0236577780516 1.72089098428 0)
(0.0189633116862 1.74070799934 0)
(0.0131198271464 1.75341501473 0)
(0.0121302379553 1.73493920757 0)
(0.0248347157415 1.65747959706 0)
(0.050053168821 1.53251040297 0)
(0.0743054167091 1.40725836362 0)
(0.0914059251655 1.28526987249 0)
(0.103035285939 1.17787881337 0)
(0.111150198647 1.08757654873 0)
(0.118139853119 1.01075124939 0)
(0.126476041092 0.945400052418 0)
(0.137299452156 0.895298554831 0)
(0.14655980862 0.852879294174 0)
(0.150108626034 0.807562506916 0)
(0.147926842522 0.755778069556 0)
(0.137139802329 0.693579466649 0)
(0.00782642779786 1.13050805404 0)
(0.0235925656159 1.55790755447 0)
(0.035085921198 1.67465379891 0)
(0.0382731401148 1.72113699047 0)
(0.035588244075 1.75354971984 0)
(0.0314077221526 1.76096026197 0)
(0.0319938192218 1.71704019441 0)
(0.043518937752 1.59562570018 0)
(0.0621750755807 1.4749114376 0)
(0.0815955174562 1.37207413593 0)
(0.0992850001885 1.27065518787 0)
(0.113060241557 1.17906634405 0)
(0.124032745203 1.09914446598 0)
(0.134763231701 1.02960716219 0)
(0.148175646738 0.971187166916 0)
(0.162859844544 0.92533479545 0)
(0.172282271044 0.882543207638 0)
(0.174541909179 0.8364563636 0)
(0.168724042595 0.782351786614 0)
(0.153585562586 0.716122475251 0)
(0.0183876659293 1.04583439726 0)
(0.0386176603777 1.49702317137 0)
(0.0441699848647 1.63210964204 0)
(0.0490892075211 1.70866240774 0)
(0.049614922561 1.75602359463 0)
(0.0488482338559 1.75942554103 0)
(0.0523956961166 1.69067436424 0)
(0.0615100911261 1.55348517831 0)
(0.0748459921273 1.44023548813 0)
(0.0912128884258 1.34514137507 0)
(0.107402090209 1.25864056729 0)
(0.121755153815 1.18081998802 0)
(0.135141091231 1.11173608312 0)
(0.150372035329 1.0514371938 0)
(0.168679251629 1.00151985219 0)
(0.184372126689 0.958626813414 0)
(0.192329467899 0.915009837126 0)
(0.190361883756 0.866743383814 0)
(0.17690297575 0.806840605126 0)
(0.160149205725 0.73890315315 0)
(0.0264241873502 0.880142373134 0)
(0.0516732268153 1.48666112689 0)
(0.0495389779239 1.61141409823 0)
(0.0506047036525 1.69130573398 0)
(0.0538756446602 1.75026523297 0)
(0.0575031107023 1.74889664916 0)
(0.0653745648004 1.65855900959 0)
(0.0763775012334 1.52732801505 0)
(0.088425139412 1.41572139776 0)
(0.102177909563 1.32712734892 0)
(0.116625597586 1.25174741778 0)
(0.131309749572 1.18582972005 0)
(0.147804454379 1.12794074203 0)
(0.167962263241 1.0781365273 0)
(0.187725366127 1.03488350059 0)
(0.200895034451 0.993026306608 0)
(0.204239628536 0.947994186357 0)
(0.192001943167 0.891779521657 0)
(0.171655933447 0.827145984487 0)
(0.159905604713 0.762572685965 0)
(0.00367592175449 0.842233586116 0)
(0.012981892882 1.49848995412 0)
(0.0237452697253 1.60167938355 0)
(0.0339544599345 1.67781629533 0)
(0.0442426456127 1.73800918336 0)
(0.0570291790557 1.72416290142 0)
(0.0718212495147 1.62734182315 0)
(0.0857483180282 1.50661927773 0)
(0.0990022665042 1.4008411205 0)
(0.112410570441 1.31860744039 0)
(0.12684021697 1.25283591848 0)
(0.143733855426 1.1981149944 0)
(0.164470938229 1.15125725466 0)
(0.185493698994 1.10942173273 0)
(0.201262663985 1.06913135036 0)
(0.209148890149 1.02731478046 0)
(0.199571111896 0.973820510059 0)
(0.175250223059 0.908370678912 0)
(0.158164529533 0.845806025126 0)
(0.156680489613 0.787700689242 0)
(-0.0243396577737 1.13144989102 0)
(-0.0391235160399 1.50052054008 0)
(-0.0203026336564 1.57485704614 0)
(0.000973251084217 1.65316001277 0)
(0.0249673954178 1.70921336557 0)
(0.0486803376254 1.68725019175 0)
(0.0707046497798 1.59992513296 0)
(0.0896775936145 1.49121188437 0)
(0.106136748018 1.39487391729 0)
(0.12189977316 1.32107128847 0)
(0.139401745357 1.26543220889 0)
(0.160022618128 1.22097458966 0)
(0.180145314077 1.18137542658 0)
(0.195436708911 1.14260795745 0)
(0.204651912762 1.1028751473 0)
(0.196339555845 1.05374119209 0)
(0.170499018761 0.988065328263 0)
(0.148969994258 0.9216771638 0)
(0.143349575406 0.865309897757 0)
(0.150301408616 0.813151471206 0)
(-0.0270984425958 1.59172747437 0)
(-0.0476220740143 1.5285413271 0)
(-0.0343383290352 1.56006557596 0)
(-0.0153915331139 1.62484139156 0)
(0.0113903229056 1.67536036408 0)
(0.0405210428897 1.65558416009 0)
(0.0679383519229 1.57990440408 0)
(0.0916385651184 1.48498242981 0)
(0.112379027073 1.40103530616 0)
(0.132439852451 1.33839351574 0)
(0.153073587551 1.29244353802 0)
(0.17113583664 1.25377412631 0)
(0.183716590159 1.21573843866 0)
(0.190630478575 1.17622978813 0)
(0.180820684461 1.12953037402 0)
(0.154101439574 1.06789507172 0)
(0.131617572358 0.997769552082 0)
(0.122594732065 0.935811155519 0)
(0.126390406286 0.885038822542 0)
(0.136671170256 0.835552154504 0)
(0.00310467122854 1.9900187282 0)
(0.00550973472011 1.62332144319 0)
(-0.0002275630905 1.59188481618 0)
(-0.000913872097776 1.63049545024 0)
(0.0144657807776 1.6673519135 0)
(0.0397192335017 1.64576821863 0)
(0.0677399291617 1.57798917283 0)
(0.093740617896 1.49429363764 0)
(0.116913584821 1.42357093795 0)
(0.137498438118 1.37207787287 0)
(0.153485383345 1.3321059946 0)
(0.163147280394 1.2941801086 0)
(0.165662784694 1.2526836373 0)
(0.152330566083 1.20494641423 0)
(0.123993148773 1.145882024 0)
(0.100893221923 1.07581687012 0)
(0.0918339911507 1.00615514499 0)
(0.0937072626595 0.948862191144 0)
(0.102573083698 0.90099273169 0)
(0.110690951666 0.850540196242 0)
(0.0342093965478 2.2249037757 0)
(0.0653495146313 1.77270937462 0)
(0.0487506467225 1.68215451524 0)
(0.030911671742 1.68535010148 0)
(0.030791173041 1.69663380509 0)
(0.045135791866 1.66412944928 0)
(0.0668933795311 1.5967755797 0)
(0.0890121197041 1.51908024141 0)
(0.108349464097 1.45896799382 0)
(0.123561371894 1.41583717418 0)
(0.131939218804 1.38015792751 0)
(0.129285361687 1.34007666571 0)
(0.110510432618 1.28828531862 0)
(0.0798814425863 1.22627771439 0)
(0.0559091675947 1.15529757258 0)
(0.047917377905 1.07619019613 0)
(0.0507528379872 1.00781247716 0)
(0.0588062021073 0.953637119254 0)
(0.0660663042184 0.905318325144 0)
(0.0715729549047 0.854125937729 0)
(0.0500982744818 2.30980091583 0)
(0.0914150977285 1.89541186511 0)
(0.0699347185374 1.77064327184 0)
(0.0513936101963 1.74498194023 0)
(0.0464514066547 1.73074058199 0)
(0.0534250808935 1.68664114503 0)
(0.0677213462893 1.61813037687 0)
(0.0834541072468 1.54425690166 0)
(0.0959988480793 1.48908103675 0)
(0.100644142694 1.45070431267 0)
(0.0912736704213 1.41866081804 0)
(0.0646658580576 1.37884217649 0)
(0.0293632526236 1.31680545929 0)
(0.00333291147633 1.23821573377 0)
(-0.00438803956006 1.14993725141 0)
(-0.000170606634432 1.05828012667 0)
(0.00760346337828 0.991017700995 0)
(0.0143920915137 0.938040798092 0)
(0.0195787309758 0.890798687432 0)
(0.0275380680263 0.843386034132 0)
(0.0734893667032 2.18631243364 0)
(0.13883691811 1.8708542482 0)
(0.125124063525 1.75444503699 0)
(0.115667082911 1.73363820936 0)
(0.110291323276 1.71873840105 0)
(0.109235023576 1.67612353809 0)
(0.110186621567 1.61121678772 0)
(0.108415286606 1.54070105365 0)
(0.0986309279222 1.48476892351 0)
(0.0777851579535 1.4445608914 0)
(0.0481602115971 1.41055254586 0)
(0.0139509669486 1.38007539768 0)
(-0.016742942905 1.32112947219 0)
(-0.0333573819993 1.22975405025 0)
(-0.0356076028883 1.12301910901 0)
(-0.0308899533223 1.02003679981 0)
(-0.0259852614527 0.949528135054 0)
(-0.0232897877599 0.899083862581 0)
(-0.0189005168863 0.858239884754 0)
(-0.00782609041905 0.819074421424 0)
(0.0982842497051 1.67177274042 0)
(0.186381078084 1.71319829029 0)
(0.171738498107 1.66231614947 0)
(0.169008342182 1.64819348139 0)
(0.174248783775 1.6406341607 0)
(0.175268136361 1.62210196301 0)
(0.163488641099 1.57643665211 0)
(0.139548707168 1.51666657743 0)
(0.106996047984 1.46341512137 0)
(0.0735897196203 1.41256754393 0)
(0.0471535855951 1.36828503408 0)
(0.0305819700337 1.33583014955 0)
(0.0173903222506 1.29659419468 0)
(0.0016695044005 1.20860127833 0)
(-0.0120885754297 1.09030063609 0)
(-0.0203214145243 0.978029894713 0)
(-0.0253911613786 0.899921890533 0)
(-0.0305239438583 0.849592842446 0)
(-0.0321022634798 0.8164255532 0)
(-0.0235245110519 0.78708939234 0)
(0.0346384694312 1.11737605329 0)
(0.0789037829438 1.50953729449 0)
(0.0976292563528 1.5415978715 0)
(0.115310658581 1.53027702525 0)
(0.131256175976 1.52700104651 0)
(0.144261062335 1.52998284878 0)
(0.150738421274 1.51561988556 0)
(0.147072595603 1.48550754419 0)
(0.13475754589 1.45176867976 0)
(0.1162237343 1.40997392711 0)
(0.0930402326936 1.36894167561 0)
(0.0685170226137 1.3265310889 0)
(0.0511655899843 1.27418907201 0)
(0.0449354692327 1.17406964135 0)
(0.0359536856487 1.06910365231 0)
(0.0209425590743 0.950507277725 0)
(0.008138259495 0.864047653941 0)
(-0.00389436883701 0.808401670791 0)
(-0.0144914124751 0.777509119929 0)
(-0.0154851799789 0.755802113499 0)
(0.0129400514357 0.871577952151 0)
(0.0335731017048 1.33995250786 0)
(0.0494063021631 1.41562873094 0)
(0.0671695614775 1.41508243428 0)
(0.0860534054792 1.42223596085 0)
(0.102620781385 1.4367415097 0)
(0.113850542988 1.45091248871 0)
(0.11825903699 1.45517493794 0)
(0.116784872876 1.44782134681 0)
(0.111295166947 1.42986714641 0)
(0.103077465847 1.40382654988 0)
(0.0935082755041 1.36057888734 0)
(0.0835523838236 1.27905467533 0)
(0.0715104411676 1.1600668418 0)
(0.0629035299003 1.05264089426 0)
(0.0565133433195 0.939794556344 0)
(0.0466599499246 0.848255470694 0)
(0.035432062726 0.786706614265 0)
(0.0222558297045 0.752089214737 0)
(0.0125238644427 0.733177294082 0)
(0.00357715148127 0.787528549163 0)
(0.010213182867 1.26000643405 0)
(0.0185732819182 1.33416612921 0)
(0.0319856104207 1.32581749896 0)
(0.0489241810103 1.33741871096 0)
(0.0658424772753 1.36599832424 0)
(0.079815983456 1.40317992817 0)
(0.0888426878682 1.43279401148 0)
(0.0930598763608 1.44482447582 0)
(0.0938754463842 1.43933902847 0)
(0.092668785755 1.42015829498 0)
(0.0907684310956 1.37684436263 0)
(0.0889537030217 1.29225734311 0)
(0.0866395953393 1.17352228624 0)
(0.0831258251865 1.04672487422 0)
(0.0796498564385 0.938454627846 0)
(0.0755176879924 0.846793882705 0)
(0.0686992742332 0.782165125012 0)
(0.0586598326449 0.742940522711 0)
(0.0473117275621 0.723278404286 0)
(-0.00172738295074 0.795674760269 0)
(-0.00491772210005 1.24692090335 0)
(-0.00439636837585 1.29477471814 0)
(0.00265013355592 1.26826051613 0)
(0.0147292008301 1.27489045212 0)
(0.0292617105611 1.3082174377 0)
(0.0434040950047 1.35876642448 0)
(0.0546050345429 1.40656312141 0)
(0.0620281712931 1.43273707504 0)
(0.0670829866427 1.43472935504 0)
(0.0716308810372 1.41786544414 0)
(0.0771637023809 1.37280962005 0)
(0.0837928005562 1.28736245388 0)
(0.089715953097 1.17115426287 0)
(0.0944276377341 1.04549301187 0)
(0.0976939988886 0.937801832201 0)
(0.0978840986415 0.850909405528 0)
(0.0946386496853 0.786915666062 0)
(0.0880911970537 0.745710686981 0)
(0.0791825616292 0.725082744975 0)
(-0.00674150590657 0.870733163064 0)
(-0.0185118818777 1.29455597834 0)
(-0.0263837381799 1.30593101757 0)
(-0.0301934344579 1.25796561433 0)
(-0.028831869905 1.24819209202 0)
(-0.0212605517976 1.27302386163 0)
(-0.00879346984967 1.32247853141 0)
(0.00561411763901 1.37726718885 0)
(0.0188810299238 1.41173596882 0)
(0.0306227560741 1.4170643339 0)
(0.0425274724986 1.3986963374 0)
(0.0561278544332 1.34933596086 0)
(0.0713432455022 1.26273192357 0)
(0.0868483868088 1.14927687504 0)
(0.102153771148 1.02438175001 0)
(0.113102659288 0.93219903411 0)
(0.117168815596 0.854429218489 0)
(0.116967957382 0.794687224487 0)
(0.11349971367 0.754902066833 0)
(0.108309016791 0.735400788186 0)
(-0.0122671093254 1.01329898914 0)
(-0.0325691719033 1.40095140169 0)
(-0.050271017719 1.38206636658 0)
(-0.0702060511757 1.31583444598 0)
(-0.0864991626128 1.27617181242 0)
(-0.0893413013891 1.25999475034 0)
(-0.0766595066804 1.28748143659 0)
(-0.0556107347371 1.33880251097 0)
(-0.0326629731464 1.37573204219 0)
(-0.0103797935393 1.38305016662 0)
(0.0117833231356 1.36221323985 0)
(0.0354634524258 1.30732340281 0)
(0.0644593342263 1.20726575967 0)
(0.0957280207578 1.10179236825 0)
(0.117212861429 0.999721970191 0)
(0.128684386934 0.924283254475 0)
(0.135700730963 0.856817080965 0)
(0.138696062792 0.80363880758 0)
(0.139074394637 0.768394533547 0)
(0.139714916719 0.753096188276 0)
(-0.015659300146 1.19981390566 0)
(-0.0401482893049 1.54534809262 0)
(-0.062456313849 1.51542377584 0)
(-0.0934291707207 1.44336372654 0)
(-0.126435895807 1.36768669533 0)
(-0.136092585964 1.23036542337 0)
(-0.119443426959 1.23588242126 0)
(-0.0929155508306 1.27712102527 0)
(-0.0590615777146 1.30974714865 0)
(-0.0215463592759 1.3145102738 0)
(0.0183254222102 1.29027721455 0)
(0.0590869237001 1.23493879595 0)
(0.0929736709722 1.14441582549 0)
(0.11578787179 1.06001074732 0)
(0.132238982904 0.985795711814 0)
(0.144976751075 0.919415853552 0)
(0.154453577257 0.861230654845 0)
(0.161571362514 0.816176176902 0)
(0.168691668421 0.788949236767 0)
(0.179693389878 0.781895564725 0)
(-0.0196792962688 1.44390027215 0)
(-0.0364706986537 1.65632985762 0)
(-0.0378340731578 1.63347394548 0)
(-0.0488031430009 1.55742393125 0)
(-0.0516387138567 1.4023558213 0)
(-0.0501322280673 1.20345557361 0)
(-0.0487359754894 1.19049244589 0)
(-0.0346450648745 1.21458043318 0)
(-0.00965370127591 1.23610605749 0)
(0.0211679247341 1.23614457368 0)
(0.0531262297707 1.21294790551 0)
(0.0829082873107 1.16730326739 0)
(0.108422721227 1.10654490075 0)
(0.129436660921 1.04173145164 0)
(0.14665015573 0.978099193283 0)
(0.161138726401 0.920567689179 0)
(0.17448189559 0.871871142439 0)
(0.189225204498 0.837158418656 0)
(0.208320757558 0.82114640298 0)
(0.233927009828 0.82531237381 0)
(-0.00141810401564 1.77601940974 0)
(4.87985374917e-05 1.7045878457 0)
(0.0072467680019 1.66727579572 0)
(0.0151701859371 1.58234315969 0)
(0.0153332379276 1.38796099777 0)
(0.00624095188923 1.22291061889 0)
(0.000538615157488 1.17996188184 0)
(0.00691956246846 1.18196961216 0)
(0.0243607799675 1.19186645257 0)
(0.0483018207839 1.19085187579 0)
(0.0745151709026 1.17374443581 0)
(0.100277293001 1.13966080541 0)
(0.123738937608 1.09225287561 0)
(0.144295137151 1.03864526609 0)
(0.162718140723 0.984704925581 0)
(0.180855528086 0.935569877246 0)
(0.201705079794 0.896143326849 0)
(0.227892569066 0.87039221627 0)
(0.261112990119 0.862120224582 0)
(0.301715154097 0.872784935963 0)
(0.0397457205135 1.99704684199 0)
(0.0795350013281 1.71899204306 0)
(0.0742905592685 1.6712442091 0)
(0.0644291910613 1.58773907487 0)
(0.0555092874508 1.41522641071 0)
(0.047798003443 1.25493584419 0)
(0.0439711971477 1.18687814368 0)
(0.0468153002384 1.17014560654 0)
(0.0571213225904 1.1713923664 0)
(0.073658639179 1.1694167696 0)
(0.0940499552612 1.15572401983 0)
(0.11607817225 1.12821389028 0)
(0.138081985042 1.08955804454 0)
(0.159277086473 1.04487188748 0)
(0.1801535673 0.998985842904 0)
(0.202713920874 0.956704978542 0)
(0.229555455938 0.921951184047 0)
(0.262801873046 0.896603572976 0)
(0.297664119013 0.882362076735 0)
(0.308485879649 0.882500453258 0)
(0.100424803312 0.533295270464 0)
(0.0893333819976 0.489902836267 0)
(0.0770761833185 0.448183817602 0)
(0.0688906570076 0.427165768624 0)
(0.0642116140533 0.418112820299 0)
(0.0619763056666 0.409474020678 0)
(0.0573457761388 0.352274395725 0)
(0.0481278185621 0.320587629467 0)
(0.0388534366142 0.301775491014 0)
(0.0311090528333 0.284239868611 0)
(0.0250640675094 0.267178666015 0)
(0.0197914935712 0.250256787628 0)
(0.0146920015325 0.2332775754 0)
(0.00967338962223 0.216521216465 0)
(0.00325036578366 0.199999139752 0)
(-0.000345860607667 0.183690455547 0)
(0.12987334278 0.648873015829 0)
(0.114751105333 0.621531683578 0)
(0.106792411015 0.599874768132 0)
(0.10492480125 0.584127651688 0)
(0.0997568940789 0.564528979001 0)
(0.0864422260728 0.516413088304 0)
(0.0728550828941 0.466642373219 0)
(0.0650348402654 0.443637974999 0)
(0.0602653804722 0.434496768662 0)
(0.0580853888822 0.424683533075 0)
(0.0567367406282 0.367065808332 0)
(0.0512574753572 0.337113431206 0)
(0.0429611106501 0.317877886461 0)
(0.0352422284121 0.300145408789 0)
(0.0288327956689 0.283124068279 0)
(0.023022660238 0.266198262598 0)
(0.0173777608841 0.24926430973 0)
(0.0118150463671 0.232642538627 0)
(0.0052310360077 0.216333052131 0)
(0.000703896742018 0.199968160366 0)
(0.120704518286 0.66348676086 0)
(0.106736826199 0.637963166555 0)
(0.102571447971 0.620765159964 0)
(0.103045221449 0.613250777218 0)
(0.0950345275291 0.601997902715 0)
(0.0777619199946 0.542755241495 0)
(0.0645508753521 0.483448212607 0)
(0.0584065807222 0.459539712957 0)
(0.0533919816693 0.450662540101 0)
(0.0512505823229 0.440256651781 0)
(0.0534082302256 0.38503075027 0)
(0.0515885580807 0.355595473666 0)
(0.0444191016539 0.335570051114 0)
(0.0370584778581 0.317483531682 0)
(0.0306394136663 0.300270404698 0)
(0.0246533209779 0.283159216906 0)
(0.0188300762682 0.266130167826 0)
(0.0130983052646 0.24953130722 0)
(0.00672379384207 0.23337311598 0)
(0.00159893242346 0.217061876656 0)
(0.111410202464 0.67933430744 0)
(0.1012722939 0.656001646789 0)
(0.100032742998 0.643524309287 0)
(0.0981942151594 0.648158658262 0)
(0.0829330115329 0.645195677819 0)
(0.063130365654 0.564794150278 0)
(0.0533889447111 0.497373255028 0)
(0.0488455080847 0.473741004473 0)
(0.0428201535514 0.465229004922 0)
(0.0403924258851 0.456081689958 0)
(0.0456405036687 0.404980444495 0)
(0.0475906570707 0.374826436119 0)
(0.0421465376132 0.353585333584 0)
(0.0356544370671 0.334930365336 0)
(0.0297102091624 0.317276832563 0)
(0.0240468935334 0.299800602755 0)
(0.018534605029 0.282543454818 0)
(0.0131186340112 0.265862355612 0)
(0.00740912542877 0.249790242235 0)
(0.00219561961546 0.233617610423 0)
(0.103406708064 0.695206419007 0)
(0.0967665282537 0.673063999471 0)
(0.095240382807 0.664210045187 0)
(0.0856301755583 0.688651407682 0)
(0.0628838398962 0.68906139802 0)
(0.0456393524023 0.577215793128 0)
(0.0406083602786 0.505991624572 0)
(0.0360685725884 0.48366072108 0)
(0.0287025100581 0.475397961041 0)
(0.0259102827203 0.468110095975 0)
(0.0328935879449 0.424855529417 0)
(0.0383901483235 0.392584382659 0)
(0.0355470645533 0.369718130049 0)
(0.0305562390921 0.350463522201 0)
(0.0257251057246 0.332272835362 0)
(0.0209957954171 0.314373883931 0)
(0.0163584308256 0.296850342177 0)
(0.0117853013764 0.28005353404 0)
(0.00719241353415 0.264045189198 0)
(0.00243812596291 0.248090398453 0)
(0.0929200156869 0.706580377678 0)
(0.0875610877782 0.683327429427 0)
(0.0813340688845 0.678996614428 0)
(0.0622379176082 0.730975297614 0)
(0.0391278632388 0.723552142195 0)
(0.0298341366316 0.576057777152 0)
(0.0278773817757 0.507337258244 0)
(0.0220317516551 0.487281600814 0)
(0.0138603191938 0.479417158113 0)
(0.0114038890053 0.472915437757 0)
(0.018518072035 0.441104794092 0)
(0.0260540870897 0.406551323962 0)
(0.0261261146913 0.381709668734 0)
(0.0229716716148 0.362134159249 0)
(0.0196343116039 0.343576749134 0)
(0.0162374012746 0.325395922305 0)
(0.012852490631 0.307711918878 0)
(0.00947512715072 0.290870501679 0)