/*--------------------------------*- C++ -*----------------------------------*\
  =========                 |
  \\      /  F ield         | OpenFOAM: The Open Source CFD Toolbox
   \\    /   O peration     | Website:  https://openfoam.org
    \\  /    A nd           | Version:  7
     \\/     M anipulation  |
\*---------------------------------------------------------------------------*/
FoamFile
{
    version     2.0;
    format      ascii;
    class       volScalarField;
    location    "2";
    object      nut.steam;
}
// * * * * * * * * * * * * * * * * * * * * * * * * * * * * * * * * * * * * * //

dimensions      [0 2 -1 0 0 0 0];

internalField   nonuniform List<scalar> 
3000
(
5.36240437e-13
1.54740294e-12
3.81984297e-12
7.93146061e-13
9.60334272e-14
8.30803906e-15
3.62578696e-16
7.89005881e-16
8.83112082e-16
2.7489445e-15
5.22613989e-15
4.83052414e-15
2.20712018e-15
5.07379683e-16
8.76316919e-17
1.20925286e-17
1.42358645e-18
7.98294487e-19
6.44721369e-19
1.12617827e-19
4.45594723e-11
9.07517037e-11
2.09921958e-10
5.39539094e-11
7.30795236e-12
7.45947103e-13
8.84963034e-14
5.71836587e-14
1.34806553e-13
3.03782872e-13
4.85694161e-13
4.99771353e-13
2.26207577e-13
6.360159e-14
1.30738742e-14
2.13811697e-15
2.87642513e-16
2.73662984e-17
1.35836842e-18
1.12614891e-19
4.70638514e-10
9.71211329e-10
1.83407451e-09
4.8795816e-10
7.51263041e-11
8.76114816e-12
1.32340343e-12
1.07979995e-12
2.51700274e-12
5.58942191e-12
9.44195198e-12
1.01556354e-11
4.82878322e-12
1.43173715e-12
3.07912653e-13
4.90347375e-14
3.77452268e-15
1.88387734e-16
1.01447045e-17
1.26444502e-19
9.39845504e-10
1.84301255e-09
3.20518871e-09
9.13434616e-10
1.52308471e-10
1.9799882e-11
3.91967353e-12
3.83022628e-12
8.83590552e-12
1.93870819e-11
3.23938693e-11
3.46601535e-11
1.70803518e-11
5.29496643e-12
1.1820402e-12
1.42796591e-13
1.06131142e-14
6.7521763e-16
4.86070736e-17
6.77310682e-19
1.50681607e-09
2.8254949e-09
4.60155236e-09
1.39660147e-09
2.50283678e-10
3.67632386e-11
9.90443896e-12
1.10384674e-11
2.4880264e-11
5.37409959e-11
8.86032266e-11
9.42971237e-11
4.80244309e-11
1.55096058e-11
2.87310704e-12
3.10686964e-13
2.68757554e-14
2.10077347e-15
1.79091802e-16
2.72824244e-18
2.06173644e-09
3.70976598e-09
5.71737241e-09
1.83824668e-09
3.53479584e-10
6.04096344e-11
2.24103514e-11
2.69609652e-11
5.88947397e-11
1.25055999e-10
2.0352452e-10
2.15839255e-10
1.13471953e-10
3.33582768e-11
5.27963122e-12
6.23132612e-13
6.15687324e-14
5.88200205e-15
5.36231913e-16
8.46535726e-18
2.50182598e-09
4.33167469e-09
6.36390402e-09
2.15830489e-09
4.47056448e-10
9.27990845e-11
4.65017112e-11
5.77907057e-11
1.21666742e-10
2.53746582e-10
4.08002015e-10
4.31970777e-10
2.22700803e-10
5.33275349e-11
8.87712863e-12
1.15634313e-12
1.31493646e-13
1.49223998e-14
1.3469983e-15
2.14614603e-17
2.7619768e-09
4.61200575e-09
6.49564471e-09
2.31749426e-09
5.22914607e-10
1.38503791e-10
8.94370305e-11
1.11332088e-10
2.2503552e-10
4.60891485e-10
7.33189618e-10
7.75984507e-10
3.17176112e-10
7.8689794e-11
1.40012098e-11
2.00778682e-12
2.70843976e-13
3.42041087e-14
2.92333279e-15
4.6414626e-17
2.82416353e-09
4.55771991e-09
6.18240638e-09
2.31927626e-09
5.82276833e-10
2.05093854e-10
1.60427131e-10
1.96257823e-10
3.79925447e-10
7.64080651e-10
1.20269608e-09
1.03263747e-09
4.20987992e-10
1.09230862e-10
2.09619338e-11
3.36867873e-12
5.39972827e-13
6.83643514e-14
5.60491906e-15
8.82342985e-17
2.71072111e-09
4.23650284e-09
5.55798738e-09
2.19879387e-09
6.34941328e-10
3.02652336e-10
2.69786808e-10
3.20954159e-10
5.94105627e-10
1.17245803e-09
1.63196463e-09
1.26277295e-09
5.29706566e-10
1.44938122e-10
3.01625391e-11
5.65540531e-12
1.02326388e-12
1.19427335e-13
9.68629148e-15
1.50959508e-16
2.46830918e-09
3.74334542e-09
4.77024302e-09
2.00637601e-09
6.96032056e-10
4.42324847e-10
4.27554833e-10
4.92233383e-10
8.70232725e-10
1.63471433e-09
1.90138814e-09
1.47424547e-09
6.39721097e-10
1.86359984e-10
4.31368088e-11
9.50609056e-12
1.80525079e-12
1.93087854e-13
1.54724277e-14
2.38577418e-16
2.15158566e-09
3.17299863e-09
3.94754468e-09
1.79307936e-09
7.81977142e-10
6.34358708e-10
6.41853341e-10
7.14024066e-10
1.20345e-09
1.84037493e-09
2.12607982e-09
1.66342823e-09
7.51482133e-10
2.36691385e-10
6.28250376e-11
1.55854384e-11
2.67960574e-12
2.89738257e-13
2.32733777e-14
3.5558504e-16
1.81100673e-09
2.60304881e-09
3.18309051e-09
1.60116415e-09
9.06911722e-10
8.86229603e-10
9.17326695e-10
9.85966938e-10
1.42006871e-09
2.00007062e-09
2.30534228e-09
1.83580133e-09
8.7503703e-10
3.04640373e-10
9.27580861e-11
2.43940658e-11
3.72369138e-12
4.0810736e-13
3.36073257e-14
5.10189424e-16
1.48604712e-09
2.08730823e-09
2.53279737e-09
1.4596519e-09
1.08032116e-09
1.20037962e-09
1.25387358e-09
1.30266997e-09
1.53306916e-09
2.11664243e-09
2.44619281e-09
2.00839126e-09
1.02892858e-09
4.01768461e-10
1.34892109e-10
3.18297056e-11
4.89055014e-12
5.45796334e-13
4.7520581e-14
7.19307705e-16
1.20323854e-09
1.65653791e-09
2.02126293e-09
1.38390111e-09
1.3048468e-09
1.57341289e-09
1.64537276e-09
1.45779786e-09
1.62064745e-09
2.19799621e-09
2.56413029e-09
2.21061121e-09
1.23517112e-09
5.33907422e-10
1.90137498e-10
3.90006195e-11
6.12228574e-12
7.02610907e-13
6.7064639e-14
1.01569371e-15
9.77275164e-10
1.32293721e-09
1.65044556e-09
1.37766149e-09
1.57656515e-09
1.9962125e-09
2.07133936e-09
1.59391216e-09
1.68910154e-09
2.25601346e-09
2.68070947e-09
2.46900072e-09
1.50430672e-09
7.02847845e-10
2.21243211e-10
4.5730913e-11
7.38188838e-12
8.85684815e-13
9.59078653e-14
1.45690995e-15
8.13641434e-10
1.08583104e-09
1.40765926e-09
1.43495417e-09
1.88623088e-09
2.45320281e-09
2.27041363e-09
1.72298208e-09
1.74672372e-09
2.30581863e-09
2.81778027e-09
2.79509967e-09
1.83611398e-09
8.92211814e-10
2.44392836e-10
5.17782285e-11
8.69194645e-12
1.11572563e-12
1.40014328e-13
2.13506744e-15
7.11533049e-10
9.36924692e-10
1.27372039e-09
1.54492699e-09
2.21995743e-09
2.84892906e-09
2.45595929e-09
1.84842313e-09
1.80382188e-09
2.36318609e-09
2.99055783e-09
3.18204961e-09
2.21934534e-09
9.36696237e-10
2.61057221e-10
5.7260772e-11
1.01743272e-11
1.43370485e-12
2.08288733e-13
3.18604957e-15
6.6637995e-10
8.64268512e-10
1.22733634e-09
1.6935298e-09
2.56008217e-09
3.01010602e-09
2.63097967e-09
1.97715289e-09
1.87235648e-09
2.44122806e-09
3.20538852e-09
3.61667314e-09
2.46855965e-09
9.52054661e-10
2.7247946e-10
6.28049613e-11
1.2087993e-11
1.90714751e-12
3.13086e-13
4.79668219e-15
6.71693623e-10
8.54889063e-10
1.24781725e-09
1.86563269e-09
2.88772825e-09
3.148518e-09
2.79976828e-09
2.11733061e-09
1.96437482e-09
2.54903108e-09
3.46330291e-09
4.08512281e-09
2.41315961e-09
9.46250829e-10
2.81745718e-10
6.96396744e-11
1.48574055e-11
2.63472993e-12
4.70476586e-13
7.20827454e-15
7.20239022e-10
8.96288975e-10
1.31662235e-09
2.04603757e-09
2.98209133e-09
3.26752161e-09
2.968222e-09
2.27726439e-09
2.08930367e-09
2.69315865e-09
3.75875615e-09
4.03947667e-09
2.31104842e-09
9.31871552e-10
2.93734909e-10
7.96329243e-11
1.90862528e-11
3.74810973e-12
7.0020225e-13
1.07157181e-14
8.04663914e-10
9.77130596e-10
1.41799652e-09
2.22125335e-09
3.03677447e-09
3.37225602e-09
3.14319679e-09
2.4645084e-09
2.25626451e-09
2.88434307e-09
4.10237993e-09
3.78384707e-09
2.1974968e-09
9.24797379e-10
3.14891924e-10
9.52618281e-11
2.55517047e-11
5.41012088e-12
1.02533691e-12
1.56623679e-14
9.17758668e-10
1.08741058e-09
1.53905684e-09
2.38047404e-09
3.07800344e-09
3.46938099e-09
3.33092075e-09
2.68579505e-09
2.47369487e-09
3.14317407e-09
4.12494683e-09
3.5405678e-09
2.11065533e-09
9.42901873e-10
3.52846981e-10
1.19507901e-10
3.51754195e-11
7.80884812e-12
1.47177135e-12
2.24326493e-14
1.05251762e-09
1.21835806e-09
1.66959232e-09
2.51611049e-09
3.11098505e-09
3.56562923e-09
3.53627991e-09
2.94930364e-09
2.75713941e-09
3.44409465e-09
3.92564239e-09
3.37032171e-09
2.08782434e-09
1.00466936e-09
4.15907661e-10
1.5568004e-10
4.89717551e-11
1.11481278e-11
2.06776059e-12
3.14458825e-14
1.20212653e-09
1.36223884e-09
1.80161851e-09
2.55818426e-09
3.14177671e-09
3.66672814e-09
3.76396572e-09
3.26911783e-09
3.02572743e-09
3.42201078e-09
3.84190686e-09
3.32706364e-09
2.16273037e-09
1.12781533e-09
5.12436217e-10
2.07171663e-10
6.7977053e-11
1.56361759e-11
2.84388398e-12
4.31597856e-14
1.35996593e-09
1.51219372e-09
1.92924685e-09
2.59300647e-09
3.17635671e-09
3.77745637e-09
4.01782554e-09
3.45268615e-09
3.12127302e-09
3.52650933e-09
3.93152728e-09
3.4544486e-09
2.3633809e-09
1.32795426e-09
6.50156455e-10
2.77176926e-10
9.31708128e-11
2.14749752e-11
3.83403931e-12
5.8084879e-14
1.51968906e-09
1.66216213e-09
2.04847909e-09
2.63656342e-09
3.22077761e-09
3.90325088e-09
4.19891663e-09
3.52841604e-09
3.31660077e-09
3.80303122e-09
4.23665812e-09
3.78356269e-09
2.71040758e-09
1.61737061e-09
8.35458133e-10
3.68407464e-10
1.25405706e-10
2.88548367e-11
5.07781209e-12
7.6817435e-14
1.67534566e-09
1.80688077e-09
2.15699884e-09
2.69318807e-09
3.28207073e-09
4.05435089e-09
4.16031486e-09
3.6623285e-09
3.64484512e-09
4.28365211e-09
4.78208011e-09
4.33179082e-09
3.2158139e-09
2.00392173e-09
1.07274453e-09
4.82834734e-10
1.65352778e-10
3.79538425e-11
6.6234297e-12
1.00094551e-13
1.8216046e-09
1.94199681e-09
2.25404194e-09
2.76755371e-09
3.36935395e-09
4.11731477e-09
4.14663324e-09
3.87921662e-09
4.13106845e-09
4.98525146e-09
5.5747207e-09
5.10209151e-09
3.88228345e-09
2.49031943e-09
1.36401e-09
6.21562772e-10
2.13504502e-10
4.89536031e-11
8.53379297e-12
1.288852e-13
1.95399747e-09
2.06421569e-09
2.34002643e-09
2.81172358e-09
3.45544888e-09
4.03122775e-09
4.18870198e-09
4.20504028e-09
4.7896018e-09
5.90840191e-09
6.60374529e-09
6.08363405e-09
4.70303112e-09
3.07379506e-09
1.70866476e-09
7.8483206e-10
2.70227117e-10
6.20659826e-11
1.08935558e-11
1.64491782e-13
2.06915751e-09
2.17143362e-09
2.41654567e-09
2.8279044e-09
3.41144606e-09
3.99238751e-09
4.31403958e-09
4.65809237e-09
5.62145471e-09
7.03715187e-09
7.84302126e-09
7.25296002e-09
5.66244245e-09
3.74638374e-09
2.10375986e-09
9.72228824e-10
3.35884703e-10
7.75722595e-11
1.38163069e-11
2.08674771e-13
2.16500362e-09
2.26280539e-09
2.48630236e-09
2.85557247e-09
3.405068e-09
4.02408638e-09
4.54338145e-09
5.24609381e-09
6.61534863e-09
8.34294286e-09
9.25249142e-09
8.57617338e-09
6.7375683e-09
4.49589528e-09
2.54465437e-09
1.18311364e-09
4.11040794e-10
9.5885026e-11
1.74556536e-11
2.63785528e-13
2.24081753e-09
2.33873569e-09
2.552856e-09
2.90349498e-09
3.45122355e-09
4.14371945e-09
4.88831592e-09
5.96601548e-09
7.74889631e-09
9.78568805e-09
1.07900516e-08
1.00122945e-08
7.90032663e-09
5.30742759e-09
3.02601274e-09
1.41719062e-09
4.9670765e-10
1.17600337e-10
2.20114873e-11
3.32899365e-13
2.29726566e-09
2.4008121e-09
2.62032186e-09
2.97940621e-09
3.56073886e-09
4.36113637e-09
5.35141683e-09
6.80564339e-09
8.99016818e-09
1.13187051e-08
1.2405612e-08
1.15170786e-08
9.12063338e-09
6.16561875e-09
3.5432693e-09
1.67532177e-09
5.94624884e-10
1.43562583e-10
2.7738009e-11
4.19920596e-13
2.33620709e-09
2.45159367e-09
2.69294667e-09
3.08928414e-09
3.74021038e-09
4.67963318e-09
5.92644749e-09
7.74357825e-09
1.03016224e-08
1.28931557e-08
1.40486009e-08
1.30472079e-08
1.03698457e-08
7.05712879e-09
4.09416206e-09
1.96025487e-09
7.07517741e-10
1.74929356e-10
3.49522205e-11
5.29706188e-13
2.36064429e-09
2.49455882e-09
2.77508045e-09
3.23740179e-09
3.99145778e-09
5.09477437e-09
6.59906245e-09
8.75297942e-09
1.164417e-08
1.44625283e-08
1.56730459e-08
1.45647561e-08
1.16245141e-08
7.9733865e-09
4.68047228e-09
2.27746174e-09
8.3939411e-10
2.13215057e-10
4.40387244e-11
6.68133547e-13
2.37444481e-09
2.53366652e-09
2.87042257e-09
3.42553322e-09
4.31162498e-09
5.59612642e-09
7.34956412e-09
9.80485823e-09
1.29812688e-08
1.59869146e-08
1.7241858e-08
1.60412296e-08
1.2869751e-08
8.91296702e-09
5.30934815e-09
2.6356871e-09
9.95694806e-10
2.60322903e-10
5.54546247e-11
8.42186433e-13
2.38215843e-09
2.57302744e-09
2.98185375e-09
3.65297496e-09
4.69373668e-09
6.16874367e-09
8.15551272e-09
1.08713982e-08
1.42822486e-08
1.74366126e-08
1.87305387e-08
1.74611381e-08
1.41022516e-08
9.88370397e-09
5.9944516e-09
3.04749453e-09
1.18340466e-09
3.18554685e-10
6.97356561e-11
1.06005018e-12
2.3882258e-09
2.61654731e-09
3.11117214e-09
3.91676401e-09
5.12763392e-09
6.79480738e-09
8.99385011e-09
1.1928268e-08
1.55253055e-08
1.8795096e-08
2.01298379e-08
1.88244348e-08
1.53322966e-08
1.09040417e-08
6.75663641e-09
3.52935389e-09
1.41105134e-09
3.90615476e-10
8.75055567e-11
1.33125589e-12
2.39668275e-09
2.66759414e-09
3.25893624e-09
4.21192836e-09
5.60100012e-09
7.45554571e-09
9.84341092e-09
1.29572296e-08
1.6699311e-08
2.00606865e-08
2.14472218e-08
2.01477445e-08
1.65846331e-08
1.20034137e-08
7.62389156e-09
4.10147284e-09
1.68858e-09
4.79598556e-10
1.09490992e-10
1.66691773e-12
2.41119627e-09
2.72875944e-09
3.424439e-09
4.53196413e-09
6.10053374e-09
8.13299896e-09
1.06868709e-08
1.39477683e-08
1.78049694e-08
2.12468673e-08
2.27069917e-08
2.14641878e-08
1.78980937e-08
1.32216354e-08
8.63076904e-09
4.78737361e-09
2.0272017e-09
5.88981962e-10
1.36546724e-10
2.08013101e-12
2.43476053e-09
2.80170778e-09
3.60582274e-09
4.86944176e-09
6.6131292e-09
8.81155927e-09
1.15121827e-08
1.4897949e-08
1.88548372e-08
2.23815867e-08
2.39489836e-08
2.2821839e-08
1.93240042e-08
1.46074663e-08
9.8171947e-09
5.61321018e-09
2.43919367e-09
7.22644721e-10
1.6969605e-10
2.58660187e-12
2.46951593e-09
2.88713451e-09
3.80031789e-09
5.21668289e-09
7.12696675e-09
9.47917693e-09
1.23134339e-08
1.58144957e-08
1.98723907e-08
2.35053601e-08
2.52260995e-08
2.42809651e-08
2.09235192e-08
1.62163833e-08
1.12268707e-08
6.60698524e-09
2.93772682e-09
8.84922577e-10
2.10192378e-10
3.20560754e-12
2.51668276e-09
2.98482969e-09
4.00457553e-09
5.56644118e-09
7.63242507e-09
1.01281689e-08
1.30911192e-08
1.67121524e-08
2.08902703e-08
2.46684283e-08
2.66008446e-08
2.59102886e-08
2.27641208e-08
1.8107731e-08
1.29055125e-08
7.79783538e-09
3.53680414e-09
1.08073144e-09
2.59610224e-10
3.9614118e-12
2.57659807e-09
3.09383462e-09
4.21505469e-09
5.91252468e-09
8.12275646e-09
1.07556077e-08
1.38518677e-08
1.76124399e-08
2.19478925e-08
2.59272857e-08
2.8141177e-08
2.77826408e-08
2.49156778e-08
2.03417313e-08
1.48991691e-08
9.21549813e-09
4.25137399e-09
1.31578269e-09
3.19975923e-10
4.88529349e-12
2.64883753e-09
3.21266614e-09
4.4284198e-09
6.25030497e-09
8.59448862e-09
1.13633037e-08
1.46077011e-08
1.85419514e-08
2.30886514e-08
2.73408505e-08
2.9916074e-08
2.99704152e-08
2.74464372e-08
2.29767541e-08
1.72527032e-08
1.08901329e-08
5.09769432e-09
1.59692089e-09
3.93951475e-10
6.01839929e-12
2.73239907e-09
3.339578e-09
4.64190507e-09
6.57707302e-09
9.04754219e-09
1.19574195e-08
1.53749224e-08
1.95303509e-08
2.43569458e-08
2.89665732e-08
3.19912313e-08
3.25412561e-08
3.04194937e-08
2.60668634e-08
2.0009263e-08
1.28526891e-08
6.09401958e-09
1.932617e-09
4.85089616e-10
7.41570306e-12
2.8259219e-09
3.47282772e-09
4.85360994e-09
6.89221961e-09
9.48507888e-09
1.25477828e-08
1.61727537e-08
2.06082577e-08
2.5795344e-08
3.08569241e-08
3.44251574e-08
3.55543885e-08
3.38899447e-08
2.9660553e-08
2.3210254e-08
1.51359093e-08
7.26167462e-09
2.33365748e-09
5.98184434e-10
9.15145407e-12
2.92791396e-09
3.61091893e-09
5.06269935e-09
7.19723501e-09
9.91311294e-09
1.3146975e-08
1.70218464e-08
2.18051828e-08
2.74420499e-08
3.30564028e-08
3.72660947e-08
3.90579623e-08
3.79032436e-08
3.38005668e-08
2.68963253e-08
1.77760607e-08
8.62657473e-09
2.81407903e-09
7.39749816e-10
1.13266193e-11
3.03696525e-09
3.7528072e-09
5.26949086e-09
7.4955404e-09
1.03399363e-08
1.3769285e-08
1.79427912e-08
2.31477046e-08
2.93284679e-08
3.55995581e-08
4.05500178e-08
4.30876887e-08
4.24949937e-08
3.85248811e-08
3.11096696e-08
2.08154598e-08
1.02212452e-08
3.39241105e-09
9.18667939e-10
1.4078992e-11
3.1519227e-09
3.89801282e-09
5.47544315e-09
7.79217643e-09
1.07754164e-08
1.44296197e-08
1.89547504e-08
2.46580669e-08
3.14778036e-08
3.85096551e-08
4.42998752e-08
4.76669333e-08
4.76921853e-08
4.38692357e-08
3.5897311e-08
2.43058157e-08
1.20874194e-08
4.09331448e-09
1.14706273e-09
1.75968385e-11
3.27201684e-09
4.04668442e-09
5.68303458e-09
8.0933853e-09
1.12302326e-08
1.51424717e-08
2.00744401e-08
2.63526053e-08
3.39045596e-08
4.17985027e-08
4.8526166e-08
5.2808324e-08
5.35159935e-08
4.98709763e-08
4.13154768e-08
2.83123913e-08
1.42793069e-08
4.94973013e-09
1.44146738e-09
2.21371904e-11
3.39693371e-09
4.19959397e-09
5.89555865e-09
8.40612902e-09
1.17151248e-08
1.59210903e-08
2.13149452e-08
2.82415622e-08
3.66144411e-08
4.54673385e-08
5.32288327e-08
5.85168074e-08
5.99859779e-08
5.65740977e-08
4.7434931e-08
3.29190041e-08
1.68676754e-08
6.00568934e-09
1.82437062e-09
2.80501602e-11
3.52683138e-09
4.35806867e-09
6.11689794e-09
8.73761254e-09
1.22402787e-08
1.67765666e-08
2.26852603e-08
3.03290878e-08
3.96051914e-08
4.95087267e-08
5.84003525e-08
6.47939691e-08
6.71254575e-08
6.40352642e-08
5.4347141e-08
3.82339257e-08
1.99449549e-08
7.31998428e-09
2.32624306e-09
3.58109538e-11
3.66230549e-09
4.52386835e-09
6.35118876e-09
9.09481802e-09
1.28145591e-08
1.77173389e-08
2.41902845e-08
3.26137484e-08
4.28681528e-08
5.39093409e-08
6.40298199e-08
7.16433429e-08
7.49677528e-08
7.23305472e-08
6.21711782e-08
4.43968209e-08
2.36316622e-08
8.97094692e-09
2.98816012e-09
4.60615685e-11
3.8043131e-09
4.69902917e-09
6.60251762e-09
9.48398732e-09
1.34451522e-08
1.87490331e-08
2.58310172e-08
3.50895895e-08
4.63904423e-08
5.8653436e-08
7.01077408e-08
7.90763649e-08
8.35629454e-08
8.15626298e-08
7.10613317e-08
5.15869847e-08
2.80845502e-08
1.10626398e-08
3.86515001e-09
5.96644728e-11
3.9540676e-09
4.88569482e-09
6.87467128e-09
9.91034925e-09
1.41373148e-08
1.98744767e-08
2.76051687e-08
3.77476265e-08
5.01575855e-08
6.37267684e-08
7.66312162e-08
8.71186036e-08
9.29848221e-08
9.18683081e-08
8.12155451e-08
6.00332896e-08
3.35070086e-08
1.37328139e-08
5.03040046e-09
7.77708572e-11
4.1129182e-09
5.08595004e-09
7.17091205e-09
1.03779008e-08
1.48943062e-08
2.10939934e-08
2.95080751e-08
4.05776482e-08
5.41564248e-08
6.91206955e-08
8.36091815e-08
9.58159163e-08
1.03337738e-07
1.03426249e-07
9.28849749e-08
7.00264302e-08
4.01623539e-08
1.71630269e-08
6.58045191e-09
1.01906305e-10
4.2822274e-09
5.30167222e-09
7.49381484e-09
1.08893108e-08
1.57175025e-08
2.24059233e-08
3.15338447e-08
4.35702011e-08
5.83780964e-08
7.48361843e-08
9.10673879e-08
1.05240244e-07
1.14763263e-07
1.1646517e-07
1.06385198e-07
8.1934235e-08
4.83907405e-08
2.15913296e-08
8.64147979e-09
1.34076906e-10
4.46325885e-09
5.53441359e-09
7.84517596e-09
1.14459454e-08
1.66066768e-08
2.38073198e-08
3.36766425e-08
4.67186121e-08
6.28208813e-08
8.08874871e-08
9.90528822e-08
1.15494878e-07
1.27446667e-07
1.31272861e-07
1.22109848e-07
9.62209544e-08
5.86304433e-08
2.73278919e-08
1.13767199e-08
1.76898955e-10
4.6570855e-09
5.7853229e-09
8.22599707e-09
1.20480069e-08
1.7560412e-08
2.52947633e-08
3.59320176e-08
5.00209148e-08
6.7492796e-08
8.73058517e-08
1.07645266e-07
1.26719712e-07
1.41623605e-07
1.48206802e-07
1.40547728e-07
1.13471498e-07
7.14441677e-08
3.47738321e-08
1.49950056e-08
2.33755413e-10
4.8645254e-09
6.05511125e-09
8.6365413e-09
1.26947678e-08
1.85766086e-08
2.68652235e-08
3.82981751e-08
5.34815515e-08
7.24137282e-08
9.4141866e-08
1.16949092e-07
1.39095501e-07
1.57587557e-07
1.67707426e-07
1.6230464e-07
1.34421479e-07
8.75507417e-08
4.44432857e-08
1.9760254e-08
3.08982202e-10
5.08610949e-09
6.34406255e-09
9.07645254e-09
1.33848763e-08
1.96530424e-08
2.85169066e-08
4.07771072e-08
5.71127514e-08
7.76170175e-08
1.0146708e-07
1.27097487e-07
1.52848244e-07
1.75699043e-07
1.90315539e-07
1.88131201e-07
1.59993533e-07
1.07861932e-07
5.69883643e-08
2.60015593e-08
4.08087309e-10
5.32208233e-09
6.65208543e-09
9.54492522e-09
1.41167049e-08
2.07879281e-08
3.02500235e-08
4.33755114e-08
6.09355185e-08
8.31504668e-08
1.09375164e-07
1.382563e-07
1.68254635e-07
1.96397956e-07
2.1669547e-07
2.18958023e-07
1.91339575e-07
1.3352308e-07
7.32260458e-08
3.41232992e-08
5.38005361e-10
5.57243339e-09
6.97879969e-09
1.00409078e-08
1.48887135e-08
2.19804455e-08
3.20674296e-08
4.61054472e-08
6.49802061e-08
8.90768409e-08
1.17982743e-07
1.50626925e-07
1.856499e-07
2.20221056e-07
2.47666254e-07
2.55938519e-07
2.2988718e-07
1.65954638e-07
9.41651557e-08
4.46143743e-08
7.0739002e-10
5.83695548e-09
7.32364892e-09
1.05633223e-08
1.56997988e-08
2.32311924e-08
3.39751001e-08
4.89847133e-08
6.92867094e-08
9.54740266e-08
1.27430497e-07
1.64452095e-07
2.05450252e-07
2.47828187e-07
2.84242512e-07
3.00499061e-07
2.77386575e-07
2.06889502e-07
1.21030036e-07
5.80554592e-08
9.26934532e-10
6.11532373e-09
7.68602928e-09
1.11112843e-08
1.65496075e-08
2.45425422e-08
3.5982428e-08
5.20369631e-08
7.39043754e-08
1.0243512e-07
1.37885076e-07
1.8002497e-07
2.28198321e-07
2.80039804e-07
3.27686822e-07
3.54395542e-07
3.35949114e-07
2.58398412e-07
1.55279104e-07
7.51214057e-08
1.20978909e-09
6.40719639e-09
8.06541515e-09
1.16843005e-08
1.74387851e-08
2.59188751e-08
3.81023261e-08
5.52915792e-08
7.88917346e-08
1.10068737e-07
1.49542153e-07
1.97696162e-07
2.5450188e-07
3.1788487e-07
3.79574028e-07
4.19764194e-07
4.0807256e-07
3.22892892e-07
1.98606749e-07
9.6584516e-08
1.57186454e-09
6.71229432e-09
8.46149267e-09
1.22824398e-08
1.83691607e-08
2.73666974e-08
4.03511768e-08
5.87834104e-08
8.43163042e-08
1.18500121e-07
1.62632294e-07
2.17892309e-07
2.85129808e-07
3.62703411e-07
4.41868943e-07
4.99166588e-07
4.9663035e-07
4.03089506e-07
2.52919788e-07
1.23287949e-07
2.03229954e-09
7.03048452e-09
8.87426986e-09
1.2906462e-08
1.93438513e-08
2.8894647e-08
4.27486636e-08
6.25524888e-08
9.02547579e-08
1.2787376e-07
1.7743119e-07
2.41144367e-07
3.21073414e-07
4.16291076e-07
5.17004234e-07
5.95604051e-07
6.0481154e-07
5.0192996e-07
3.20296163e-07
1.56145459e-07
2.61381097e-09
7.36186858e-09
9.30415757e-09
1.35578953e-08
2.03672869e-08
3.05133967e-08
4.5317527e-08
6.6643847e-08
9.67937965e-08
1.38358397e-07
1.94276202e-07
2.68127856e-07
3.63605465e-07
4.8072393e-07
6.07921394e-07
7.12478271e-07
7.36003041e-07
6.22436526e-07
4.02900524e-07
1.96099751e-07
3.34298235e-09
7.70684974e-09
9.7520316e-09
1.42390721e-08
2.14451753e-08
3.22355054e-08
4.80833535e-08
7.11076793e-08
1.040323e-07
1.5015583e-07
2.13592268e-07
2.99721029e-07
4.14374292e-07
5.58601652e-07
7.18073264e-07
8.53460208e-07
8.93566636e-07
7.67481913e-07
5.02821605e-07
2.44045906e-07
4.24997349e-09
8.06617134e-09
1.02192602e-08
1.49531165e-08
2.25844124e-08
3.40752482e-08
5.10744932e-08
7.60001121e-08
1.12085485e-07
1.63515342e-07
2.35930802e-07
3.37083611e-07
4.75505636e-07
6.53084656e-07
8.51258501e-07
1.02208786e-06
1.08026728e-06
9.39252086e-07
6.21770807e-07
3.0073827e-07
5.36725622e-09
8.44093791e-09
1.0707705e-08
1.57038972e-08
2.37929679e-08
3.60484845e-08
5.432224e-08
8.1384933e-08
1.21092027e-07
1.78756057e-07
2.62024742e-07
3.81750367e-07
5.49662371e-07
7.67702531e-07
1.01081637e-06
1.21966737e-06
1.29375467e-06
1.13598258e-06
7.60051698e-07
3.66572604e-07
6.72574149e-09
8.83261306e-09
1.12196953e-08
1.64959546e-08
2.50797697e-08
3.81726307e-08
5.78614508e-08
8.7336774e-08
1.31225477e-07
1.96299919e-07
2.9286017e-07
4.35714911e-07
6.39959518e-07
9.05719898e-07
1.19786999e-06
1.44060662e-06
1.45004968e-06
1.30639908e-06
9.14410621e-07
4.41336084e-07
8.34871523e-09
9.24299849e-09
1.17579847e-08
1.73344195e-08
2.64546269e-08
4.04668234e-08
6.17318369e-08
9.39464177e-08
1.42711692e-07
2.16717727e-07
3.29758437e-07
5.01455278e-07
7.4961137e-07
1.06887899e-06
1.40809646e-06
1.63244621e-06
1.5903151e-06
1.44571959e-06
1.0812043e-06
5.24182007e-07
1.02474026e-08
9.67419856e-09
1.2325696e-08
1.82249402e-08
2.79282302e-08
4.29523815e-08
6.59802374e-08
1.01329116e-07
1.55854244e-07
2.40789158e-07
3.74453219e-07
5.81858122e-07
8.81479392e-07
1.25730243e-06
1.63680487e-06
1.77490102e-06
1.74382644e-06
1.59839657e-06
1.25694611e-06
6.135797e-07
1.24147749e-08
1.0128576e-08
1.29262665e-08
1.91736408e-08
2.95122821e-08
4.56537059e-08
7.06642934e-08
1.09637077e-07
1.71069797e-07
2.69573113e-07
4.29124017e-07
6.79930626e-07
1.03720328e-06
1.4680705e-06
1.87655259e-06
1.93053969e-06
1.91128838e-06
1.76396558e-06
1.42882115e-06
7.07051998e-07
1.48152369e-08
1.06087068e-08
1.35634041e-08
2.01871345e-08
3.12198209e-08
4.85998083e-08
7.58581027e-08
1.1907758e-07
1.88934983e-07
3.04479778e-07
4.96352742e-07
7.98382038e-07
1.2166838e-06
1.69524124e-06
2.02931e-06
2.10190047e-06
2.09305918e-06
1.9406234e-06
1.57561965e-06
8.02157213e-07
1.74004765e-08
1.11173418e-08
1.42410681e-08
2.12726239e-08
3.30658215e-08
5.1826725e-08
8.16606236e-08
1.29938447e-07
2.10245017e-07
3.47329004e-07
5.78988661e-07
9.39301156e-07
1.41888373e-06
1.93630977e-06
2.19490822e-06
2.28885799e-06
2.28905875e-06
2.12745787e-06
1.72651064e-06
8.97239587e-07
2.01271513e-08
1.16573842e-08
1.49634902e-08
2.2438123e-08
3.50681846e-08
5.53811753e-08
8.82078483e-08
1.42622574e-07
2.36080192e-07
4.00362239e-07
6.79868019e-07
1.10373991e-06
1.6417071e-06
2.18913571e-06
2.37544162e-06
2.49093318e-06
2.49841068e-06
2.32359546e-06
1.88196974e-06
9.91238369e-07
2.29600998e-08
1.22318942e-08
1.57352534e-08
2.36928531e-08
3.72492726e-08
5.93259621e-08
9.56900428e-08
1.57692788e-07
2.67870468e-07
4.66169376e-07
8.01384773e-07
1.29106204e-06
1.87951796e-06
2.38918396e-06
2.57265504e-06
2.70790328e-06
2.71969985e-06
2.52776854e-06
2.04157924e-06
1.08349773e-06
2.58715503e-08
1.28441306e-08
1.65614519e-08
2.50478764e-08
3.96382089e-08
6.37477947e-08
1.04375632e-07
1.75927236e-07
3.07443684e-07
5.47531395e-07
9.45232191e-07
1.4999024e-06
2.13002654e-06
2.57538172e-06
2.78638743e-06
2.93910804e-06
2.95151062e-06
2.73850074e-06
2.20433398e-06
1.17358977e-06
2.88382879e-08
1.34976446e-08
1.7447961e-08
2.65170623e-08
4.22742543e-08
6.87684701e-08
1.14643526e-07
1.98383111e-07
3.57036094e-07
6.47190173e-07
1.11229894e-06
1.72869654e-06
2.39251772e-06
2.77686124e-06
3.01616965e-06
3.18337513e-06
3.19178895e-06
2.95357911e-06
2.36856774e-06
1.26091525e-06
3.18287688e-08
1.41964436e-08
1.84018601e-08
2.81185226e-08
4.52117061e-08
7.45606417e-08
1.27025431e-07
2.26460858e-07
4.19233913e-07
7.6755554e-07
1.30262529e-06
1.97579174e-06
2.66671409e-06
2.99510119e-06
3.26139697e-06
3.43920522e-06
3.43839404e-06
3.17016352e-06
2.53115047e-06
1.34186604e-06
3.47150373e-08
1.49452487e-08
1.94320651e-08
2.98767066e-08
4.85269388e-08
8.13696893e-08
1.42258495e-07
2.61952096e-07
4.96810366e-07
9.10327839e-07
1.51496162e-06
2.23718834e-06
2.9185399e-06
3.2312806e-06
3.52123349e-06
3.70484611e-06
3.68918381e-06
3.38571686e-06
2.68915151e-06
1.40973117e-06
3.73919904e-08
1.57498816e-08
2.05502581e-08
3.182544e-08
5.23284459e-08
8.95434545e-08
1.613464e-07
3.07049562e-07
5.92484879e-07
1.07635275e-06
1.74754089e-06
2.51059562e-06
3.14172694e-06
3.48503226e-06
3.79442314e-06
3.97835647e-06
3.94204207e-06
3.59834272e-06
2.84140789e-06
1.4728079e-06
3.99160055e-08
1.66178305e-08
2.1772238e-08
3.40123136e-08
5.67710553e-08
9.95716181e-08
1.85622896e-07
3.64295491e-07
7.08658045e-07
1.26570057e-06
1.99874275e-06
2.79581723e-06
3.38157414e-06
3.75512151e-06
4.07932224e-06
4.25772764e-06
4.19508447e-06
3.80675089e-06
2.98764188e-06
1.53233563e-06
4.23312409e-08
1.75590708e-08
2.31198788e-08
3.65050021e-08
6.20758392e-08
1.12135878e-07
2.16805219e-07
4.36451489e-07
8.47186246e-07
1.47785111e-06
2.26723357e-06
3.09302783e-06
3.63897319e-06
4.04028162e-06
4.37408683e-06
4.54101286e-06
4.446742e-06
4.01013953e-06
3.12798862e-06
1.58908472e-06
4.4666802e-08
1.85872509e-08
2.46239638e-08
3.94003415e-08
6.85575996e-08
1.28170199e-07
2.57016915e-07
5.26292652e-07
1.00924967e-06
1.71190484e-06
2.55196272e-06
3.40244648e-06
3.91407682e-06
4.33911005e-06
4.67681221e-06
4.82642374e-06
4.69577107e-06
4.20806375e-06
3.26274814e-06
1.64353122e-06
4.69405663e-08
1.97214094e-08
2.63282976e-08
4.28373067e-08
7.66619314e-08
1.48926168e-07
3.08752496e-07
6.36350411e-07
1.19530523e-06
1.96668353e-06
2.85194635e-06
3.72402623e-06
4.20643159e-06
4.65005514e-06
4.98563501e-06
5.11238555e-06
4.94122461e-06
4.40032266e-06
3.39226444e-06
1.69597077e-06
4.91630048e-08
2.09884664e-08
2.82956679e-08
4.70154163e-08
8.70133921e-08
1.76031306e-07
3.74758693e-07
7.6865037e-07
1.40505844e-06
2.24043637e-06
3.16456725e-06
4.03037374e-06
4.51552438e-06
4.97150922e-06
5.29881041e-06
5.39755735e-06
5.18240669e-06
4.58687341e-06
3.51687162e-06
1.74658996e-06
5.13399248e-08
2.24268516e-08
3.06164869e-08
5.22204848e-08
1.00474655e-07
2.11519767e-07
4.57832386e-07
9.24544089e-07
1.63767342e-06
2.53156548e-06
3.48901189e-06
4.33077603e-06
4.83956353e-06
5.30170066e-06
5.61472571e-06
5.68082061e-06
5.41882283e-06
4.76777054e-06
3.63687347e-06
1.79551027e-06
5.34742766e-08
2.40918023e-08
3.3421281e-08
5.88599335e-08
1.18212808e-07
2.5780861e-07
5.60570017e-07
1.10467535e-06
1.89202207e-06
2.83883536e-06
3.82531076e-06
4.6480072e-06
5.17648418e-06
5.63880394e-06
5.93191467e-06
5.9612548e-06
5.65013405e-06
4.94312483e-06
3.75253861e-06
1.84281472e-06
5.55672992e-08
2.6063106e-08
3.6898633e-08
6.75096672e-08
1.41762332e-07
3.17595816e-07
6.85131496e-07
1.30906081e-06
2.1668648e-06
3.16127018e-06
4.1733953e-06
4.98132083e-06
5.52438043e-06
5.98107122e-06
6.24907199e-06
6.23810809e-06
5.8761119e-06
5.11306425e-06
3.86408321e-06
1.88854881e-06
5.76184719e-08
2.84564159e-08
4.13206869e-08
7.89732534e-08
1.7306525e-07
3.93675827e-07
8.3308304e-07
1.5372319e-06
2.46095535e-06
3.4980438e-06
4.5330129e-06
5.32948147e-06
5.8814251e-06
6.32688321e-06
6.56505352e-06
6.51076458e-06
6.09658303e-06
5.2776148e-06
3.97132978e-06
1.93254042e-06
5.96189002e-08
3.14397459e-08
4.70787829e-08
9.43507678e-08
2.14460997e-07
4.88702457e-07
1.00535162e-06
1.78838373e-06
2.77308719e-06
3.84839425e-06
4.90372327e-06
5.69095017e-06
6.24585859e-06
6.67476032e-06
6.87886193e-06
6.77871095e-06
6.31139906e-06
5.4367669e-06
4.07414606e-06
1.97465388e-06
6.156035e-08
3.52573725e-08
5.47318681e-08
1.1510811e-07
2.68599434e-07
6.04960146e-07
1.20227746e-06
2.0614973e-06
3.10210442e-06
4.21156847e-06
5.28492627e-06
6.06401968e-06
6.61600058e-06
7.02335536e-06
7.18962683e-06
7.04151511e-06
6.52044026e-06
5.59056228e-06
4.17271098e-06
2.0149379e-06
6.34406655e-08
4.02641002e-08
6.50693945e-08
1.4312782e-07
3.38269071e-07
7.44208508e-07
1.42371971e-06
2.35542485e-06
3.44689415e-06
4.58679038e-06