/*--------------------------------*- C++ -*----------------------------------*\
| =========                 |                                                 |
| \\      /  F ield         | OpenFOAM: The Open Source CFD Toolbox           |
|  \\    /   O peration     | Version:  2312                                  |
|   \\  /    A nd           | Website:  www.openfoam.com                      |
|    \\/     M anipulation  |                                                 |
\*---------------------------------------------------------------------------*/
FoamFile
{
    version     2.0;
    format      ascii;
    arch        "LSB;label=32;scalar=64";
    class       volScalarField;
    location    "0.48/water";
    object      epsilon.gas;
}
// * * * * * * * * * * * * * * * * * * * * * * * * * * * * * * * * * * * * * //

dimensions      [0 2 -3 0 0 0 0];

internalField   nonuniform List<scalar> 
6000
(
17.3951734044
2.75994455756
0.510072723981
0.119338425742
0.0370431997522
0.00727154147436
0.00195566737616
0.000902323155587
0.000605094360726
0.000498458612307
0.000453831029735
0.000433161173948
0.000422782296414
0.000417131531842
0.000413801225203
0.000411707466146
0.000410337449225
0.00040942894587
0.000408834941417
0.00040846701522
556.777746354
107.349762044
18.2066285999
3.76491780756
0.687463047562
0.18782587199
0.0419824327061
0.00780706377376
0.00197834147117
0.000887955312223
0.000597767620249
0.000495044719659
0.000452077962142
0.000432156169641
0.000422069300662
0.000416467106217
0.000413068153806
0.000410869555803
0.000409409631996
0.000408458934373
783.250431802
183.655943661
41.216909506
8.83058479851
2.07182155204
0.460915592375
0.12782498162
0.0292767504953
0.00610528659543
0.00181178180318
0.000887062148773
0.000611158668198
0.000505816447657
0.000459483730041
0.000437251148453
0.000425734032353
0.000419235048003
0.000415241083987
0.000412635519346
0.000410913696917
997.418467223
248.388340658
62.0037437701
15.1468851279
4.14029589371
0.901078442819
0.235510631963
0.0673059733828
0.0151514141242
0.00362496422475
0.00136580603991
0.000785337906457
0.000583415316865
0.00049820480331
0.000458185809851
0.000438034507789
0.000427171728933
0.000420831355163
0.000416838995426
0.000414216658898
1083.8954375
285.723513151
76.5579494067
20.6903426138
5.33411894182
1.61629193988
0.34636311863
0.105870313081
0.03043328709
0.00687181510682
0.00210443753242
0.00102404587169
0.000684245356918
0.000547630803559
0.000484573924145
0.000453142525513
0.000436553081097
0.000427218275479
0.000421564674887
0.000417932037254
1057.53751003
296.204608255
85.0981995902
24.879205371
7.12658241767
1.87648867992
0.569355944002
0.128919412438
0.0466968268301
0.0123137021749
0.0032383505894
0.00134265636989
0.000808834394699
0.000606834835896
0.000515745655027
0.000470640185618
0.000447014192386
0.000433988547815
0.000426348096748
0.000421579965845
991.796919173
290.75872609
88.3850906848
27.4703740587
8.45536763892
2.47516106746
0.647185184472
0.186109592496
0.051727199787
0.0195206298978
0.00500467949052
0.00177329427466
0.000960581628773
0.000675498664594
0.000551148227013
0.000490204204697
0.000458390226579
0.000441017807213
0.000431048502843
0.00042499752794
959.850411352
287.48267592
90.1413550694
29.008260455
9.32182652635
2.92447378835
0.861155816421
0.246721198549
0.0648761963397
0.0243269282989
0.00773524105884
0.00239075280394
0.00114992137883
0.000754895440118
0.00059069428785
0.000511695199066
0.000470663850045
0.00044835357598
0.000435717388304
0.000428233780944
956.64659025
290.843479492
92.1382411124
29.9995228206
9.8596535118
3.25766264858
1.06127567628
0.320376898237
0.110415978003
0.0292444554646
0.0115640702553
0.0034097724555
0.00141028186976
0.000850902130105
0.000635597906679
0.000535461304175
0.000484061057978
0.000456229365195
0.000440578296385
0.0004314517573
1001.91804083
303.93059383
95.1422240898
30.7270992484
10.2368120757
3.53447892384
1.25185232981
0.437977035272
0.142055394352
0.0530507669217
0.0161457704819
0.00545436251058
0.00185598321872
0.000982881874489
0.000690260327586
0.000562858649821
0.000499189464944
0.000465017898413
0.000445895711932
0.000434856048851
1148.13873537
332.378791314
100.001766061
31.8991478526
10.8185569349
3.883975046
1.47128860227
0.573473679618
0.223581890915
0.0902815971669
0.0278706555785
0.00931333885158
0.00279693060905
0.00119466388832
0.000762759740415
0.000595988213707
0.000516821971703
0.000475121574773
0.000451932908272
0.000438629843305
1286.49165279
355.945762999
105.617957095
33.8862450698
11.724996619
4.34542228947
1.72189200086
0.72803568756
0.322773695071
0.146482983094
0.0681496381464
0.0147384944327
0.0048706603186
0.00159654132579
0.000869823809185
0.000638572060924
0.000538091282519
0.000486982334124
0.000458902432733
0.000442889741955
1303.33044219
364.308207006
109.222349712
35.4994901034
12.5250955295
4.77767977906
1.9684558395
0.883628432874
0.428430207752
0.226038013666
0.108795033162
0.0334995927956
0.00794560942074
0.00244204280241
0.00104417446577
0.000696546609849
0.000564564902259
0.000501096265411
0.000466962059584
0.000447683225967
1310.82868342
366.97446795
110.593143181
36.3174774484
13.0258124011
5.09700208533
2.17495697772
1.01951889883
0.528461500641
0.306763291304
0.184151724155
0.0716722982978
0.0115578311239
0.00391481749947
0.00134078644243
0.000778485575636
0.000598552246095
0.000518173997287
0.000476303761801
0.000453052579747
1304.83490846
367.187571315
111.03454974
36.663089467
13.2872761428
5.2975147845
2.32571535946
1.12963082832
0.612783900856
0.380004458045
0.259857046004
0.125644350497
0.0270214149624
0.00509360167873
0.00183534281754
0.000898680805396
0.000643911595554
0.000539396769792
0.000487294784602
0.000459132112117
1308.79354987
368.454880475
111.532219699
36.8391088408
13.4100946723
5.41470707118
2.42999318467
1.2137758064
0.679380665629
0.4435987678
0.326836543573
0.193055950927
0.0533207472519
0.00590929756188
0.00251293501834
0.00108407953474
0.000707323618064
0.000566669404362
0.000500594518924
0.00046622059482
1323.15721987
373.125593584
112.7964594
37.1942914374
13.5532298729
5.50934121524
2.50669187483
1.27652480471
0.733482896195
0.498806014925
0.385924103968
0.256090031872
0.0899290077429
0.0106919992224
0.00348978511242
0.00140251111727
0.000800753572636
0.000602951969631
0.000517234862465
0.00047480545949
1368.33980228
383.523762685
115.646209261
38.0585174295
13.8372507979
5.61681685364
2.56086689988
1.31866690156
0.77959048947
0.550629282657
0.442280513935
0.315152404154
0.141414309476
0.0277422199339
0.00541584821653
0.00199705851588
0.00094508460118
0.000652752588241
0.000538671460767
0.000485539669395
1429.59887393
399.302036859
120.035163254
39.4645852467
14.287426562
5.74618076092
2.5982583591
1.34807440728
0.822613490692
0.601488069689
0.502312568617
0.377500515707
0.201116805777
0.0624047586871
0.00992807812678
0.00325661977375
0.00118532862154
0.000723570401365
0.000566879674006
0.000499189672688
1482.67965533
413.359456646
124.891403073
41.3016073647
14.9025522089
5.8948403765
2.62030521106
1.36532243255
0.856981781311
0.643156295316
0.547591252446
0.450402685939
0.275963397042
0.100288541829
0.0208174891932
0.00612116626724
0.00162125507222
0.000828298844756
0.000604551174892
0.000516602677957
1450.79641006
416.595417368
129.766722803
43.6489260618
15.5935697569
5.97137279295
2.58540050251
1.35354439441
0.869125247891
0.658762862408
0.565738506686
0.50387406271
0.370351003607
0.170699042702
0.0463824216693
0.0113843416706
0.00248128027454
0.000989833196502
0.000655400428093
0.000538719799534
1395.99216624
423.225057049
136.774677277
46.1030174425
15.9677813679
5.85551968622
2.5057082198
1.33233159127
0.857414285792
0.643746434121
0.551435245049
0.507386064033
0.433796493145
0.2689831389
0.0896692683813
0.0156986056396
0.00423399494194
0.00125218557852
0.000724936153149
0.000566703063026
1466.57216778
454.594519475
146.74446984
48.0166127567
16.0349765348
5.81053022223
2.51672747476
1.3280739145
0.836387654988
0.6145270979
0.518832551742
0.481402144845
0.43455205879
0.34016220347
0.156257394966
0.0279691478658
0.00651519797554
0.00169145321803
0.000821319970865
0.000602089656635
1649.25885205
505.890639522
157.228809562
49.7667580302
16.620201259
6.1236340506
2.651266477
1.36324370557
0.828132405196
0.592405655599
0.490830076369
0.449556383388
0.418587898214
0.352969785072
0.224512145265
0.0523979032227
0.00661512114134
0.00238410528859
0.000956635291097
0.000646849933497
1913.75581354
560.254151598
167.04593966
52.3761750557
17.9219413177
6.80266188557
2.9210828356
1.4510378142
0.84779215216
0.592164814934
0.480028398459
0.42752333534
0.4025004106
0.3554230861
0.269415102537
0.0965384143031
0.00915661018475
0.00311518397387
0.00114921778074
0.000703831422426
2188.34012633
607.937191038
176.838221165
55.7929603634
19.5145768901
7.56291168738
3.25291479947
1.58102953862
0.898752319614
0.616537028809
0.487274910807
0.420590955961
0.393886841558
0.361974097001
0.299187728803
0.145996842426
0.0203030084083
0.00338066808574
0.00142625316943
0.000777745923584
2388.99125843
641.970270277
185.946209725
59.1327064819
20.9518161566
8.22915630524
3.55712926741
1.71584383357
0.967579113811
0.655346893537
0.506977146785
0.429562892726
0.397976217976
0.378841010898
0.330799312019
0.196289863909
0.035200268386
0.00367887652624
0.00182242229506
0.000876210572096
2455.05564655
659.044864976
191.431338754
61.246058534
21.9094410829
8.70512479216
3.79427316217
1.84047300269
1.04463384847
0.700655821386
0.534973968618
0.451654243616
0.417601504344
0.409081824906
0.374291585906
0.252809880761
0.0669003740171
0.00527544448486
0.00239540105942
0.00101306062669
2512.48160705
671.497812595
195.044981187
62.5249633804
22.4994068867
9.02894194024
3.98000658273
1.95883964702
1.12405497941
0.747834113123
0.568587751555
0.483513207842
0.450847916512
0.454685434079
0.43457149093
0.320414624888
0.115318607602
0.0105894807568
0.00321502195121
0.0012146929906
2552.4552911
682.155666192
197.699006777
63.3091896419
22.8663517441
9.25392223482
4.12900512889
2.0671054063
1.19619348144
0.792016254365
0.605234268958
0.5223993614
0.494510867694
0.512783979025
0.504002178819
0.393590221493
0.178741283737
0.025976401405
0.00415377312935
0.00152240275814
2610.35063929
694.497532089
200.924032944
64.2729972717
23.2377704758
9.44222503309
4.24933545952
2.1575264
1.25234581969
0.829431262911
0.642340306261
0.565879682677
0.545388184342
0.574314295493
0.56632262396
0.452719237726
0.25235003407
0.0484585718659
0.00497150697704
0.00198991644312
2662.93938168
708.425199963
204.987676905
65.5694481551
23.6836636664
9.61908313682
4.34804262712
2.22600899952
1.28925541285
0.858859804503
0.67832185301
0.611883293284
0.600076611985
0.631910795157
0.616991833676
0.506845802599
0.325094738256
0.0858979400105
0.00678746556195
0.00268976613329
2750.35797982
724.312838543
209.174583802
66.8528799969
24.1020063537
9.76133811685
4.4208901137
2.2654364572
1.30668571595
0.880585465632
0.711642212855
0.657773139014
0.654669704658
0.679697407339
0.65706047799
0.555551368994
0.388162576381
0.137525875708
0.0127023678884
0.00367836903031
2840.81461469
745.430655106
214.196957416
68.2919594439
24.5343123419
9.89180454947
4.47417441531
2.27508546385
1.30850847177
0.895136745859
0.739474155528
0.698414556213
0.701959598153
0.711169840992
0.686900774257
0.600751101496
0.439903614715
0.194003907229
0.0279340149535
0.00486173123085
2939.86069989
766.077343912
219.26637757
69.7097495974
24.9367889456
10.0074059094
4.49800394161
2.25609603559
1.29813025769
0.901486395318
0.756431512344
0.724598355696
0.728366030905
0.722603513192
0.708299271838
0.647606940377
0.495950898284
0.257392211587
0.054586690796
0.00615163324871
3003.7069772
783.40247571
223.959199663
71.0992224171
25.3343512734
10.1124194898
4.4882684063
2.21890105064
1.27869080522
0.896152096056
0.755147176021
0.72410114341
0.720643983288
0.716036696783
0.724174064842
0.703876036296
0.573586144727
0.333687308341
0.0811189141088
0.00812588841659
3069.02165177
795.944966463
227.791791953
72.4268953176
25.7835867942
10.2282934879
4.46403605188
2.17384118445
1.24815933588
0.872416268154
0.729587164926
0.693592767533
0.689769226789
0.700442622045
0.742087871833
0.774353197795
0.673883720963
0.427547652755
0.128695831346
0.0125682444167
3100.96562653
802.672624486
230.604236218
73.7369936761
26.3122769156
10.3503972127
4.41605219409
2.10036622948
1.18972113489
0.823204156918
0.684202565667
0.653014911131
0.66236490493
0.68848149776
0.769692366602
0.850221936492
0.777678767681
0.52991444321
0.193461089279
0.0229881618833
3107.63166736
801.869605464
231.828409361
74.9236364541
26.863236716
10.3993100432
4.25551597363
1.95514099602
1.10015538319
0.764970920227
0.641599637635
0.621521437797
0.647151542808
0.687066241459
0.804351500179
0.919706190686
0.872464836764
0.61298309141
0.268046824135
0.0452397234642
2995.76667284
779.505876455
228.781484433
75.3813693167
27.1845337694
10.1070284221
3.90119746088
1.77571382442
1.01830921386
0.719192235878
0.609660341313
0.595576330066
0.632912535269
0.695088914748
0.840502745803
0.982444830345
0.957504883845
0.702758232611
0.343450867099
0.0794833733984
2769.09585777
730.216749334
221.417823899
75.621349006
26.962241259
9.33405194261
3.48734968549
1.63117912395
0.956000931965
0.685147214618
0.582896236401
0.576381670122
0.62417314098
0.70387047834
0.872807425506
1.03696756563
1.02522970174
0.793052951341
0.413194379155
0.103672579173
2336.69592971
658.791873717
213.823064605
76.0153888653
25.6467216167
8.3515878901
3.16016391989
1.51727343862
0.905319019094
0.65405147309
0.559746684527
0.555983124868
0.610632132161
0.701372592508
0.888241245961
1.06946272678
1.0619667923
0.864992922347
0.478823934967
0.149877157425
1911.25901755
616.652964324
217.531264282
75.8052618852
24.0663569149
7.67779804659
2.9171159646
1.42404713187
0.860484596226
0.621159965427
0.530705532544
0.522494080752
0.575975612618
0.671119427211
0.861493017738
1.05220431264
1.0499858235
0.896563620472
0.526040996636
0.206321727805
1820.69882343
677.435445798
243.101293825
80.4770553501
24.1402519378
7.50587117823
2.84628694593
1.38256023979
0.81982069122
0.583865577194
0.487896612096
0.467056340006
0.507285966569
0.597817820807
0.766937141616
0.951492232495
0.968519888156
0.868100576178
0.560514692603
0.262947032149
2496.46654984
933.292913575
313.941417814
95.0471741034
27.8676693544
8.77420832949
3.25656466735
1.47865381807
0.822290904453
0.554535280466
0.439156206414
0.396717667799
0.411898926989
0.482065622365
0.610882034036
0.764694412008
0.81089130275
0.776526742038
0.572941640109
0.312604833771
4835.97037101
1531.80488948
437.311922493
129.57446355
40.4053484283
13.3113248545
4.74362020966
1.92565975867
0.94222265147
0.567400884919
0.409223574922
0.337778893933
0.320332305337
0.356703427119
0.441179044073
0.547638061988
0.612747770479
0.646337921632
0.554619019958
0.335101575153
8997.55509326
2231.49089135
631.267789068
197.419735829
65.768423931
22.4459205351
7.87614797894
2.94798813944
1.26405053905
0.66066200851
0.422362154212
0.313448576257
0.263585432805
0.263657729075
0.307885001311
0.37094706723
0.437792864074
0.51749705928
0.515641819418
0.34218268552
10327.1601268
2629.39102486
828.989296922
293.084958325
103.831238913
35.4921435933
12.3013889232
4.50034407098
1.81404212038
0.853347785213
0.488216222034
0.328300478652
0.248146778319
0.216245731029
0.227177533141
0.261502501547
0.323131239815
0.422012935479
0.478860991904
0.351106055651
8992.09809137
2517.67822479
838.585750721
311.805924455
122.875898486
48.212229594
16.7590499271
6.18326460603
2.49126493006
1.12754286395
0.600547021087
0.375083241165
0.262956754555
0.205585872737
0.191778448306
0.204696505395
0.26124341455
0.369030118811
0.456155961046
0.366323480094
7793.53460727
2226.95068612
750.454656664
286.875093139
119.35170911
51.3064329242
19.878259891
7.71159304762
3.1765834251
1.43670547584
0.741980528379
0.442769963552
0.295573548818
0.217650173824
0.185765829958
0.184383723294
0.235054208902
0.351681938241
0.452161682051
0.391684784525
7033.82265436
1969.63907551
653.140306748
250.230501115
107.185837349
48.6484900924
20.2024085861
8.41706786898
3.66382969019
1.71001005254
0.886375936775
0.51818464146
0.336561026017
0.241751058374
0.196953792297
0.186872812045
0.234147685447
0.360523891443
0.468053596003
0.431313430545
6646.54770905
1786.04616036
564.407878674
210.910391062
90.6235712156
41.6786394666
18.5054793193
8.31774338666
3.84712175833
1.87518314696
0.995700695165
0.582792311193
0.376074761631
0.269657117861
0.217827227105
0.204464320019
0.25124355645
0.388551822996
0.501240265646
0.48728772338
6760.87158727
1682.60092545
498.371630784
177.271478871
74.5886855592
34.3611954938
16.3608701424
7.84725793067
3.82565196718
1.94566257475
1.06245751479
0.628617111392
0.409325582433
0.297969357083
0.243700191953
0.232291404515
0.284507261996
0.430528255574
0.547286345882
0.554326857701
7454.56952573
1701.62708837
469.688601458
159.814623427
64.3645294993
30.2824086102
14.8422051865
7.38215332528
3.72804568886
1.95904992361
1.09270093197
0.654182535989
0.435770483416
0.32686672674
0.273626203269
0.267375202186
0.33083886713
0.481111988005
0.601118632725
0.628291670362
8911.21248049
1849.4544333
485.935539909
157.126429201
63.038961507
28.8467459987
14.0812785313
7.06715458951
3.63152483417
1.93960142696
1.08884478636
0.661369028782
0.457999740017
0.35851412994
0.310204552064
0.309582300707
0.385619132371
0.533256615838
0.661312529667
0.710401269621
11011.4206348
2182.63426987
551.115265068
175.57844849
66.9001762017
29.1691825071
13.8364134687
6.87622205103
3.53437206949
1.87782345144
1.04882027418
0.656276781005
0.480338554577
0.394643966523
0.35303689939
0.358639983608
0.442920687007
0.583443806882
0.728812028956
0.804096867993
14026.0457599
2703.00438193
682.648104864
207.564249607
73.9210209426
30.297117553
13.7912395593
6.70316732242
3.37286214293
1.74629555395
0.980253695342
0.648349563686
0.506756477536
0.43565195085
0.400478014027
0.411933928966
0.49644461271
0.630939605174
0.802789666682
0.910627780688
16417.6221539
3221.93033649
819.956266652
240.891355753
81.1842991069
31.419921272
13.6719808253
6.37985827472
3.06503234713
1.55014839814
0.90412080876
0.646439361256
0.538409175165
0.479711345446
0.448882196379
0.464206680123
0.540477072229
0.673914811951
0.878365317745
1.02510463519
16019.7970285
3344.61492667
882.759375393
261.016310675
85.9426096719
31.8809968249
13.1342522832
5.74585337894
2.63053105515
1.34482415698
0.843449055997
0.654598921703
0.572945624855
0.522890953839
0.494263172484
0.506704979892
0.57230699095
0.708541393627
0.946588375383
1.13970894638
14705.8088531
3149.21501032
865.80001678
261.287913036
85.4348644526
30.4437866811
11.7886937298
4.88111141915
2.2041290834
1.18327643695
0.808640399572
0.669739628903
0.605224802201
0.560731034938
0.533503104892
0.534187643528
0.586419889789
0.730289486145
0.995019870565
1.24563612436
12510.9947598
2776.20782094
781.287100397
237.984619706
76.8403603647
26.651519967
10.0439707808
4.09007299522
1.88520465248
1.0829545212
0.793899315744
0.682965772577
0.628470442821
0.588960374612
0.563361850703
0.547727398249
0.580495316749
0.734832374391
1.00467412028
1.31908413539
9802.58869382
2220.14878173
630.323132554
194.691097073
63.8179963364
22.630081358
8.60122820608
3.52862765738
1.69137576503
1.03050384007
0.783993766443
0.683318205054
0.63413042836
0.602834914503
0.577557655566
0.549516251255
0.560390724373
0.692851777798
0.959946571231
1.32165755964
6864.54645151
1635.6496955
485.180977383
156.558557979
54.1718656663
19.9384156893
7.68197399698
3.21931470352
1.60360048325
1.00224321531
0.763016347072
0.659559819548
0.612359093912
0.590703577902
0.566661188709
0.536972572377
0.530994359486
0.61150561199
0.860253646453
1.21872639094
4772.71866983
1277.86164384
405.65893356
138.976449015
50.3514816636
19.067671368
7.45355096312
3.15324535008
1.57814561846
0.974505065035
0.720891596848
0.606739003015
0.556719810107
0.535654105494
0.520136786792
0.497464704869
0.485168813923
0.518271190767
0.692995019662
1.01949746652
3791.21291304
1194.30950342
403.835104674
145.781159286
54.1681916693
20.3216855886
7.80834362153
3.27077620069
1.61194207502
0.957214604253
0.670392361147
0.535416628729
0.471093752776
0.445000564722
0.435849692565
0.424584807198
0.413876964607
0.424648255566
0.510311459889
0.777403021096
4265.61190877
1431.44174278
486.497906135
171.038198167
61.6225846294
22.8049098335
8.79410226772
3.70504678832
1.79273212982
1.00538010565
0.647051625027
0.473300514833
0.386450649493
0.346844583787
0.334796959724
0.331180746429
0.326455174032
0.330548391677
0.370532042811
0.52583320075
5597.1618479
1834.63661564
567.324092104
187.786562635
67.537241643
26.1439464625
10.6641490074
4.65942124243
2.24116940314
1.19264224932
0.699989542969
0.459737736597
0.338544183271
0.276969278746
0.251433809321
0.245646887217
0.245227152837
0.249875227073
0.272309122206
0.35228564267
6489.63107742
1934.03818773
619.512301224
213.718715556
80.011553453
33.285262726
14.3519768533
6.47448822791
3.09692844028
1.58150586166
0.867703452465
0.519758457164
0.34567380405
0.253692084551
0.20807427063
0.191557830233
0.189349018844
0.194727677902
0.210691340753
0.258345061308
5816.20734264
1792.57137636
613.740673557
234.630944879
99.6768897313
46.3754163789
21.0529070727
9.55001573177
4.50683854959
2.23023031424
1.16863660185
0.660845076701
0.40817996174
0.274018432743
0.203949456781
0.172659672268
0.163337074996
0.166334081751
0.178715990304
0.209558196285
4968.45743768
1573.47453794
573.72508679
239.201678332
112.112146054
57.5412359099
29.3472681329
13.7808139796
6.50897003244
3.16886095446
1.61595990904
0.882991268347
0.520396558771
0.328598966695
0.228275538078
0.180123660838
0.160866642135
0.158613824077
0.167302167605
0.188667703371
4065.13186195
1313.52343736
500.648203072
222.506668293
112.255251516
61.9144121989
34.3208470964
17.2971322364
8.46378013084
4.17788828028
2.13200211192
1.15357038865
0.665030662325
0.405498824898
0.270207103333
0.20389908096
0.173781273178
0.164715989443
0.168883952991
0.184105991439
3463.45076224
1092.37834931
420.35948778
194.538238267
103.886405028
60.6938191543
35.7389186343
19.1578374109
9.8105884053
4.99251197642
2.59801482599
1.41917885059
0.816972082367
0.492079388311
0.321483087084
0.236983667599
0.196130183305
0.179763721412
0.17873954031
0.188521860818
3026.00522461
928.591570638
353.386241996
166.057211448
91.7460592832
55.6775668871
34.1359912979
19.2338330463
10.3069609054
5.44590635837
2.92123007909
1.63239367445
0.953225319938
0.57758623286
0.376653609408
0.275689848042
0.224830065176
0.201190355463
0.194494029431
0.198635244069
2707.06570126
815.860492111
303.97342098
141.386826252
78.7098824543
48.5810022588
30.4635925907
17.8278237943
9.97078169492
5.48430018088
3.05062306011
1.75952707229
1.05441896913
0.651569468956
0.430529465257
0.317291139219
0.258121652354
0.227699687412
0.215067350986
0.212947109229
2664.94669937
759.796462877
269.371575536
120.17926656
65.6313030529
40.4526569851
25.5467787414
15.4493289314
9.00281643716
5.159280921
2.98779790582
1.79097511106
1.11041238012
0.706001744873
0.478284206754
0.359200415464
0.294533993817
0.258424859053
0.239817961854
0.230619576853
3414.39096648
809.03214139
252.250194282
101.630655826
53.1117029235
32.360925873
20.5127688312
12.7534290048
7.70789185789
4.60079034584
2.78496445442
1.74493343528
1.12387990609
0.738089442804
0.516872180085
0.399129242611
0.33250120382
0.292238970066
0.267855044208
0.251124616228
4871.34653164
1062.2167969
291.843453833
98.9014942581
45.3447551779
25.9679208687
16.2096837276
10.2340531424
6.38479672259
3.97472284891
2.52825068661
1.66026670947
1.10752680125
0.750684845809
0.5456563543
0.435076892333
0.36975903016
0.326867142314
0.297550079231
0.270184546617
6059.93329348
1365.63504216
362.441941319
109.883304763
43.0808573447
22.0038979013
13.1143028505
8.27381030652
5.30004763801
3.44748928154
2.30719868238
1.5762161525
1.07568821521
0.7502381204
0.565147364982
0.464085614793
0.402189230752
0.357848677513
0.320017376699
0.283765325781
6070.89936948
1522.2290779
422.691797292
128.157381619
45.7783826703
20.6675320361
11.4106279869
7.05520127228
4.6081725277
3.12315127326
2.17131852586
1.51019043818
1.04132980704
0.743442201048
0.574505303352
0.480603277609
0.421074562449
0.372093235925
0.329977246112
0.292679594279
5149.19840051
1449.90716766
436.523266247
140.208688325
49.7079774616
20.9604392524
10.8286807717
6.53387910437
4.32226567915
3.00664592706
2.11972603238
1.47351865581
1.02102712244
0.735351589238
0.570089916588
0.474482683928
0.412408925961
0.365386006949
0.327540396286
0.29446138904
4021.74697895
1259.92528111
411.842168889
140.595359801
51.5119642771
21.639681783
10.9468231126
6.55719848476
4.37630334877
3.07372598738
2.17316968862
1.50655457821
1.03307707966
0.728953063487
0.548415884776
0.443794161344
0.381445367138
0.338599982757
0.307372036265
0.283314909724
3336.21159138
1124.6221013
388.844403121
139.053154697
53.2145692067
23.0736087414
11.8518338396
7.13798152215
4.78666949895
3.38744081506
2.39952365013
1.63769974591
1.08577539962
0.734515734429
0.527691665308
0.408714150556
0.34067224897
0.29843514896
0.272040334228
0.257379626831
3314.48936847
1128.91393615
400.318050747
148.802854637
59.7353476378
26.9348854626
14.058546432
8.42943748193
5.5788809431
3.9101631363
2.73524581494
1.82163136715
1.17329336056
0.770449336081
0.532790703611
0.391607625873
0.310659247922
0.262928344046
0.236518867985
0.226233946511
3695.76945626
1222.71219399
440.590870371
171.676492462
71.9156105803
32.9889532019
17.0153131131
9.89997563316
6.34241287935
4.3259721119
2.99616740607
2.00084287
1.29299456022
0.841556489085
0.567367523823
0.402902201989
0.304412299964
0.246918543362
0.216319315149
0.205406153198
3661.15182449
1218.41882914
434.499463994
169.586244183
72.793303317
34.3393492646
17.960202742
10.4405305245
6.65193377931
4.51723985003
3.14731671857
2.13754779634
1.40556610342
0.920181996409
0.614941557535
0.428896129341
0.316292920523
0.250559586136
0.215558978705
0.202798019788
2902.34944009
895.030305979
312.614986824
123.797147809
55.1099830666
27.5294781259
15.3680536687
9.49269794018
6.36199056178
4.46833437946
3.16748079339
2.16506107906
1.44308969536
0.954035250118
0.640029518498
0.447504394257
0.331876498931
0.26441769381
0.228871642248
0.216323779401
2668.08769136
721.370699705
226.685801357
84.2235780368
37.4438623154
19.7023438282
11.9158563497
7.97450156234
5.68756203738
4.14656320416
2.9766907383
2.03836634865
1.37443586751
0.92149725587
0.628460409473
0.449206076438
0.342471328597
0.281070785216
0.249638620151
0.240340430641
3369.38851464
733.810120909
195.02431515
64.4320749542
26.6429707506
13.8300208966
8.84677291804
6.34531629551
4.756320868
3.54911110352
2.54902210757
1.77341533484
1.21776042114
0.835784950307
0.588719549948
0.438667513712
0.349511136244
0.299241059292
0.27446358747
0.2705398651
5235.91921582
998.147039875
236.910845739
68.862123191
24.6905488539
11.314068245
6.80920090951
4.92889618773
3.77503362875
2.84374724069
2.05709185554
1.46165308023
1.03060050238
0.734405405836
0.544170026394
0.428331376675
0.358853708328
0.319479505083
0.301712537565
0.303984673261
7116.21904462
1370.54792141
324.673738514
90.8835379678
30.2404400293
11.9301294905
6.00651902833
3.96998948272
2.95008144744
2.21008715013
1.62518169591
1.18613368293
0.869642850602
0.65390393912
0.514798076395
0.426572061728
0.37202044092
0.339728989662
0.329424966643
0.337449556009
7426.84505462
1676.52506866
433.024251935
120.652806292
39.6046046235
14.7511158605
6.43019253068
3.60177548116
2.43203386133
1.77092594466
1.31693049528
0.993201128498
0.765419740489
0.609562325252
0.503475113812
0.431700550684
0.383233993565
0.357805740836
0.354768179832
0.368706981545
6413.26113094
1688.39676752
489.832977848
150.513326946
50.7722736865
18.9655033216
7.78695552799
3.75566277834
2.22889065234
1.53515252024
1.14246086138
0.889748259247
0.716630677306
0.593080403136
0.500856609115
0.43225977061
0.389063482491
0.371205966278
0.374358662583
0.392052903934
5353.22406618
1522.27815909
490.370146143
165.084479428
58.5972717499
22.4119052358
9.12630700656
4.11309012729
2.22625851483
1.45083884422
1.07250600569
0.853079824399
0.703206540962
0.585182641759
0.490558200716
0.424653966304
0.388320235949
0.376376817384
0.382705211182
0.401137191387
4331.44582705
1315.4486603
442.967343858
158.219444422
58.8197925834
23.0715198486
9.53458063567
4.29051791952
2.26864491744
1.44675415608
1.06749695292
0.853256330016
0.697972447135
0.569304660749
0.471214193291
0.409678026421
0.378843709703
0.370302201332
0.383922830929
0.384368117292
3405.32609895
1073.61268124
373.316369996
138.044121188
52.6850522098
21.0031360524
8.88435142256
4.15147650901
2.26086307623
1.46685315749
1.09307354761
0.868402205425
0.691841078351
0.546419761979
0.444879814689
0.387170366691
0.359909029499
0.358911941566
0.374098390775
0.327134992359
2883.69548135
916.50222206
317.577560431
117.036980453
44.5781137421
17.8988832109
7.81329863369
3.87404258451
2.24258420412
1.52500701853
1.15815924474
0.904009699086
0.687309493661
0.517973423595
0.412352411409
0.35815439727
0.336678072477
0.344818330731
0.341316812361
0.27124582299
2757.64138087
859.829988197
287.82929259
102.533576524
38.4062350436
15.5774692111
7.10677688222
3.78387191294
2.35518592779
1.68570457862
1.29894716171
0.980754448221
0.693852988871
0.486825939884
0.374427917961
0.324322112131
0.315912417325
0.329158828955
0.313018891049
0.236532960217
2968.03330445
892.608597197
281.549957415
95.5362190642
35.8556349458
15.1471290409
7.36701922309
4.18951854304
2.7480255791
2.03629228455
1.57159147354
1.12874410761
0.720523454478
0.45525517804
0.335142442627
0.299237078455
0.305431144558
0.323013268592
0.307431361052
0.224021191418
3837.88979793
1038.26740679
291.068033012
95.438164611
37.5064576847
17.1295381507
8.94371745617
5.28760301709
3.52665454436
2.60304681051
1.97306017346
1.33064476421
0.756007070625
0.434019179616
0.314464403306