/*--------------------------------*- C++ -*----------------------------------*\
| =========                 |                                                 |
| \\      /  F ield         | OpenFOAM: The Open Source CFD Toolbox           |
|  \\    /   O peration     | Version:  2312                                  |
|   \\  /    A nd           | Website:  www.openfoam.com                      |
|    \\/     M anipulation  |                                                 |
\*---------------------------------------------------------------------------*/
FoamFile
{
    version     2.0;
    format      ascii;
    arch        "LSB;label=32;scalar=64";
    class       volScalarField;
    location    "0.36/water";
    object      T.gas;
}
// * * * * * * * * * * * * * * * * * * * * * * * * * * * * * * * * * * * * * //

dimensions      [0 0 0 1 0 0 0];

internalField   nonuniform List<scalar> 
1504
(
398.034815061
337.605392729
313.933212974
305.079423219
301.90354767
300.795958647
300.395184486
300.242638366
300.166334545
300.11347094
300.070093404
300.034008154
300.010157527
300.001733521
300.000238156
300.000030405
300.0000026
300
300
300
399.669717273
338.773625663
314.582395313
305.373661895
302.049189475
300.873372114
300.441132182
300.269507196
300.184254348
300.126857523
300.080134195
300.040727784
300.013407859
300.002615203
300.000403213
300.000055828
300.000005983
300
300
300
400.528176869
339.480311629
314.969557973
305.567093758
302.130139146
300.915503131
300.469476495
300.288717188
300.19792919
300.137178902
300.087736422
300.045933158
300.016330999
300.003573189
300.000599802
300.000089264
300.000010604
300
300
300
401.470020729
339.830840605
315.184245968
305.648352707
302.163718691
300.931414727
300.484026346
300.300954566
300.207491906
300.144490905
300.092768607
300.049293859
300.018408271
300.004400515
300.000792455
300.000124125
300.000015764
300
300
300
402.626473286
339.826910348
315.101316874
305.611456538
302.13887885
300.923483823
300.487470831
300.307324805
300.21344309
300.148939244
300.095239901
300.050794768
300.019449274
300.004926571
300.000935409
300.000152529
300.000020327
300.000000173
300
300
403.219616016
339.896557555
315.195440971
305.608893599
302.118926128
300.910716047
300.486263503
300.310077267
300.216507595
300.150600325
300.095374396
300.050580061
300.019526163
300.005086869
300.001002996
300.000168036
300.000023234
300.00000032
300
300
403.031257239
339.650945464
315.159492686
305.597328674
302.097737837
300.90001235
300.483593804
300.310501177
300.217076644
300.149539388
300.093543059
300.049050657
300.018838542
300.004957322
300.000993077
300.00017017
300.000024014
300.000000191
300
300
401.739691987
338.767141821
314.740985042
305.461128374
302.051937727
300.888485645
300.47958679
300.30899097
300.215328091
300.146144309
300.090183085
300.046615513
300.01771147
300.004627874
300.000930687
300.000161443
300.000022935
300.000000003
300
300
400.021069486
337.358724955
313.897899267
305.168810312
301.966241913
300.868339395
300.472627444
300.305564103
300.211339507
300.141218029
300.085851376
300.043788718
300.016402477
300.004228404
300.000841846
300.000147546
300.000020745
300
300
300
398.728907758
335.770582051
312.806845742
304.727915672
301.835689546
300.83091711
300.46015495
300.299578756
300.205191614
300.13544325
300.081292178
300.041018283
300.015213962
300.0038495
300.000764213
300.000135009
300.000018456
300
300
300
396.9487564
334.811188268
312.094875524
304.341587316
301.697208793
300.782827353
300.443021776
300.291083705
300.197898062
300.129491689
300.077035463
300.038732924
300.014304904
300.00364617
300.000728554
300.000128413
300.000017222
300
300
300
394.538149973
333.994061278
311.6280338
304.033426205
301.560572828
300.730435649
300.423685019
300.281352991
300.191091067
300.124313945
300.073687451
300.037079824
300.013975831
300.003743786
300.000778349
300.000135504
300.000018304
300
300
300
392.889271985
333.060770672
310.975522424
303.695088355
301.424519608
300.682774248
300.407720097
300.273949086
300.186726381
300.121163422
300.071581629
300.036551958
300.014650788
300.004293073
300.000943384
300.000164085
300.000023088
300
300
300
396.967795016
332.351347079
309.941461201
303.320776834
301.332473421
300.665606168
300.406873657
300.274602208
300.187099562
300.120824512
300.071397499
300.037841498
300.01639074
300.005262509
300.001227337
300.000220837
300.000032986
300.000000661
300
300
425.230289191
338.207315745
310.466092528
303.514537284
301.455994436
300.730794427
300.43804241
300.288776846
300.193626289
300.123589604
300.074036078
300.040786721
300.018881586
300.006599487
300.001623147
300.000304999
300.000047872
300.000002985
300
300
473.673422074
349.752296919
314.313891506
304.77153776
301.903083697
300.900570195
300.504835368
300.315332928
300.204458625
300.129070562
300.078516707
300.04456967
300.021755285
300.007966407
300.002063572
300.000402366
300.000066607
300.000006058
300
300
496.282601295
358.78768637
318.679257302
306.383433123
302.461436976
301.100500353
300.577778493
300.341280347
300.213249051
300.134318435
300.082928305
300.048243093
300.024221222
300.009002067
300.002423244
300.000489523
300.000085642
300.000008988
300
300
507.701035283
365.584642468
321.498460291
307.463670339
302.840297687
301.231617523
300.617087021
300.351395291
300.215259151
300.13639251
300.085762291
300.05085891
300.025581715
300.009573329
300.002618784
300.000552338
300.00009908
300.000010663
300
300
513.368365357
367.56814931
322.244942854
307.795274648
302.959417603
301.256151033
300.610423392
300.341400258
300.209496692
300.135160806
300.086956384
300.052033479
300.025846036
300.009764522
300.002717065
300.000594872
300.000104073
300.000010522
300
300
518.445669772
368.001596975
322.221584184
307.780694994
302.86846386
301.175059035
300.568086404
300.319961171
300.199184435
300.132232187
300.086866499
300.052051959
300.025807667
300.009864358
300.002832833
300.000617761
300.000101465
300.000008743
300
300
521.122571788
370.602090236
322.986682982
307.594003347
302.630782541
301.04780792
300.505832574
300.292616995
300.189726393
300.129212434
300.086249086
300.051936745
300.026067898
300.010150549
300.002939548
300.00062981
300.000091851
300.000006198
300
300
514.864305048
369.99923149
322.11114124
306.772412203
302.251194793
300.8824657
300.435466888
300.265774857
300.181012431
300.127391885
300.086335762
300.052681273
300.026820366
300.010581513
300.003036139
300.000607588
300.0000756
300.000003535
300
300
463.327380876
359.265102448
318.210331366
305.554892917
301.802429894
300.703398142
300.37169521
300.244136559
300.1761196
300.12771971
300.088247934
300.054590707
300.028156937
300.011122486
300.003073362
300.000558074
300.000057745
300.000001251
300
300
414.689505875
344.105675344
314.174394123
304.251348088
301.304078146
300.537644866
300.321094561
300.233230471
300.176815116
300.131952177
300.092640875
300.058061307
300.030304963
300.011943535
300.003172579
300.000531688
300.000046892
300.000000187
300.000001031
300
387.859547293
334.479496198
310.637577826
302.75557022
300.829107113
300.422339733
300.302791271
300.237040363
300.185948145
300.141316323
300.100767525
300.064522425
300.034562708
300.013943522
300.003763316
300.000644002
300.000060639
300.000001081
300.000003272
300.000001594
382.253597519
333.701959854
309.650491522
301.986122899
300.663678858
300.408759109
300.319005732
300.25833069
300.206570583
300.159461144
300.115860894
300.07612624
300.042224951
300.017782642
300.00505713
300.000936227
300.000105802
300.000003672
300.000004092
300.00000452
400.95085112
344.090293539
314.257263772
303.269924235
300.952993165
300.493259989
300.368516334
300.299553357
300.242251305
300.1893022
300.139598656
300.094001871
300.054146833
300.023997086
300.00729424
300.001481931
300.000199261
300.000012105
300.000003767
300.000005421
440.097199898
357.624749581
321.572659558
306.94902317
302.145452918
300.776569974
300.46132808
300.354584302
300.286275476
300.226804842
300.170508143
300.117571558
300.070498746
300.033126234
300.010932184
300.002484861
300.000398191
300.000037816
300.000003797
300.000004092
467.141317288
367.507498444
327.030071573
310.207349119
303.714804972
301.433351033
300.71153873
300.439183924
300.332420393
300.263004468
300.202002288
300.143740357
300.089920412
300.045218692
300.016632587
300.004411709
300.000885367
300.000127962
300.000012075
300.000002749
477.268127446
373.074640437
330.694357604
312.670866505
305.11303722
302.103594075
300.993559123
300.565272967
300.390053095
300.298182855
300.230491715
300.169044622
300.11024409
300.05989374
300.025173585
300.008020665
300.001987751
300.000381569
300.000053476
300.000005802
480.88576602
375.181371471
332.502646025
314.163596683
306.120225209
302.669741645
301.26444163
300.698375425
300.452728301
300.332023494
300.254788006
300.190291274
300.128603753
300.074403035
300.034685606
300.012706529
300.003698186
300.000863632
300.000158142
300.000021055
483.473348489
375.501124108
332.880326323
314.75628391
306.666054365
303.047047982
301.475711618
300.809260158
300.508946288
300.362101838
300.274625192
300.206764575
300.143286125
300.086715106
300.043593513
300.017689947
300.005819609
300.001563097
300.000343157
300.000058918
486.287759798
374.693069831
332.000362227
314.42557239
306.676255492
303.157633613
301.574332036
300.873840235
300.547503373
300.384511725
300.289277134
300.218540819
300.153922646
300.096153542
300.051031916
300.022348556
300.008053446
300.002411079
300.000601852
300.000123702
488.32877174
372.572035313
329.60963645
313.037988573
306.084451478
302.965558719
301.537970407
300.881432729
300.561484986
300.395617014
300.297376131
300.225236025
300.160194981
300.10230191
300.056453191
300.026130089
300.010092459
300.003273533
300.000900642
300.000209946
489.001344487
368.132357602
325.30590237
310.685574204
305.031917033
302.557419382
301.40249301
300.837479971
300.548936011
300.393075697
300.297610697
300.226229943
300.161667485
300.104831989
300.059457505
300.028677231
300.011645115
300.004012911
300.001183882
300.00030308
487.545228954
359.654537984
320.547305408
308.352216283
303.968225873
302.102496874
301.209832296
300.754626972
300.514195914
300.378193086
300.290391131
300.221430144
300.158471394
300.103867441
300.060133336
300.029865859
300.012601238
300.004527295
300.0014056
300.000390268
485.284065042
354.175284553
317.258100942
306.622733057
303.08167329
301.662379568
300.99774873
300.65618394
300.468927351
300.356409985
300.277923998
300.211443467
300.151934277
300.100541351
300.05920989
300.030146277
300.013055685
300.004825954
300.001580715
300.000468465
482.831076621
351.385499223
315.382069592
305.473833702
302.421485135
301.306966039
300.81697885
300
300
300
300
300
300
300
300
300
300
300
300
300
300
300
300
300
300
300
300
300
300
300
300
300
300
300
300
300
300
300
300
300
300
300
300
300
300
300
300
300
300
300
300
300
300
300
300
300
300
300
300
300
300
300
300
300
300
300
300
300
300
300
300
300
300
300
300
300
300
300
300
300
300
300
300
300
300
300
300
300
300
300
300
300
300
300
300
300
300
300
300
300
300
300
300
300
300
300
300
300
300
300
300
300
300
300
300
300
300
300
300
300
300
300
300
300
300
300
300
300
300
300
300
300
300
300
300
300
300
300
300
300
300
300
300
300
300
300
300
300
300
300
300
300
300
300
300
300
300
300
300
300
300
300
300
300
300
300
300
300.000000002
300
300
300
300
300
300
300
300
300
300
300
300
300
300
300
300
300
300
300
300
300
300
300
300
300
300
300
300
300
300
300
300
300
300
300
300
300
300
300
300
300
300
300
300
300
300
300
300
300
300
300
300
300
300
300
300
300
300
300
300
300
300
300
300
300
300
300
300
300
300
300
300
300
300
300
300
300
300
300
300
300.000000001
300
300
300
300
300
300
300
300
300
300
300
300
300
300
300
300
300
300
300
300.000000009
300
300
300
300
300
300
300
300
300
300
300
300
300
300
300
300
300
300
300
300.00000005
300
300
300
300
300
300
300
300
300
300
300
300
300
300
300
300
300.000000083
300
300
300.000000129
300
300
300
300
300
300
300
300
300
300
300
300
300
300
300
300
300.000000118
300
300
300.00000012
300.000000001
300
300
300
300
300
300
300
300
300
300
300
300
300
300
300
300.000000162
300
300
300.000000035
300.000000006
300
300
300
300
300
300
300
300
300
300
300
300
300
300
300
300.000000044
300.000000022
300
300.000000019
300.000000048
300
300
300
300
300
300
300
300
300
300
300
300
300
300
300
300
300.000000162
300.000000019
300.000000049
300.000000117
300
300
300
300
300
300
300
300
300
300
300
300
300
300
300
300
300.000000296
300.000000044
300.000000038
300.000000054
300
300
300
300
300
300
300
300
300
300
300
300
300
300
300
300
300.000000306
300
300
300
300
300
300
300
300
300
300
300
300
300
300
300
300
300
300
300
300.000000089
300
300
300
300
300
300
300
300
300
300
300
300
300
300
300
300
300
300
300
300
300
300
300
300
300
300
300
300
300
300
300
300
300
300
300
300
300
300
300
300
300
300
300
300
300
300
300
300
300
300
300
300
300
300
300.000000051
300.000000177
300.000000265
300
300
300
300
300
300
300
300
300
300
300
300
300
300
300.00000027
300.000000713
300.00000115
300.000001485
300.000001666
300.000001722
300.000000832
300
300
300
300
300
300
300
300
300
300
300.000000333
300.000001173
300.000002283
300.000003547
300.000004779
300.000005707
300.000006052
300.000005883
300.000005655
300.000001989
300.000000243
300
300
300
300
300
300
300
300.000000719
300.00000222
300.000004315
300.000006897
300.000009775
300.000012663
300.000014907
300.00001591
300.000015657
300.000014566
300.000013659
300.000002421
300.000000415
300
300
300
300
300
300
300.00000123
300.000004952
300.000008789
300.000013062
300.000017565
300.000021804
300.000024868
300.000026605
300.000027203
300.000026738
300.000025536
300.000024326
300.00000188
300.000000262
300
300
300
300
300
300.000001948
300.000005496
300.000010631
300.000017029
300.000022151
300.000026583
300.000029964
300.000032552
300.000034373
300.000035285
300.000035222
300.00003437
300.000033234
300.000001062
300.000000068
300
300
300
300
300.000000248
300.000004084
300.000009
300.000013739
300.000020198
300.000025079
300.00002897
300.00003261
300.000035824
300.000038335
300.000039901
300.000040378
300.000039885
300.00003885
300.000001836
300
300
300
300
300
300.000000122
300.000003866
300.000008624
300.000013015
300.000017024
300.000023211
300.000028371
300.000032954
300.000036694
300.000039721
300.0000421
300.000043375
300.000043221
300.000042257
300.000007228
300.000000207
300
300
300
300
300.000000029
300.000002007
300.000005848
300.00001012
300.000014957
300.000020188
300.000027907
300.000033235
300.000037186
300.000040602
300.00004317
300.000044465
300.000044967
300.000044239
300.000020309
300.000002344
300
300
300
300
300
300.000001231
300.000003183
300.000006129
300.000011493
300.000018724
300.000026429
300.000032533
300.000037147
300.000040752
300.000043675
300.000045344
300.000045522
300.0000416
300.000042268
300.000007241
300.000001085
300.000000023
300
300
300
300.000000857
300.000002547
300.000004262
300.000006668
300.000012266
300.000022045
300.000029795
300.000034499
300.000039229
300.000042942
300.000045316
300.000045765
300.00004089
300.000070491
300.000015344
300.00000347
300.000001258
300.000000667
300
300
300.000000003
300.000000595
300.000001697
300.000004564
300.000009687
300.000013125
300.000013906
300.000028439
300.000034805
300.000040941
300.000044408
300.000045181
300.00004
300.000101145
300.000025193
300.000006931
300.000003014
300.000002335
300.000001821
300.000000896
300
300
300.000003004
300.000007586
300.000005535
300.000003316
300
300.000028607
300.000031715
300.000037553
300.000043185
300.000044566
300.000039278
300.000129314
300.000034032
300.000009978
300.000004581
300.000003531
300.000003155
300.000001883
300.000000419
300.000002195
300.000000734
300
300
300
300.000009217
300.000014459
300.000030784
300.000036674
300.000041461
300.000044206
300.000038896
)
;

boundaryField
{
    emptyPatch
    {
        type            empty;
    }
    minY
    {
        type            fixedValue;
        value           nonuniform List<scalar> 0();
    }
    maxY
    {
        type            inletOutlet;
        inletValue      nonuniform List<scalar> 0();
        value           nonuniform List<scalar> 0();
    }
    water_to_cooler
    {
        type            copiedFixedValue;
        sourceFieldName T.liquid;
        value           nonuniform List<scalar> 
38
(
300
300
300
300
300
300
300
300
300
300
300
300
300
300
300
300
300
300
300.000000001
300.000000004
300.000000009
300.000000019
300.000000036
300.000000066
300.00000013
300.000000278
300.000000588
300.000001166
300.000001977
300.000002827
300.000003593
300.000004285
300.000004927
300.000005507
300.000005271
300.000005788
300.000005192
300.000005655
)
;
    }
    water_to_heater
    {
        type            copiedFixedValue;
        sourceFieldName T.liquid;
        value           nonuniform List<scalar> 
60
(
793.678433007
793.686271338
793.686377939
793.713922915
793.713880046
793.757806875
793.757795387
793.821793977
793.821850568
793.898585531
793.898604329
793.981700538
793.981664993
794.056184986
794.056027704
794.129736971
794.129829615
794.209577017
794.210038287
794.305129706
794.304097639
794.405845549
794.420012874
794.518909836
794.607319428
794.683266857
794.692331047
794.764928802
794.760502508
794.801503753
794.810448621
794.829465706
794.823887607
794.815613759
794.814848416
794.704107928
794.670258571
794.646548537
794.655176269
794.615306476
794.612922539
794.563959082
794.554628823
794.524951891
794.554305155
794.515896906
794.522770499
794.499542159
794.502452306
794.499320752
794.503023771
794.532202441
794.535327014
794.577381749
794.579991865
794.631234653
794.630650715
794.683168101
794.683269307
794.734167501
)
;
    }
    procBoundary3to1
    {
        type            processor;
        value           nonuniform List<scalar> 
41
(
300.567998798
300.425967104
300.333427194
300.261551817
300.198892816
300.143864548
300.096357182
300.057863609
300.030084801
300.013302481
300.005104578
300.001736806
300.000531655
480.633056605
350.364503064
314.653077898
304.917516465
302.037975962
301.078734053
300.567998798
300.693848251
300.000149746
300.000039747
300.000011244
300.000004921
300.000003719
300.000003194
300.000002378
300.000002242
300.000002528
300
300
300
300
300.000004122
300.000010746
300.000027991
300.000036454
300.000038645
300.000043438
300.000042721
)
;
    }
    procBoundary3to2
    {
        type            processor;
        value           nonuniform List<scalar> 
41
(
394.312468644
335.856937395
313.119605091
304.661832797
301.684479494
300.669614914
300.330936337
300.209406313
300.144934429
300.097646708
300.058508458
300.026759277
300.007118918
300.001030532
300.000123928
300.000014344
300.000000548
300
300
300
300
300
300
300
300
300
300
300
300
300
300
300
300
300
300
300
300
300
300
300
300
)
;
    }
}


// ************************************************************************* //
