/*--------------------------------*- C++ -*----------------------------------*\
| =========                 |                                                 |
| \\      /  F ield         | OpenFOAM: The Open Source CFD Toolbox           |
|  \\    /   O peration     | Version:  2312                                  |
|   \\  /    A nd           | Website:  www.openfoam.com                      |
|    \\/     M anipulation  |                                                 |
\*---------------------------------------------------------------------------*/
FoamFile
{
    version     2.0;
    format      ascii;
    arch        "LSB;label=32;scalar=64";
    class       volScalarField;
    location    "0.08/water";
    object      Tf.gasAndLiquid;
}
// * * * * * * * * * * * * * * * * * * * * * * * * * * * * * * * * * * * * * //

dimensions      [0 0 0 1 0 0 0];

internalField   nonuniform List<scalar> 
6000
(
314.799348988
306.274263902
302.790327002
301.192025434
300.515971369
300.101650536
300.00445124
300.000031527
300.000000042
300
300
300
300
300
300
300
300
300
300
300
320.06633118
308.236329828
303.019358206
301.120308593
300.402905594
300.141695456
300.048687537
300.00707415
300.00015653
300.000000253
300
300
300
300
300
300
300
300
300
300
320.576734185
307.855897775
302.666559072
300.883253855
300.283332754
300.088806808
300.027981744
300.007997764
300.000707344
300.000008269
300.000000003
300
300
300
300
300
300
300
300
300
319.655214703
307.980586465
302.849262072
300.943530226
300.296461043
300.088383587
300.025239231
300.00720293
300.001357043
300.000054186
300.000000374
300
300
300
300
300
300
300
300
300
318.730843072
307.83560779
303.002779795
301.055562928
300.349506575
300.110177511
300.032352433
300.008860154
300.002373146
300.000230316
300.000005538
300.000000001
300
300
300
300
300
300
300
300
317.726994127
307.508014885
303.014052469
301.129006332
300.398762752
300.136106782
300.044048304
300.01272025
300.003316413
300.000646846
300.000032856
300.0000002
300
300
300
300
300
300
300
300
316.930456896
307.093081368
302.897296569
301.134299045
300.42385135
300.154761406
300.055055292
300.017490939
300.004601694
300.001086494
300.000129862
300.000003301
300.000000002
300
300
300
300
300
300
300
316.505614153
306.743958093
302.731190173
301.088250483
300.425161825
300.164634888
300.063390007
300.022225684
300.006107634
300.00136761
300.000296803
300.000019289
300.000000078
300
300
300
300
300
300
300
316.219151236
306.555802148
302.643169517
301.062086786
300.426617738
300.173457697
300.071079413
300.027198441
300.007996878
300.001724069
300.000352751
300.000056529
300.000001092
300.000000001
300
300
300
300
300
300
315.993759102
306.439592851
302.59741723
301.05433783
300.433285814
300.183193993
300.079304589
300.032587818
300.010341098
300.002214698
300.000417548
300.000097331
300.000006748
300.000000018
300
300
300
300
300
300
315.915017709
306.363203119
302.548217585
301.042986396
300.439450934
300.193019462
300.087740296
300.038219292
300.013086775
300.002927349
300.000516058
300.000112243
300.000021266
300.000000225
300
300
300
300
300
300
315.991625806
306.321571112
302.503091556
301.02776516
300.442085973
300.201232092
300.09554096
300.043573318
300.01615013
300.004004557
300.000682296
300.00013248
300.000045349
300.000001507
300.000000001
300
300
300
300
300
316.305597077
306.360180574
302.47861804
301.01057451
300.440972816
300.207409372
300.102095176
300.048387172
300.019317087
300.005397964
300.000934564
300.000158774
300.000050319
300.000004541
300.000000009
300
300
300
300
300
316.631859085
306.533088398
302.544266405
301.029238916
300.450495168
300.215819273
300.108584822
300.052953007
300.022498923
300.007054594
300.001295683
300.000192534
300.000050819
300.000009832
300.00000009
300
300
300
300
300
316.794884822
306.704689351
302.647320254
301.076016352
300.471238367
300.22711239
300.115405947
300.057505988
300.025756877
300.008948659
300.001783752
300.000237111
300.000049246
300.000013247
300.000000581
300.000000001
300
300
300
300
316.93044628
306.845074537
302.739080625
301.125203831
300.495189309
300.239322768
300.122208364
300.062120508
300.029209657
300.011042551
300.002394269
300.00029757
300.000048876
300.000011088
300.000001917
300.000000017
300
300
300
300
317.216735626
306.989384322
302.805698354
301.159930048
300.51383179
300.249037779
300.128305873
300.066805428
300.032867938
300.013228612
300.003089363
300.000377188
300.000051691
300.000010468
300.000002795
300.000000139
300
300
300
300
317.552802773
307.073491544
302.812561114
301.159887596
300.516795346
300.252894529
300.132844381
300.071226948
300.036308798
300.015288725
300.003809576
300.000473504
300.000057335
300.00001093
300.000002885
300.000000473
300.000000001
300
300
300
317.607527977
307.118912033
302.824073969
301.153427252
300.511591466
300.25290723
300.136019552
300.074979488
300.039336039
300.017106106
300.004501087
300.00058464
300.000067711
300.00001223
300.000003153
300.000000914
300.000000008
300
300
300
317.519551741
307.113516702
302.816762447
301.140747914
300.502559827
300.251085405
300.138275438
300.078316159
300.042121661
300.018746581
300.005193695
300.000721274
300.000083023
300.000013872
300.000003376
300.000001193
300.000000021
300
300
300
317.402133264
307.096970657
302.804038217
301.129038818
300.495733191
300.250309219
300.141057397
300.081985874
300.045028884
300.020443032
300.006012456
300.000907567
300.000103548
300.000015569
300.000003413
300.000001024
300.000000032
300
300
300
317.392645828
307.121882052
302.806873597
301.12828776
300.496380403
300.253497928
300.145865163
300.086641146
300.048303676
300.022448558
300.007090245
300.001219104
300.00013978
300.000018194
300.000003342
300.000000704
300.000000038
300
300
300
317.308708818
307.103444117
302.807097292
301.133754385
300.503652189
300.261081025
300.15301654
300.092289349
300.052153491
300.024867931
300.008594122
300.00170814
300.000201316
300.000024047
300.0000035
300.000000581
300.00000007
300
300
300
317.246867225
307.19752913
302.903960392
301.186975937
300.529876866
300.275985219
300.162858471
300.098975654
300.056503011
300.027721426
300.010543758
300.002378317
300.000288292
300.000036473
300.000004644
300.000000749
300.000000107
300
300
300
317.285504758
307.301422051
303.01648626
301.271135524
300.575965275
300.299492664
300.175741226
300.106610565
300.061260015
300.031143411
300.012787621
300.003172224
300.000399109
300.000055567
300.000006193
300.000000933
300.00000011
300
300
300
317.375732291
307.361862649
303.083452022
301.338820699
300.624880552
300.326513806
300.190024363
300.114772001
300.066639395
300.035134007
300.015372369
300.004064148
300.000525344
300.000078269
300.000008543
300.000001271
300.000000146
300
300
300
317.517476883
307.356732469
303.090553563
301.35693979
300.647932678
300.344480678
300.201643315
300.122631599
300.072623172
300.03969008
300.018243433
300.005049039
300.00067311
300.000107196
300.000015513
300.000001715
300.000000187
300
300
300
317.610189873
307.2497987
303.001992908
301.317506948
300.638599571
300.348152836
300.208447432
300.129505265
300.078726881
300.044614815
300.021440677
300.00618011
300.000836537
300.000139165
300.000026442
300.000002434
300.000000264
300
300
300
317.666712076
307.167427973
302.922731884
301.266980583
300.617857487
300.344694515
300.212359226
300.135491065
300.084821874
300.049995198
300.025101324
300.00758364
300.001070022
300.000174094
300.000039772
300.000003571
300.000000428
300
300
300
317.654104082
307.108202119
302.858630432
301.22391794
300.597492485
300.339630183
300.215102441
300.141052632
300.091056706
300.055854785
300.029436189
300.009546647
300.001437584
300.000217954
300.000055475
300.000008875
300.000000764
300
300
300
317.615109647
307.058954462
302.818774588
301.194251335
300.583426161
300.336537885
300.217988938
300.146661849
300.097525551
300.062089773
300.034441903
300.012320523
300.002083585
300.000284623
300.000073526
300.00001736
300.000001276
300.000000057
300
300
317.539204217
307.016954146
302.792939637
301.181866368
300.57917791
300.338005164
300.222558224
300.152774871
300.104172788
300.068360642
300.03961787
300.016148249
300.003258443
300.000408684
300.000096611
300.000028789
300.000002227
300.00000022
300
300
317.444539519
306.94105337
302.761694474
301.175144002
300.582352729
300.343712378
300.228836811
300.159279722
300.110582766
300.074272659
300.044773019
300.020496249
300.005190094
300.000674275
300.000127005
300.000043626
300.000007235
300.000000426
300
300
317.353105476
306.97164521
302.793037272
301.197726044
300.597339814
300.354198666
300.236466233
300.165632916
300.116260054
300.079384543
300.049406982
300.024538996
300.007503462
300.001161163
300.000166534
300.000062404
300.000015391
300.000000483
300
300
317.291163705
307.052058247
302.869214089
301.240310429
300.6201009
300.367416296
300.24438569
300.170945979
300.120386273
300.082909876
300.052623909
300.027364695
300.009194425
300.001557959
300.000209974
300.000084944
300.000025738
300.000000539
300
300
317.28058188
307.133979834
302.948374526
301.289121664
300.643781838
300.37934909
300.250532749
300.17414614
300.122244215
300.084208962
300.053725706
300.0282075
300.009448255
300.001408169
300.000243788
300.000107071
300.000038351
300.000003446
300
300
317.335042785
307.184896212
303.008548879
301.326995898
300.662644321
300.38718475
300.253425603
300.174745057
300.121826834
300.083419617
300.052804644
300.027032466
300.008027756
300.001008866
300.000269275
300.000128191
300.000052291
300.000009517
300
300
317.41067463
307.159859985
303.003192605
301.337163284
300.669933961
300.38940128
300.252748796
300.172884926
300.119647908
300.081193059
300.050486124
300.024124744
300.005657526
300.000884656
300.000294878
300.000149832
300.000066896
300.00001758
300
300
317.499942789
307.19714341
303.016044282
301.345183483
300.672419008
300.387623551
300.249091811
300.1688983
300.116049344
300.077980175
300.047162192
300.02029618
300.004391015
300.000880359
300.000328245
300.000173433
300.000082317
300.000026972
300.000001254
300
317.545043003
307.237933531
303.024555923
301.347680134
300.668595927
300.380604895
300.241625383
300.162374274
300.110791827
300.073562009
300.042878891
300.016906422
300.00405238
300.000954993
300.000369954
300.000198602
300.000098663
300.000037184
300.000004654
300
317.392396747
307.167072267
302.986423307
301.323413173
300.651277807
300.365912899
300.229553584
300.153160253
300.103908806
300.068010633
300.038370715
300.015229071
300.004140147
300.001088606
300.000424165
300.000223951
300.000114977
300.000047644
300.000009157
300
317.010431846
306.941077934
302.870309719
301.257134423
300.613628658
300.342008294
300.21341151
300.142263507
300.096396287
300.062341639
300.034870799
300.014485757
300.004346384
300.001250901
300.000488702
300.000250721
300.000130167
300.000057419
300.000013979
300
316.572040631
306.652315725
302.691446107
301.151363377
300.554488728
300.309300808
300.195231722
300.13185918
300.090085315
300.058349875
300.032917183
300.014250959
300.00459933
300.001408215
300.000556575
300.000276747
300.000142889
300.000065336
300.000018245
300.00000009
316.25710171
306.505127182
302.562001674
301.051714341
300.488938918
300.275994915
300.179655051
300.124308965
300.086175736
300.056220299
300.031936275
300.014323186
300.004874221
300.001550118
300.000613507
300.000297597
300.000151806
300.000070182
300.000021036
300.000000666
316.064998682
306.44279305
302.46819758
300.950267943
300.428944835
300.251415012
300.170684556
300.120968773
300.084939315
300.055771944
300.031850102
300.014519148
300.0051305
300.001654955
300.000650887
300.000307987
300.00015499
300.000070935
300.00002169
300.000001028
317.239437905
306.717950641
302.352347917
300.854235601
300.400164753
300.245139885
300.169942319
300.121603132
300.08583396
300.056604198
300.032344157
300.014842797
300.005274542
300.001700617
300.000656799
300.000305248
300.000150885
300.000067292
300.000020086
300.000000922
319.064073861
306.503867059
302.125664959
300.81097101
300.402078661
300.250927226
300.174202345
300.12444414
300.08778218
300.058177062
300.033205747
300.015131093
300.005312602
300.00166442
300.000629393
300.00028824
300.000139592
300.000059858
300.000016642
300.000000487
319.159911049
307.243886125
302.418701722
300.849476626
300.42195945
300.26279969
300.181199952
300.128533974
300.090261973
300.059830264
300.034201037
300.015395677
300.005233859
300.001584664
300.000577872
300.000260944
300.000123188
300.000049728
300.000012066
300.000000162
319.28993599
307.46313658
302.702480475
300.979041698
300.456138513
300.277802097
300.189708097
300.133701247
300.093410402
300.061714792
300.035382402
300.015703717
300.005156111
300.00150921
300.00052705
300.000231951
300.000104895
300.00003833
300.000007289
300.000000011
319.383965237
307.583411237
302.836800693
301.085132659
300.51482684
300.298570939
300.200379157
300.140639098
300.097934172
300.064576245
300.037208467
300.016421092
300.005242224
300.001497521
300.00049857
300.000208168
300.000086961
300.000027079
300.000003318
300
319.414993006
307.722732275
303.029871409
301.223205095
300.595994833
300.333347295
300.216596113
300.150764095
300.104939297
300.069413945
300.040412934
300.018114806
300.00573285
300.001600803
300.000503897
300.000192631
300.000070559
300.000017171
300.00000099
300
319.657191698
307.960614108
303.269859791
301.397893443
300.695048341
300.382835613
300.241180922
300.165641481
300.115304699
300.077015872
300.045803636
300.021220675
300.006844026
300.00185373
300.000550935
300.000187613
300.000057384
300.000009682
300.000000421
300
319.931606618
308.127369315
303.421238652
301.51782641
300.763058775
300.436221256
300.272421781
300.184980909
300.129113696
300.087535576
300.05376528
300.026267399
300.008886432
300.002346711
300.000658311
300.00020098
300.000051009
300.000005379
300.000000259
300
320.301924528
308.324780476
303.586738061
301.630640299
300.832150568
300.487192377
300.305585773
300.206121967
300.144235036
300.099304796
300.063135456
300.032989461
300.012267094
300.003331751
300.000885
300.000247764
300.000056631
300.000004622
300.000000379
300
320.677208771
308.514205626
303.692833934
301.707632409
300.882088126
300.524119719
300.333058471
300.225242058
300.158215344
300.11030532
300.072024044
300.039640344
300.016176209
300.00480658
300.001275063
300.000343487
300.000079519
300.000008567
300.000000881
300
320.903674233
308.42712373
303.646933687
301.701623872
300.892521665
300.540106078
300.349748824
300.238844825
300.168802316
300.118840251
300.079006519
300.04497667
300.019592798
300.006358889
300.001789733
300.000492542
300.000122658
300.000019168
300.000001941
300
320.426450234
307.875873723
303.320390597
301.584556361
300.864425779
300.538040935
300.354807675
300.245298978
300.174748593
300.12404452
300.083380421
300.048394554
300.022043836
300.007725515
300.002354101
300.000690365
300.000188033
300.000038515
300.000003683
300.000000023
319.60853641
307.49286515
303.070881626
301.473578279
300.822443568
300.516265369
300.346512501
300.243777523
300.17574527
300.125800516
300.084999806
300.049786062
300.023486285
300.008849583
300.002939872
300.00093474
300.000279635
300.000067978
300.000008588
300.000000211
319.082678078
307.568719297
303.005385115
301.38704947
300.762934102
300.481400565
300.329870281
300.236839159
300.173094222
300.124751435
300.084042686
300.049445163
300.024180278
300.00981898
300.003560221
300.001247019
300.000406653
300.000109601
300.000017844
300.000000301
318.993154618
307.92188078
303.10789979
301.351417919
300.713176246
300.448193589
300.311957653
300.227727715
300.168225692
300.121164638
300.080775157
300.047816326
300.024437487
300.010711261
300.004260325
300.001689722
300.000579315
300.000162082
300.000030356
300.000000443
318.781974523
308.109730265
303.240469538
301.369528413
300.690040505
300.424512112
300.296054486
300.217851279
300.161256579
300.114638858
300.075587316
300.04526767
300.024282345
300.011433593
300.005301852
300.002288388
300.000792625
300.000223063
300.000048124
300.000004057
317.501352113
307.705512833
303.17486256
301.356318947
300.671524235
300.405396934
300.281459091
300.207299541
300.151869617
300.106196389
300.069318738
300.042030625
300.023427386
300.012639534
300.006772361
300.003074675
300.001070223
300.000307017
300.000076513
300.000011518
315.393673846
306.789888818
302.86711234
301.256833628
300.629803544
300.382800788
300.26805174
300.197796424
300.143424637
300.098671136
300.063866417
300.039520777
300.02390574
300.014544308
300.008357029
300.003996809
300.001448792
300.000434586
300.000118492
300.000023097
313.774854063
306.218218518
302.726061733
301.219577604
300.61417992
300.374874076
300.26479537
300.196063031
300.141479809
300.096649738
300.063169692
300.040566251
300.02606859
300.016486519
300.009674179
300.004810423
300.001868419
300.000591266
300.000171385
300.000039304
314.432812044
306.75767599
303.085166134
301.385044202
300.672502184
300.392619288
300.275378358
300.207293819
300.151645649
300.104931537
300.069499971
300.045168162
300.029172445
300.018375909
300.010702082
300.005351675
300.002175417
300.000741752
300.000230323
300.000059239
319.675076535
308.960740408
303.839535131
301.602291458
300.727030038
300.411423745
300.297751887
300.228960188
300.171407475
300.12075436
300.079677403
300.050960855
300.032420711
300.020094968
300.011471825
300.005663855
300.002347105
300.000851498
300.000285786
300.00008067
325.205638224
310.018763174
304.029008052
301.62584427
300.736645899
300.425881902
300.311658463
300.240509758
300.182094871
300.130929647
300.087544503
300.055730208
300.035008649
300.021284752
300.011829567
300.005732671
300.002400137
300.000916764
300.00032952
300.000100646
326.468902453
310.092357254
303.84824457
301.502893352
300.685444483
300.420285743
300.310127031
300.237954127
300.179397149
300.130162653
300.089252477
300.05776075
300.036300449
300.021662218
300.011748645
300.005593702
300.002356437
300.000944031
300.000358374
300.00011625
326.275513967
309.850181983
303.624591889
301.37008587
300.638818442
300.409666426
300.304952034
300.232411297
300.17365504
300.126005849
300.087444373
300.057911549
300.036572235
300.021478578
300.011365642
300.005319996
300.002269431
300.000940413
300.000371153
300.000124745
325.95562568
309.664285718
303.512668854
301.314513217
300.615767641
300.40401563
300.302916678
300.229727095
300.170401066
300.123216013
300.086026658
300.057590962
300.036391113
300.021035474
300.010860889
300.005002121
300.002151534
300.000917052
300.000370991
300.000126967
325.635805882
309.623448369
303.538797567
301.341686765
300.63136958
300.408311787
300.305210667
300.230458756
300.170083047
300.122596894
300.085965923
300.057750887
300.036187549
300.020520013
300.01031923
300.004670981
300.002026946
300.000879403
300.000358961
300.000122911
325.559428053
309.743265996
303.708245945
301.456836108
300.687944666
300.429515742
300.313754689
300.234704328
300.172224847
300.123928685
300.086892047
300.058306832
300.036218861
300.020184477
300.009898868
300.004410061
300.001915741
300.000832289
300.000337798
300.000114026
325.640095923
309.962789401
303.942602019
301.618454294
300.770801328
300.463687886
300.327602631
300.241412918
300.176258512
300.126370378
300.088449754
300.059202188
300.036594187
300.020177505
300.009711136
300.00424194
300.001815489
300.000776912
300.000309694
300.000101865
325.919039727
310.212929427
304.185654611
301.788377567
300.864239537
300.506086335
300.345804505
300.250171716
300.181357169
300.129323334
300.090204718
300.06029443
300.037201755
300.020403409
300.009683053
300.004128775
300.001714518
300.000712653
300.000276339
300.000087743
326.287062637
310.483258693
304.412545597
301.950012938
300.957645198
300.552281039
300.36708415
300.260567568
300.187044067
300.132286807
300.091754452
300.061231461
300.037792676
300.020672872
300.009692387
300.004016081
300.001600325
300.00063922
300.000239278
300.000072683
326.785170382
310.731992922
304.594176444
302.075249008
301.03333997
300.5916777
300.385950165
300.269701318
300.191301013
300.134392972
300.092670838
300.061718554
300.03814566
300.020783608
300.009616568
300.003856734
300.001464185
300.000557786
300.000200193
300.000057526
327.288018888
310.956913303
304.727096298
302.16239766
301.085848542
300.619788193
300.399364922
300.27561889
300.193373264
300.134943093
300.092576602
300.061482478
300.037988276
300.020584111
300.009362652
300.003617576
300.001302722
300.000471062
300.000161005
300.000043066
327.836226209
311.165525835
304.836530965
302.225100836
301.121420544
300.637284951
300.406379616
300.277330785
300.192572989
300.133590074
300.091262879
300.06038173
300.037177936
300.019965021
300.008875087
300.003283785
300.001118555
300.000383075
300.000123794
300.000030082
328.39538431
311.346032431
304.934592845
302.28649326
301.151190327
300.647988998
300.407406969
300.274401892
300.18867903
300.130323575
300.088726863
300.058406275
300.03571697
300.018899772
300.008133898
300.00286108
300.000920784
300.000298824
300.000090539
300.000019234
328.77162736
311.372177775
305.003451181
302.355450679
301.184645939
300.65457647
300.402268112
300.266262472
300.181666055
300.125453399
300.085178877
300.055712456
300.033688806
300.017402516
300.00716422
300.002375969
300.000724109
300.000223406
300.000062731
300.000010941
327.618183618
310.97372942
304.912423099
302.37071462
301.197651608
300.649021737
300.389104853
300.253656544
300.173303012
300.119684204
300.080989727
300.05253449
300.031203061
300.015532583
300.006029389
300.001874163
300.000545328
300.000160776
300.000041074
300.000005309
325.380909632
310.221707319
304.35048901
302.131867277
301.096885243
300.597971896
300.359791641
300.237414227
300.164523888
300.1134722
300.076467611
300.049052497
300.028354785
300.013388646
300.00482819
300.001409332
300.000398034
300.00011271
300.000025416
300.000002141
323.182486616
309.027177702
303.627189053
301.708176817
300.91138837
300.518767209
300.328139832
300.223669355
300.155409651
300.107066545
300.07178003
300.045340569
300.025198096
300.011100221
300.003688285
300.001026451
300.000288413
300.000078657
300.000014941
300.00000088
321.292821735
308.271145135
303.121710407
301.380405617
300.752374741
300.458220035
300.303263988
300.209578431
300.146109238
300.100629891
300.067049388
300.041426124
300.021802054
300.008873149
300.002739948
300.000746416
300.00021515
300.000056652
300.000008488
300.000000231
319.805473973
307.868364161
302.915477745
301.208546822
300.65110296
300.409955829
300.278911118
300.195775523
300.137376362
300.094707923
300.062550406
300.037438475
300.018484153
300.006974559
300.002053343
300.000569291
300.000173466
300.00004434
300.000004865
300
318.662789247
307.57323896
302.862344979
301.155621357
300.600543523
300.378457174
300.260882212
300.185098401
300.13062681
300.09001676
300.058632036
300.033760434
300.015747728
300.00559979
300.001634821
300.000482745
300.00015744
300.000039683
300.000003037
300
317.877923818
307.321151067
302.854975803
301.16428023
300.59028918
300.365945351
300.251657656
300.178982422
300.126519601
300.086858982
300.055614075
300.031006835
300.013912563
300.004780318
300.001433189
300.000469897
300.000161475
300.000040963
300.000002237
300
317.441618541
307.117777636
302.838080835
301.185401331
300.599262979
300.366552211
300.249776734
300.176935942
300.124752898
300.085151248
300.053782832
300.029459544
300.012963888
300.00439105
300.001378895
300.000509532
300.000180392
300.000047141
300.00000232
300
317.163367865
307.072193536
302.886803631
301.227133813
300.62002088
300.374992629
300.252643627
300.177723119
300.124720777
300.084662574
300.053056043
300.028823484
300.012572176
300.004216611
300.001437296
300.000573416
300.000210986
300.000057894
300.000003622
300
316.973122424
307.078602018
302.946597173
301.273318086
300.645022159
300.387231659
300.25811131
300.180090573
300.125721392
300.084943325
300.05295721
300.028572846
300.012301757
300.004101014
300.001553389
300.000648591
300.000248789
300.000072719
300.00000645
300
316.889787189
307.067274482
302.968977294
301.297569026
300.662056856
300.39735367
300.263489175
300.182749826
300.127052335
300.085517027
300.053047043
300.02829771
300.011793464
300.004151272
300.001693421
300.000725899
300.000289694
300.000090055
300.000010663
300
316.951204347
307.03255432
302.926131877
301.283753557
300.661635225
300.400056043
300.266030833
300.184389525
300.128089481
300.086037838
300.053079175
300.027740675
300.011336129
300.00427935
300.001830132
300.000799305
300.00032959
300.00010769
300.000015627
300
317.114466329
306.961164928
302.81991772
301.238990755
300.645706562
300.395836565
300.265506314
300.184706144
300.128569381
300.086344706
300.052981112
300.027059316
300.011264105
300.004435175
300.001952214
300.000865352
300.000365525
300.000124033
300.000020669
300.00000002
317.313936587
307.003405696
302.753702187
301.201895103
300.630122136
300.390494726
300.264040735
300.184613679
300.128881886
300.086613279
300.052941806
300.026719265
300.011361147
300.00458494
300.002055771
300.000923074
300.000396882
300.000138498
300.000025401
300.000000099
317.489321797
307.081133631
302.758983084
301.191907341
300.622258853
300.387393506
300.263192192
300.18485807
300.129471978
300.087141821
300.053197954
300.026736215
300.01150009
300.004722214
300.002142775
300.000972824
300.000424052
300.000151079
300.000029667
300.000000199
317.622441763
307.120375569
302.809027888
301.205275196
300.624126305
300.387405872
300.263533541
300.185569203
300.130338909
300.087910919
300.053710309
300.026934901
300.011650347
300.004836621
300.002219058
300.001015317
300.000447482
300.00016187
300.000033392
300.000000306
317.743937724
307.162049275
302.852430286
301.227476794
300.630379157
300.389313115
300.264513559
300.186431793
300.131231651
300.088705016
300.05428463
300.027163194
300.011757441
300.004940532
300.00228446
300.001050978
300.000467242
300.00017081
300.00003648
300.000000446
317.873644189
307.171084825
302.862781679
301.235181107
300.634658192
300.39092887
300.265346765
300.187091902
300.131920124
300.089327664
300.054730498
300.027304067
300.01181946
300.005019101
300.00234113
300.001079865
300.000483127
300.00017771
300.000038804
300.000000629
317.924410353
307.246717833
302.901715338
301.253634597
300.640701496
300.392714999
300.26594924
300.187496174
300.132369531
300.089717435
300.05495388
300.027288384
300.01181282
300.005081743
300.002387391
300.001102362
300.000494987
300.000182429
300.000040265
300.00000078
317.921407375
307.316947061
302.954855179
301.27463711
300.647493314
300.394048358
300.26604268
300.187568307
300.132566818
300.089851722
300.05491324
300.027112417
300.011764049
300.005117103
300.002425832
300.001118995
300.000502883
300.000184901
300.000040813
300.000000859
317.923263841
307.383288665
303.000795991
301.297332633
300.65392288
300.39479574
300.26561452
300.187320885
300.132529083
300.089740204
300.054626022
300.02681952
300.011656714
300.005137498
300.002456186
300.001130727
300.000507185
300.000185228
300.000040451
300.000000848
317.975392983
307.439114831
303.045478686
301.317165575
300.66019987
300.395302415
300.264940407
300.186873917
300.132322259
300.089447285
300.054168142
300.026432791
300.011527869
300.005138931
300.002482737
300.001138849
300.000508565
300.000183764
300.000039309
300.000000761
317.982684224
307.419075617
303.040951239
301.321882255
300.662229221
300.395131683
300.264139921
300.18633266
300.132011097
300.089034609
300.053617464
300.026033279
300.011377714
300.005139431
300.002507277
300.001144883
300.000507892
300.000181028
300.000037603
300.000000634
317.958592827
307.431175313
303.056122031
301.328963772
300.665111294
300.395522381
300.263685395
300.185932279
300.131726297
300.088607171
300.053080959
300.025652208
300.011240459
300.005142505
300.002533622
300.001150539
300.00050617
300.000177597
300.000035561
300.000000511
317.957032501
307.464806437
303.074634269
301.339538578
300.668761756
300.396539632
300.263625254
300.185705291
300.131487659
300.088227247
300.052622248
300.025321339
300.011108121
300.00515616
300.002565836
300.001157883
300.000504424
300.000174026
300.000033389
300.00000042
317.981366857
307.499258367
303.096362455
301.350798866
300.673315653
300.397989186
300.263832534
300.185540564
300.131212235
300.087867536
300.052235112
300.025021679
300.010990112
300.005177802
300.002608179
300.001169094
300.000503649
300.000170834
300.000031276
300.000000335
318.024155012
307.493249193
303.09156267
301.356243028
300.675924408
300.398994727
300.263881241
300.185165565
300.130716087
300.087381133
300.051782416
300.024727262
300.010864822
300.005209537
300.002663053
300.001187222
300.000504941
300.000168536
300.000029415
300.000000242
318.021182026
307.366793216
303.010565886
301.329299959
300.668762249
300.396688822
300.262516149
300.183951013
300.129644207
300.086504002
300.051074945
300.024305203
300.010728293
300.005246068
300.002730286
300.001217196
300.000509788
300.000167749
300.000028043
300.000000146
317.972259925
307.30392834
302.94221925
301.291453768
300.653675178
300.389526562
300.258508951
300.181261676
300.127676065
300.085031145
300.049936834
300.023734771
300.010570174
300.005290801
300.002808697
300.001264925
300.000520208
300.000169356
300.000027503
300.000000059
317.718029967
307.251013999
302.89832225
301.252753949
300.631170658
300.376139682
300.250925672
300.176755803
300.124729278
300.082956131
300.048427625
300.022995735
300.010423821
300.005349209
300.00289939
300.001335211
300.000538901
300.000174731
300.000028338
300.000000005
317.12688445
307.074885157
302.850339957
301.217607657
300.603302295
300.357521396
300.24051185
300.171077849
300.121298704
300.080680264
300.046874299
300.02233448
300.01034316
300.005439104
300.003007493
300.001430862
300.0005699
300.000186033
300.000031393
300
316.405185074
306.786666609
302.779737357
301.184220204
300.573147906
300.337090238
300.230039896
300.16604818
300.118601913