/*--------------------------------*- C++ -*----------------------------------*\
| =========                 |                                                 |
| \\      /  F ield         | OpenFOAM: The Open Source CFD Toolbox           |
|  \\    /   O peration     | Version:  2312                                  |
|   \\  /    A nd           | Website:  www.openfoam.com                      |
|    \\/     M anipulation  |                                                 |
\*---------------------------------------------------------------------------*/
FoamFile
{
    version     2.0;
    format      ascii;
    arch        "LSB;label=32;scalar=64";
    class       volScalarField;
    location    "0.36/water";
    object      alpha.gas_0;
}
// * * * * * * * * * * * * * * * * * * * * * * * * * * * * * * * * * * * * * //

dimensions      [0 0 0 0 0 0 0];

internalField   nonuniform List<scalar> 
1496
(
0.709049860918
0.478398755687
0.507262760715
0.498892365161
0.465899666382
0.395613564878
0.298867892738
0.205595477302
0.174009670496
0.173670638538
0.174009670496
0.173340186608
0.17894090635
0.173165359027
0.185348207076
0.258600653685
0.318679921024
0.314301152671
0.301374834775
0.305625956243
0.706670149938
0.382117032211
0.398851727686
0.387049553117
0.362002763932
0.310389671428
0.239584601372
0.180805772355
0.173730468772
0.174009670496
0.173353158091
0.177889203226
0.184593485516
0.185499868656
0.234354703178
0.318491043392
0.344395452181
0.334700997349
0.332644742527
0.343067743652
0.706160436071
0.3173422311
0.289974074535
0.271013814747
0.261282557492
0.241163213657
0.211522864384
0.179584742797
0.174009670496
0.176935403619
0.195828816947
0.218891548787
0.219373850483
0.248506719498
0.320485443738
0.362990096251
0.361652156414
0.358207629628
0.368004841454
0.372088420698
0.668836168808
0.269073439832
0.232430285292
0.227333755571
0.226780532164
0.225317085391
0.215706919421
0.207893612804
0.22969468735
0.285576710513
0.33559521991
0.349180331149
0.365046594726
0.399404684581
0.402780320793
0.3791881693
0.367539792872
0.368510268791
0.381492819916
0.384720813684
0.507696556918
0.234015621251
0.228451735908
0.227926025485
0.227498051553
0.248358914827
0.297121659551
0.379117804193
0.468731521118
0.542285551114
0.571473412738
0.573600719207
0.585925318043
0.585400061941
0.498360375376
0.405762526409
0.371840853043
0.368683566336
0.380959503854
0.388329216889
0.328124958999
0.239536289689
0.243193076233
0.253308091788
0.295707886719
0.397996430971
0.520113078902
0.607083736161
0.652876106892
0.662935311309
0.66496003889
0.663151986517
0.664671624029
0.663151986517
0.624203528579
0.492727970658
0.399196502737
0.373071277715
0.378163152183
0.389961600785
0.325433509578
0.342452112851
0.34364572948
0.353454845718
0.424381231418
0.52689952471
0.600219269239
0.650705393104
0.663151986517
0.664299851885
0.663151986517
0.66529632742
0.663151986517
0.665355410639
0.663151986517
0.611832384413
0.485726924866
0.397485850774
0.377859229617
0.381517688859
0.464560004445
0.620293137574
0.507129346943
0.473625960669
0.481738220123
0.521201384226
0.569582420584
0.615670552146
0.647576279363
0.662708392958
0.664191393043
0.663151986517
0.665228349621
0.663151986517
0.664875421597
0.660808496609
0.577930121547
0.461319247946
0.387746322739
0.372065191781
0.76964736972
0.825309415762
0.738953590116
0.65315329681
0.559270549871
0.51584947038
0.516022722609
0.52104126229
0.558909629884
0.604122356523
0.637474466893
0.65789300709
0.663151986517
0.664267193583
0.663151986517
0.663073528463
0.603596722928
0.51300304069
0.420932628861
0.368626359055
0.888885160546
0.881241729484
0.858389744829
0.824625736282
0.754793357814
0.649424313281
0.555701503181
0.492284329965
0.486006796144
0.488744405189
0.529659893407
0.580151947928
0.619776536828
0.639031392081
0.644557213182
0.638417105277
0.590761664
0.51563461162
0.438814854861
0.373566472991
0.893410418925
0.889800524327
0.884118233938
0.877041437546
0.861316318131
0.823023607891
0.751390062825
0.640450350684
0.52760835082
0.456161463609
0.451545841109
0.454245776958
0.493849963465
0.534174673817
0.555106588062
0.556782212112
0.532924110144
0.486826082986
0.430907850529
0.37344737562
0.896047889953
0.892427232498
0.888131433846
0.883902252793
0.880339710124
0.874546449621
0.859057159545
0.81733264598
0.730165400721
0.593480113849
0.477135894852
0.414672134598
0.402042388125
0.404064004525
0.419731616074
0.430847145268
0.430792988031
0.416407209579
0.392561589076
0.35948496227
0.893551929266
0.893381466098
0.888905936995
0.884284049202
0.881510188194
0.879429058234
0.875880657488
0.86673641171
0.841074784953
0.776614006216
0.655125941423
0.507726701529
0.412956289488
0.376914470143
0.353835713989
0.337935789397
0.332924693403
0.335921531572
0.333544179412
0.3275077725
0.896217914638
0.893419656209
0.888671419038
0.882828702984
0.879990239129
0.878534014099
0.876089294363
0.870675950561
0.858571735918
0.832498663634
0.777650434808
0.673223655794
0.530093919443
0.425285496379
0.36792277044
0.331950913646
0.301420921738
0.285834634583
0.289173451062
0.29505132805
0.893551929266
0.893747597135
0.887275056359
0.878683034356
0.875294304105
0.874524863613
0.873350428958
0.869284395654
0.858646872468
0.837517319775
0.80190118131
0.744242859339
0.650721386615
0.534514129641
0.432428061703
0.357559496863
0.307570282211
0.278583637589
0.272392743176
0.277458709639
0.896148256682
0.893551929266
0.884919588904
0.873263888974
0.869063497541
0.867976929097
0.866866713859
0.863831357133
0.855171446695
0.835981566128
0.80254955314
0.754821530328
0.69187083499
0.609127548119
0.511058634572
0.413054517519
0.332523796756
0.282942083314
0.268602035712
0.270967003619
0.893551929266
0.89360708804
0.881864241902
0.867975144303
0.86337491112
0.861299835264
0.858771691756
0.854446930756
0.845977275213
0.829063891942
0.799151589029
0.754187434799
0.697855542337
0.631210705963
0.550042603128
0.456656931367
0.363891025835
0.293867706326
0.267815228084
0.268113602796
0.895900449112
0.893303400834
0.877963702411
0.862808535922
0.858422458541
0.855590270125
0.851120302945
0.843523700792
0.83212567611
0.814823453501
0.787858932479
0.748183345639
0.696562807146
0.633837841929
0.558679006689
0.471018411258
0.378627845307
0.3012575051
0.267110493379
0.265885933402
0.893551929266
0.891049519113
0.872688514785
0.857176681067
0.853531485805
0.850563717572
0.844639520873
0.833266641164
0.816443750036
0.79490313772
0.767483866842
0.732034680596
0.687266519135
0.629615903805
0.556939671611
0.470705972519
0.378852922972
0.300921207094
0.265202246718
0.263533155869
0.89556458916
0.885861593958
0.86584452578
0.850541741223
0.848109109707
0.845656541398
0.839231911946
0.82494414799
0.802053361853
0.773089283298
0.740386074932
0.704419572167
0.6629204416
0.609994931888
0.54117506875
0.457350221588
0.367108851411
0.291951088974
0.260983948754
0.260760454952
0.893551929266
0.878235613493
0.857570353594
0.842894270336
0.841891960443
0.840457761256
0.834549986906
0.818907697782
0.791190699539
0.753655763509
0.711518438246
0.668499628847
0.622935788831
0.568722697504
0.500271740955
0.417719816309
0.331990398634
0.270443026038
0.254951378253
0.257528462333
0.894899607128
0.86862215889
0.848131664964
0.83474396776
0.834961621462
0.834789042213
0.830124671969
0.81463349757
0.784266610891
0.739559643588
0.68630465824
0.63021376822
0.573070027696
0.509975296029
0.435918787461
0.353595338649
0.28143259094
0.249461510322
0.248753783568
0.255204792671
0.893410418925
0.857279209697
0.837725228166
0.826494982432
0.827636796322
0.828788862527
0.825443419151
0.811021052005
0.779770598647
0.730481557924
0.666976437826
0.595489025903
0.521828899748
0.444037116453
0.360861826008
0.285599031687
0.245999093008
0.241354661695
0.244844279029
0.254060671226
0.894145668396
0.842968888025
0.826134443183
0.818141028768
0.820209160216
0.822530619531
0.820087135451
0.806704585557
0.775191924755
0.722955312516
0.651381734877
0.566158318097
0.475277270547
0.381262170245
0.293811518123
0.245679684295
0.238179153059
0.239273726117
0.243577587058
0.252965560724
0.893410418925
0.823760356049
0.812588259489
0.809077821446
0.81260912263
0.81578261356
0.813491349887
0.800013036932
0.767496490256
0.712378337149
0.634272593237
0.538323389011
0.4330707137
0.327864571651
0.253490332612
0.237749879494
0.237587161858
0.238470802668
0.242694243103
0.25176851736
0.890307354017
0.798214941623
0.795853767509
0.798109496972
0.804354623838
0.807731209769
0.804559730485
0.788763970378
0.752880379745
0.69340509503
0.609137612754
0.504908761672
0.389848502095
0.284426716351
0.239297940209
0.237440116628
0.237404046934
0.237838654434
0.241945565077
0.250436989
0.867712480637
0.766895808178
0.774262188552
0.784120779529
0.793772192557
0.796457400765
0.791093563276
0.770051780289
0.727293078564
0.660638425127
0.569575484018
0.458579970589
0.339781493221
0.252543108904
0.237440116628
0.237283912738
0.237305806052
0.237519475286
0.241150576008
0.248243744333
0.830357406118
0.728951038016
0.746744047846
0.764348763419
0.776940926995
0.778165041755
0.769051753295
0.739927382825
0.687016034784
0.610191368709
0.510794607676
0.394507560176
0.284263411416
0.238416116829
0.237281358679
0.237305806052
0.237109635486
0.2373375186
0.240007430764
0.243904266329
0.810361371737
0.67173146144
0.710761187088
0.732554677547
0.747072414203
0.746485687397
0.732059316703
0.693116063524
0.628229762061
0.539614478989
0.430937636772
0.316293986669
0.24415945363
0.237272844977
0.237305806052
0.236996202282
0.237168119262
0.237051297842
0.238305719015
0.236976676032
0.802063010987
0.601590843788
0.657647565639
0.679933652529
0.694662317799
0.69218219425
0.671551588686
0.623103353154
0.546810304385
0.446980518966
0.335136722907
0.251410219774
0.237262957636
0.237305806052
0.236993136782
0.237168119262
0.236915138263
0.237017274634
0.235903532061
0.224353628574
0.788243039848
0.531316281783
0.588282089613
0.603072780475
0.614097494073
0.60867409906
0.581646393683
0.525214756572
0.440479357412
0.33792344494
0.25483369246
0.237402910683
0.237440116628
0.236993136782
0.237305806052
0.236861524006
0.242077305684
0.240283693412
0.226704101884
0.203759816509
0.748626000832
0.48503475144
0.520498087981
0.518766652004
0.516218451513
0.500366340144
0.4638976962
0.401937287747
0.320040357544
0.251225836713
0.237486722505
0.237579542612
0.237133228639
0.237440116628
0.240301756248
0.254416729506
0.251811307778
0.233345861582
0.205756487369
0.194055025664
0.668438299318
0.475168835267
0.479319486617
0.468613007375
0.43943544248
0.396720674093
0.346054693028
0.287963246631
0.243008760061
0.237685583784
0.237700925233
0.237301038807
0.237579542612
0.249464273586
0.276988982077
0.271475488225
0.244110572307
0.211369844559
0.194919031093
0.194035614771
0.586225045206
0.475120868917
0.478429824619
0.468628036572
0.424560170836
0.360832085677
0.304094877512
0.259988957406
0.237783216327
0.238026360796
0.237336843916
0.24960463852
0.273988366956
0.305535763375
0.30288019035
0.265185206444
0.223226353986
0.198914438113
0.194900120155
0.198551646079
0.57501207702
0.513348252596
0.525832761645
0.506371166969
0.448687336277
0.380125813797
0.324721682183
0.289260906268
0.276518583533
0.28020582286
0.298652693963
0.332680954003
0.361107568707
0.352511273924
0.307511594676
0.255869424024
0.215274179314
0.198193217269
0.197589261553
0.215422895005
0.637918512216
0.651912013662
0.644911712132
0.614255236691
0.557760306446
0.498308011091
0.458465011671
0.445744259512
0.448574180266
0.449847971449
0.454874666979
0.463952499468
0.445176547354
0.392640722572
0.323128878698
0.262141783947
0.216982817951
0.198900302897
0.203942381414
0.245117365129
0.746027019928
0.765038323861
0.740975598057
0.715543008207
0.690420336994
0.668520859729
0.656960666586
0.656399396513
0.656593368451
0.639196860147
0.602003682972
0.563077808703
0.51232482028
0.446651448271
0.368358839505
0.289276636845
0.225242267533
0.201239664356
0.217609286858
0.284704643507
0.213650940469
0.213407795688
0.242735116135
0.423764594651
0.629841812046
0.732938511157
0.756695351022
0.75989074205
0.785954894512
0.83597036213
0.426750292509
0.0581035941505
0.0296134628047
0.414274805352
0.660075210628
0.144374724571
0.320381296586
0.305878976442
0.247151416322
0.202102928162
0.202351151718
0.29090801243
0.534635589597
0.740245035659
0.818539250376
0.835143061402
0.832679136748
0.819894851479
0.820709614887
0.843792313868
0.780207416128
0.585815920435
0.480469496574
0.785520143117
0.881732207347
0.144313311275
0.338206485922
0.260369888377
0.191937612371
0.191725289304
0.290942823396
0.525410468419
0.713854273728
0.807254665462
0.842471684044
0.849441458307
0.849370950922
0.849389260677
0.848227733483
0.86225213608
0.8796920666
0.869309373369
0.866709901867
0.912288801726
0.915036873668
0.144687077471
0.319003316469
0.209590007915
0.172114520512
0.208603451135
0.390928015789
0.572603296371
0.699583266165
0.773909410957
0.81064402346
0.828827488562
0.839140971032
0.847037374271
0.856100998838
0.872941967476
0.896388713015
0.910881484942
0.917326842217
0.917273460482
0.915751355353
0.156638698294
0.318691227309
0.202593345293
0.171930895813
0.21232285318
0.363084883218
0.506319265859
0.606905228426
0.672438296595
0.717443439102
0.752310925844
0.78295326058
0.811229710663
0.836337843843
0.858644549139
0.879571935142
0.893660778587
0.903049406861
0.908594834286
0.879472529914
0.159290020332
0.36149516156
0.235200011113
0.177744737921
0.186431730265
0.250469065422
0.353174770441
0.443997527101
0.513272969035
0.56775431817
0.616125250435
0.664724690604
0.714267653112
0.758816232554
0.792163792211
0.814855900764
0.831068554028
0.841809911689
0.852849755752
0.753802036671
0.106995848914
0.395076283232
0.362289920241
0.235957934749
0.172092880174
0.171997193354
0.185179903897
0.251907063025
0.322283398234
0.381265512434
0.435232686887
0.49072075459
0.547951306801
0.601861833237
0.647003047399
0.680771811489
0.703915499314
0.715783101949
0.722662318995
0.519081213328
0.0380270913776
0.397764247457
0.402916232754
0.392197976853
0.287561247639
0.180392117749
0.134405746688
0.134712541526
0.143628567724
0.185862596175
0.234479543231
0.283627800252
0.334767167977
0.386637082315
0.435485369904
0.476171527423
0.503783043143
0.514375884363
0.503437848505
0.261211718835
0.00527138878819
0.382265418716
0.403374364046
0.407011309058
0.406820999148
0.363575629515
0.255905699455
0.15893652965
0.103001054403
0.0867135985643
0.0875051135876
0.0994459793264
0.130804639399
0.169289605674
0.208853601583
0.244839457147
0.270176055835
0.280349242432
0.254286614524
0.0798875468757
0.000359735747088
0.35960341447
0.385667838457
0.405748206411
0.40825860909
0.408458268875
0.403834919572
0.358010001427
0.254176439826
0.148974310959
0.0920681029269
0.059239331388
0.0432005551356
0.0438261071013
0.0494478699354
0.0672610530939
0.0828763530125
0.0890264881279
0.0677084305866
0.0102475216097
0.000265465772287
0.349810839911
0.35875239202
0.389020409972
0.405196995686
0.408657928211
0.411701074921
0.415197575359
0.414775627802
0.363550501327
0.267916491175
0.177396156492
0.104466081203
0.0530973756122
0.0232836598535
0.00826837439727
0.00784023073075
0.00934386241896
0.00649178135792
0.00128388892851
0.000263695641959
0.344105153092
0.343295581824
0.365507851826
0.386460624341
0.3918099275
0.393514700825
0.405787752109
0.428070506345
0.440181797401
0.414338717695
0.363548440385
0.294951038922
0.203173689843
0.108293168389
0.0190501617832
0.0016807574263
0.000260085253341
0.000805958937861
0.00138141538905
0.000262404401651
0.335813009207
0.334359205903
0.34777139565
0.359819106085
0.359487439033
0.357692891655
0.376173448148
0.426120280499
0.456986771047
0.451062645985
0.415185596475
0.345365531422
0.285477193968
0.210234683121
0.0623527161644
0.00452739571071
0.000144281150935
0.000228420311014
0.00146364865544
0.000260634633335
0.321278176989
0.324700668729
0.333576982639
0.33633943347
0.329709968156
0.328842045669
0.358743338507
0.429757438475
0.478016154723
0.47685931285
0.427435254439
0.336138824408
0.274011756245
0.199828143751
0.0646778485303
0.00555945017935
0.00013356818769
4.33130395296e-05
0.00146302038773
0.000259390151585
0.303092077567
0.312027632066
0.318743593186
0.316794004281
0.30987336404
0.315424707198
0.358646005276
0.444639521565
0.509756927437
0.518094672319
0.443684805692
0.315556885197
0.219369087406
0.135524859422
0.0364195928208
0.0025090793649
4.56384569182e-05
2.63421310987e-05
0.00146445411068
0.000257286862716
0.288107385556
0.298251144095
0.302882467201
0.300994426327
0.299308441411
0.313192102997
0.364460750693
0.465463634504
0.540801607235
0.561393870656
0.471674437031
0.295185303227
0.1417308442
0.0559846826073
0.00746234285246
0.000225440463616
1.55101311343e-05
1.96555743545e-05
0.00125051935575
0.000251084975084
0.27868100698
0.286268005468
0.289407669262
0.290503424042
0.295788294653
0.315061458779
0.374057804161
0.47636702736
0.555577398198
0.561129338514
0.498681242728
0.292799376807
0.0865652985553
0.0150009401337
0.000501257500282
1.66258817191e-05
1.4673374636e-05
1.48540206932e-05
0.000785868229021
0.000195435811517
0.272781457376
0.277632621861
0.280902790028
0.285962758633
0.296108492145
0.319779380267
0.379376158229
0.475455641221
0.555813554871
0.56171543442
0.510723359837
0.298350907072
0.0742220952489
0.00716452596565
8.89052933175e-05
1.47228661555e-05
1.46469565778e-05
1.4673374636e-05
0.000349120839
0.000106997400051
0.268812844182
0.272516853105
0.27721764276
0.285505730416
0.298362331048
0.324681692976
0.378961850744
0.468270593188
0.550631917763
0.561129338514
0.515290235006
0.305539524682
0.0750314674866
0.00579547742305
5.41636189741e-05
1.46702364939e-05
1.4673374636e-05
1.46015044293e-05
0.000148246930997
5.53290109376e-05
0.266149136071
0.270520563501
0.276849444415
0.286515487414
0.301906586719
0.327051178586
0.37457980888
0.452670140713
0.536726536701
0.561583954557
0.517011196711
0.315197946756
0.078207272083
0.00531224057717
4.09943772774e-05
1.4673374636e-05
1.46103527986e-05
1.4673374636e-05
9.8847981154e-05
3.64268571022e-05
0.26473130923
0.270460749976
0.277526584433
0.288926721787
0.304950963048
0.326693392772
0.365072926398
0.431271108638
0.516950507705
0.561129338514
0.518559199184
0.33429973773
0.0892401832718
0.00589501895706
4.26794837101e-05
1.46461460941e-05
1.4673374636e-05
1.45891751671e-05
8.99512639779e-05
3.63281107378e-05
0.264400614276
0.271066232449
0.279101280498
0.291272274711
0.305684850721
0.323708746144
0.352557291101
0.409011068287
0.496542855514
0.556566210423
0.520449949263
0.36796189457
0.11679946841
0.00898957152127
7.58565096984e-05
1.4673374636e-05
1.46082354652e-05
1.4673374636e-05
9.05191808464e-05
3.62279659548e-05
0.26448218999
0.271871761419
0.280166162926
0.291720453608
0.304511771064
0.317645572811
0.339375677208
0.389039939944
0.477896216488
0.546049011615
0.522438232588
0.406555314001
0.162205115336
0.0176229106788
0.000270673160659
1.4650579354e-05
1.4673374636e-05
1.49075218316e-05
9.51575504039e-05
3.629923493e-05
0.264326343042
0.271894416353
0.279958108607
0.290432643081
0.29993166992
0.308872248666
0.326514431326
0.371157274624
0.459565771356
0.535083219821
0.522189809911
0.425184978529
0.201221104711
0.0312494957094
0.000925298856788
1.50178592326e-05
1.46628190891e-05
1.63178316393e-05
0.000113119034497
3.61992381262e-05
0.263388288089
0.270686037055
0.277439592348
0.284897596386
0.290698358409
0.297455638797
0.313126193241
0.352904589431
0.438210171294
0.522043103535
0.521706840861
0.422548200326
0.19823333829
0.0378632246014
0.00166162628034
1.79756812972e-05
1.4673374636e-05
1.70891085763e-05
0.000196150576256
3.62992404278e-05
0.26129944813
0.266583890228
0.270161776962
0.273479904585
0.27671396276
0.282670013548
0.296945226556
0.331114201695
0.411902800986
0.506185215991
0.519276441017
0.40671269439
0.178733135314
0.0374127071321
0.00217962877883
2.42138434326e-05
1.46660217059e-05
1.86088220438e-05
0.000531650303344
7.22965511878e-05
0.257394230694
0.258595457521
0.257760197111
0.256817162412
0.258374607271
0.263492751268
0.275368618153
0.303719507538
0.382408913933
0.48960937833
0.507790517406
0.369594044023
0.144067122645
0.0361274107855
0.00311807672171
4.93166855841e-05
1.4673374636e-05
2.74895357972e-05
0.00147947085598
0.000262516144777
0.250486633312
0.247332689064
0.240878230422
0.236151219447
0.236809280894
0.239992776672
0.248399564696
0.274155188854
0.357266282438
0.476194608401
0.483527131793
0.316928653257
0.114661259399
0.0387035738625
0.00545374729271
0.000145479238494
1.46606559694e-05
7.81446013045e-05
0.00346132047037
0.000773102112604
0.241059798317
0.231065218744
0.219968259223
0.214484814411
0.214619997953
0.216067563605
0.224910359247
0.258336733146
0.34894964824
0.472396710967
0.46255272548
0.283301961903
0.112287670874
0.0531430237998
0.00651576849391
9.89199255778e-05
1.60192552095e-05
0.000303604685889
0.00815273722927
0.00229464082601
0.225949670385
0.209426367824
0.200373894111
0.198677392167
0.199079810246
0.204485248276
0.223586374977
0.273312130674
0.37547097511
0.490719094658
0.478320834022
0.300321820468
0.137355792699
0.0524595106618
0.00257739797445
2.94243793261e-05
2.70432934375e-05
0.00298913414057
0.0282602018688
0.00924161925135
0.204674154738
0.194805331048
0.194136532091
0.194139415147
0.198899104293
0.222171465146
0.287992415206
0.399671076735
0.509198423864
0.573905518797
0.585412229662
0.448267266062
0.215716330758
0.0346136408006
0.000621660005041
2.83573409567e-05
5.96430340872e-05
0.0083717059872
0.0913690611444
0.0379154638754
0.194074733588
0.194003066027
0.193999873576
0.204106769282
0.251309758031
0.363994312785
0.507911194989
0.617525290037
0.679116195417
0.708077991068
0.739913525149
0.667757173851
0.319453374553
0.0214791118792
0.000305590127464
2.24472534924e-05
2.35262953802e-05
0.00291593859128
0.102051452401
0.101772178617
0.194035614771
0.195862988646
0.216475053396
0.285951466964
0.409792533214
0.540146560298
0.641265949409
0.707853547242
0.747480259105
0.781329270105
0.792436217584
0.740269741791
0.28126912567
0.0100053704695
7.51786338352e-05
1.17078356998e-05
1.20467846771e-05
3.48174361831e-05
0.0998116379653
0.151922259803
0.198326472633
0.225765902006
0.299667831691
0.393454588445
0.476686781636
0.567119912148
0.656323906176
0.718347922465
0.755248605753
0.790856677186
0.790642659623
0.698500164014
0.12037754951
0.00152362618065
9.82496869539e-06
8.94863881719e-06
1.04713632594e-05
8.67577031717e-06
0.0625120014632
0.201515596439
0.224650049804
0.294171193804
0.359623475664
0.400021461377
0.459577357339
0.554341435815
0.651232729105
0.717618469133
0.755403922899
0.790642659623
0.792175101362
0.634941168577
0.0870708671431
0.000878887810276
8.7189775114e-06
8.7015639769e-06
9.56085950808e-06
8.65406159896e-06
0.0282290976377
0.224945911585
0.27865706799
0.334146618448
0.355107112065
0.362912998336
0.413536106866
0.523043544128
0.630014208295
0.707339748495
0.749162487572
0.788591221639
0.790950749886
0.68187954954
0.14841677999
0.00278342514352
8.69750488654e-06
8.67577031717e-06
8.87031040592e-06
8.63273140664e-06
0.0110604162634
0.233936274039
0.319184658141
0.33329343731
0.325877724375
0.313549515365
0.360260145552
0.471712373102
0.583823955321
0.672205939935
0.727215053254
0.77479983837
0.791702631642
0.760527741926
0.302038676032
0.0137646464725
3.90929720985e-05
8.65406159896e-06
8.63273140664e-06
8.61116725671e-06
0.00470323923434
0.237967122735
0.319179054026
0.318433224448
0.282030857264
0.262274505777
0.283159443314
0.381163955984
0.506648364246
0.617151751882
0.703094602994
0.759442969258
0.791253054237
0.787498204798
0.343080985746
0.0180421403939
5.89824977412e-05
8.63325060127e-06
8.61166707431e-06
8.59011292209e-06
0.00294012842642
0.243636351915
)
;

boundaryField
{
    emptyPatch
    {
        type            empty;
    }
    minY
    {
        type            fixedValue;
        value           nonuniform List<scalar> 0();
    }
    maxY
    {
        type            inletOutlet;
        phi             phi.gas;
        inletValue      uniform 1;
        value           nonuniform List<scalar> 
40
(
0.746027019928
0.765038323861
0.740975598057
0.715543008207
0.690420336994
0.668520859729
0.656960666586
0.656399396513
0.656593368451
0.639196860147
0.602003682972
0.563077808703
0.51232482028
0.446651448271
0.368358839505
0.289276636845
0.225242267533
0.201239664356
0.217609286858
0.284704643507
0.319179054026
0.318433224448
0.282030857264
0.262274505777
0.283159443314
0.381163955984
0.506648364246
0.617151751882
0.703094602994
0.759442969258
0.791253054237
0.787498204798
0.343080985746
0.0180421403939
5.89824977412e-05
8.63325060127e-06
8.61166707431e-06
8.59011292209e-06
0.00294012842642
0.243636351915
)
;
    }
    water_to_cooler
    {
        type            zeroGradient;
    }
    water_to_heater
    {
        type            zeroGradient;
    }
    procBoundary0to1
    {
        type            processor;
        value           nonuniform List<scalar> 
41
(
0.708240235252
0.574584709284
0.589556411902
0.581252168862
0.54288383786
0.464219501745
0.357410255769
0.24524795373
0.178153873763
0.174009670496
0.173504037649
0.174009670496
0.174625900805
0.174009670496
0.172224496189
0.208691942715
0.290252515136
0.306130771808
0.290702915589
0.280380244189
0.273546636958
0.254129799879
0.247108819887
0.276696314499
0.399559343334
0.594669080299
0.671965888699
0.722702789591
0.766539846356
0.798722837891
0.0779375347034
0.010325410814
0.0103108724868
0.027305724175
0.253598041207
0.265344150109
0.292615328167
0.306252192898
0.293438093021
0.250859203672
0.250859203672
)
;
    }
}


// ************************************************************************* //
