/*--------------------------------*- C++ -*----------------------------------*\
| =========                 |                                                 |
| \\      /  F ield         | OpenFOAM: The Open Source CFD Toolbox           |
|  \\    /   O peration     | Version:  2312                                  |
|   \\  /    A nd           | Website:  www.openfoam.com                      |
|    \\/     M anipulation  |                                                 |
\*---------------------------------------------------------------------------*/
FoamFile
{
    version     2.0;
    format      ascii;
    arch        "LSB;label=32;scalar=64";
    class       volScalarField;
    location    "24";
    object      alphat.water;
}
// * * * * * * * * * * * * * * * * * * * * * * * * * * * * * * * * * * * * * //

dimensions      [1 -1 -1 0 0 0 0];

internalField   nonuniform List<scalar> 
1875
(
0.0332748
0.0237421
0.0203245
0.0188614
0.018271
0.0176996
0.0175959
0.0172083
0.017049
0.0176952
0.0181762
0.0413247
0.0539839
0.049224
0.0406897
0.0425511
0.0398784
0.039276
0.0389876
0.0380728
0.0376636
0.0370968
0.0385395
0.0401878
0.0464404
0.00979136
0.0069917
0.00723486
0.00732224
0.00678365
0.00780256
0.0092097
0.0110855
0.0145669
0.0150989
0.0186448
0.0288121
0.0350087
0.0319942
0.0218004
0.0146139
0.0107893
0.00882739
0.00785571
0.0075511
0.00730257
0.006286
0.00554627
0.00860828
0.0248345
4.12165e-28
0.011428
0.00681778
0.00900908
0.00956578
0.00883052
0.00911815
0.00980042
0.0130115
0.0149506
0.0190869
0.026352
0.0303456
0.0281663
0.017213
0.0124065
0.0102876
0.0087565
0.00805623
0.00738907
0.00688524
0.00669989
0.00307659
0.00318933
0.00258711
4.14064e-28
0.01247
0.00527514
0.0048009
0.0057857
0.00723266
0.00743551
0.00857236
0.0117487
0.014277
0.0158311
0.0204404
0.0252299
0.026017
0.0221036
0.0154374
0.011131
0.00822222
0.00775171
0.0070682
0.00653829
0.00668352
0.00335585
0.00257457
0.000989672
4.08426e-28
0.0134465
0.00253709
0.00352963
0.00292246
0.00522337
0.00604028
0.00761876
0.00995842
0.0116439
0.0122506
0.016347
0.0227859
0.0236285
0.0177267
0.0108375
0.00753835
0.00527817
0.0042146
0.00435254
0.00489124
0.00561254
0.00376651
0.00242044
0.000466508
3.92822e-28
0.0196235
0.00289312
0.00289597
0.00285545
0.00386799
0.00454639
0.00584933
0.00759712
0.00865008
0.00887536
0.012089
0.0174709
0.0180882
0.0125387
0.00889514
0.00431164
0.00260373
0.00280855
0.00350304
0.00442354
0.00483468
0.003101
0.00180757
5.74262e-05
3.8634e-28
0.0199673
0.00348531
0.00331646
0.00324423
0.00391439
0.00410437
0.00452106
0.00569684
0.00660772
0.00682008
0.0086352
0.0120248
0.0124291
0.010314
0.0107267
0.00420833
0.00200892
0.001969
0.00333378
0.00481009
0.00501323
0.00260604
0.00126973
1.67646e-06
3.4549e-22
0.0246873
0.00512812
0.00382801
0.00376608
0.00402423
0.00457473
0.00474882
0.00549772
0.00602082
0.00631865
0.00748583
0.00977399
0.0107396
0.0100393
0.00712587
0.00393537
0.00175935
0.00143746
0.00283908
0.00461416
0.00507405
0.00154752
0.000723987
6.45294e-09
0.000751471
0.0273464
0.0173466
0.00491119
0.00396186
0.00444993
0.00500873
0.00499687
0.00560286
0.00623268
0.00662117
0.00766849
0.00956543
0.00946249
0.00864594
0.00414619
0.00361534
0.00169097
0.00116931
0.001817
0.00352623
0.00419733
0.000971752
0.00019101
5.11184e-12
0.000864604
0.0238008
0.0260169
0.00997106
0.00694162
0.00490307
0.00542782
0.00586383
0.00596677
0.00654485
0.00695955
0.00793552
0.00917828
0.00879506
0.00809292
0.00483096
0.00392911
0.00257658
0.00135191
0.0010839
0.00165499
0.00232841
0.000525766
7.48762e-05
7.07838e-18
0.00311069
0.015785
0.0214445
0.0311726
0.0155551
0.010316
0.00716259
0.00633442
0.00644008
0.00681232
0.00730007
0.00758906
0.00851905
0.00746185
0.00711442
0.00578098
0.00580776
0.00560827
0.00251684
0.0011961
0.000573115
0.000611992
0.000488295
3.46342e-05
3.28084e-28
0.0140207
0.0129744
0.0115758
0.0142393
0.021566
0.0196058
0.0161031
0.0111259
0.00814202
0.00754953
0.00740509
0.00763617
0.0078077
0.00750141
0.00706919
0.00651583
0.0064814
0.00705267
0.00504823
0.00174504
0.000457627
0.000223287
0.000312355
1.65903e-05
4.33065e-28
0.0200009
0.0128174
0.0103154
0.0104382
0.0121751
0.0146999
0.0210073
0.0165666
0.014727
0.0106495
0.0082609
0.00768385
0.00785165
0.00787338
0.00781936
0.00765838
0.00773457
0.00784171
0.00838743
0.00535662
0.00118371
0.000237886
0.00015289
2.11897e-05
3.95699e-28
0.01987
0.0111965
0.0106477
0.0114063
0.0110015
0.0109665
0.0123341
0.0185569
0.0174835
0.0161754
0.0137923
0.0103286
0.00862905
0.0083472
0.00820779
0.00829296
0.00829312
0.00846877
0.00850884
0.00819799
0.00803368
0.00686052
0.00242993
0.000360861
3.74397e-28
0.0132461
0.00771445
0.00965691
0.0111257
0.0125761
0.0126933
0.0105133
0.0112118
0.0134611
0.0163661
0.0150981
0.0144477
0.0127456
0.0111354
0.00988893
0.00928391
0.00905096
0.00907943
0.0090819
0.00905527
0.0087058
0.00899078
0.00586073
0.00512861
4.9865e-28
0.00385223
0.00624069
0.00976112
0.0101931
0.0123569
0.0126219
0.0121697
0.00926563
0.00996692
0.0117433
0.0149782
0.014519
0.0142889
0.013726
0.0132957
0.0125848
0.0116031
0.0112605
0.0105964
0.010623
0.0102896
0.0102862
0.00837256
0.00569258
4.84667e-28
0.00020225
0.0102686
0.00992907
0.00731635
0.00843934
0.0108275
0.0112825
0.00934765
0.00792202
0.00846659
0.0099897
0.0127156
0.0131777
0.0133832
0.013373
0.013486
0.0130387
0.0127761
0.0119892
0.0115762
0.010814
0.0108382
0.00878052
0.00409163
4.76709e-28
1.11558e-06
0.011485
0.00800408
0.00465456
0.00560214
0.00861172
0.00931639
0.0102832
0.00780929
0.00703218
0.00683115
0.00758988
0.00823922
0.00932832
0.0106089
0.0127061
0.0129413
0.0126549
0.0127163
0.0123854
0.0118469
0.00972461
0.00698406
0.000278431
3.46813e-28
9.68379e-15
0.0107223
0.00697595
0.00367924
0.00369854
0.00714946
0.00816695
0.00937187
0.0099727
0.00778474
0.0066318
0.00645025
0.00629081
0.00675454
0.00741422
0.00914133
0.0125945
0.0126165
0.0121696
0.0122269
0.0107809
0.00709568
0.000919522
4.39918e-05
2.80419e-28
5.04948e-28
0.0111992
0.00631753
0.0030846
0.00242443
0.00380026
0.00613803
0.00858223
0.0100022
0.0105642
0.0084345
0.0070453
0.00669735
0.00741977
0.00823417
0.0099511
0.0135908
0.0122366
0.0116373
0.0107509
0.00713217
0.000970862
9.09648e-05
0.000318624
2.61555e-28
5.25571e-28
0.0115382
0.00633298
0.00292508
0.00234786
0.00305972
0.00435404
0.00734614
0.00917896
0.0108292
0.00986184
0.00894873
0.00887974
0.00990661
0.0110958
0.0128472
0.0121427
0.0109903
0.00928574
0.00418405
0.00088596
0.000308685
0.000637948
0.00156637
2.13369e-28
5.39534e-28
0.0118567
0.00639164
0.0031166
0.00202938
0.00301327
0.00421475
0.00732324
0.00926439
0.0115385
0.0127127
0.0139891
0.0140127
0.013518
0.0125781
0.0114418
0.00893566
0.00656402
0.00207355
0.000941317
0.000746578
0.00139908
0.00312097
0.00351671
0.000245196
5.0867e-28
0.0134518
0.00675414
0.00331528
0.00188918
0.00212493
0.00382926
0.00651704
0.00870234
0.0107651
0.0134997
0.0148281
0.0133542
0.0125646
0.00945529
0.00655662
0.0033707
0.00148243
0.00104587
0.00113112
0.00270524
0.00615529
0.00674533
0.0122134
0.0164508
4.50735e-28
0.0145449
0.00817141
0.00375348
0.00185109
0.00131791
0.00193538
0.00403023
0.00671247
0.00951765
0.0133033
0.010933
0.00930765
0.00620121
0.00331537
0.00182967
0.00122483
0.00117775
0.00172835
0.00526107
0.01066
0.011756
0.0129909
0.0139449
0.00124918
4.22833e-28
0.0154565
0.0103077
0.00480907
0.00208493
0.00126682
0.00133484
0.00212053
0.00302544
0.00504559
0.00455267
0.00362561
0.00270182
0.00157136
0.00116147
0.000983045
0.00114957
0.00190981
0.00773248
0.017645
0.0171757
0.0169647
0.0175537
0.0205792
1.66313e-05
3.81984e-28
0.0163404
0.0135121
0.00945967
0.00304735
0.00151348
0.00116535
0.00134585
0.00156342
0.00202989
0.00194225
0.00172481
0.00129902
0.00109797
0.000942196
0.00110586
0.00182407
0.00600331
0.0171649
0.0190669
0.0172146
0.0164987
0.0166078
0.0189484
2.16466e-06
3.30742e-28
0.0169661
0.0138991
0.0139296
0.00842282
0.00256039
0.00155161
0.0013664
0.00137279
0.00146456
0.0014543
0.00129619
0.00126736
0.00144023
0.00158087
0.00251516
0.00501337
0.00980981
0.0151278
0.0146805
0.0119943
0.00979587
0.00866133
0.0131135
1.95245e-19
3.44209e-28
0.0175296
0.0145396
0.014674
0.0120162
0.0073332
0.00377715
0.00234904
0.0016283
0.00142269
0.00135094
0.00128874
0.00144113
0.00172427
0.00187707
0.00263468
0.00388629
0.00531954
0.0060703
0.00619736
0.00597541
0.00608495
0.00654408
0.0116257
3.52587e-28
5.09711e-15
0.0192603
0.0152475
0.0148734
0.0121135
0.00900892
0.00653147
0.00480848
0.00344611
0.00248188
0.00203804
0.00185378
0.00194997
0.0021482
0.00227813
0.00262801
0.0030772
0.00346654
0.0039711
0.00436112
0.00478095
0.00533832
0.00612073
0.00983066
2.93986e-28
1.91172e-16
0.0211589
0.0154755
0.01603
0.0153386
0.014484
0.0131763
0.0122292
0.0110064
0.00978417
0.00844125
0.00737342
0.00633007
0.00641309
0.00618314
0.00620144
0.00644349
0.00672454
0.00683456
0.00752351
0.007828
0.00758203
0.00803834
0.0137999
1.99579e-28
8.54266e-16
0.0277804
0.0197262
0.0197282
0.0188578
0.0204753
0.0212515
0.0215436
0.0220372
0.022103
0.0220435
0.0219805
0.0210161
0.0210949
0.0203979
0.0197921
0.0198777
0.0197513
0.0194753
0.0189876
0.0178807
0.0145456
0.0108841
0.0223294
2.12769e-28
2.32938e-08
0.0270342
0.0195821
0.0230938
0.0241159
0.0244157
0.0233925
0.0244295
0.0255897
0.0264123
0.0267559
0.027428
0.0268031
0.0258502
0.0254987
0.0256527
0.0262452
0.0269609
0.0264807
0.0237049
0.0171621
0.0149009
0.0177998
0.0150315
1.98395e-28
5.49239e-16
0.018317
0.0199807
0.0203279
0.0205942
0.0205854
0.023325
0.024918
0.0268127
0.0278616
0.0289439
0.0299897
0.0292954
0.0276882
0.0287389
0.0302962
0.0310621
0.0304909
0.0252841
0.0198833
0.0162593
0.0195866
0.0220371
0.0119692
3.93768e-27
9.2074e-16
0.0087219
0.0144805
0.0176158
0.0180779
0.0189702
0.0181937
0.018976
0.0235288
0.0265979
0.0284128
0.0294122
0.0315052
0.0339479
0.0313626
0.0316508
0.0312082
0.027189
0.0238455
0.0203686
0.0229114
0.0287712
0.0368764
0.024521
1.32964e-27
1.90476e-21
0.0197995
0.0197629
0.0201562
0.0182161
0.0168047
0.013894
0.0117235
0.0122865
0.0103736
0.0163728
0.0237107
0.0298457
0.0316157
0.0329648
0.0322147
0.0338434
0.0293374
0.0248913
0.0248608
0.0305111
0.0405749
0.0551925
0.0491039
2.17738e-28
2.41669e-28
0.066898
0.0481287
0.0286976
0.0213617
0.0188546
0.0149619
0.0134747
0.0117688
0.0108309
0.0101141
0.0139272
0.0217957
0.028814
0.0306455
0.0294682
0.033355
0.0405444
0.0392529
0.0378256
0.0426622
0.0536393
0.065035
0.0615195
2.21505e-26
2.21496e-28
0.066024
0.0754547
0.0457565
0.0279054
0.0223016
0.0186809
0.0153903
0.0134687
0.0121076
0.0106325
0.012941
0.0181604
0.025976
0.0294692
0.0260641
0.0272537
0.0392168
0.0532882
0.0592854
0.0626962
0.0689491
0.0759874
0.0791086
1.10165e-25
1.75292e-09
0.0315615
0.0776186
0.07014
0.0363485
0.0237041
0.0203114
0.0171089
0.0149365
0.0142214
0.0128541
0.0139393
0.0179664
0.0208148
0.0288937
0.0249716
0.0251948
0.0388145
0.0592785
0.0755559
0.0838156
0.0870752
0.0929072
0.0933487
1.36454e-25
8.12855e-08
0.0135486
0.0839093
0.0771724
0.0380859
0.022951
0.0199224
0.01711
0.0153757
0.0143843
0.0133979
0.0135753
0.0183361
0.0213806
0.0262558
0.023804
0.0253172
0.0432409
0.0653323
0.0870212
0.102626
0.107342
0.114754
0.107522
3.60798e-26
1.98853e-11
0.0142973
0.0913726
0.0709616
0.0332988
0.0201145
0.0185216
0.0167298
0.0150181
0.0141537
0.0132194
0.0162434
0.0198545
0.0228646
0.0262753
0.0243218
0.035848
0.0583323
0.0766129
0.097835
0.120935
0.131507
0.138497
0.114172
3.58743e-20
2.05872e-14
0.0209633
0.0914228
0.0593939
0.0271744
0.0185679
0.0159654
0.0142882
0.0139781
0.0138477
0.0143498
0.0210135
0.022548
0.0278128
0.0285843
0.0360655
0.0562607
0.0651816
0.0807825
0.112955
0.148706
0.162329
0.158896
0.149396
0.142273
1.5932e-09
0.0342446
0.0871729
0.0499822
0.0220188
0.0148168
0.0117471
0.0122896
0.0134537
0.0149743
0.021162
0.0238699
0.0303532
0.034549
0.0440804
0.0558952
0.0598102
0.0681509
0.096523
0.147471
0.183184
0.185215
0.172415
0.163289
0.166452
0.00533503
0.0766522
0.0835535
0.0417763
0.0165717
0.0114409
0.0101546
0.0116826
0.013982
0.0184459
0.0297665
0.0391557
0.0484474
0.0521971
0.0536693
0.0610702
0.0761851
0.113792
0.158399
0.174506
0.167503
0.158421
0.153498
0.156556
0.176517
0.00366791
0.127095
0.0741081
0.0343233
0.0135206
0.0102316
0.0098218
0.0141321
0.0214077
0.0316742
0.0502959
0.05115
0.05608
0.0674679
0.0904392
0.11872
0.131609
0.137918
0.132864
0.128613
0.12513
0.124051
0.140396
0.162053
0.20272
0.0017664
0.146182
0.0772684
0.0270826
0.0132136
0.00953463
0.0144655
0.026659
0.0371154
0.0506467
0.0580165
0.0689658
0.08607
0.0893613
0.0913911
0.0903707
0.0870475
0.0855711
0.0853892
0.0913269
0.10033
0.117053
0.142383
0.174875
0.201661
0.0011631
0.149133
0.0900951
0.0290933
0.0128402
0.0119863
0.0233301
0.0336898
0.0418482
0.048419
0.054515
0.0611658
0.0623164
0.0625532
0.0621601
0.0594517
0.0587615
0.060334
0.0678198
0.0803605
0.0955559
0.116955
0.149327
0.180889
0.192091
8.81646e-05
0.139222
0.1318
0.0430312
0.0140537
0.0115054
0.0236216
0.0345403
0.0403155
0.0426519
0.0458512
0.0504055
0.0480118
0.0440657
0.0352779
0.0310885
0.0291271
0.0324938
0.0361619
0.0469629
0.0627484
0.0822514
0.121038
0.171796
0.186957
1.77513e-14
0.0911732
0.128375
0.106299
0.0238454
0.012316
0.018453
0.0318061
0.0362924
0.0362161
0.0355645
0.0338666
0.0312698
0.0304843
0.0292735
0.0251472
0.0219301
0.0218911
0.0254443
0.0317015
0.0476384
0.0715157
0.102723
0.156419
0.19139
4.04042e-14
0.0409067
0.107592
0.129963
0.0868693
0.019994
0.0167633
0.0227043
0.0323326
0.0309415
0.0298883
0.0284588
0.0271929
0.0268344
0.0281996
0.0254046
0.0233062
0.0216792
0.0182936
0.0216007
0.0390827
0.0679459
0.102289
0.158886
0.20622
5.30291e-14
0.0286181
0.0738218
0.0913647
0.119107
0.0692967
0.0244554
0.0209363
0.0237858
0.0279886
0.0281251
0.0271215
0.0268355
0.0271258
0.0273998
0.0260328
0.0242507
0.0211096
0.0198933
0.0252522
0.0392073
0.0675308
0.106263
0.166379
0.217833
2.05284e-09
0.027029
0.0376675
0.0738806
0.0872437
0.103563
0.0567694
0.0263741
0.0221503
0.0235021
0.0261285
0.0260383
0.0267334
0.0295426
0.0277285
0.0250096
0.021724
0.0180923
0.0190325
0.025107
0.0428828
0.0742622
0.113581
0.175849
0.226691
7.87506e-22
0.027904
0.0409451
0.0733993
0.0854637
0.10295
0.101129
0.0489751
0.025688
0.0218756
0.0223732
0.0238509
0.0269987
0.0311165
0.0270141
0.0236615
0.019053
0.016156
0.01768
0.0243197
0.0465404
0.0763886
0.118932
0.182382
0.231898
2.72961e-28
0.0330466
0.0421919
0.0706831
0.0871633
0.101239
0.11156
0.0858224
0.0374132
0.0234215
0.0201171
0.020815
0.0230387
0.0274192
0.0286579
0.021716
0.0161922
0.0132596
0.0125178
0.0191729
0.0377057
0.0691055
0.114031
0.171806
0.232319
2.63429e-28
0.0366261
0.0353564
0.0611
0.0830086
0.0959164
0.107188
0.10339
0.0586666
0.028445
0.0201238
0.0190539
0.0197583
0.0227202
0.0321074
0.0215479
0.0143772
0.0108019
0.0112771
0.0160306
0.0360908
0.0655879
0.0989095
0.144005
0.216913
2.65048e-28
0.0523917
0.0369933
0.0397683
0.0575035
0.0783708
0.0949178
0.0975233
0.0659237
0.0339341
0.0206701
0.0168583
0.0163125
0.0171261
0.0201547
0.0258568
0.0169529
0.0149021
0.0123405
0.0158905
0.0354113
0.0647084
0.0856966
0.121253
0.194992
2.61616e-28
0.0783658
0.0619114
0.0339492
0.0336873
0.0433527
0.0580175
0.0683276
0.0564741
0.0319775
0.0202064
0.0150476
0.0136561
0.0133674
0.014003
0.0189609
0.0163826
0.0146403
0.0130632
0.0225453
0.0502509
0.0672522
0.0748505
0.102764
0.17707
2.72493e-28
0.106252
0.132777
0.0666549
0.0326415
0.027706
0.0286386
0.0309503
0.0299307
0.0223174
0.0163903
0.0137474
0.0124076
0.0120823
0.0121761
0.0143498
0.0132984
0.0139902
0.0160516
0.0335158
0.0591209
0.0673959
0.0697191
0.0891682
0.161595
2.58865e-28
0.140635
0.216636
0.200005
0.11768
0.0411087
0.026478
0.0222625
0.0190219
0.0155323
0.0130136
0.0118104
0.0113668
0.0111036
0.0113602
0.0124284
0.012501
0.0175768
0.0254469
0.0450243
0.0640879
0.069617
0.0717304
0.0861458
0.149847
2.6117e-28
0.200799
0.271499
0.250583
0.223375
0.178388
0.0791871
0.0331736
0.0202417
0.015652
0.0133242
0.0123101
0.0120929
0.0121041
0.0125429
0.0138103
0.0159726
0.0246346
0.0311004
0.0436797
0.0590735
0.069259
0.0726332
0.0829878
0.1446
3.14213e-28
0.313212
0.337037
0.264629
0.234399
0.222909
0.202544
0.139415
0.0597601
0.0289493
0.0197395
0.0163398
0.0153564
0.0152994
0.0157222
0.0173143
0.022428
0.030929
0.0349748
0.0408962
0.0538598
0.0696285
0.0763742
0.0867263
0.145318
2.93404e-19
0.424683
0.395863
0.266851
0.203673
0.224229
0.235752
0.222075
0.181929
0.110697
0.0597035
0.0342812
0.0259796
0.0232691
0.0230705
0.0242582
0.0293406
0.0365639
0.0399059
0.0460033
0.0697435
0.0870585
0.0861511
0.0913191
0.15304
0.901688
0.774929
0.544755
0.2916
0.211303
0.231228
0.249037
0.248108
0.235913
0.203675
0.159134
0.113944
0.0782575
0.0592982
0.0517034
0.0515036
0.055289
0.0638287
0.0744564
0.0833819
0.0910919
0.0873368
0.0843793
0.112492
0.178909
1.26592
1.11402
0.763373
0.343652
0.223697
0.246614
0.260623
0.250588
0.237763
0.215023
0.187637
0.16338
0.142042
0.126455
0.114935
0.105896
0.0939265
0.0913792
0.0924025
0.0935569
0.0923426
0.095218
0.125429
0.195006
0.244262
1.57641
1.25017
0.805082
0.337282
0.185031
0.189756
0.227242
0.227909
0.218102
0.19443
0.167443
0.150713
0.13977
0.132055
0.127436
0.125312
0.125073
0.132168
0.144564
0.169694
0.214145
0.292591
0.384259
0.449378
0.455101
1.89794
1.35634
0.836255
0.332314
0.141901
0.123181
0.144147
0.159053
0.16104
0.163654
0.164825
0.168678
0.186388
0.220667
0.271609
0.333742
0.408441
0.501286
0.601736
0.709234
0.813832
0.891842
0.938503
0.944403
0.901008
2.08017
1.40357
0.957764
0.574051
0.257805
0.151013
0.14015
0.150929
0.162065
0.183519
0.229624
0.323097
0.479404
0.659029
0.825179
0.975132
1.1105
1.2314
1.34481
1.44529
1.52215
1.56183
1.5597
1.53774
1.56091
1.54226
1.47061
1.26015
0.97815
0.712162
0.462979
0.344578
0.30942
0.312443
0.354174
0.45151
0.600887
0.806546
0.992738
1.15567
1.31219
1.47328
1.63943
1.80178
1.94357
2.04864
2.0929
2.04476
1.89465
1.63299
2.13857
1.91764
1.65066
1.46216
1.35103
1.28242
1.23942
1.16544
1.12926
1.12263
1.14841
1.19764
1.27381
1.38255
1.52919
1.6966
1.88052
2.08853
2.31467
2.53857
2.74327
2.90485
2.99814
3.05229
3.3031
5.62399
3.12811
2.2271
2.13928
2.02194
1.46383
1.26567
1.16439
1.13024
1.13318
1.17618
1.26372
1.46516
1.7367
2.04779
2.26858
2.47268
2.71427
3.05421
3.41711
3.81731
4.34188
4.99424
5.75933
7.5941
8.59815
3.03411
2.51076
2.19336
1.10349
0.686006
0.531185
0.458051
0.311865
0.249109
0.235109
0.237132
0.303749
0.428724
0.967796
1.85373
2.33288
2.58977
3.22707
3.81722
4.37017
5.42785
7.72581
12.1365
45.1319
8.47349
2.57255
1.4938
0.615859
0.242229
0.0906104
0.0516286
0.0431935
0.0132448
0.00249627
0.00239476
0.00310942
0.00777023
0.0305863
0.185387
0.805962
0.864419
0.537062
0.675998
1.21936
1.31131
1.8385
3.09322
8.6359
29.9163
5.21413
1.81452
0.72339
0.181668
0.0433449
0.00587355
0.000757899
0.000729591
0.000777134
0.000770229
0.000764606
0.000775535
0.00105736
0.00355389
0.0213781
0.103972
0.0844088
0.0203182
0.00691958
0.0101529
0.014427
0.144377
0.670521
2.81086
8.9829
3.22233
1.27851
0.453919
0.0840137
0.00884734
0.000879181
0.000809047
0.000795061
0.000807623
0.000810293
0.000818645
0.000821765
0.000817345
0.00081786
0.000813561
0.000812173
0.00082813
0.00124395
0.00552221
0.00723581
0.0101312
0.0300266
0.226726
1.16932
4.07192
2.70519
1.08382
0.279591
0.0276565
0.00341348
0.00107493
0.000764599
0.000748658
0.000747443
0.000750879
0.000759979
0.000773268
0.00078601
0.000813108
0.000841316
0.00084026
0.000873128
0.00282551
0.0353984
0.0484529
0.0323151
0.032679
0.117712
0.807314
3.07372
1.82547
0.638031
0.141699
0.0231215
0.00630727
0.000905522
0.000779932
0.000800405
0.000806766
0.00080819
0.0008108
0.000816672
0.000825216
0.000845822
0.000860796
0.000861955
0.00085203
0.00319843
0.0476374
0.101667
0.0800478
0.0546574
0.0926154
0.526091
2.17078
)
;

boundaryField
{
    inlet
    {
        type            calculated;
        value           nonuniform List<scalar> 
25
(
0.000866617
0.000866617
0.000866617
0.000866617
0.000866617
0.000866617
0.000866617
0.000866617
0.000866617
0.000866617
0.000866617
0.000866617
0.000866617
0.000866617
0.000866617
0.000866617
0.000866617
0.000866617
0.000866617
0.000866617
0.000866617
0.000866617
0.000866617
0.000866617
0.000866617
)
;
    }
    outlet
    {
        type            calculated;
        value           nonuniform List<scalar> 
25
(
1.82547
0.638031
0.141699
0.000866612
0.000866612
0.000866612
0.000866612
0.000866612
0.000866612
0.000866612
0.000866612
0.000866612
0.000866612
0.000866612
0.000866612
0.000866612
0.000866612
0.000866612
0.000866612
0.000866612
0.000866612
0.000866612
0.000866612
0.526091
2.17078
)
;
    }
    walls
    {
        type            compressible::alphatWallFunction;
        value           nonuniform List<scalar> 
150
(
0.0104518
0.00734264
0
0
0
0
0
0
0.00368102
0.00396415
0.00554658
0.00820866
0.00901968
0.00907347
0.00806446
0.0055805
0.00265159
0.000576113
0
0
0
0
0
0
0
0
0
0
0
0
0
6.6699e-05
0
0
0
0
0
0
0.000245084
0
0
0
0.00632947
0.00579388
0.00496153
0.00446029
0.0023533
0
0
0
0
0
0
0
0
0
0
0
0
0
0
0.0210953
0.0237837
0.0248539
0.0266328
0.0295934
0.0339735
0.0353491
0.0345049
0.0310147
0.0284601
0.0256382
0.0240873
0.0237123
0.0225681
0.0118455
0.00985648
0.0050738
0.00410416
0.00345319
0.00204915
0.000751564
0
0
0
0
0
0
0
0
0
0
0
0
0
0
0.00324996
0.00873152
0.00434523
0.00141371
0.000754515
0
0
0
0
0
0
0
0
0
0
0
0
0
0
0.0143371
0.0151912
0.0152362
0.0155708
0.0160035
0.0163246
0.0162446
0.01528
0.014956
0.0148748
0.0148389
0.0148102
0.0144803
0.013997
0.0135598
0.0133356
0.0132449
0.0132146
0.0131565
0.0134314
0.014154
0.0151337
0.0167277
0.0195206
0.0230738
0.0268727
0.0328147
0.0343781
0.0340526
0.0319851
0.0285364
0.0248693
0.0232198
0.0225256
0.0223484
)
;
    }
    defaultFaces
    {
        type            empty;
    }
}


// ************************************************************************* //
