/*--------------------------------*- C++ -*----------------------------------*\
| =========                 |                                                 |
| \\      /  F ield         | OpenFOAM: The Open Source CFD Toolbox           |
|  \\    /   O peration     | Version:  2312                                  |
|   \\  /    A nd           | Website:  www.openfoam.com                      |
|    \\/     M anipulation  |                                                 |
\*---------------------------------------------------------------------------*/
FoamFile
{
    version     2.0;
    format      ascii;
    arch        "LSB;label=32;scalar=64";
    class       volScalarField;
    location    "24";
    object      dgdt;
}
// * * * * * * * * * * * * * * * * * * * * * * * * * * * * * * * * * * * * * //

dimensions      [0 0 -1 0 0 0 0];

internalField   nonuniform List<scalar> 
1875
(
0.572888
0.576587
0.573559
0.562021
0.544255
0.529492
0.51603
0.501404
0.499581
0.490929
0.485716
0.561455
0.528629
0.477452
0.481005
0.498852
0.506933
0.515697
0.523717
0.530942
0.539783
0.551646
0.565095
0.569818
0.562591
-0.00280177
-0.00031712
0.00236485
0.00287825
0.00420903
0.00589137
0.00767941
0.00998236
0.0141362
0.01527
0.0134389
0.0111303
0.0154146
0.0134042
0.0097967
0.00722407
0.00474797
0.00368284
0.00337271
0.00334852
0.00339281
0.00308025
0.0024815
0.000712082
-0.00460021
-0.00474958
-0.0037171
4.00168e-05
0.00196289
0.00168255
0.00261579
0.00511625
0.00956592
0.0128422
0.0109721
0.00910351
0.00971882
0.0152887
0.01177
0.00760218
0.00475535
0.00147506
0.000588546
0.000170036
0.000291227
0.000521123
0.000720445
0.00105158
-0.00090211
-0.00668966
-0.00394969
-0.00374704
-0.000395241
0.0011521
0.00162126
0.00290591
0.00561434
0.0110623
0.0125356
0.00894775
0.00754156
0.00915596
0.014945
0.012427
0.00808889
0.00537773
0.00119689
-0.000149545
-0.000516892
-0.000200557
0.000399923
0.000937151
0.00164632
0.000225585
-0.00682889
-0.00295235
-0.00266096
-0.00104353
0.000473382
0.00173832
0.00287124
0.00426788
0.00792642
0.00853189
0.00594822
0.00538487
0.00745879
0.0129725
0.0118501
0.0081799
0.00473663
0.000815766
-0.000689757
-0.000849492
-0.00046945
0.000496017
0.00160075
0.0020173
0.00101743
-0.00672345
-0.00244413
-0.00140659
-0.000847286
0.000798228
0.00188077
0.00297315
0.00389013
0.00641532
0.00625342
0.00476719
0.00470719
0.00684748
0.0123712
0.0125507
0.00803375
0.00427126
0.000413378
-0.00101898
-0.00124302
-0.000875531
0.000553465
0.00218667
0.00260227
0.00138138
-0.00674028
-0.00228223
-0.000924013
-0.000506226
0.00194632
0.00296091
0.00370216
0.00384233
0.00515751
0.0047627
0.00403332
0.00417646
0.00578775
0.0101011
0.0110148
0.00666798
0.00344166
0.000244597
-0.00119957
-0.00151637
-0.00131556
0.000227556
0.0019123
0.00243899
0.00103206
-0.00631401
-0.00237867
-0.00069667
-8.78437e-06
0.00316188
0.00420491
0.00467006
0.00448263
0.00525602
0.00457086
0.00398235
0.00408257
0.0050122
0.00852251
0.0100294
0.00591471
0.00356383
0.000625403
-0.00116336
-0.00170844
-0.00164962
-0.000183448
0.00139667
0.00219774
0.000702414
-0.00598311
-0.00218317
-0.000529243
0.000557462
0.00430532
0.00573979
0.00558676
0.00549012
0.00567164
0.00482657
0.00433733
0.00440141
0.00488611
0.00762502
0.00982085
0.00619495
0.00391581
0.000476125
-0.00112148
-0.00183308
-0.00191656
-0.000652525
0.000770288
0.00220339
0.000433491
-0.0055892
-0.00192993
-0.000535737
0.000248488
0.00367305
0.00640832
0.00770683
0.0077022
0.0069143
0.00562669
0.00504395
0.00490641
0.00558699
0.00774087
0.00936717
0.00654706
0.00407608
0.000918789
-0.000463423
-0.00137005
-0.00182417
-0.00122996
0.000165085
0.00233396
-0.000229161
-0.00498899
-0.00155536
-0.000571678
-0.000190831
0.00152925
0.00466629
0.00788523
0.00992701
0.00979232
0.00851613
0.00684499
0.0058468
0.00607826
0.00708328
0.0086765
0.00717788
0.00480409
0.00239798
0.000678968
-0.000724752
-0.00170085
-0.00172411
-0.000677999
0.0014239
-0.00168664
-0.00407583
-0.00110076
-0.000587473
-0.000381774
0.000403238
0.00207606
0.00491221
0.00891797
0.0113894
0.011426
0.00995619
0.00788897
0.00665904
0.00638932
0.00708743
0.00674916
0.00552611
0.00358518
0.00232209
0.000789411
-0.000538658
-0.00100344
-0.000488332
0.000738113
-0.00274322
-0.003103
-0.00121716
-0.00104412
-0.000625953
1.52189e-05
0.000860638
0.00227219
0.00518741
0.00905209
0.0120057
0.012164
0.0100217
0.00830368
0.0070753
0.00673132
0.00647719
0.00614813
0.00500151
0.00378003
0.00245799
0.000979451
-0.000130252
-0.000332709
2.56669e-05
-0.0030939
-0.00212499
-0.00205204
-0.00152737
-0.000636424
-1.55525e-05
0.000606244
0.00186456
0.00334698
0.00596305
0.00922549
0.0112931
0.0109948
0.00943501
0.00804501
0.00668622
0.0058876
0.00550878
0.00495696
0.00390632
0.00295935
0.00156333
0.000550648
0.000297861
0.000264835
-0.00194922
-0.000822252
-0.00359771
-0.00240235
-0.00114581
-0.000169284
0.000787629
0.00200873
0.00348668
0.00466434
0.00652104
0.00921711
0.0104716
0.00936597
0.00845309
0.00750639
0.00651622
0.00571496
0.00520104
0.00482825
0.00454845
0.00383332
0.00326579
0.00324765
0.00340984
0.000614383
-9.1819e-05
-0.00516007
-0.00327514
-0.00199048
-0.00111133
0.000125048
0.00216522
0.00390211
0.00441576
0.00527162
0.00658978
0.00844157
0.00875108
0.00825579
0.00757305
0.0068646
0.00659311
0.00637724
0.00616693
0.00622866
0.00617365
0.00612543
0.00617941
0.00631665
0.00274491
0.000406203
-0.00575729
-0.00369134
-0.00302202
-0.00349573
-0.00284261
0.000282074
0.00317649
0.00347183
0.00391898
0.00484552
0.0061649
0.00696152
0.00705339
0.00682464
0.00656839
0.00648207
0.00643754
0.00687401
0.00737462
0.00788917
0.00839169
0.00860217
0.00800953
0.00355212
0.000502224
-0.00527921
-0.00378298
-0.00369402
-0.00554816
-0.00423769
-0.00138551
0.000679264
0.00212559
0.00257024
0.00327589
0.00433663
0.00514136
0.0055659
0.00552288
0.00547258
0.00572914
0.00629839
0.00741805
0.00880068
0.00961024
0.0104349
0.0107306
0.00879125
0.00336215
0.000439082
-0.0050025
-0.0037322
-0.00412924
-0.0062494
-0.00364181
-0.00158505
-0.00030118
0.00136716
0.00255148
0.00278413
0.0034156
0.00391359
0.00427466
0.00441295
0.00455359
0.00513817
0.00610665
0.00786858
0.00996462
0.0113371
0.0116884
0.0115176
0.00722278
0.00209582
0.000235829
-0.00474507
-0.0036569
-0.00421101
-0.00634363
-0.00386312
-0.00229432
-0.00105316
0.000922338
0.00313861
0.00281703
0.00292554
0.00314259
0.0033302
0.00348511
0.00380619
0.00478673
0.00660921
0.00905068
0.0116654
0.0134166
0.0128191
0.00998747
0.00431849
0.00108867
5.95892e-05
-0.00427429
-0.00333447
-0.00396084
-0.00598205
-0.00365951
-0.00241648
-0.00121617
0.00108007
0.00389268
0.00364249
0.00286876
0.00255217
0.00247721
0.00277204
0.00350208
0.00583211
0.00915829
0.0128184
0.0150512
0.0150214
0.0118461
0.00664274
0.00233639
0.00047612
-0.000121692
-0.00381417
-0.00300597
-0.00353426
-0.00528888
-0.00313717
-0.00202932
-0.000784334
0.00145166
0.00413466
0.00447324
0.00329033
0.00235481
0.00215149
0.00307477
0.00569368
0.00919999
0.0131452
0.0155202
0.0156853
0.0127271
0.00763731
0.00358194
0.00176641
-9.9064e-05
-0.000818773
-0.00333503
-0.00273063
-0.00301613
-0.00433851
-0.00280546
-0.00151403
-0.000510825
0.0016129
0.00406422
0.00464341
0.00346556
0.00254463
0.0028901
0.00557454
0.00908873
0.0117884
0.0140885
0.0138519
0.0106706
0.00659487
0.00356506
0.00226797
0.00165427
-0.000921242
-0.00209468
-0.00275116
-0.00228188
-0.00231994
-0.0029973
-0.00243215
-0.000940221
-8.46111e-05
0.00146838
0.00333136
0.00384685
0.00347402
0.00375139
0.00485272
0.00746548
0.0107809
0.0125417
0.0127976
0.0097917
0.00578582
0.00281215
0.00167051
0.00161243
0.000369097
-0.00243315
-0.00372931
-0.00226377
-0.00171254
-0.00157593
-0.00171419
-0.00144593
-0.000220067
0.000696849
0.00186216
0.00302159
0.00348924
0.00337421
0.00441081
0.00656315
0.00850355
0.00969778
0.0106126
0.00980031
0.00596848
0.00292245
0.00145418
0.000792117
0.000531231
-0.00122309
-0.00323278
-0.00411096
-0.00182408
-0.00107571
-0.000783522
-0.000740492
-0.000357704
0.000620539
0.00158125
0.00249345
0.00340039
0.00379157
0.00451933
0.00536167
0.0066875
0.00825139
0.00932868
0.00934768
0.00709394
0.00392769
0.00199657
0.00117687
0.000395664
-0.000695071
-0.002225
-0.00336782
-0.00386757
-0.00143861
-0.000501362
1.57555e-05
8.03691e-05
0.000702003
0.0017004
0.00265377
0.00328629
0.00409007
0.00451686
0.00513809
0.00618122
0.00733158
0.00763869
0.00789041
0.00726514
0.00520402
0.00292287
0.00151148
0.000894364
-0.000245468
-0.00143878
-0.00222654
-0.0026718
-0.00299601
-0.00113733
-9.21018e-05
0.00065236
0.000853389
0.0016689
0.00270913
0.00354567
0.00412851
0.00490496
0.00527501
0.00572585
0.00642482
0.0067834
0.00694958
0.00702282
0.00606949
0.00420761
0.00225393
0.000992653
0.000316561
-0.000663634
-0.00124768
-0.00139994
-0.00137621
-0.00193532
-0.000792172
0.000260643
0.0011687
0.00160698
0.0023872
0.00312064
0.00374745
0.00422937
0.00480596
0.00511933
0.00531698
0.00569373
0.00618013
0.00616469
0.00599146
0.00526165
0.0039574
0.00246619
0.00139138
0.00062763
6.50819e-05
-0.000262573
-0.000226457
-0.000286083
-0.00161015
-0.000231774
0.000786177
0.00172885
0.00214989
0.00277445
0.00319888
0.00355932
0.0037843
0.00397485
0.00413657
0.00427173
0.00464069
0.00517126
0.00534851
0.0053774
0.00490796
0.00417374
0.00334413
0.00257796
0.0020438
0.00191803
0.00177643
0.00198376
0.00112669
-0.00138566
0.000641813
0.00168536
0.00274049
0.00320428
0.003568
0.00364336
0.00366648
0.00357597
0.00334127
0.00316894
0.00301627
0.00326201
0.00376128
0.00406884
0.00453073
0.00440177
0.00416816
0.00390748
0.00371802
0.00367713
0.00438385
0.00502763
0.0048579
0.00245663
-0.000935356
0.00146044
0.0028126
0.00394839
0.0048586
0.00492019
0.00466748
0.00442006
0.0038253
0.00315267
0.00222247
0.00144986
0.00132352
0.00179255
0.0025589
0.00349816
0.00368189
0.00377578
0.00413011
0.00465127
0.00586388
0.00838073
0.00929517
0.00689558
0.00221655
-0.000870075
0.00151662
0.00375947
0.00611956
0.00753292
0.00712941
0.00659254
0.00615799
0.00466947
0.00286638
0.00108442
2.7595e-05
-0.000744441
-0.00067114
0.000521762
0.00205517
0.00243341
0.00279113
0.00405471
0.00597866
0.00788968
0.0102476
0.0103302
0.00597273
0.00133915
-0.00156819
7.10989e-05
0.00313401
0.00749903
0.0096555
0.0106745
0.0108204
0.00960532
0.00615739
0.00268344
-0.000164438
-0.00169964
-0.00137092
-0.00154442
-0.00105397
0.000508527
0.00122147
0.0019166
0.00366987
0.00591735
0.00720685
0.00764928
0.00696182
0.00368499
0.000380581
-0.00231463
-0.00173663
0.00113987
0.00580419
0.00864285
0.00999559
0.0108148
0.0110806
0.00871368
0.00526766
0.00173677
-0.00100244
-0.0015339
-0.00137858
-0.0012553
-0.000150197
0.000829705
0.00165459
0.00295585
0.00427048
0.00504573
0.0051869
0.00411294
0.00203925
-0.000169132
-0.00263545
-0.00208301
0.000224411
0.0035653
0.00578294
0.00631419
0.00713629
0.00860462
0.00849097
0.00651482
0.00384331
0.00164245
-0.000328976
-0.00138246
-0.00163719
-0.00104137
0.000490892
0.00138168
0.00237304
0.00334221
0.00373481
0.00368035
0.00285829
0.00141692
-0.000164282
-0.00254224
-0.00166578
0.000325933
0.0026979
0.00471721
0.00568831
0.00595661
0.00688342
0.00783267
0.00708188
0.00551721
0.00393367
0.00255824
0.000134643
-0.00171972
-0.00134562
0.000425322
0.00128645
0.00186668
0.00239651
0.00272355
0.00277975
0.00238308
0.00157559
0.000516088
-0.00145749
-0.00188445
0.00016032
0.0028943
0.00461345
0.00555512
0.0055569
0.00608378
0.00744832
0.00808872
0.00769687
0.00665916
0.00548291
0.00290964
-0.000381187
-0.000835606
0.000780208
0.00154418
0.00162331
0.00164743
0.00184111
0.00220297
0.0023202
0.00218719
0.00182141
0.000227509
-0.00281921
-0.000191528
0.00298785
0.00414868
0.00487907
0.00493127
0.00520058
0.00650788
0.00826015
0.00886322
0.00836933
0.00744438
0.00464051
0.00113677
0.000214923
0.00140747
0.00205371
0.00144387
0.00107496
0.00116196
0.00173518
0.00226356
0.00262402
0.00274591
0.00114139
-0.00410707
-0.000776615
0.0029079
0.00363025
0.0039782
0.00420736
0.00446126
0.00571249
0.00801956
0.00929816
0.00912683
0.00779139
0.0042335
0.00193139
0.00136465
0.00212976
0.00225783
0.0013467
0.000867153
0.000893669
0.00158873
0.0022832
0.00278114
0.00292041
0.00109388
-0.00504264
-0.00101673
0.0027426
0.00330325
0.00335926
0.00358792
0.00400038
0.00558735
0.00836417
0.00984383
0.00887833
0.0061709
0.00310983
0.00232611
0.00231531
0.00253777
0.00220515
0.00144352
0.00112361
0.00130441
0.00206153
0.00272984
0.00309443
0.00247089
0.000820394
-0.00535938
-0.000924188
0.00263714
0.00309851
0.00298968
0.0032
0.00422157
0.00676605
0.00911206
0.00938924
0.00674651
0.00391115
0.00279032
0.00284289
0.00288922
0.00248981
0.00223144
0.00182665
0.00204312
0.00246126
0.00305733
0.00337838
0.00283377
0.00146849
0.000504789
-0.00504258
-0.000474319
0.00254449
0.00299883
0.00279155
0.0035747
0.00565006
0.00801015
0.00900396
0.00742267
0.00433468
0.00305472
0.00281086
0.00325121
0.00310771
0.00287974
0.00338607
0.0035397
0.00343441
0.00327867
0.0032731
0.00268998
0.00144757
0.000316962
7.35064e-05
-0.00422089
0.00077508
0.00301086
0.0033007
0.00324495
0.00504927
0.00737744
0.00838731
0.00747936
0.00514402
0.00328235
0.00338416
0.00403187
0.00583356
0.00594689
0.00558485
0.00554765
0.00508794
0.00403688
0.00306452
0.00220934
0.0012782
0.000267843
-0.000194596
-0.00014712
-0.00351845
0.00241801
0.00402198
0.00413601
0.00461992
0.00699742
0.00868622
0.00807085
0.00605756
0.0045197
0.00444341
0.00581613
0.00704654
0.00892475
0.00989222
0.00920404
0.00756695
0.00560936
0.00376994
0.0024697
0.00131768
0.000541945
0.0001304
6.51101e-05
0.000225824
-0.00345026
0.00339612
0.0049365
0.00526474
0.00620362
0.00862188
0.00924459
0.00725444
0.00565518
0.00503354
0.00629414
0.0092436
0.0105935
0.0105237
0.0105467
0.00931101
0.00751714
0.00559325
0.00347862
0.0014846
-0.000158147
-0.000780921
-0.000989018
-0.000700075
-0.000220911
-0.00375515
0.00329564
0.00546699
0.0060539
0.00739046
0.00960408
0.0094462
0.00711414
0.00615859
0.00642367
0.00819477
0.01025
0.0100476
0.00894332
0.00800601
0.00698666
0.00553942
0.00393847
0.00164417
-0.000170594
-0.00123385
-0.00192815
-0.00246932
-0.00218154
-0.00154211
-0.003866
0.00249583
0.00598197
0.00665945
0.00817449
0.0103673
0.0102539
0.00787961
0.00626544
0.00642473
0.00820676
0.00943836
0.00861902
0.00779799
0.00718662
0.00559777
0.00362848
0.00219858
5.73066e-08
-0.0019366
-0.00377634
-0.0037645
-0.00395307
-0.00345291
-0.00278575
-0.00387019
0.00109715
0.00629245
0.00761093
0.00832419
0.0103427
0.0110142
0.0088435
0.00644781
0.00585836
0.00627045
0.0065276
0.0061879
0.00708961
0.00752927
0.00643207
0.00480092
0.00279088
0.000556602
-0.00153294
-0.00452914
-0.00444615
-0.00432454
-0.00366614
-0.00310941
-0.00394843
-0.000638438
0.00584376
0.00889264
0.00874238
0.00997516
0.0111678
0.0105246
0.00854901
0.00710855
0.00665328
0.00588619
0.00455941
0.00572294
0.00748847
0.00779966
0.00699416
0.00458027
0.00170114
-0.000473972
-0.00393089
-0.0041493
-0.00407663
-0.00365148
-0.00316074
-0.00423762
-0.0023337
0.00348327
0.00766679
0.00890993
0.00903939
0.0100215
0.0105212
0.00962789
0.00847741
0.00762332
0.00595895
0.0035536
0.00401475
0.00699541
0.00861926
0.00826087
0.00580897
0.00268162
-0.000110185
-0.00394166
-0.00360849
-0.00370573
-0.00346724
-0.00319486
-0.00437361
-0.00331065
0.00081185
0.00468167
0.00736297
0.00734478
0.00793088
0.00876547
0.00906878
0.0089848
0.0086513
0.00750186
0.00436082
0.00364037
0.00636172
0.00818615
0.0079543
0.00620125
0.00304057
0.000259561
-0.00374047
-0.00292115
-0.00320108
-0.00315676
-0.00298055
-0.00392344
-0.00323089
-0.000486341
0.00272494
0.00518862
0.00593326
0.00629434
0.00729413
0.00792941
0.00835549
0.00899817
0.00891848
0.0065884
0.00487785
0.00595907
0.00772484
0.00738381
0.00569609
0.00346535
0.000921983
-0.00319502
-0.00239527
-0.00280901
-0.00286144
-0.00282167
-0.00347768
-0.00289023
-0.00102848
0.00188546
0.00366712
0.00465595
0.00527404
0.00612342
0.00703704
0.00766735
0.00828015
0.00890156
0.00852839
0.00666448
0.0061729
0.00722209
0.00652292
0.00504684
0.00338045
0.000919455
-0.00238016
-0.001965
-0.00231977
-0.00249354
-0.00250455
-0.00302969
-0.0023684
-0.00108694
0.00162974
0.00269224
0.00362538
0.00455744
0.00524023
0.00622844
0.00690322
0.00737555
0.00797742
0.00833784
0.00745181
0.00656941
0.00658674
0.00598303
0.00469665
0.00352415
0.0007841
-0.00149166
-0.00156055
-0.00183952
-0.00202407
-0.0020033
-0.00258721
-0.00182543
-0.000778965
0.00153805
0.00239364
0.00304263
0.00393848
0.00469424
0.00563154
0.00637085
0.00671445
0.00700673
0.00760639
0.00736717
0.00687107
0.00674662
0.00631935
0.00531646
0.0041914
0.00127949
-0.000690614
-0.00105661
-0.00115843
-0.00161234
-0.00134968
-0.00214883
-0.00127889
-0.00037559
0.00119128
0.00245107
0.00307756
0.00361011
0.00430728
0.00515794
0.00590576
0.00631252
0.00653692
0.00706515
0.00737091
0.00708904
0.00703252
0.00720371
0.00684204
0.00568158
0.00254555
0.000157951
-0.000469426
-0.000407058
-0.000827075
-0.00061362
-0.00186922
-0.00102474
-0.00020242
0.000890041
0.00225158
0.00341469
0.00389962
0.00438915
0.00506657
0.00569785
0.00604828
0.00613351
0.00641383
0.00679025
0.0068812
0.00716031
0.00805241
0.00828818
0.00727136
0.00388593
0.000986838
0.000120712
0.000211722
0.00017685
0.00015933
-0.00197811
-0.00132012
-0.000694965
0.000394922
0.00174023
0.00314734
0.00399254
0.0045531
0.0050984
0.00556241
0.00580467
0.00586916
0.00591106
0.00611216
0.00632234
0.0067738
0.00800431
0.00856963
0.00762773
0.00476424
0.00196376
0.000819985
0.000905351
0.00123504
0.0011033
-0.00208702
-0.00188754
-0.00154444
-0.000476552
0.000822722
0.00202716
0.00321464
0.0041816
0.00475299
0.00526254
0.00556024
0.00569622
0.00571231
0.00576726
0.00585887
0.00618419
0.0069661
0.00741279
0.0068208
0.00503161
0.00279821
0.00155187
0.00160786
0.00244408
0.00231451
-0.00230968
-0.00216476
-0.0020384
-0.00136735
-0.000209254
0.000845812
0.00204056
0.00323428
0.00405805
0.00464745
0.00513364
0.0054138
0.00553507
0.00557387
0.0056231
0.00580558
0.00616755
0.00640199
0.00606762
0.00496768
0.00347233
0.0027001
0.00277198
0.00384603
0.00374755
-0.00188298
-0.00239189
-0.00197064
-0.00152645
-0.000451707
0.000391486
0.00148812
0.00257342
0.00358825
0.00407402
0.0045961
0.00498539
0.00522954
0.00535472
0.00545273
0.00553203
0.00558156
0.0056093
0.00535576
0.00472543
0.00415976
0.00370382
0.00410698
0.00505928
0.00480806
-0.00142004
-0.00187311
-0.00149092
-0.00108116
-0.000112907
0.000438897
0.00128658
0.00238252
0.0034728
0.00394092
0.00435001
0.00476419
0.00506333
0.0052037
0.00532252
0.00537575
0.00532653
0.00529812
0.00513453
0.00474843
0.00447647
0.00441374
0.00501052
0.0054924
0.00531152
-0.0013496
-0.00111969
-0.00084751
-0.000435118
0.000384673
0.000930541
0.00152043
0.002393
0.00327833
0.00380151
0.00412589
0.00447005
0.00474234
0.00484509
0.00489018
0.00487908
0.00474399
0.00463407
0.00463187
0.00462696
0.00461125
0.00481602
0.00512069
0.00542501
0.00546911
-0.000926697
-0.000197963
0.000140885
0.0006846
0.00156309
0.00235473
0.00296743
0.00357296
0.00405073
0.00434067
0.00443986
0.0044694
0.00443799
0.00439221
0.00433853
0.00430176
0.00424856
0.00420705
0.00428732
0.00438325
0.0045364
0.00485135
0.0051401
0.00543658
0.00572041
-0.000546298
0.000712286
0.00111737
0.00165442
0.00257655
0.00368745
0.00424255
0.00436846
0.00455383
0.00467522
0.00476509
0.00430226
0.00392394
0.00376401
0.0037366
0.00375035
0.00382199
0.00390434
0.00402114
0.00417479
0.00439314
0.00471115
0.0051939
0.00567466
0.00580684
0.000326834
0.00124538
0.00146985
0.00176668
0.00287152
0.00350708
0.00460741
0.00311941
0.003507
0.00370637
0.00481278
0.00306709
0.00244422
0.00225602
0.00232896
0.00236047
0.00244662
0.00254248
0.00263261
0.00275339
0.00290244
0.00312579
0.00382119
0.00407928
0.00383093
0.0003411
0.000413792
0.000348029
0.000409974
0.000765083
0.000636075
0.00137977
0.00097606
0.00142779
0.000740835
0.00105252
0.000680775
0.000380732
0.000251658
0.000279245
0.000320583
0.000352458
0.000379704
0.000419594
0.000465482
0.000511527
0.000564791
0.000736816
0.000900361
0.000665238
1.404e-05
2.88832e-05
8.90357e-05
0.000267445
0.000339559
-4.73806e-05
-4.56856e-05
-0.00053309
5.70382e-05
-0.000475224
0.000249253
-0.000196737
-0.000265217
-0.00029304
-1.95008e-05
6.45461e-05
5.12609e-05
3.49486e-05
7.50543e-05
6.31142e-05
1.35997e-05
2.08473e-05
1.18414e-05
-1.06228e-05
3.39016e-05
-4.30198e-08
-1.50638e-06
-1.53386e-05
-4.30738e-05
-8.95115e-05
-4.51143e-05
-9.07395e-06
-5.96747e-06
-5.88782e-07
2.31274e-06
1.12302e-06
1.11439e-06
1.73237e-06
4.10539e-06
-7.09778e-06
-9.11257e-06
-1.26899e-05
-1.85641e-05
-4.8415e-05
-7.01489e-05
-5.19294e-05
-7.6372e-05
-2.59425e-05
-3.87836e-08
-6.10278e-08
-6.3378e-10
-2.10629e-08
-2.88293e-07
-1.82946e-07
1.10051e-07
5.85174e-08
3.42032e-09
1.19276e-09
3.24983e-11
3.61643e-13
3.15696e-16
5.61128e-15
2.02768e-12
5.55082e-10
1.67485e-08
-4.55465e-08
-1.81191e-08
8.31951e-08
2.45302e-07
2.91147e-07
6.40124e-07
1.21558e-07
-3.91018e-07
-2.42354e-08
-3.09437e-09
-3.26792e-10
4.22751e-11
5.50319e-10
2.73544e-10
1.07425e-11
2.1901e-13
1.4779e-16
3.18476e-17
1.24152e-23
0
0
3.61628e-24
6.25804e-19
2.01693e-15
4.89366e-13
2.62744e-12
3.35192e-12
4.37032e-13
4.76371e-14
2.98402e-13
4.20166e-12
1.80495e-10
5.37259e-10
3.60176e-09
-6.68307e-09
-1.1508e-10
-1.44073e-12
-5.43039e-13
4.78659e-14
3.33808e-16
1.94215e-18
0
-0
-0
-0
-0
-0
-0
0
0
0
0
0
-2.19076e-22
-9.78553e-19
3.86945e-16
1.23861e-14
1.98244e-13
-1.19391e-10
-5.52207e-09
-2.77263e-10
-9.855e-13
-3.11063e-16
1.62417e-21
3.53402e-21
0
0
0
0
0
0
0
0
0
-0
-0
0
0
-2.9289e-22
-3.19724e-17
3.34892e-16
3.85206e-15
2.1539e-14
-2.61359e-12
-2.88762e-09
2.86478e-11
6.15036e-13
3.63202e-16
0
-0
0
0
0
0
0
0
0
0
-0
-0
0
0
0
-0
-3.57255e-17
-5.97044e-16
1.92281e-15
1.95666e-14
-2.82995e-13
-1.57658e-09
)
;

boundaryField
{
    inlet
    {
        type            calculated;
        value           nonuniform List<scalar> 
25
(
0.312249
0.31479
0.316803
0.316194
0.315083
0.314581
0.315129
0.316029
0.316882
0.3177
0.317122
0.315935
0.317633
0.317546
0.316248
0.314929
0.314213
0.314233
0.314578
0.314923
0.315234
0.315674
0.316969
0.315714
0.311772
)
;
    }
    outlet
    {
        type            calculated;
        value           nonuniform List<scalar> 
25
(
2.86478e-11
6.15036e-13
3.63202e-16
0
-0
0
0
0
0
0
0
0
0
-0
-0
0
0
0
-0
3.54764e-20
-5.97044e-16
1.92281e-15
1.95666e-14
-2.82995e-13
-1.57658e-09
)
;
    }
    walls
    {
        type            calculated;
        value           nonuniform List<scalar> 
150
(
0.572888
-0.00280177
-0.00474958
-0.00394969
-0.00295235
-0.00244413
-0.00228223
-0.00237867
-0.00218317
-0.00192993
-0.00155536
-0.00110076
-0.00121716
-0.00205204
-0.00359771
-0.00516007
-0.00575729
-0.00527921
-0.0050025
-0.00474507
-0.00427429
-0.00381417
-0.00333503
-0.00275116
-0.00226377
-0.00182408
-0.00143861
-0.00113733
-0.000792172
-0.000231774
0.000641813
0.00146044
0.00151662
7.10989e-05
-0.00173663
-0.00208301
-0.00166578
-0.00188445
-0.00281921
-0.00410707
-0.00504264
-0.00535938
-0.00504258
-0.00422089
-0.00351845
-0.00345026
-0.00375515
-0.003866
-0.00387019
-0.00394843
-0.00423762
-0.00437361
-0.00392344
-0.00347768
-0.00302969
-0.00258721
-0.00214883
-0.00186922
-0.00197811
-0.00208702
-0.00230968
-0.00188298
-0.00142004
-0.0013496
-0.000926697
-0.000546298
0.000326834
0.0003411
1.404e-05
-4.30198e-08
-6.3378e-10
-3.26792e-10
-1.1508e-10
-2.77263e-10
2.86478e-11
0.562591
-0.00460021
-0.00668966
-0.00682889
-0.00672345
-0.00674028
-0.00631401
-0.00598311
-0.0055892
-0.00498899
-0.00407583
-0.003103
-0.00212499
-0.000822252
-9.1819e-05
0.000406203
0.000502224
0.000439082
0.000235829
5.95892e-05
-0.000121692
-0.000818773
-0.00209468
-0.00372931
-0.00411096
-0.00386757
-0.00299601
-0.00193532
-0.00161015
-0.00138566
-0.000935356
-0.000870075
-0.00156819
-0.00231463
-0.00263545
-0.00254224
-0.00145749
0.000227509
0.00114139
0.00109388
0.000820394
0.000504789
7.35064e-05
-0.00014712
0.000225824
-0.000220911
-0.00154211
-0.00278575
-0.00310941
-0.00316074
-0.00319486
-0.00298055
-0.00282167
-0.00250455
-0.0020033
-0.00134968
-0.00061362
0.00015933
0.0011033
0.00231451
0.00374755
0.00480806
0.00531152
0.00546911
0.00572041
0.00580684
0.00383093
0.000665238
3.39016e-05
-6.10278e-08
-3.09437e-09
-6.68307e-09
-5.52207e-09
-2.88762e-09
-1.57658e-09
)
;
    }
    defaultFaces
    {
        type            empty;
    }
}


// ************************************************************************* //
