/*--------------------------------*- C++ -*----------------------------------*\
| =========                 |                                                 |
| \\      /  F ield         | OpenFOAM: The Open Source CFD Toolbox           |
|  \\    /   O peration     | Version:  2312                                  |
|   \\  /    A nd           | Website:  www.openfoam.com                      |
|    \\/     M anipulation  |                                                 |
\*---------------------------------------------------------------------------*/
FoamFile
{
    version     2.0;
    format      ascii;
    arch        "LSB;label=32;scalar=64";
    class       volScalarField;
    location    "0.025/water";
    object      nut.gas;
}
// * * * * * * * * * * * * * * * * * * * * * * * * * * * * * * * * * * * * * //

dimensions      [0 2 -1 0 0 0 0];

internalField   nonuniform List<scalar> 
1496
(
3.786569208e-06
3.66416423295e-06
3.42426950193e-06
2.92650626417e-06
2.17054273314e-06
1.51026552135e-06
1.18323011274e-06
9.68555001631e-07
6.49254538303e-07
2.86634764446e-07
9.78982287758e-08
8.52162071678e-09
3.78586274631e-10
4.5518600702e-11
2.85048895499e-11
2.90015880762e-11
3.28609051756e-11
4.00460015571e-11
5.46579963712e-11
1.10319509297e-10
3.76065384557e-06
3.64104416903e-06
3.42466567786e-06
2.95206815997e-06
2.21060491873e-06
1.53819589413e-06
1.19089285828e-06
9.69445861344e-07
6.51918305471e-07
2.89582324524e-07
9.98813291854e-08
8.7188076979e-09
3.8430304645e-10
4.57043533515e-11
2.85842116588e-11
2.91104772465e-11
3.30167870011e-11
4.02478781671e-11
5.48577378906e-11
1.09723146032e-10
3.73669988609e-06
3.61516360782e-06
3.42159766431e-06
2.97378180477e-06
2.24502271709e-06
1.56193814575e-06
1.19669037134e-06
9.68659824908e-07
6.52232179154e-07
2.90674628763e-07
1.007636653e-07
8.8123890715e-09
3.8598606303e-10
4.57266941973e-11
2.86589108476e-11
2.92344205454e-11
3.32017478401e-11
4.04952929568e-11
5.51332352521e-11
1.09224139038e-10
3.69914104969e-06
3.57968938869e-06
3.40931404087e-06
2.98778379215e-06
2.27176433758e-06
1.58141143231e-06
1.20109967815e-06
9.66819582321e-07
6.51075314316e-07
2.9052266715e-07
1.00848148143e-07
8.83337536423e-09
3.8511021882e-10
4.56547395704e-11
2.87330616908e-11
2.93685651192e-11
3.34040223951e-11
4.0772293423e-11
5.54758439202e-11
1.08842323777e-10
3.65882672068e-06
3.54104799324e-06
3.38637067944e-06
2.99016103063e-06
2.28858475146e-06
1.59675640607e-06
1.20495517755e-06
9.64583232077e-07
6.48571574851e-07
2.88926916815e-07
9.99488996062e-08
8.76244470661e-09
3.81397013114e-10
4.55079177089e-11
2.88192183702e-11
2.95197155776e-11
3.36226619967e-11
4.10687307958e-11
5.5866345266e-11
1.08554363453e-10
3.62885943991e-06
3.5013462744e-06
3.35744161755e-06
2.98201678759e-06
2.29642388142e-06
1.60870038646e-06
1.20897292654e-06
9.62413873949e-07
6.4470669113e-07
2.85717245363e-07
9.79044428406e-08
8.58057390684e-09
3.74580230512e-10
4.53039548008e-11
2.89290322531e-11
2.96982938048e-11
3.3867074014e-11
4.13911284635e-11
5.62975561247e-11
1.08313950947e-10
3.61329280978e-06
3.46959862934e-06
3.3301904651e-06
2.96937746413e-06
2.29963059613e-06
1.6187170944e-06
1.21337990391e-06
9.60593984554e-07
6.40047486394e-07
2.81479707657e-07
9.50826335056e-08
8.3404513639e-09
3.66792175502e-10
4.51295124523e-11
2.90623216504e-11
2.99014773241e-11
3.41396109162e-11
4.17459968675e-11
5.67695809217e-11
1.08102726504e-10
3.60720420316e-06
3.44282710168e-06
3.30331969333e-06
2.9559326372e-06
2.30191932564e-06
1.62821685973e-06
1.21825771161e-06
9.59420976234e-07
6.35709638222e-07
2.77394837544e-07
9.22502922432e-08
8.14475074595e-09
3.61989132716e-10
4.51261849574e-11
2.92107383818e-11
3.01101242236e-11
3.44225297954e-11
4.21182042205e-11
5.72665298959e-11
1.07910469871e-10
3.59041926829e-06
3.37483868155e-06
3.24018332307e-06
2.92488932597e-06
2.29878716955e-06
1.63686078774e-06
1.22355798785e-06
9.59187424391e-07
6.32744106094e-07
2.74527996102e-07
9.00152427064e-08
8.0791662934e-09
3.63617633084e-10
4.54242859896e-11
2.93774563226e-11
3.03125815664e-11
3.46954095725e-11
4.24778241855e-11
5.77514111582e-11
1.07692460842e-10
3.57982588109e-06
3.32597872827e-06
3.17514056874e-06
2.88464302085e-06
2.29016786688e-06
1.64413810773e-06
1.22922473786e-06
9.5990104863e-07
6.31091480468e-07
2.72815341046e-07
8.81731131186e-08
8.142649899e-09
3.72012770699e-10
4.60451267203e-11
2.95738322708e-11
3.05154261022e-11
3.49569946029e-11
4.28143413365e-11
5.82037209814e-11
1.0740719345e-10
3.58060337084e-06
3.29708717158e-06
3.12450513863e-06
2.84575155349e-06
2.27843410608e-06
1.64974539194e-06
1.23513685337e-06
9.61304907215e-07
6.29983660501e-07
2.71541457042e-07
8.60103604422e-08
8.27737107288e-09
3.85191644516e-10
4.69220773528e-11
2.98059545083e-11
3.07289805272e-11
3.52200011054e-11
4.3144343458e-11
5.86339004562e-11
1.0705875687e-10
3.58791771506e-06
3.27928661701e-06
3.0871637386e-06
2.81144466453e-06
2.26578319386e-06
1.65386454473e-06
1.24098708218e-06
9.63180810701e-07
6.29165510904e-07
2.70571595036e-07
8.34464994434e-08
8.45849969203e-09
4.01859894209e-10
4.80017563344e-11
3.00642330952e-11
3.09492012e-11
3.54874382277e-11
4.34779644322e-11
5.90502240674e-11
1.06678337934e-10
3.59918179781e-06
3.27040630084e-06
3.05968581904e-06
2.78198865146e-06
2.25398837964e-06
1.6575605005e-06
1.2468517159e-06
9.65708820432e-07
6.29561202208e-07
2.70870678124e-07
8.21696251908e-08
8.74321804656e-09
4.23382706719e-10
4.930695719e-11
3.03266955112e-11
3.1154652633e-11
3.57400107119e-11
4.37910494163e-11
5.94303588129e-11
1.06297455068e-10
3.59887305922e-06
3.24854785271e-06
3.02678129042e-06
2.75315749706e-06
2.24420606061e-06
1.66224017225e-06
1.25302100507e-06
9.69260490661e-07
6.32386080996e-07
2.73595359527e-07
8.32521807928e-08
9.21335595267e-09
4.52944774047e-10
5.09203676222e-11
3.05858264414e-11
3.13340965399e-11
3.59586862919e-11
4.40632609512e-11
5.97856164044e-11
1.05903218039e-10
3.56738173444e-06
3.20656546798e-06
2.98488213069e-06
2.72359112459e-06
2.23633940334e-06
1.66796624221e-06
1.25955641797e-06
9.73702304105e-07
6.37336889619e-07
2.78451790867e-07
8.57100984796e-08
9.86152608579e-09
4.906551963e-10
5.28017702662e-11
3.0842111636e-11
3.14942967515e-11
3.61539345213e-11
4.43221811821e-11
6.01238592798e-11
1.05491027277e-10
3.54689690731e-06
3.17220715361e-06
2.9476443649e-06
2.69724048908e-06
2.22959864268e-06
1.67396359718e-06
1.26643163904e-06
9.78494629681e-07
6.42920337692e-07
2.83959378547e-07
8.84345257251e-08
1.05746494209e-08
5.31335837015e-10
5.47107876506e-11
3.1083700504e-11
3.16415184376e-11
3.63376974515e-11
4.45616233291e-11
6.04273078109e-11
1.05056759941e-10
3.5400440776e-06
3.14838443779e-06
2.92082174607e-06
2.67758212421e-06
2.22495334134e-06
1.68051563973e-06
1.27355545151e-06
9.83161197881e-07
6.48056939875e-07
2.89046353545e-07
9.13194924542e-08
1.12419950231e-08
5.69202500907e-10
5.64144455789e-11
3.12971333704e-11
3.17790525016e-11
3.65129987905e-11
4.47915477411e-11
6.07007541181e-11
1.04613250623e-10
3.44942193191e-06
3.04143987315e-06
2.86645657898e-06
2.65476201963e-06
2.22236670378e-06
1.68869078016e-06
1.2811865908e-06
9.87811092236e-07
6.53038274208e-07
2.93980208374e-07
9.4436028689e-08
1.18681184124e-08
6.03624320892e-10
5.78821125429e-11
3.14733919443e-11
3.19053407679e-11
3.66837070729e-11
4.50313683647e-11
6.09968034688e-11
1.04205347392e-10
3.46279919398e-06
2.95616029558e-06
2.78210478251e-06
2.61340258458e-06
2.21639865513e-06
1.69777287505e-06
1.28943145983e-06
9.92825049929e-07
6.58667303775e-07
2.99491261638e-07
9.82525586342e-08
1.25214248545e-08
6.3733535477e-10
5.91868599996e-11
3.16018241984e-11
3.201001119e-11
3.68494901781e-11
4.52740203334e-11
6.13263004432e-11
1.03919563221e-10
3.48188022354e-06
2.93462416347e-06
2.72477652547e-06
2.57304069622e-06
2.20853502564e-06
1.70634836619e-06
1.29776560218e-06
9.98057915817e-07
6.64583819458e-07
3.05100227609e-07
1.01916681991e-07
1.31583306704e-08
6.68471910866e-10
6.02221071793e-11
3.16685987094e-11
3.20839273648e-11
3.70040477982e-11
4.55232874985e-11
6.16703842989e-11
1.03763056576e-10
3.4884025434e-06
2.91363650809e-06
2.6783541902e-06
2.53668632869e-06
2.19852546488e-06
1.71242530881e-06
1.30518382893e-06
1.00284583424e-06
6.69364544715e-07
3.09210043642e-07
1.03941826966e-07
1.3586924737e-08
6.87950984563e-10
6.06465871251e-11
3.166080532e-11
3.21298367834e-11
3.71463194644e-11
4.57825595049e-11
6.20415997209e-11
1.03684130943e-10
3.49460971277e-06
2.8977533187e-06
2.64219162827e-06
2.50468819824e-06
2.18608218422e-06
1.71473981215e-06
1.31067225583e-06
1.00641447048e-06
6.71678030579e-07
3.10396908365e-07
1.03665134039e-07
1.36075419446e-08
6.86211261085e-10
6.01800634712e-11
3.1585769418e-11
3.21667542226e-11
3.7291357636e-11
4.60637593063e-11
6.24614145903e-11
1.03707930333e-10
3.49937352814e-06
2.88891152712e-06
2.61626558077e-06
2.47794231546e-06
2.17284886058e-06
1.71380771265e-06
1.31374347275e-06
1.00836880375e-06
6.7139944141e-07
3.08605571449e-07
1.0107144292e-07
1.32179532272e-08
6.63077664915e-10
5.89439143001e-11
3.14831124625e-11
3.22255324227e-11
3.7469618474e-11
4.63953764371e-11
6.2956520004e-11
1.03862240536e-10
3.50076321353e-06
2.87843664313e-06
2.59197286407e-06
2.45320355937e-06
2.15991479473e-06
1.71078577304e-06
1.31448201011e-06
1.00895658261e-06
6.69673470122e-07
3.05216641305e-07
9.81231718453e-08
1.26241877437e-08
6.29566515376e-10
5.74609298214e-11
3.14088551327e-11
3.23310909023e-11
3.77072521402e-11
4.6803953419e-11
6.35462777446e-11
1.04159385094e-10
3.50667059528e-06
2.87082319948e-06
2.56851568726e-06
2.42976469673e-06
2.14844845696e-06
1.70720450613e-06
1.31371808357e-06
1.00883992298e-06
6.67890058941e-07
3.01884509406e-07
9.57569340554e-08
1.20725623712e-08
5.99999944406e-10
5.63613407323e-11
3.14202261093e-11
3.24942307592e-11
3.800543686e-11
4.72827459925e-11
6.42163326581e-11
1.04601033279e-10
3.51493439808e-06
2.86790531196e-06
2.54948237891e-06
2.41113738839e-06
2.13986766958e-06
1.70439660833e-06
1.31258468976e-06
1.0088386508e-06
6.6720361839e-07
2.99927106485e-07
9.42985792048e-08
1.1764447411e-08
5.86114367459e-10
5.61779551973e-11
3.15770115656e-11
3.27303937725e-11
3.83630084219e-11
4.7813789814e-11
6.49429951302e-11
1.05171845329e-10
3.52531453322e-06
2.86824748706e-06
2.5377390585e-06
2.39924485851e-06
2.13463474924e-06
1.70317087522e-06
1.31214730586e-06
1.00970211045e-06
6.68436576187e-07
3.00258222452e-07
9.40956173441e-08
1.18253313045e-08
5.96448099677e-10
5.731625999e-11
3.19344638425e-11
3.30657967403e-11
3.87944288679e-11
4.83934235725e-11
6.57061254493e-11
1.0578675238e-10
3.53410730178e-06
2.87242474406e-06
2.53476157796e-06
2.39366651548e-06
2.1330248147e-06
1.70470323023e-06
1.31353273695e-06
1.01214062749e-06
6.72389409907e-07
3.03740549927e-07
9.5195156809e-08
1.23912888144e-08
6.38817243752e-10
6.01149358508e-11
3.25167616367e-11
3.34975224172e-11
3.92788209865e-11
4.89845107185e-11
6.64487383024e-11
1.06310106346e-10
3.54605065298e-06
2.88388990132e-06
2.53830049546e-06
2.39218009397e-06
2.13485413902e-06
1.70960873849e-06
1.31735438744e-06
1.01658717611e-06
6.79650792833e-07
3.11036689595e-07
9.73988546596e-08
1.35886414831e-08
7.22089101502e-10
6.48880641586e-11
3.33015899349e-11
3.39703131237e-11
3.97463175831e-11
4.95272593607e-11
6.71193968663e-11
1.06703154556e-10
3.56040736465e-06
2.89488225823e-06
2.5398263624e-06
2.38922439506e-06
2.13784168807e-06
1.71669229856e-06
1.32329373261e-06
1.02303905542e-06
6.89986217865e-07
3.21844664193e-07
1.00429831536e-07
1.54614592791e-08
8.53158341838e-10
7.18334978084e-11
3.42555552061e-11
3.4447887101e-11
4.01931074249e-11
5.00506137017e-11
6.7760366569e-11
1.07084427716e-10
3.56776367399e-06
2.9035085538e-06
2.5372620391e-06
2.38408967903e-06
2.14025626056e-06
1.72418317565e-06
1.3307977419e-06
1.03129322656e-06
7.02390172629e-07
3.34823065589e-07
1.03928116567e-07
1.79019611168e-08
1.03210011272e-09
8.09006820091e-11
3.53568341888e-11
3.49444714462e-11
4.06636219593e-11
5.05980373531e-11
6.84227042428e-11
1.07472571848e-10
3.58486323315e-06
2.91448233778e-06
2.53708904721e-06
2.38099190915e-06
2.14231067918e-06
1.73133757116e-06
1.33962566393e-06
1.04103853412e-06
7.1560477778e-07
3.4829879871e-07
1.07946847686e-07
2.06842612667e-08
1.25108162184e-09
9.18217499311e-11
3.65848567052e-11
3.54725811916e-11
4.11515683897e-11
5.11536155045e-11
6.90811699751e-11
1.07819027908e-10
3.59610528607e-06
2.92705675876e-06
2.54158173212e-06
2.3807214589e-06
2.14427041971e-06
1.73864964e-06
1.34996466457e-06
1.05226163152e-06
7.29167604942e-07
3.61597962521e-07
1.13069905354e-07
2.36657059356e-08
1.50273567627e-09
1.04474594682e-10
3.7941457827e-11
3.6042567963e-11
4.16765917685e-11
5.17473167073e-11
6.97624313008e-11
1.08199174081e-10
3.59910030789e-06
2.9386746553e-06
2.54848192963e-06
2.38175976919e-06
2.14650147372e-06
1.74661025656e-06
1.36196602984e-06
1.06506262891e-06
7.43412481577e-07
3.75090950204e-07
1.195022046e-07
2.68689133036e-08
1.78682722095e-09
1.19033160819e-10
3.944808667e-11
3.66692071108e-11
4.22939744317e-11
5.24533827564e-11
7.05613775129e-11
1.08797678419e-10
3.5892861374e-06
2.94504319003e-06
2.55232492496e-06
2.38148760419e-06
2.14849455644e-06
1.75478900168e-06
1.37515989725e-06
1.07917930748e-06
7.58527024557e-07
3.89125328982e-07
1.27070185869e-07
3.03788033176e-08
2.10279771555e-09
1.35577056634e-10
4.11115204902e-11
3.73637000125e-11
4.30096127057e-11
5.33168710737e-11
7.15779078267e-11
1.0979975618e-10
3.57745922163e-06
2.94146532401e-06
2.54521842412e-06
2.37729691346e-06
2.1487824597e-06
1.76166502597e-06
1.38832968565e-06
1.09381885761e-06
7.73985455272e-07
4.03399071291e-07
1.35075547174e-07
3.41158623416e-08
2.44326622626e-09
1.53773868742e-10
4.29156604775e-11
3.81338630386e-11
4.38463160397e-11
5.43584702568e-11
7.28413738273e-11
1.11312539099e-10
3.56594737793e-06
2.92405800296e-06
2.5272084373e-06
2.37474128739e-06
2.15136096521e-06
1.76880499325e-06
1.40081490728e-06
1.10726118339e-06
7.87512062619e-07
4.15661795235e-07
1.42365609199e-07
3.75653935436e-08
2.7636113557e-09
1.7204642932e-10
4.48849832439e-11
3.9064191605e-11
4.48907377347e-11
5.56734725611e-11
7.45401148052e-11
1.1359088279e-10
1.12244930647e-08
1.19925811553e-08
1.5997759809e-08
3.22078013606e-08
4.14632719568e-08
4.51078797667e-08
4.52925371813e-08
4.5298982628e-08
4.52992033407e-08
4.52992368281e-08
4.52814969792e-08
3.41593330409e-08
1.63107763542e-07
1.74293561168e-06
3.83036417357e-06
5.2898852751e-06
3.62645546055e-10
1.2086312535e-09
3.70794215239e-09
8.50117367387e-09
1.13547067851e-08
1.20614418933e-08
1.60584825184e-08
3.20406358414e-08
4.12388694824e-08
4.50843618302e-08
4.52885625419e-08
4.52956369766e-08
4.52958882468e-08
4.52959315661e-08
4.52773278558e-08
3.37855180634e-08
1.6748315011e-07
1.76445525791e-06
3.85080803858e-06
5.31057705055e-06
3.58323168305e-10
1.19773544676e-09
3.66174520203e-09
8.49698707216e-09
1.14827109891e-08
1.21362710362e-08
1.61489035736e-08
3.18939101628e-08
4.10369624123e-08
4.50593042527e-08
4.52843801478e-08
4.52921132795e-08
4.52924016276e-08
4.52924598316e-08
4.52729581456e-08
3.34090599708e-08
1.71980843909e-07
1.78683777103e-06
3.87499189795e-06
5.3317124355e-06
3.54273738019e-10
1.18706031281e-09
3.61209833452e-09
8.48583113063e-09
1.16088959192e-08
1.22185109385e-08
1.62630404921e-08
3.17440976613e-08
4.08597371141e-08
4.50323906067e-08
4.5280008522e-08
4.52884206721e-08
4.5288749388e-08
4.52888252788e-08
4.5268386058e-08
3.30291406793e-08
1.76626316422e-07
1.80964506483e-06
3.89805820575e-06
5.35298448824e-06
3.50327897122e-10
1.17629140951e-09
3.56002521554e-09
8.46927566802e-09
1.17345118295e-08
1.23066985529e-08
1.63874663781e-08
3.15519764829e-08
4.07109450808e-08
4.50034796653e-08
4.52755283739e-08
4.52846194851e-08
4.52849881532e-08
4.52850820588e-08
4.52636602157e-08
3.26462450192e-08
1.81406494952e-07
1.83259476199e-06
3.92036762195e-06
5.37430026354e-06
3.46486999895e-10
1.16539182194e-09
3.50690734022e-09
8.44829478221e-09
1.18588274504e-08
1.23958284184e-08
1.65090834038e-08
3.12831834857e-08
4.05982699567e-08
4.49726382632e-08
4.52710416198e-08
4.52807854332e-08
4.52811905408e-08
4.52813009203e-08
4.52588487303e-08
3.22620599602e-08
1.86293419939e-07
1.85551133056e-06
3.94218058511e-06
5.39559663915e-06
3.42656782104e-10
1.15429470904e-09
3.45333402238e-09
8.42137167477e-09
1.19780051664e-08
1.24802883169e-08
1.6621288257e-08
3.09251278453e-08
4.05282153225e-08
4.49396142169e-08
4.52666264439e-08
4.52769859873e-08
4.52774220079e-08
4.52775459927e-08
4.52540152246e-08
3.18785095162e-08
1.91261577586e-07
1.87830223952e-06
3.96363638178e-06
5.41683853948e-06
3.38776598162e-10
1.14282482124e-09
3.39861006798e-09
8.3853887664e-09
1.20875880952e-08
1.25574300015e-08
1.6725595084e-08
3.04849898404e-08
4.04959298584e-08
4.49030117841e-08
4.52623071034e-08
4.52732732684e-08
4.52737339498e-08
4.5273867625e-08
4.52492097284e-08
3.14971065163e-08
1.96295825908e-07
1.90094135108e-06
3.98482696635e-06
5.43801945729e-06
3.34820446688e-10
1.13066281285e-09
3.34203062593e-09
8.3389042261e-09
1.21861023998e-08
1.26278350031e-08
1.68230686145e-08
2.99717261777e-08
4.04787200143e-08
4.48600351906e-08
4.5258053248e-08
4.52696833766e-08
4.52701627278e-08
4.52703011299e-08
4.52444665767e-08
3.11188111442e-08
2.01391231992e-07
1.92344212332e-06
4.00581844671e-06
5.45914605692e-06
3.30663429265e-10
1.11727581104e-09
3.2841303405e-09
8.28360803045e-09
1.22753295013e-08
1.26924925949e-08
1.69021417875e-08
2.93882632047e-08
4.04418819436e-08
4.48074755534e-08
4.5253810445e-08
4.52662366488e-08
4.52667293776e-08
4.52668666271e-08
4.52398040083e-08
3.07441498061e-08
2.06549900481e-07
1.94583556561e-06
4.0266578124e-06
5.48022698277e-06
3.26195936592e-10
1.10294920315e-09
3.22630541022e-09
8.22242459414e-09
1.2357371229e-08
1.27500245514e-08
1.69563010085e-08
2.87462029271e-08
4.03546786583e-08
4.47435216971e-08
4.52495328199e-08
4.52629352057e-08
4.52634370098e-08
4.52635669437e-08
4.52352227519e-08
3.03733976269e-08
2.11777577001e-07
1.9681556786e-06
4.04737626929e-06
5.50126713709e-06
3.21535771264e-10
1.08758074213e-09
3.16945764352e-09
8.15678049547e-09
1.2431978489e-08
1.2797544498e-08
1.69808054477e-08
2.80761579535e-08
4.0206492168e-08
4.46688778171e-08
4.52451932734e-08
4.5259760348e-08
4.52602681321e-08
4.52603852054e-08
4.52307040389e-08
3.00067071596e-08
2.17081629348e-07
1.99043468306e-06
4.06799507123e-06
5.52226775959e-06
3.16644356119e-10
1.07116698096e-09
3.11332006321e-09
8.08591134536e-09
1.24974032093e-08
1.2834787581e-08
1.69838935986e-08
2.74239942849e-08
4.00068262716e-08
4.45855915917e-08
4.52407484298e-08
4.52566738968e-08
4.52571865e-08
4.52572866166e-08
4.52262113932e-08
2.96441886456e-08
2.22470027681e-07
2.01270236866e-06
4.08853037523e-06
5.54322797693e-06
3.11567240264e-10
1.05384739631e-09
3.05694460552e-09
8.0093567589e-09
1.25541778187e-08
1.28664098269e-08
1.69775229837e-08
2.68248482955e-08
3.97685880031e-08
4.44946175579e-08
4.52361070428e-08
4.52536220327e-08
4.52541406431e-08
4.52542213657e-08
4.52216932846e-08
2.92859648168e-08
2.27950676647e-07
2.03498525708e-06
4.10899475799e-06
5.56414490419e-06
3.06417946294e-10
1.03581094954e-09
3.00027777946e-09
7.92954619903e-09
1.26068428168e-08
1.290000888e-08
1.69733932414e-08
2.62900268546e-08
3.94956993054e-08
4.43951650603e-08
4.523113964e-08
4.52505418742e-08
4.52510704189e-08
4.52511309806e-08
4.52170892123e-08
2.89322024528e-08
2.33531193799e-07
2.05730753432e-06
4.12939956218e-06
5.58501522084e-06
3.01265028787e-10
1.0172564298e-09
2.94466668373e-09
7.85105583981e-09
1.26615858181e-08
1.29423874457e-08
1.69772600049e-08
2.58158143657e-08
3.91890401224e-08
4.42869004913e-08
4.52257207257e-08
4.52473648035e-08
4.5247909716e-08
4.52479510133e-08
4.52123327083e-08
2.85831403415e-08
2.39218481777e-07
2.07968959526e-06
4.14975404914e-06
5.60583443411e-06
2.96134920799e-10
9.98524319593e-10
2.89179930644e-09
7.77788497584e-09
1.27224217287e-08
1.29968941161e-08
1.69894000993e-08
2.539879792e-08
3.88591439225e-08
4.41723049081e-08
4.52197615742e-08
4.52440216391e-08
4.52445920905e-08
4.52446170808e-08
4.52073574776e-08
2.82390992454e-08
2.45018696093e-07
2.10214943027e-06
4.17006770581e-06
5.6265989134e-06
2.91093408699e-10
9.80205476855e-10
2.84284408418e-09
7.71130105602e-09
1.27891011334e-08
1.30641429101e-08
1.70120488156e-08
2.50440786094e-08
3.85286084011e-08
4.40557916398e-08
4.52131935649e-08
4.52404477194e-08
4.52410559175e-08
4.52410697138e-08
4.52021022528e-08
2.79005086426e-08
2.50936492422e-07
2.12469904801e-06
4.1903470337e-06
5.64730401027e-06
2.86313597114e-10
9.63024828782e-10
2.79808943093e-09
7.64998248473e-09
1.28590520673e-08
1.31454563808e-08
1.70520049069e-08
2.47592535684e-08
3.82175837533e-08
4.39396701447e-08
4.52059151441e-08
4.52365922021e-08
4.52372541193e-08
4.52372636309e-08
4.51965195543e-08
2.75679183297e-08
2.56974595644e-07
2.14734366291e-06
4.2105957958e-06
5.66794537136e-06
2.82067925457e-10
9.47386547818e-10
2.7571117164e-09
7.59275187474e-09
1.29314245527e-08
1.32444560235e-08
1.71142005385e-08
2.45401748561e-08
3.7929295875e-08
4.38220239572e-08
4.51977748302e-08
4.52324245604e-08
4.52331598808e-08
4.52331729192e-08
4.5190580991e-08
2.72420107933e-08
2.63132929916e-07
2.17007779095e-06
4.23081188095e-06
5.68851757062e-06
2.78292650896e-10
9.33024520273e-10
2.71982004422e-09
7.54057775855e-09
1.30080029658e-08
1.33646206887e-08
1.71981487238e-08
2.43694536022e-08
3.76530845479e-08
4.36993954936e-08
4.51886492215e-08
4.52279402931e-08
4.52287715675e-08
4.52287962962e-08
4.51842827923e-08
2.69235774267e-08
2.69408619391e-07
2.1928871465e-06
4.25099045102e-06
5.70901766368e-06
2.75009471256e-10
9.20219822937e-10
2.68689378527e-09
7.49545266102e-09
1.30899907218e-08
1.35051448276e-08
1.72936215321e-08
2.4225570292e-08
3.73793406023e-08
4.35718037467e-08
4.51785780292e-08
4.52231620305e-08
4.52241123151e-08
4.52241570163e-08
4.51776462913e-08
2.6613494301e-08
2.75795620581e-07
2.21574774009e-06
4.27112089062e-06
5.72929194962e-06
2.72133299241e-10
9.09108970353e-10
2.65911392752e-09
7.45745776831e-09
1.31734945715e-08
1.36590031569e-08
1.73887759469e-08
2.40959526783e-08
3.71142465841e-08
4.34453352756e-08
4.51678090576e-08
4.52181406851e-08
4.52192309784e-08
4.52193035616e-08
4.51707180526e-08
2.63126825819e-08
2.82284442356e-07
2.23861389137e-06
4.29094349851e-06
5.74709644922e-06
2.69553756144e-10
8.98950553801e-10
2.63617779513e-09
7.42196635499e-09
1.32486130407e-08
1.38174506262e-08
1.74783568097e-08
2.39840113343e-08
3.6879898755e-08
4.33278768319e-08
4.51566147822e-08
4.52129534019e-08
4.5214201631e-08
4.52143082572e-08
4.51635683026e-08
2.60220825547e-08
2.88860834208e-07
2.26140533886e-06
4.31021226898e-06
5.76327214614e-06
2.67316721526e-10
8.89745415092e-10
2.61580140496e-09
7.38083986112e-09
1.33060625878e-08
1.3976983135e-08
1.75564885316e-08
2.39012647098e-08
3.66900876387e-08
4.3220650118e-08
4.51450110617e-08
4.52077010244e-08
4.52091240011e-08
4.52092673344e-08
4.51562909136e-08
2.5742594067e-08
2.95506880573e-07
2.2840383141e-06
4.3288901069e-06
5.77861710068e-06
2.65443886354e-10
8.81397861889e-10
2.59422400646e-09
7.32857446255e-09
1.33439468401e-08
1.41398176044e-08
1.76424781312e-08
2.38514243015e-08
3.65332774629e-08
4.31168244243e-08
4.51326828822e-08
4.5202498885e-08
4.5204115465e-08
4.52042929905e-08
4.51489956949e-08
2.54750062948e-08
3.02202536871e-07
2.30643319598e-06
4.34699264515e-06
5.7935592157e-06
2.63823384496e-10
8.72620532175e-10
2.56862127357e-09
7.26519711242e-09
1.33661403547e-08
1.43103251325e-08
1.7725113524e-08
2.3818203579e-08
3.63855625654e-08
4.30077562464e-08
4.51191280508e-08
4.51974625364e-08
4.51992963882e-08
4.51994996381e-08
4.51417948147e-08
2.5219908472e-08
3.08928389822e-07
2.32852395549e-06
4.36455731973e-06
5.80834515019e-06
2.62031439186e-10
8.62098829103e-10
2.54028691452e-09
7.19367442253e-09
1.33772020664e-08
1.44918508127e-08
1.78050991402e-08
2.37849663994e-08
3.62247735976e-08
4.28880897757e-08
4.51038043439e-08
4.51926865211e-08
4.51947685634e-08
4.5194983651e-08
4.5134783104e-08
2.49776205798e-08
3.15668475293e-07
2.35026523801e-06
4.38163256784e-06
5.82313232756e-06
2.59710695274e-10
8.50174903701e-10
2.50661059695e-09
7.11517925048e-09
1.33782883956e-08
1.46838035775e-08
1.78794615011e-08
2.37421097138e-08
3.60420856265e-08
4.27578385227e-08
4.50861023875e-08
4.51882221648e-08
4.51905957647e-08
4.51908052125e-08
4.51280197274e-08
2.474814698e-08
3.22413581484e-07
2.37164200438e-06
4.39828049199e-06
5.83803808492e-06
2.57102037504e-10
8.36422909593e-10
2.46988844029e-09
7.02937100304e-09
1.33661818405e-08
1.48815486266e-08
1.79457916461e-08
2.36902400899e-08
3.58426196261e-08
4.26207702024e-08
4.50650624562e-08
4.51840565151e-08
4.51867890114e-08
4.51869743568e-08
4.51215136976e-08
2.45311887287e-08
3.29163222903e-07
2.39267262901e-06
4.41457774059e-06
5.85316412285e-06
2.54268985755e-10
8.20730578151e-10
2.43004817682e-09
6.93546981309e-09
1.33379159709e-08
1.50812497981e-08
1.80064745185e-08
2.36347118997e-08
3.56305503094e-08
4.2480500337e-08
4.50390051893e-08
4.518009963e-08
4.51833005437e-08
4.51834451397e-08
4.51152169568e-08
2.43261978159e-08
3.35926945541e-07
2.41341143166e-06
4.43062012263e-06
5.86860660736e-06
2.51118277031e-10
8.03943659405e-10
2.38834496085e-09
6.8355017488e-09
1.32960406015e-08
1.52834209373e-08
1.80664466587e-08
2.35765200975e-08
3.53969805989e-08
4.23399614044e-08
4.50054114196e-08
4.517618543e-08
4.51800262711e-08
4.51801177528e-08
4.51090255493e-08
2.4132472985e-08
3.42723809941e-07
2.43394320382e-06
4.44651898173e-06
5.88446080456e-06
2.47867571876e-10
7.87259992103e-10
2.34697525771e-09
6.73450790386e-09
1.32472853152e-08
1.54904653541e-08
1.81285454902e-08
2.35116378129e-08
3.51233848444e-08
4.22047341889e-08
4.49612484205e-08
4.51720902189e-08
4.51768168574e-08
4.51768485184e-08
4.51027885052e-08
2.39492674807e-08
3.49580795049e-07
2.45437449662e-06
4.46239564739e-06
5.90082270095e-06
2.4490581065e-10
7.7172549241e-10
2.30820847707e-09
6.63760979482e-09
1.31971489286e-08
1.570206949e-08
1.81889479e-08
2.34352149097e-08
3.47935585453e-08
4.20836639888e-08
4.49036013333e-08
4.5167562934e-08
4.51734939405e-08
4.51734649263e-08
4.50963222882e-08
2.37758968937e-08
3.56530204786e-07
2.47482245095e-06
4.47837492793e-06
5.91778563686e-06
2.42631324505e-10
7.58296956637e-10
2.27396717362e-09
6.54675229458e-09
1.31455100311e-08
1.59130578535e-08
1.82426921503e-08
2.33529056527e-08
3.44106093527e-08
4.19858558452e-08
4.48305218001e-08
4.5162363748e-08
4.51698673057e-08
4.51697819872e-08
4.50894276235e-08
2.36118267941e-08
3.63606577137e-07
2.49540267536e-06
4.4945776615e-06
5.93543560087e-06
2.41352861073e-10
7.47635827687e-10
2.24541614344e-09
6.46231085746e-09
1.3093814207e-08
1.61227027372e-08
1.82924234202e-08
2.32804810903e-08
3.39802825089e-08
4.19017196595e-08
4.47397632231e-08
4.51562627303e-08
4.51657309576e-08
4.51655991885e-08
4.50818893142e-08
2.34567370737e-08
3.70842746574e-07
2.51621600018e-06
4.51111597647e-06
5.95384894293e-06
2.41394967403e-10
7.40610281818e-10
2.22442351609e-09
6.38334087795e-09
1.30396564052e-08
1.63265996309e-08
1.83395600783e-08
2.32447951176e-08
3.35640217176e-08
4.18502123363e-08
4.46377112283e-08
4.514921756e-08
4.51608854343e-08
4.51606879118e-08
4.50734312724e-08
2.33106955297e-08
3.78257533884e-07
2.5372796842e-06
4.52802614547e-06
5.97309314173e-06
2.42884337175e-10
7.36080841004e-10
2.2059092117e-09
6.32099208242e-09
1.30354450091e-08
1.65893461964e-08
1.84328048545e-08
2.32348566671e-08
3.29489766841e-08
4.15530221197e-08
4.44647038921e-08
4.513118613e-08
4.51455327365e-08
4.5144955317e-08
4.50536721545e-08
2.31724909148e-08
3.85735936547e-07
2.55777841309e-06
4.5434937164e-06
5.99097421913e-06
)
;

boundaryField
{
    emptyPatch
    {
        type            empty;
    }
    minY
    {
        type            calculated;
        value           nonuniform List<scalar> 0();
    }
    maxY
    {
        type            calculated;
        value           nonuniform List<scalar> 
40
(
3.56543379148e-06
2.92392436344e-06
2.52704202243e-06
2.37457486536e-06
2.15121578768e-06
1.76868142141e-06
1.40071310086e-06
1.10717954554e-06
7.87452766669e-07
4.15629244404e-07
1.4235409783e-07
3.75623284441e-08
2.76338646027e-09
1.72032458587e-10
4.48813472507e-11
3.90610412134e-11
4.48871387631e-11
5.56690393583e-11
7.45342218798e-11
1.13581966256e-10
2.42865396664e-10
7.36023765757e-10
2.20573899083e-09
6.32050633281e-09
1.30344466985e-08
1.65880793234e-08
1.84314005669e-08
2.32330899979e-08
3.29464754878e-08
4.15498722227e-08
4.44613369139e-08
4.51277714263e-08
4.51421190634e-08
4.51415434078e-08
4.50502685629e-08
2.31707412932e-08
3.85706858263e-07
2.55758619874e-06
4.54315356833e-06
5.99052554917e-06
)
;
    }
    water_to_cooler
    {
        type            nutkWallFunction;
        blending        stepwise;
        value           uniform 0;
    }
    water_to_heater
    {
        type            nutkWallFunction;
        blending        stepwise;
        value           uniform 0;
    }
    procBoundary0to1
    {
        type            processor;
        value           nonuniform List<scalar> 
41
(
3.82870845025e-06
3.69628290573e-06
3.42979202882e-06
2.90048736316e-06
2.12572543197e-06
1.47826150169e-06
1.17344162469e-06
9.65624621281e-07
6.43728195273e-07
2.81337934181e-07
9.45584164922e-08
8.1973398769e-09
3.67729266099e-10
4.51265348434e-11
2.84292630772e-11
2.89172774866e-11
3.2740207872e-11
3.98876991407e-11
5.45201282341e-11
1.11012007517e-10
1.10946615714e-08
1.19282734846e-08
1.59621731755e-08
3.23922881257e-08
4.17033949561e-08
4.51300554203e-08
4.52963804698e-08
4.53022334697e-08
4.5302432624e-08
4.53024625547e-08
4.52855579261e-08
3.45326665736e-08
1.58746840974e-07
1.7212805576e-06
3.81181358681e-06
5.26439753562e-06
3.67377142096e-10
1.22043227177e-09
3.7511491158e-09
8.49893070863e-09
8.49893070863e-09
)
;
    }
}


// ************************************************************************* //
