/*--------------------------------*- C++ -*----------------------------------*\
| =========                 |                                                 |
| \\      /  F ield         | OpenFOAM: The Open Source CFD Toolbox           |
|  \\    /   O peration     | Version:  2312                                  |
|   \\  /    A nd           | Website:  www.openfoam.com                      |
|    \\/     M anipulation  |                                                 |
\*---------------------------------------------------------------------------*/
FoamFile
{
    version     2.0;
    format      ascii;
    arch        "LSB;label=32;scalar=64";
    class       surfaceScalarField;
    location    "0.97/water";
    object      phi;
}
// * * * * * * * * * * * * * * * * * * * * * * * * * * * * * * * * * * * * * //

dimensions      [0 3 -1 0 0 0 0];

oriented        oriented;

internalField   nonuniform List<scalar> 
2929
(
1.32491011803e-07
6.03275619121e-07
1.19122070547e-07
5.32298529656e-07
1.28469347406e-07
5.22023314295e-07
1.48935289659e-07
5.16785856204e-07
1.6801126169e-07
5.09088536921e-07
1.79378975027e-07
4.99446522938e-07
1.82675116769e-07
4.91645616399e-07
1.77843141803e-07
4.89218265514e-07
1.65769681871e-07
4.95421344081e-07
1.52873838734e-07
5.01647063443e-07
1.40090614843e-07
5.04106630963e-07
1.27233216117e-07
5.01887164823e-07
1.13424845483e-07
4.96997766168e-07
9.72620351248e-08
4.94590451587e-07
7.47701359584e-08
5.06855423098e-07
5.43615172969e-08
5.10699981528e-07
3.19695782911e-08
4.95321082864e-07
7.47839377418e-09
4.51605925394e-07
-1.33663046554e-08
3.90779492535e-07
3.41005637535e-07
-2.3915525816e-08
1.3706608515e-07
6.19339763224e-07
1.2690112606e-07
5.26256053041e-07
1.3666721287e-07
5.06397459566e-07
1.54496141616e-07
4.96884984654e-07
1.70146467918e-07
4.92723264663e-07
1.78713353094e-07
4.90644692428e-07
1.79378499845e-07
4.90904919231e-07
1.70626206504e-07
4.97945603226e-07
1.58477644385e-07
5.07556586132e-07
1.46420012148e-07
5.13704504052e-07
1.34792731431e-07
5.15730368508e-07
1.23159898349e-07
5.13521589158e-07
1.10805524114e-07
5.09358137591e-07
9.44828427602e-08
5.10908668772e-07
7.47695654228e-08
5.26584988358e-07
5.61095561705e-08
5.29375597685e-07
3.36107786628e-08
5.17833538489e-07
5.59681508039e-09
4.79629899485e-07
-1.93309063682e-08
4.15712302928e-07
3.53872989687e-07
-3.2196806765e-08
1.43665194802e-07
6.29763319301e-07
1.37766290552e-07
5.15367155616e-07
1.47322549398e-07
4.90661441871e-07
1.60607710128e-07
4.81473966513e-07
1.70474642725e-07
4.82157834032e-07
1.74002855052e-07
4.86892317465e-07
1.68630472125e-07
4.96202689939e-07
1.57015841275e-07
5.0952900338e-07
1.45091695013e-07
5.19474040698e-07
1.33819070605e-07
5.24969184822e-07
1.23186394276e-07
5.26360738276e-07
1.12718033458e-07
5.23988737795e-07
1.01803082533e-07
5.20269847962e-07
8.60998824356e-08
5.26632075521e-07
7.14890840346e-08
5.41207289734e-07
5.56636599004e-08
5.45211930076e-07
3.42176499153e-08
5.39289199384e-07
4.05887687933e-09
5.09795506673e-07
-2.42704446449e-08
4.44044410985e-07
3.70260374543e-07
-4.06572229239e-08
1.48759633893e-07
6.34399313253e-07
1.46960854046e-07
4.99968768487e-07
1.55104242749e-07
4.76091688513e-07
1.62292220549e-07
4.72116514406e-07
1.64337732212e-07
4.79427026089e-07
1.60163194111e-07
4.90852143693e-07
1.48453022114e-07
5.07839932127e-07
1.35612360945e-07
5.2234916075e-07
1.23592173875e-07
5.31480775219e-07
1.12561223107e-07
5.35995029854e-07
1.02423287112e-07
5.36495748134e-07
9.24910922916e-08
5.339186814e-07
8.21147426847e-08
5.30658196035e-07
6.95667779543e-08
5.3917477482e-07
6.01399424228e-08
5.5063915799e-07
4.76705373908e-08
5.57687250448e-07
2.88692545184e-08
5.58095992163e-07
7.51922386411e-10
5.37916237285e-07
-2.88918528141e-08
4.73687899771e-07
3.9055753812e-07
-4.91899751072e-08
1.55942391374e-07
6.30296905775e-07
1.53171773627e-07
4.85491626437e-07
1.53719938399e-07
4.69371976997e-07
1.50760851566e-07
4.73076151421e-07
1.43272954086e-07
4.86294894471e-07
1.30743672351e-07
5.03187481924e-07
1.16055576706e-07
5.22470355347e-07
1.02453642536e-07
5.35924379056e-07
9.01280638785e-08
5.43794686043e-07
7.92180675275e-08
5.46896782284e-07
6.92969433782e-08
5.46409249336e-07
5.97173039121e-08
5.43498702408e-07
4.95376611441e-08
5.40822551365e-07
4.17955136533e-08
5.46921247633e-07
3.74981511519e-08
5.54940772373e-07
2.89803481277e-08
5.66208801176e-07
1.48170373236e-08
5.72262128742e-07
-6.61518732658e-09
5.59348790652e-07
-3.5361809575e-08
5.02430766856e-07
4.13819654379e-07
-5.86275872705e-08
1.72398285586e-07
6.08058226091e-07
1.57965735826e-07
4.82420750039e-07
1.40527457544e-07
4.80851382453e-07
1.21884962271e-07
4.89884780458e-07
1.03894496384e-07
5.03741918321e-07
8.56300088755e-08
5.21297536611e-07
6.91081431161e-08
5.38940103817e-07
5.43082321198e-08
5.50705939121e-07
4.13947384787e-08
5.56698734655e-07
3.04254668436e-08
5.57857526766e-07
2.0662101302e-08
5.56172503613e-07
1.21437112375e-08
5.52003626908e-07
4.05935757949e-09
5.48917702583e-07
1.88766333074e-09
5.49095324243e-07
2.77891719637e-09
5.54050162657e-07
2.75883901442e-10
5.68711562298e-07
-6.82879156884e-09
5.79365471511e-07
-1.88254862919e-08
5.71341466146e-07
-4.40955438764e-08
5.27692438024e-07
4.37807553034e-07
-6.80917405914e-08
1.75412151621e-07
5.82462408892e-07
1.38527644453e-07
5.02871861771e-07
9.8627185712e-08
5.15129586173e-07
6.24437885686e-08
5.24485966821e-07
3.54267871687e-08
5.30371066422e-07
1.45696921923e-08
5.42066092434e-07
-2.77004685281e-09
5.56260734487e-07
-1.79418150139e-08
5.65875178342e-07
-3.08195762186e-08
5.69568713669e-07
-4.09725674739e-08
5.68015473747e-07
-4.73306133193e-08
5.62517787778e-07
-5.16560403269e-08
5.56331819748e-07
-5.35838170088e-08
5.50841301129e-07
-5.0420876605e-08
5.45927736249e-07
-4.38185476776e-08
5.4744174888e-07
-3.68164386929e-08
5.61702784473e-07
-3.35809955718e-08
5.7612290442e-07
-3.5626102502e-08
5.73377417332e-07
-5.25562356114e-08
5.44608752137e-07
4.59883582874e-07
-7.46467229116e-08
1.57172493949e-07
5.74093836509e-07
8.95330104815e-08
5.55022990657e-07
2.18866244928e-08
5.77736581004e-07
-3.686214993e-08
5.82122871879e-07
-7.43369740928e-08
5.6770629406e-07
-9.75165273087e-08
5.65237830109e-07
-1.12765315245e-07
5.71512593989e-07
-1.23481454224e-07
5.76585792236e-07
-1.30182803756e-07
5.76270581621e-07
-1.31193675643e-07
5.69014305002e-07
-1.27667812592e-07
5.58986021609e-07
-1.22502982736e-07
5.51158467525e-07
-1.16072450801e-07
5.44402238579e-07
-1.07825312588e-07
5.37671007702e-07
-9.56553464826e-08
5.35261315029e-07
-7.83315468164e-08
5.44367825933e-07
-6.24376687681e-08
5.6021735656e-07
-5.47105040353e-08
5.65637267099e-07
-5.83593189998e-08
5.48240403509e-07
4.78198003045e-07
-7.66928360172e-08
1.32544994245e-07
5.95176545713e-07
4.38340027798e-08
6.2989811777e-07
-3.99951950175e-08
6.57740497469e-07
-1.17562810774e-07
6.59342955805e-07
-1.72285036518e-07
6.22534814051e-07
-2.06593803788e-07
5.99598637809e-07
-2.22978273008e-07
5.8791480274e-07
-2.27370799225e-07
5.80987986327e-07
-2.21985702491e-07
5.70886172581e-07
-2.09036517124e-07
5.56062300415e-07
-1.93329847299e-07
5.43272614218e-07
-1.78093177678e-07
5.35913746634e-07
-1.64275173159e-07
5.30574752548e-07
-1.51182206659e-07
5.24567476491e-07
-1.35883238292e-07
5.19951311439e-07
-1.13676101155e-07
5.22148998029e-07
-8.7453880362e-08
5.33981922613e-07
-6.89692569151e-08
5.47138174272e-07
-6.10298155242e-08
5.40283888248e-07
4.92358549567e-07
-7.52107054441e-08
1.15159818622e-07
6.35732020909e-07
4.36953056861e-08
6.88093120112e-07
-1.5806922893e-08
7.14037901237e-07
-8.38428540675e-08
7.27065459471e-07
-1.54885121122e-07
6.93839881981e-07
-2.13421337666e-07
6.58326393222e-07
-2.46454910225e-07
6.21029037973e-07
-2.54448942701e-07
5.89023842028e-07
-2.46218846702e-07
5.62679828468e-07
-2.30380906871e-07
5.40235125941e-07
-2.11269118723e-07
5.24164502441e-07
-1.92344037602e-07
5.16989013423e-07
-1.75646638947e-07
5.13875291768e-07
-1.60770151151e-07
5.09686335838e-07
-1.46195090493e-07
5.0536958556e-07
-1.27614541852e-07
5.03560994152e-07
-1.00474823326e-07
5.06832578307e-07
-7.41617409007e-08
5.20812980855e-07
-6.13826719945e-08
5.27490177022e-07
4.98851721117e-07
-6.7897735665e-08
1.30602535248e-07
6.5933697147e-07
1.10028654816e-07
6.92903144268e-07
9.00359139905e-08
7.28119786352e-07
5.76505239483e-08
7.57672261381e-07
-1.0134275081e-08
7.61289848923e-07
-8.80045961239e-08
7.36218954354e-07
-1.50262946943e-07
6.83396153372e-07
-1.80858510723e-07
6.19699159076e-07
-1.8783175664e-07
5.69701518165e-07
-1.83295110122e-07
5.35727308043e-07
-1.72385898938e-07
5.1327250708e-07
-1.58417098961e-07
5.03031459864e-07
-1.4554613247e-07
5.01011909771e-07
-1.34316620707e-07
4.98460794363e-07
-1.24032526649e-07
4.95086056773e-07
-1.13323350682e-07
4.92849876913e-07
-9.58646272988e-08
4.89370270962e-07
-7.10495199955e-08
4.95990946382e-07
-5.74003404924e-08
5.13830538716e-07
4.96772590367e-07
-5.53362212857e-08
1.67128797512e-07
6.45251688748e-07
1.57065407936e-07
6.83522017927e-07
1.54785419434e-07
7.22630143171e-07
1.49692309058e-07
7.59693624577e-07
1.28851975829e-07
7.81138877997e-07
7.48230245117e-08
7.90015456857e-07
-6.27509428172e-09
7.64499611869e-07
-5.94594798372e-08
6.72933826547e-07
-8.6376753852e-08
5.96667818196e-07
-9.69558137071e-08
5.46342350872e-07
-9.8521325742e-08
5.14861988089e-07
-9.46316673513e-08
4.99157917689e-07
-8.96875220926e-08
4.9608029204e-07
-8.5541321005e-08
4.94324081096e-07
-8.17596676242e-08
4.91310695792e-07
-7.84165215966e-08
4.89510272471e-07
-7.3490912471e-08
4.84445770609e-07
-5.81797170259e-08
4.806782437e-07
-4.42681574291e-08
4.99915290089e-07
4.93636715673e-07
-4.11400594703e-08
1.71470244793e-07
6.23658910565e-07
1.69670461697e-07
6.65900505165e-07
1.72293843231e-07
7.11081976857e-07
1.73845176532e-07
7.54663302555e-07
1.65027524019e-07
7.88640709405e-07
1.43727214391e-07
8.10924916099e-07
9.41502855116e-08
8.14011531791e-07
4.30164703687e-08
7.24092692601e-07
9.29704609841e-09
6.30426986897e-07
-9.44566452045e-09
5.65118904787e-07
-1.97161434815e-08
5.25157093553e-07
-2.48523731554e-08
5.04310782551e-07
-2.77889271015e-08
4.99029958479e-07
-3.06925445279e-08
4.97238824599e-07
-3.34109809904e-08
4.94038339327e-07
-3.63569088329e-08
4.92463316464e-07
-3.98808327566e-08
4.87974156242e-07
-3.72254687587e-08
4.78025344435e-07
-2.57482367517e-08
4.88438311461e-07
4.93808458547e-07
-2.59230832106e-08
1.74605344481e-07
6.02587765699e-07
1.70924511993e-07
6.48726052634e-07
1.752398813e-07
6.97885097871e-07
1.79535009723e-07
7.46460798869e-07
1.781550898e-07
7.88579354624e-07
1.66834050556e-07
8.2174939428e-07
1.4227062719e-07
8.3845420155e-07
1.05593142648e-07
7.60766499912e-07
7.70619643334e-08
6.58983180469e-07
5.8212197634e-08
5.8399476258e-07
4.52472738679e-08
5.38142943393e-07
3.55729358675e-08
5.1399991643e-07
2.75236562753e-08
5.07091335731e-07
1.98295269615e-08
5.04944276307e-07
1.24278924168e-08
5.01450461928e-07
4.94587502313e-09
4.99954453833e-07
-3.53497731447e-09
4.96462523254e-07
-1.10847481982e-08
4.85580148313e-07
-6.39663479954e-09
4.83754329049e-07
4.96843429375e-07
-9.42920839959e-09
1.6481054036e-07
5.88999083198e-07
1.60194039807e-07
6.34445625225e-07
1.65600217942e-07
6.83724960485e-07
1.73727560885e-07
7.34794401588e-07
1.78236839516e-07
7.8260300713e-07
1.76230239841e-07
8.23249273414e-07
1.64768927713e-07
8.49767059319e-07
1.42606813039e-07
7.82908164757e-07
1.22688394637e-07
6.78916153784e-07
1.07072955075e-07
5.99629438526e-07
9.43053254051e-08
5.50926749078e-07
8.30069010218e-08
5.25309911742e-07
7.2275611151e-08
5.17832664612e-07
6.19041001444e-08
5.15326248435e-07
5.16934261846e-08
5.11671865563e-07
4.12883653828e-08
5.10369938873e-07
2.96417902595e-08
5.0811766049e-07
1.6594663624e-08
4.98634366398e-07
1.25083598999e-08
4.87846949356e-07
5.02268987055e-07
7.09444111809e-09
1.68604139515e-07
5.74688780317e-07
1.62408367658e-07
6.20929690634e-07
1.66403759745e-07
6.71591853216e-07
1.731224968e-07
7.24470539393e-07
1.7900290167e-07
7.75350719414e-07
1.80699423246e-07
8.21026378272e-07
1.76527411204e-07
8.53775230629e-07
1.66829693893e-07
7.92569030912e-07
1.55532253019e-07
6.90215838541e-07
1.43848314179e-07
6.1132392155e-07
1.32227452609e-07
5.6255808409e-07
1.20443793923e-07
5.37101497129e-07
1.08107345018e-07
5.30176873079e-07
9.60595372534e-08
5.2738303847e-07
8.4081152182e-08
5.23660317634e-07
7.18116709679e-08
5.22649622588e-07
5.83116555931e-08
5.21627850378e-07
4.26568402057e-08
5.14298078677e-07
3.11063765468e-08
4.99404375944e-07
5.11158005366e-07
2.22195440872e-08
1.65649338233e-07
5.61203404462e-07
1.58961442611e-07
6.08975670063e-07
1.61403517638e-07
6.60798668448e-07
1.67980124357e-07
7.14603152596e-07
1.73857467755e-07
7.68111612076e-07
1.77084341125e-07
8.1731090313e-07
1.79360655934e-07
8.51334437796e-07
1.82458703423e-07
7.89429760222e-07
1.79878634643e-07
6.92791976415e-07
1.72539865086e-07
6.1866812658e-07
1.62559309586e-07
5.72545309016e-07
1.50608702618e-07
5.49057171834e-07
1.37149448801e-07
5.43642140115e-07
1.23937872931e-07
5.40602695021e-07
1.10733297422e-07
5.36874663938e-07
9.71614462898e-08
5.36232080466e-07
8.25156277797e-08
5.36283144287e-07
6.57505773759e-08
5.31071202224e-07
4.93695934312e-08
5.15792516422e-07
5.24393575981e-07
3.61492779981e-08
1.63993674421e-07
5.52243213812e-07
1.53729413354e-07
6.00177009796e-07
1.53945232655e-07
6.52856875509e-07
1.57534575994e-07
7.07732559359e-07
1.61428434508e-07
7.62997610697e-07
1.658999275e-07
8.12380471896e-07
1.76038877473e-07
8.41046881449e-07
1.92697867823e-07
7.72727484381e-07
1.98595322645e-07
6.86884668867e-07
1.95502250885e-07
6.21761282098e-07
1.86965548756e-07
5.81084619539e-07
1.74564231192e-07
5.61460920707e-07
1.60222724401e-07
5.57988407058e-07
1.4615397221e-07
5.54678127102e-07
1.32028090943e-07
5.51009554943e-07
1.17507937529e-07
5.50762249831e-07
1.02038012669e-07
5.51763585159e-07
8.47201630791e-08
5.48398886162e-07
6.57917039202e-08
5.34730012134e-07
5.41812067565e-07
4.83782300191e-08
1.57656787572e-07
5.48509529715e-07
1.44091087063e-07
5.95406927108e-07
1.40103973882e-07
6.48970209411e-07
1.3947362271e-07
7.05387341946e-07
1.41300444657e-07
7.6004288025e-07
1.47034840869e-07
8.06264573366e-07
1.75000114562e-07
8.12954999064e-07
2.02279711023e-07
7.45403923654e-07
2.14139111246e-07
6.75010861479e-07
2.13801571676e-07
6.22094733146e-07
2.05921469993e-07
5.88964068576e-07
1.92530417112e-07
5.74852416691e-07
1.77449664951e-07
5.73071846968e-07
1.62652222844e-07
5.69482127984e-07
1.4775563338e-07
5.65915505135e-07
1.32481654294e-07
5.66046330713e-07
1.16409461804e-07
5.6784598327e-07
9.87350749875e-08
5.66082947441e-07
7.88227247586e-08
5.54650244845e-07
5.62511116993e-07
5.81379816786e-08
1.43100093822e-07
5.61748533499e-07
1.27219471856e-07
5.94190084654e-07
1.19414131574e-07
6.49953780989e-07
1.16351435472e-07
7.05826857264e-07
1.17814111591e-07
7.57683441305e-07
1.35414775398e-07
7.8835679689e-07
1.80458739512e-07
7.67797782336e-07
2.12050028455e-07
7.13766523594e-07
2.26122624891e-07
6.60920251061e-07
2.26871060341e-07
6.21338889272e-07
2.18890580892e-07
5.9694123998e-07
2.04001850891e-07
5.89740183564e-07
1.88303464902e-07
5.88773773659e-07
1.72907228855e-07
5.84883189443e-07
1.57358005133e-07
5.81471148342e-07
1.41531292228e-07
5.81882274114e-07
1.25117348545e-07
5.84269846915e-07
1.07380859129e-07
5.83828851839e-07
8.71226534128e-08
5.74916885885e-07
5.85282925923e-07
6.43580851114e-08
1.29759810539e-07
5.88179337103e-07
1.16220691208e-07
5.92661107385e-07
1.06473386135e-07
6.53786032673e-07
1.01106411032e-07
7.09125733135e-07
1.0927132144e-07
7.48804695327e-07
1.46632902037e-07
7.50728916112e-07
1.90466309622e-07
7.23855744082e-07
2.2022164257e-07
6.83965871902e-07
2.33382709254e-07
6.47740164264e-07
2.33867543129e-07
6.20845098098e-07
2.2414426704e-07
6.06659590823e-07
2.0790802469e-07
6.05975225066e-07
1.91755762111e-07
6.04924510527e-07
1.75924275233e-07
6.00717502131e-07
1.60023711426e-07
5.97378846473e-07
1.44017121913e-07
5.97896981964e-07
1.27756261962e-07
6.00540488389e-07
1.10638951378e-07
6.00955224673e-07
9.03997838163e-08
5.95164390821e-07
6.08501739255e-07
6.71953384092e-08
1.14924523686e-07
6.30425358052e-07
9.97676888708e-08
5.94557660241e-07
9.61939967465e-08
6.52580118466e-07
1.00526272769e-07
7.03063764339e-07
1.23990220128e-07
7.2471067006e-07
1.62154036347e-07
7.12317631184e-07
1.99396025111e-07
6.86513965488e-07
2.23678905862e-07
6.59642218546e-07
2.34122107444e-07
6.37279060082e-07
2.32606735114e-07
6.22350662368e-07
2.19312154307e-07
6.19948372244e-07
2.02632780873e-07
6.22647797336e-07
1.86336635575e-07
6.21220680787e-07
1.70451856882e-07
6.16604832781e-07
1.54551665323e-07
6.13283934374e-07
1.38843494281e-07
6.13615537843e-07
1.23295115859e-07
6.16098554976e-07
1.07416445729e-07
6.16843005762e-07
8.81359858385e-08
6.14453535655e-07
6.29735670912e-07
6.69102061021e-08
1.12704096872e-07
6.73784789626e-07
9.55984135877e-08
5.97922255435e-07
1.00124087787e-07
6.43262731922e-07
1.15180990436e-07
6.86269727549e-07
1.41276329221e-07
6.97977056079e-07
1.73523328448e-07
6.79829894642e-07
2.01770731026e-07
6.58175503828e-07
2.19476439664e-07
6.41900313021e-07
2.26055040134e-07
6.30683266398e-07
2.19439714408e-07
6.28954933296e-07
2.03862980442e-07
6.35514834398e-07
1.87381132836e-07
6.39127990166e-07
1.71383144801e-07
6.37216494185e-07
1.55761809229e-07
6.32229320273e-07
1.40304622703e-07
6.2875144804e-07
1.25081491774e-07
6.28846110042e-07
1.10655262998e-07
6.30534148762e-07
9.65185849335e-08
6.30988070826e-07
7.95579506634e-08
6.31421800993e-07
6.46282508787e-07
6.30224625309e-08
1.2540063112e-07
7.02765096457e-07
1.09165167526e-07
5.9841137125e-07
1.15243267487e-07
6.31448694407e-07
1.31555736645e-07
6.67881301277e-07
1.53167271856e-07
6.75634785303e-07
1.75659119639e-07
6.57089676369e-07
1.94188400126e-07
6.39563125695e-07
2.05513299008e-07
6.30544425902e-07
2.06079812087e-07
6.30100990445e-07
1.94436062476e-07
6.40587508006e-07
1.7904600107e-07
6.50903830143e-07
1.63247450855e-07
6.54921032675e-07
1.47807328639e-07
6.52660580837e-07
1.32798972904e-07
6.47246316008e-07
1.17368411176e-07
6.44186404735e-07
1.02572653519e-07
6.43654216099e-07
8.96267468516e-08
6.43489045111e-07
7.74207772039e-08
6.4320171166e-07
6.44167825806e-08
6.4443258745e-07
6.55716331487e-07
5.49910241983e-08
1.42362146637e-07
7.13480352615e-07
1.27343877149e-07
5.9678338064e-07
1.30504892466e-07
6.22215265783e-07
1.41526297453e-07
6.54651590463e-07
1.53762023226e-07
6.6263705085e-07
1.65268084317e-07
6.45342981468e-07
1.75125551292e-07
6.29633017482e-07
1.80506127862e-07
6.25139051795e-07
1.74857220557e-07
6.35738570902e-07
1.62638002693e-07
6.52805468703e-07
1.48491684573e-07
6.65042913073e-07
1.33490790259e-07
6.69927341021e-07
1.18671793628e-07
6.67486100225e-07
1.02725737051e-07
6.63194284238e-07
8.68645134395e-08
6.600660907e-07
7.3971321502e-08
6.56556052328e-07
6.28944152794e-08
6.5457321383e-07
5.2776251696e-08
6.53325862477e-07
4.46300021806e-08
6.52584175059e-07
6.57918784586e-07
4.24340101968e-08
1.67895882012e-07
6.967420516e-07
1.52311442802e-07
5.94110850678e-07
1.46904903515e-07
6.21140691395e-07
1.45720836405e-07
6.53602964457e-07
1.4575187259e-07
6.61874089075e-07
1.47756460206e-07
6.43121835141e-07
1.50246273593e-07
6.27084739931e-07
1.50058726413e-07
6.25310258632e-07
1.4262412052e-07
6.43171669446e-07
1.32087927063e-07
6.63336327761e-07
1.18765216058e-07
6.78375826526e-07
1.03890085828e-07
6.84821275861e-07
8.51264771894e-08
6.86253730833e-07
6.52222231391e-08
6.83123229058e-07
5.24350447347e-08
6.72859007652e-07
4.31039060423e-08
6.65892956951e-07
3.4319306401e-08
6.63362461588e-07
2.70350921541e-08
6.60613829665e-07
2.30545694757e-08
6.56568148319e-07
6.56047498916e-07
2.49288671173e-08
1.79582498922e-07
6.68194457078e-07
1.6188499829e-07
5.93164992808e-07
1.49825809018e-07
6.26463098973e-07
1.38654440663e-07
6.62545121151e-07
1.31692154164e-07
6.68148403353e-07
1.29762399249e-07
6.44862981601e-07
1.28975647796e-07
6.27826436507e-07
1.26337116321e-07
6.27939852196e-07
1.21147862654e-07
6.4835940909e-07
1.12412156413e-07
6.72082235414e-07
9.69524400593e-08
6.93859497843e-07
7.2492847573e-08
7.09271264957e-07
4.33356721036e-08
7.1540836846e-07
2.56773547008e-08
7.00779041476e-07
2.03661874694e-08
6.78170795862e-07
1.59163482273e-08
6.70343666311e-07
1.0842703662e-08
6.68437286723e-07
6.9164387158e-09
6.64541897873e-07
2.87321555316e-09
6.60614410782e-07
6.53276741723e-07
5.64486307641e-09
1.7769745079e-07
6.42983937463e-07
1.59242546765e-07
5.93839563874e-07
1.40702685939e-07
6.38286363099e-07
1.23315264061e-07
6.7770694346e-07
1.17343295955e-07
6.73465066681e-07
1.18871020805e-07
6.43159772388e-07
1.20599945978e-07
6.26052267869e-07
1.19178871125e-07
6.29346711461e-07
1.15636473333e-07
6.51892296228e-07
1.04587489098e-07
6.83122148331e-07
7.77185419546e-08
7.20706550499e-07
3.64594435521e-08
7.50515197042e-07
5.60226682204e-09
7.46266301458e-07
-8.12248034553e-10
7.0719514482e-07
6.47922974103e-10
6.76710115859e-07
1.44137982095e-09
6.6954957894e-07
9.78797369563e-10
6.68899705352e-07
-8.49936897677e-10
6.66371128073e-07
-6.47022862251e-09
6.66232142321e-07
6.54093282931e-07
-7.28570890166e-09
1.69268652478e-07
6.28112122436e-07
1.4249741879e-07
6.03659934974e-07
1.14937477213e-07
6.59505626092e-07
9.70951854834e-08
6.9350494138e-07
1.00938097859e-07
6.69048445717e-07
1.12056132612e-07
6.31885447231e-07
1.1999111271e-07
6.18070971335e-07
1.20727084076e-07
6.28589824543e-07
1.15598860213e-07
6.57004349138e-07
9.62465987403e-08
7.02462418909e-07
5.96088226272e-08
7.57345932075e-07
2.21953815798e-08
7.87944102596e-07
5.47562670397e-09
7.62999566459e-07
3.43843068562e-09
7.09237877258e-07
5.74881699814e-09
6.74401433024e-07
8.40265699565e-09
6.66897034289e-07
9.53352597116e-09
6.67769858023e-07
7.35979496704e-09
6.68544967651e-07
1.65919019974e-09
6.71936098956e-07
6.60993401522e-07
-5.24072239523e-09
1.48251354486e-07
6.38490449276e-07
1.02614262861e-07
6.34576505429e-07
6.63866707558e-08
6.90756477867e-07
5.64680573507e-08
7.02032147128e-07
7.0948781074e-08
6.5419997161e-07
8.87130834041e-08
6.14019881108e-07
1.01202381085e-07
6.05553518128e-07
1.0553650947e-07
6.2424699275e-07
1.02012907868e-07
6.60527872497e-07
8.55721874743e-08
7.18912241762e-07
6.64386918025e-08
7.7649673296e-07
5.47854077263e-08
7.99616045101e-07
4.72286828476e-08
7.70570797908e-07
4.13099775032e-08
7.15164139215e-07
3.84566266843e-08
6.77258960859e-07
3.81513250511e-08
6.67206353719e-07
3.69743965934e-08
6.68951031284e-07
3.29933301808e-08
6.72531447825e-07
2.61960486414e-08
6.7873440508e-07
6.72356180701e-07
1.48390212966e-08
1.20528467684e-07
6.77843300818e-07
6.58534854817e-08
6.77950682595e-07
2.99579004556e-08
7.23985680993e-07
3.00343102688e-08
7.01326850536e-07
4.51911641836e-08
6.38843829383e-07
6.09712644589e-08
5.98176736135e-07
7.38923104212e-08
5.92614735893e-07
8.27761216049e-08
6.15358979889e-07
8.82663051945e-08
6.55038953434e-07
9.12149369461e-08
7.15969750804e-07
9.59107947867e-08
7.71811169606e-07
1.01492053141e-07
7.94045724202e-07
1.01020188361e-07
7.71052043005e-07
9.40584975467e-08
7.22131991056e-07
8.6725982612e-08
6.84596150857e-07
8.19502473087e-08
6.71986719054e-07
7.71727065258e-08
6.73733374732e-07
7.05943430798e-08
6.7911355976e-07
6.2429680462e-08
6.86907955501e-07
6.84901934119e-07
4.98883577609e-08
9.66765476851e-08
7.39907012152e-07
5.14019865855e-08
7.15316402958e-07
3.32157178977e-08
7.40796867166e-07
4.09908939449e-08
6.93140496427e-07
5.16633428897e-08
6.27989088869e-07
6.1948804776e-08
5.87826739432e-07
7.22487898528e-08
5.82294462236e-07
8.28856306858e-08
6.04714771876e-07
9.48068211195e-08
6.43114936076e-07
1.11005867725e-07
6.99771443703e-07
1.28020054004e-07
7.54800484162e-07
1.42875772557e-07
7.79194275164e-07
1.4865522238e-07
7.65275766041e-07
1.44443230664e-07
7.263460551e-07
1.36355328198e-07
6.92686383826e-07
1.28677119716e-07
6.79668169269e-07
1.2123043732e-07
6.81184089271e-07
1.12958423185e-07
6.87391071829e-07
1.04330238292e-07
6.95535513675e-07
6.96130051817e-07
9.31043967264e-08
1.37679432411e-07
7.55746186797e-07
9.31252293561e-08
7.48414028077e-07
7.90388364263e-08
7.5223791942e-07
8.34462837021e-08
6.87847683593e-07
8.74721716649e-08
6.23617727687e-07
9.09783082822e-08
5.84204646362e-07
9.6193516684e-08
5.77043977574e-07
1.04849753211e-07
5.96045839085e-07
1.17019455604e-07
6.30938807747e-07
1.36774359851e-07
6.80012649588e-07
1.59421401368e-07
7.32151106228e-07
1.79616847593e-07
7.58996297686e-07
1.8948097631e-07
7.55408866941e-07
1.87673994956e-07
7.28151118562e-07
1.79951002353e-07
7.0040938935e-07
1.70965407053e-07
6.88655668493e-07
1.61983793296e-07
6.90168817427e-07
1.53399609841e-07
6.95977639486e-07
1.45740999245e-07
7.03202652354e-07
7.04505297865e-07
1.37370143103e-07
1.35908034754e-07
7.72789622852e-07
1.0952175853e-07
7.60994107423e-07
1.17762674932e-07
7.39511824991e-07
1.25348448909e-07
6.7853240279e-07
1.27318035477e-07
6.20998958935e-07
1.26820830121e-07
5.84487015984e-07
1.27992588129e-07
5.75806204657e-07
1.33522444566e-07
5.90492214849e-07
1.42869909686e-07
6.21578549917e-07
1.60211636271e-07
6.62661110759e-07
1.82793504079e-07
7.0956075928e-07
2.036499851e-07
7.38131307646e-07
2.16443169562e-07
7.42608142489e-07
2.17642803489e-07
7.26946130546e-07
2.11326606834e-07
7.06723266397e-07
2.02201386141e-07
6.97780753032e-07
1.93001674313e-07
6.99369210608e-07
1.85380304042e-07
7.03600613307e-07
1.79859721926e-07
7.08718793135e-07
7.08756183038e-07
1.75606710103e-07
1.2586743544e-07
8.009219275e-07
1.2044254297e-07
7.5185100454e-07
1.43627824266e-07
7.10599688743e-07
1.58030452525e-07
6.61727574934e-07
1.62522214189e-07
6.15569075488e-07
1.6155104801e-07
5.85133489684e-07
1.59838048467e-07
5.77415920896e-07
1.60254836445e-07
5.90039301109e-07
1.63549509441e-07
6.18265839457e-07
1.7406927662e-07
6.52127904889e-07
1.92555306486e-07
6.91062002691e-07
2.11043842974e-07
7.19629655669e-07
2.24498309868e-07
7.29141633487e-07
2.28336218989e-07
7.23098789233e-07
2.2418590838e-07
7.10867564298e-07
2.16253211345e-07
7.05710142492e-07
2.08643325933e-07
7.06976855524e-07
2.03039627648e-07
7.09201981003e-07
2.00504302868e-07
7.11255299586e-07
7.0897108238e-07
2.00287268886e-07
1.48895841064e-07
8.03985075644e-07
1.54847181287e-07
7.28357221049e-07
1.74657654951e-07
6.83350566408e-07
1.90475450188e-07
6.42786408245e-07
1.97158885356e-07
6.07657001854e-07
1.96375026138e-07
5.85481057404e-07
1.91877349623e-07
5.81770993335e-07
1.8547015564e-07
5.96397791837e-07
1.79926574631e-07
6.23786524118e-07
1.8049549455e-07
6.51541447838e-07
1.91317490102e-07
6.8022503724e-07
2.05670779931e-07
7.05260912302e-07
2.17109248846e-07
7.17688365287e-07
2.21539888234e-07
7.18655360652e-07
2.18774389333e-07
7.13623465911e-07
2.13002172119e-07
7.11475120095e-07
2.07902131343e-07
7.12070428216e-07
2.04745484317e-07
7.12351777061e-07
2.04900427941e-07
7.1108961521e-07
7.0613994382e-07
2.07720352054e-07
1.67070197298e-07
7.86947268813e-07
1.82147436788e-07
6.92537433032e-07
2.01959899792e-07
6.5436639615e-07
2.18257635782e-07
6.22689933349e-07
2.25826775224e-07
5.98623178069e-07
2.24773170613e-07
5.86016612313e-07
2.17749582145e-07
5.8862268997e-07
2.05672749833e-07
1.93987543067e-07
1.85939573856e-07
1.85663863107e-07
1.92263207368e-07
1.99414065364e-07
2.02520370277e-07
2.00449750832e-07
1.96678579785e-07
1.93838550303e-07
1.9285559611e-07
1.94764253526e-07
1.99080234145e-07
1.68366553709e-07
1.91102904433e-07
2.1275544235e-07
2.28526827221e-07
2.35184898764e-07
2.32712333425e-07
-2.55608031955e-08
2.66065185529e-07
-2.61129419589e-08
2.5243570598e-07
-2.61694337639e-08
2.38912039462e-07
-2.56224562902e-08
2.25022672409e-07
-2.43377209256e-08
2.1013692831e-07
-2.22856310581e-08
1.93741610088e-07
-1.96613549996e-08
1.759261911e-07
-1.6790403998e-08
1.57465254043e-07
-1.39332317507e-08
1.39248159928e-07
-1.1237563857e-08
1.21840645923e-07
-8.77838240264e-09
1.05487842306e-07
-6.59198468191e-09
9.02285770501e-08
-4.69242360096e-09
7.59749775638e-08
-3.07971205049e-09
6.25713356392e-08
-1.75264044829e-09
4.98798658125e-08
-7.2914179132e-10
3.7947706909e-08
2.72202868748e-08
-2.68697191858e-08
3.15137823954e-07
-2.83350435468e-08
2.96411972405e-07
-2.92514204162e-08
2.81033963345e-07
-2.97342839683e-08
2.66548058933e-07
-2.97886908888e-08
2.52490114296e-07
-2.93495185942e-08
2.3847287085e-07
-2.82917400297e-08
2.23964897549e-07
-2.64960341221e-08
2.08341224012e-07
-2.39898127341e-08
1.91235397122e-07
-2.10158515249e-08
1.72952231485e-07
-1.78884361765e-08
1.54337854757e-07
-1.48331613801e-08
1.36192887946e-07
-1.19740932822e-08
1.18981599433e-07
-9.37420293776e-09
1.0288796957e-07
-7.06371168367e-09
8.79181104334e-08
-5.05333736473e-09
7.39646877658e-08
-3.3395374123e-09
6.08575987075e-08
-1.91488379404e-09
4.84554059053e-08
-7.97112471574e-10
3.683012289e-08
2.64231739409e-08
-3.47461850817e-08
3.17687337048e-07
-3.53253246958e-08
2.96991140557e-07
-3.54527938377e-08
2.81161435799e-07
-3.52181393236e-08
2.66313420979e-07
-3.45997805753e-08
2.5187175713e-07
-3.35051278234e-08
2.37378232163e-07
-3.1795752989e-08
2.22255526541e-07
-2.93773688467e-08
2.05922856015e-07
-2.63350682664e-08
1.88193104519e-07
-2.294148016e-08
1.69558664177e-07
-1.94874497573e-08
1.50883837727e-07
-1.61646056311e-08
1.32870070785e-07
-1.3075907102e-08
1.15892918346e-07
-1.02730274212e-08
1.00085115433e-07
-7.78027456562e-09
8.54253722694e-08
-5.60505445539e-09
7.17894275497e-08
-3.73991624146e-09
5.89925137304e-08
-2.17059235124e-09
4.68860535802e-08
-9.10777936779e-10
3.55702983889e-08
2.55123986896e-08
-4.3596576571e-08
3.20626749078e-07
-4.33468387869e-08
2.9674143799e-07
-4.26462205314e-08
2.80460819355e-07
-4.16138611125e-08
2.65281081823e-07
-4.02256437072e-08
2.50483535662e-07
-3.83734552779e-08
2.35526058307e-07
-3.59187116553e-08
2.19800778901e-07
-3.28057361061e-08
2.02809891465e-07
-2.91750784576e-08
1.84562443414e-07
-2.5312816801e-08
1.65696410632e-07
-2.14797113901e-08
1.470507316e-07
-1.7836308191e-08
1.29226671032e-07
-1.44668233518e-08
1.12523433344e-07
-1.14125857386e-08
9.70308808292e-08
-8.69214050666e-09