/*--------------------------------*- C++ -*----------------------------------*\
| =========                 |                                                 |
| \\      /  F ield         | OpenFOAM: The Open Source CFD Toolbox           |
|  \\    /   O peration     | Version:  2312                                  |
|   \\  /    A nd           | Website:  www.openfoam.com                      |
|    \\/     M anipulation  |                                                 |
\*---------------------------------------------------------------------------*/
FoamFile
{
    version     2.0;
    format      ascii;
    arch        "LSB;label=32;scalar=64";
    class       volScalarField;
    location    "0.435/water";
    object      alpha.gas_0;
}
// * * * * * * * * * * * * * * * * * * * * * * * * * * * * * * * * * * * * * //

dimensions      [0 0 0 0 0 0 0];

internalField   nonuniform List<scalar> 
1496
(
0.640942502105
0.635125361434
0.640942502105
0.663058135894
0.730184176075
0.731011435222
0.730184176075
0.727617180204
0.710280014322
0.68181219209
0.649837245349
0.622276387165
0.601353235105
0.582744026718
0.560250198674
0.527271312623
0.477762930649
0.410127382194
0.32994047976
0.266282871374
0.654392474036
0.640942502105
0.662001805515
0.724891575365
0.731011435222
0.730184176075
0.7304474729
0.725008428701
0.705643674721
0.678778535018
0.649314080905
0.621584349662
0.597502383304
0.574541454934
0.547132522947
0.508779075167
0.455292496102
0.387123777406
0.312019605985
0.255832241561
0.673282208438
0.670183985944
0.708462003624
0.730700898924
0.730184176075
0.730510886329
0.726681158015
0.704772549267
0.675588164113
0.646905428089
0.618168884508
0.589250385606
0.560346801833
0.529458248939
0.492367854688
0.445248565989
0.387126636232
0.322634832065
0.265762835088
0.235996160561
0.673078216078
0.659634030198
0.704198306475
0.730184176075
0.730467405468
0.729382381942
0.703256683732
0.653590999136
0.606914811463
0.568553068443
0.534371621041
0.501231441762
0.467111362144
0.429730782607
0.386919227662
0.338423060798
0.288627304552
0.248577088049
0.226563271008
0.216711991629
0.652352978549
0.620308366977
0.678751902882
0.721927455528
0.725941605947
0.71153047002
0.654985635782
0.578671251498
0.509563959933
0.453656424762
0.408454013185
0.370368504099
0.336075204034
0.303180484263
0.271662573058
0.244497914912
0.226841572225
0.218105490988
0.21004343483
0.20078941268
0.615749364334
0.592501879903
0.64259238466
0.693957582382
0.699048988173
0.666379363668
0.588762802173
0.49439359292
0.405256840662
0.333123761012
0.284513908174
0.255945424643
0.239346348981
0.22921692199
0.223605492962
0.220669428141
0.217697299537
0.210741428147
0.198887176689
0.198805331653
0.592908294106
0.591754266176
0.606486824458
0.645170263051
0.646487387621
0.603434804449
0.5164031823
0.414717092196
0.321343608145
0.256723827843
0.229391002723
0.224379218384
0.223767196999
0.223633853734
0.223266643814
0.222358658927
0.216614023591
0.201436722966
0.198805331653
0.201507192527
0.591670554024
0.592501879903
0.591489682314
0.599446240789
0.600567818768
0.557591395133
0.470668842128
0.374892165641
0.296364689046
0.248131696234
0.22954279028
0.228160251767
0.229784585186
0.233075659485
0.234157570679
0.229127362949
0.210821649173
0.197740342412
0.199565984489
0.272332486957
0.592501879903
0.589256287951
0.592501879903
0.591406639723
0.596365542224
0.558890972153
0.475451672205
0.383915134183
0.311869133155
0.270133526022
0.256803013307
0.258258437847
0.262564087587
0.264657196761
0.25630945122
0.232241394943
0.201558065679
0.197739705483
0.230121669415
0.401323891948
0.589739100532
0.592501879903
0.58997185265
0.621352366296
0.63271247475
0.603839916184
0.539146502533
0.46831717101
0.412770637493
0.374317277446
0.350948489295
0.339266581477
0.33005964494
0.311947241445
0.27824740318
0.234481187865
0.201277272059
0.203103834629
0.277069647159
0.462699447715
0.607200388033
0.635572500922
0.677921769311
0.715758309279
0.717282647428
0.703221093202
0.674985510927
0.641826568245
0.603501754099
0.552646638199
0.496379387827
0.447992763644
0.405632474512
0.358792336926
0.301998115619
0.24221745819
0.202088549852
0.210762119035
0.292037724172
0.459827193204
0.729952179482
0.764235437509
0.780602832645
0.787841856229
0.785587151812
0.782125802625
0.775245485141
0.760275476827
0.727877072168
0.671777564062
0.598116563516
0.522570535676
0.454393252739
0.38939882992
0.320201142984
0.250662605214
0.20435436029
0.211846181735
0.286536980803
0.433756300819
0.845532665767
0.827728147822
0.806725040048
0.802722569215
0.80329252691
0.80395217965
0.800931984364
0.78766112239
0.755464458797
0.701833668267
0.628505036126
0.546164315422
0.46876415925
0.396673551641
0.322964051686
0.250878082384
0.203664744706
0.210497790343
0.278420665784
0.418916349821
0.868854690832
0.823790420296
0.803863087136
0.800699000285
0.803302514729
0.804085697877
0.802362912473
0.788237892302
0.755494025385
0.702140050366
0.629158723579
0.546473566597
0.468068655838
0.394382219282
0.318802085307
0.24526732926
0.200063369165
0.207973822816
0.27934561412
0.425142150949
0.868927089224
0.801670795184
0.791013003969
0.791071334547
0.797400594823
0.801869156931
0.798695436763
0.781289555596
0.744929785236
0.689487935245
0.615974042297
0.534128055312
0.455347824989
0.379002618308
0.300456741022
0.226855439814
0.192714556221
0.206625913572
0.292053040228
0.455126471602
0.855361434564
0.772596780145
0.771767245344
0.775100374597
0.784891688323
0.791375469202
0.784826950239
0.757985686421
0.710416016776
0.647264312507
0.572181710311
0.493652229002
0.416900920855
0.339618258006
0.261720958583
0.196043438156
0.184288191196
0.211449169172
0.333657883381
0.523974152675
0.811875795715
0.75283521308
0.75499785167
0.760275786513
0.770397778761
0.773549348859
0.758355055503
0.71366010768
0.64706243147
0.572308527044
0.495929921828
0.422017618783
0.349195734172
0.275245802946
0.206189015161
0.170560111578
0.178994019857
0.237637153468
0.418134657181
0.624708642807
0.765034223238
0.73485626305
0.742347579685
0.748713956438
0.756117091456
0.749734782514
0.715364902036
0.645219323116
0.559495197575
0.475521412556
0.398581573961
0.328017696425
0.260398487612
0.199222857799
0.163448189415
0.163113438969
0.185261636061
0.30141854437
0.531075714402
0.70530071893
0.723028908484
0.717901764851
0.730729842296
0.737979509728
0.738020458465
0.711908064304
0.645946965954
0.551277365894
0.455097100034
0.368040181989
0.29149930057
0.22596764303
0.178581442702
0.159915780362
0.159043602474
0.163344445428
0.21227664968
0.40388639039
0.630160348653
0.735533265036
0.679180312636
0.702385341258
0.716852947684
0.725310448935
0.706064682842
0.643157036325
0.542725487166
0.435349571946
0.340466559646
0.257933886736
0.19364161795
0.163021182857
0.159103602978
0.158891408414
0.159103602978
0.168596332865
0.269132654437
0.512045273361
0.684160933575
0.740699205793
0.627070040435
0.685700665456
0.701809933078
0.709433343585
0.648851107179
0.535921675399
0.413190996826
0.308762116236
0.228140883256
0.174317648754
0.159155549617
0.159103602978
0.15874984361
0.159103602978
0.158632205752
0.18828050449
0.36726775329
0.595255637905
0.708957414894
0.740611052016
0.579010971468
0.663105256686
0.686191823548
0.686850148953
0.578323715334
0.417773771567
0.285910371913
0.202255982598
0.164139849982
0.159017092955
0.159103602978
0.158640061623
0.159103602978
0.158440946023
0.161819556955
0.262330021591
0.50056686051
0.656995243409
0.724591337472
0.740832491809
0.57114472091
0.621928538271
0.663219524643
0.659556263958
0.528328804267
0.342762098187
0.210125154607
0.162594844137
0.159022419585
0.159103602978
0.158603660456
0.159103602978
0.158384891323
0.16054575524
0.230151720461
0.442613357584
0.628965880766
0.708062384872
0.736398155014
0.740937377349
0.572311958481
0.572168905093
0.62613425395
0.632284183128
0.497301473433
0.308998753239
0.189117585783
0.160481992876
0.159103602978
0.158730423
0.159103602978
0.158384891323
0.171117043718
0.251453935895
0.44554297728
0.636527465736
0.716735597685
0.738364383509
0.740355893206
0.740216911333
0.559627539322
0.572311958481
0.583027912587
0.601846517548
0.454290364315
0.269531703653
0.177165618018
0.16017603472
0.158961820477
0.159103602978
0.161626782574
0.195899629313
0.301504667446
0.485698396943
0.658398706545
0.731383185986
0.739011662228
0.740274642213
0.739599429273
0.740355893206
0.57083782882
0.560296952167
0.572639926075
0.575247091881
0.398187274604
0.220564305312
0.165333280072
0.159267066479
0.159103602978
0.175070230448
0.232060903228
0.350798075589
0.516730296826
0.663372870157
0.731710097737
0.738440353215
0.739335943469
0.739011662228
0.740205762106
0.739599429273
0.557919901533
0.57083782882
0.56583608161
0.586049480247
0.375788193053
0.208147416847
0.165810920534
0.162015966788
0.183510859822
0.252275372821
0.362292904242
0.490587048045
0.609477505091
0.697677732689
0.737061594242
0.738647229738
0.738440353215
0.739335943469
0.739011662228
0.739595295825
0.570541814631
0.558246627795
0.645859260779
0.641387514125
0.46643685281
0.28130647324
0.204395705541
0.193707212059
0.228593915869
0.309585211007
0.40281823116
0.501430223639
0.600775273709
0.678047177088
0.719161053525
0.728828393301
0.729231464899
0.728250332922
0.726390662105
0.72260835167
0.61996405677
0.718234781846
0.76289636271
0.733853602781
0.675656095085
0.557673065508
0.393059306378
0.294774821377
0.280468275402
0.315143598797
0.378366299459
0.455250731675
0.530301549959
0.594368981774
0.639276016636
0.662442977638
0.669198346279
0.669664269027
0.66573284671
0.657283616398
0.810819600769
0.829084412999
0.817359799403
0.789298725353
0.765405890013
0.734553982593
0.66655444986
0.537603121664
0.402074527563
0.348174024424
0.358953590408
0.372294604399
0.406873653146
0.451542111985
0.49107061245
0.519828218188
0.536232453305
0.541045203157
0.536569664285
0.526094875414
0.851988597304
0.844726371281
0.829677964252
0.803595920189
0.781877337701
0.766726581781
0.748797777815
0.70725963683
0.601060340095
0.467628453648
0.38671882507
0.356573618427
0.338849025795
0.337528138328
0.341876153701
0.349667574572
0.361905753198
0.366045548268
0.362217472581
0.366022169828
0.850009015627
0.84565843888
0.831938204642
0.805868656706
0.784724264121
0.771403309568
0.758507582119
0.736062788653
0.680265693527
0.575174773886
0.461300017611
0.380262419384
0.333743271005
0.296859708652
0.260196793519
0.235873192948
0.234339942608
0.236668234627
0.26644019465
0.340524271606
0.851563358802
0.844873408074
0.831095797904
0.804181450831
0.783551227721
0.770828566652
0.758016503111
0.735428330564
0.685419172651
0.594618334241
0.484190751917
0.387960300282
0.321301909728
0.264774703213
0.213884939747
0.202285218692
0.203825494864
0.232956221767
0.325126984134
0.478585561918
0.850009015627
0.83945810584
0.824034781738
0.795225848474
0.775916894828
0.76404989693
0.750316633139
0.724734610635
0.672548545792
0.581210291332
0.465897819705
0.355691708031
0.268907923123
0.212839799932
0.197309556802
0.198248237518
0.231375831461
0.379371804432
0.607924994354
0.764395087241
0.850359567518
0.824329861646
0.804654572546
0.775276687501
0.75774255423
0.74533451838
0.728371807351
0.697010165669
0.637032851841
0.537946270895
0.409995401729
0.283785539485
0.20805317858
0.197226745069
0.197226745069
0.235882691784
0.439770276211
0.714228376804
0.854060826769
0.898628493251
0.847066601128
0.802665373292
0.776991422019
0.749347663988
0.732332853973
0.715802435015
0.690120416124
0.646801556833
0.574468651695
0.46694287419
0.334578574801
0.221759178736
0.197226745069
0.197226745069
0.242013141222
0.475369526858
0.763776366221
0.882621205168
0.909440165414
0.914999169477
0.838800978021
0.789874832276
0.759245246506
0.733293450111
0.714985129058
0.69292474485
0.654617839805
0.588256838948
0.488680891585
0.363020846053
0.243266464638
0.19730506422
0.197226745069
0.249815196251
0.501849760416
0.77645646979
0.883973942281
0.906718341294
0.912848680937
0.914976152236
0.390772435289
0.355251809506
0.24588563389
0.080738402507
0.0102564361257
0.00204779906441
0.00270850936313
0.0788894079772
0.27452872546
0.246315242496
0.111565238374
0.0251477790943
0.0444713130082
0.0624754890267
0.0535675150283
0.0206213728391
0.256965403198
0.268660193227
0.30693440999
0.333093519384
0.326180829115
0.29626839461
0.235330975432
0.113275343041
0.0227729350009
0.0124969723506
0.0567181558117
0.319073036753
0.306148932741
0.13367177533
0.0150172806694
0.0132123328832
0.0481580768091
0.0812965353615
0.0837589925126
0.0416020158869
0.245993771751
0.249855098534
0.261335494547
0.264234304273
0.259312228912
0.255014123457
0.233296814911
0.152436730448
0.0678198664428
0.114395179135
0.371973580034
0.375542110505
0.189612847677
0.0206681212942
0.0011939879033
0.00999674678133
0.046395640929
0.091227849353
0.107513937315
0.0681055713885
0.229781658529
0.226795989893
0.224478818761
0.224149292109
0.243907785654
0.287918800858
0.29921291813
0.280035156386
0.280582402966
0.415907322429
0.49811948249
0.319898758889
0.0692670454837
0.00350890241531
0.000303058729005
0.00501555008253
0.0360751693551
0.0924210447223
0.123430406277
0.0938619264024
0.209167170263
0.20809123681
0.209410033396
0.255733298063
0.385149787445
0.517659251062
0.548837504007
0.551336088125
0.573245028278
0.598338063607
0.497088458992
0.25276328861
0.0443031596067
0.00151733491031
5.37792145926e-05
0.0011926712962
0.0206031981396
0.0857693593626
0.135210862493
0.116994052614
0.200695626688
0.205125725968
0.29813478261
0.533784399015
0.709750042221
0.768283627961
0.76400955349
0.711450599764
0.675939090582
0.64283588679
0.505260606792
0.23896303182
0.0355237725254
0.000615331372893
8.89466807451e-06
0.000161354822645
0.00856544035238
0.0709538289187
0.144691391429
0.140215477324
0.203833009565
0.331170584518
0.615778350453
0.785490807758
0.806862403862
0.805221652849
0.807076231273
0.735195515062
0.681754799507
0.649600647028
0.49157743384
0.213362924332
0.0227192136271
0.000161967030425
2.75495454686e-06
1.92862274379e-05
0.00292711384846
0.0529233025354
0.151122900345
0.166207646794
0.315908500243
0.614159972764
0.788360888781
0.807057878725
0.805221652849
0.807730606311
0.805221652849
0.750813326331
0.679105242963
0.636438088907
0.452865025283
0.161992794651
0.00957173391574
2.08131721284e-05
1.04847784778e-06
3.3113536586e-06
0.000813715655753
0.0350565009959
0.152303333404
0.198138789025
0.52080456961
0.73144794171
0.80558172401
0.805221652849
0.807895470027
0.805221652849
0.807461031518
0.785556161844
0.691851726262
0.616855578065
0.389990195444
0.0893893123679
0.00204326731269
9.23910314349e-07
7.9984158883e-07
1.42006910357e-06
0.00017930468012
0.0192720208685
0.145612485247
0.234162408317
0.60336973283
0.72925647868
0.799141363693
0.807543689291
0.805221652849
0.808043479137
0.805221652849
0.806594028586
0.724241557863
0.602350326715
0.295281478041
0.0305830696983
0.000182442937121
7.98919658856e-07
7.99015848223e-07
1.21428181656e-06
3.13615892826e-05
0.00836981184915
0.128790036993
0.265426944558
0.59480833746
0.69554007409
0.781919552352
0.805221652849
0.807857168143
0.805221652849
0.807820431145
0.805221652849
0.754138233301
0.582371973439
0.181154472156
0.00751621660214
6.61717327488e-06
7.97865035957e-07
7.98919658856e-07
1.1831458411e-06
5.62390006337e-06
0.00285827051764
0.103299254228
0.278841556697
0.563954036665
0.663650321448
0.768857658263
0.806712963459
0.805221652849
0.807573320972
0.805221652849
0.806982016851
0.77126787356
0.526538632028
0.0938747564666
0.00150110347841
7.94891152955e-07
7.98191121467e-07
7.98319067402e-07
1.16359763368e-06
2.03521914613e-06
0.000889931350853
0.0788775827109
0.279445256576
0.54265331841
0.659368654414
0.768975337025
0.805221652849
0.806893583617
0.805221652849
0.807099589405
0.805221652849
0.777090395205
0.430513845403
0.0423146825526
0.00025965189823
7.98191121467e-07
7.95930020516e-07
7.98191121467e-07
1.11847784842e-06
1.4165337616e-06
0.000334909446555
0.0612964167729
0.269756610366
0.543039773754
0.668780779484
0.773254305476
0.805910162671
0.805221652849
0.807081632779
0.805221652849
0.806694441929
0.771068048571
0.315255158676
0.0169638384741
3.50725376653e-05
7.9444374127e-07
7.9728634922e-07
7.97194650219e-07
1.01740407324e-06
1.09137979304e-06
0.000109789096665
0.0459532063678
0.252066059317
0.558802625597
0.696017662494
0.779940268442
0.805221652849
0.806395891224
0.805221652849
0.807029764483
0.805221652849
0.72108998758
0.199029012092
0.00600541869913
2.41323230755e-06
7.97257505025e-07
7.94443742711e-07
7.9728634922e-07
9.19071263811e-07
9.25534481489e-07
1.96605405843e-05
0.0268524880296
0.247743116551
0.606161878948
0.727916098489
0.784619847717
0.805393697633
0.805221652849
0.806470002183
0.805221652849
0.805603951271
0.608195200221
0.109065877611
0.00181643940136
7.97257505289e-07
7.93358077116e-07
7.96490924721e-07
7.96008116751e-07
8.7971848928e-07
9.48327097433e-07
0.000138669212642
0.05161021204
0.205899120054
0.675528308327
0.751261020663
0.78584177473
0.804454959793
0.805688104995
0.805221652849
0.80581878907
0.792926589157
0.445289617004
0.0452089235565
0.00034055279465
7.93132997359e-07
7.96433804013e-07
7.9369295628e-07
7.96490924721e-07
9.36925669483e-07
3.59690238025e-06
0.00246332524368
0.0904535064169
0.157135502997
0.728177190431
0.764108242535
0.784434619942
0.79991625704
0.805221652849
0.805519250777
0.800013510688
0.709906132731
0.231709444398
0.0107857267152
2.05546760408e-05
7.96433804013e-07
7.93490658298e-07
7.95662189867e-07
8.02629958083e-07
1.08386921417e-06
2.65648925015e-06
0.0139047884068
0.12968725747
0.135720959036
0.751379025945
0.767638350048
0.779882589345
0.790578269163
0.796805317044
0.792176565156
0.752724736947
0.48975824836
0.0726424730611
0.00115690049226
7.965750224e-07
7.93311241575e-07
7.95723130907e-07
7.93965960317e-07
8.68162757393e-07
1.37646886712e-06
1.2358113086e-05
0.0217014935055
0.190128712992
0.146293631126
0.756514255961
0.765532839663
0.77109107408
0.773504849072
0.766932714937
0.731447442832
0.590567269794
0.192910876387
0.00924718898801
2.58884342114e-05
7.97609609785e-07
8.10562691409e-07
7.93758263049e-07
7.95774670765e-07
1.01112189599e-06
1.71143207942e-06
3.90139496016e-06
0.00684436623457
0.231581318558
0.201831521352
0.753689217689
0.757372105087
0.755623478699
0.741165993916
0.692984108983
0.571636121017
0.312013427819
0.031385151995
0.000269002884659
1.08942601332e-06
9.89690744948e-07
1.0623300867e-06
9.53095097483e-07
8.57127458923e-07
1.24300651801e-06
1.9749692253e-06
1.25951081838e-06
0.000369623406606
0.241648415912
0.225162918279
0.746370207269
0.743027679367
0.726106652487
0.667434964379
0.535969413101
0.318429725693
0.0740252903069
0.00121067346568
2.90057063238e-06
1.37717652317e-06
1.553215876e-06
1.7081524076e-06
1.55513620949e-06
1.36873388793e-06
1.98048682394e-06
2.6634376621e-06
1.2626192503e-06
0.000334744283469
0.374187411177
0.211237388835
0.741183972005
0.725936174628
0.668798464327
0.520052129476
0.294617034675
0.088778121645
0.00464335196922
1.07039097126e-05
2.93316581956e-06
3.040308429e-06
3.86316863297e-06
4.1902891737e-06
4.07445306484e-06
4.00614053562e-06
4.96882443858e-06
4.26424141729e-06
6.69917992289e-06
0.0117207356643
0.469618132672
0.124919165386
0.740857673501
0.71450856961
0.577724072921
0.301514783771
0.0842152244477
0.00780207540689
5.52557292632e-05
7.11468841476e-06
6.45235634975e-06
9.34420735916e-06
1.21150712887e-05
1.36575993927e-05
1.46997561177e-05
1.62984220992e-05
2.02235104866e-05
4.47060722869e-05
0.00240305449999
0.161255757263
0.469533184089
0.114247731942
0.740755648962
0.717445977482
0.458551323585
0.0971629327695
0.00833655743979
0.000147563092453
1.36108404292e-05
1.09700918205e-05
1.62477055662e-05
2.50497891781e-05
3.31326912254e-05
3.97248618504e-05
5.06020536766e-05
9.92178752866e-05
0.000839764173285
0.0263477333436
0.251330887487
0.520154644914
0.364373047371
0.114189807584
0.740216911333
0.726183822933
0.436342416761
0.0396106338988
0.000285326491171
2.46798743017e-05
1.75198454471e-05
2.15274772299e-05
3.45727656911e-05
5.21803785239e-05
7.0495001858e-05
0.000116803609277
0.000782108138221
0.0264411560686
0.253789598856
0.53653290841
0.63519129073
0.621043453932
0.273109079808
0.114207647906
0.740092583782
0.729483629237
0.47246559743
0.0596586835672
0.000529217462645
3.26082143731e-05
3.57199466598e-05
4.88847080584e-05
7.11231542829e-05
0.000101854912852
0.00031874965423
0.0136264018689
0.227096485784
0.531842622068
0.633244861828
0.637729055331
0.64027757958
0.63812541797
0.33110473672
0.114149978305
0.736906809123
0.721479145594
0.529199226407
0.120067013869
0.00427651365911
0.000107344867976
0.000118426982465
0.000142175095513
0.000178302450709
0.00113098367616
0.0762083607255
0.421338432969
0.537163265888
0.538218322772
0.589545711713
0.638570171702
0.63812541797
0.641084464728
0.437911024847
0.11418344443
0.712756420485
0.685027555709
0.528713585663
0.199774243888
0.0234544491615
0.00119075428036
0.000611740422608
0.000625138006318
0.00285733401841
0.137775629596
0.514273137376
0.515757309189
0.477030385868
0.450881848137
0.491757681262
0.617186073395
0.640157152286
0.638333393558
0.524105033446
0.114141955796
0.639303397528
0.600430539958
0.48965300825
0.257108059421
0.0650689054602
0.00813829324573
0.00435531877965
0.00963584828832
0.170482440418
0.548003776924
0.557756133876
0.503513870354
0.435300924392
0.403129434367
0.419748359307
0.554977946855
0.638333393558
0.641265812839
0.590399603113
0.114165557513
0.511156307645
0.482541587032
0.419339302309
0.281941063598
0.11740327853
0.0402551918174
0.0546325355636
0.234705632516
0.545159728287
0.591453779985
0.557899146018
0.509688991402
0.445908949859
0.387497088186
0.37513389597
0.476502693778
0.620648131899
0.638684290208
0.635212579547
0.114124123634
0.397782554914
0.429707768376
0.406550169552
0.324371784154
0.229911596343
0.244055491861
0.413775501116
0.590137191451
0.618981232096
0.59131180241
0.562585241922
0.530523140953
0.476216584331
0.395740338174
0.350561135434
0.387813419704
0.570386944401
0.641231500698
0.638726186842
0.114160026198
0.421277131309
0.478509682481
0.480611769402
0.492973644532
0.546659311977
0.646585520102
0.716593404012
0.697641589869
0.645125511944
0.605254273575
0.576322616025
0.541511042761
0.496819146003
0.423436381193
0.339123760036
0.319852009668
0.504150962893
0.638905862302
0.640705836771
0.114119833985
0.608732078085
0.672203583123
0.702401974956
0.755405321883
0.80027033356
0.807359209488
0.774402681962
0.719096517665
0.667558967833
0.626814936448
0.587887959461
0.544618869832
0.498248738109
0.435846650754
0.344429673965
0.284475802199
0.421060740189
0.64025819289
0.639301416709
0.127257826503
0.834114246671
0.857661644971
0.86860733788
0.874744824286
0.861555752663
0.82615271927
0.776360810461
0.720956115728
0.673787814327
0.632541890825
0.589379347221
0.539342706528
0.486073949473
0.426388586129
0.340936966175
0.260905176881
0.34607041471
0.639199433806
0.640308305441
0.177607111308
0.910014426729
0.911189271774
0.907298979408
0.8916283508
0.86440036282
0.825072485457
0.773935636811
0.718632408742
0.671670481347
0.629006484535
0.582435587311
0.526148546769
0.464926713656
0.40190346734
0.321951024605
0.23653795309
0.278038964251
0.587956938334
0.639199433806
0.201865799707
0.915069630771
0.912869713727
0.904824626334
0.886567047963
0.857954998906
0.815635549418
0.761136063232
0.705044414844
0.656505800352
0.610640884575
0.559914692645
0.498869026786
0.430498512307
0.363610047407
0.286861690298
0.200410094852
0.223366921454
0.535303832954
0.639594651864
0.213405116809
0.914024970216
0.909362958345
0.897516631934
0.877281372001
0.847020885925
0.800963424981
0.740758797295
0.679140832153
0.624096978683
0.570592360186
0.512204122765
0.444436847205
0.369628548292
0.300516328307
0.233203423651
0.160462214898
0.199490535976
0.556638787289
0.632548894145
0.407044774234
)
;

boundaryField
{
    emptyPatch
    {
        type            empty;
    }
    minY
    {
        type            fixedValue;
        value           nonuniform List<scalar> 0();
    }
    maxY
    {
        type            inletOutlet;
        phi             phi.gas;
        inletValue      uniform 1;
        value           nonuniform List<scalar> 
40
(
0.838800978021
0.789874832276
0.759245246506
0.733293450111
0.714985129058
0.69292474485
0.654617839805
0.588256838948
0.488680891585
0.363020846053
0.243266464638
0.19730506422
0.197226745069
0.249815196251
0.501849760416
0.77645646979
0.883973942281
0.906718341294
0.912848680937
0.914976152236
0.914024970216
0.909362958345
0.897516631934
0.877281372001
0.847020885925
0.800963424981
0.740758797295
0.679140832153
0.624096978683
0.570592360186
0.512204122765
0.444436847205
0.369628548292
0.300516328307
0.233203423651
0.160462214898
0.199490535976
0.556638787289
0.632548894145
1
)
;
    }
    water_to_cooler
    {
        type            zeroGradient;
    }
    water_to_heater
    {
        type            zeroGradient;
    }
    procBoundary0to1
    {
        type            processor;
        value           nonuniform List<scalar> 
41
(
0.635370277563
0.640942502105
0.634167486785
0.640942502105
0.687107606123
0.726452350433
0.724276258181
0.70714784289
0.673557761666
0.622240222046
0.571122398416
0.546409996027
0.547307655498
0.557031549263
0.553426107823
0.526340934842
0.477971242654
0.410051540782
0.328583737648
0.267239257071
0.433199255259
0.391030165407
0.238436939881
0.0492463797447
0.00355422068444
0.00139123648639
0.00139991911176
0.00229581529916
0.105056306359
0.237251294006
0.214716800649
0.104760744628
0.0468380906432
0.0434469496478
0.0278002268794
0.0085484493138
0.265015330561
0.2910607199
0.35832687435
0.397140281491
0.397140281491
)
;
    }
}


// ************************************************************************* //
