/*--------------------------------*- C++ -*----------------------------------*\
| =========                 |                                                 |
| \\      /  F ield         | OpenFOAM: The Open Source CFD Toolbox           |
|  \\    /   O peration     | Version:  2312                                  |
|   \\  /    A nd           | Website:  www.openfoam.com                      |
|    \\/     M anipulation  |                                                 |
\*---------------------------------------------------------------------------*/
FoamFile
{
    version     2.0;
    format      ascii;
    arch        "LSB;label=32;scalar=64";
    class       volScalarField;
    location    "0.725/heater";
    object      T;
}
// * * * * * * * * * * * * * * * * * * * * * * * * * * * * * * * * * * * * * //

dimensions      [0 0 0 1 0 0 0];

internalField   nonuniform List<scalar> 
150
(
790.264829102
790.129813673
789.85928615
789.452231849
788.907320095
790.311332382
790.177343874
789.908614286
789.503548004
788.959985409
790.37793095
790.245850576
789.980539882
789.579365492
789.038502658
790.464372414
790.334991442
790.074575665
789.679035579
789.142058096
790.571044265
790.44507415
790.190907246
789.802666535
789.270786943
790.697816889
790.576015115
790.329578294
789.950557658
789.425312289
790.841442837
790.724626549
790.487633644
790.120281685
789.603878489
790.992456269
790.880214586
790.652054346
790.296039973
789.788734374
791.147649942
791.039744711
790.820164343
790.475835455
789.979037313
791.305535698
791.201854729
790.990865579
790.65924587
790.176275277
791.463241029
791.363883477
791.161948849
790.845326229
790.387379433
791.611646925
791.515794352
791.321153462
791.01628528
790.583785883
791.746073008
791.653211117
791.464877257
791.169484563
790.750353348
791.862594598
791.772186734
791.589210426
791.302042743
790.89135955
791.956681851
791.868143948
791.689593133
791.409696379
791.005058641
792.02200251
791.934263599
791.758003557
791.482515539
791.07956237
792.055795799
791.967777667
791.791654334
791.518037986
791.111376735
792.057368851
791.967626036
791.788374353
791.512795547
791.098726253
792.028129382
791.93525509
791.74930046
791.46722895
791.055299053
791.971121744
791.87486074
791.680898316
791.388151026
790.977083594
791.885441331
791.784968026
791.580540708
791.26936765
790.846366152
791.774746792
791.669046937
791.452403144
791.117014759
790.664099894
791.654145254
791.542376409
791.313418383
790.956175402
790.465071974
791.55131429
791.434287655
791.195431666
790.824800718
790.314689967
791.484607727
791.363986523
791.118244067
790.739060192
790.220839071
791.463138824
791.341061578
791.092503122
790.709953634
790.189368431
791.487255541
791.365034791
791.116222729
790.733448812
790.212598363
791.548010681
791.426620077
791.179587972
790.799304541
790.280169674
791.627748175
791.508862037
791.267577141
790.895946471
790.38373632
791.710667911
791.594871989
791.360737863
791.000158096
790.496315888
)
;

boundaryField
{
    emptyPatch
    {
        type            empty;
    }
    minY
    {
        type            zeroGradient;
    }
    maxY
    {
        type            zeroGradient;
    }
    minX
    {
        type            zeroGradient;
    }
    heater_to_water
    {
        type            compressible::turbulentTemperatureTwoPhaseRadCoupledMixed;
        refValue        nonuniform List<scalar> 
60
(
326.760897801
327.911059485
327.91059767
328.929950404
329.1065808
329.268118022
329.267105241
329.247535849
329.246260658
329.2655773
329.264031793
329.03145314
327.963316023
326.592048471
326.590333792
325.377123213
325.37542764
324.036242623
324.034564866
323.500860009
327.54445766
353.748185127
353.74511905
401.924275118
401.920993735
406.819181415
406.816117206
418.508302953
413.943559667
423.080191379
423.078511767
417.723004413
417.722308806
417.856843059
417.85720825
362.832680152
329.394566292
318.997717686
318.99835931
319.151603214
319.152616708
330.104004388
330.10603146
360.269281996
367.838716527
367.741615006
367.744648954
359.860607846
359.862392977
358.150225844
358.150862081
357.74910419
357.218212468
356.266158071
356.2650761
354.624423438
354.622769178
352.787089191
352.785334023
346.84075722
)
;
        refGradient     uniform 0;
        valueFraction   nonuniform List<scalar> 
60
(
0.00073983757781
0.00074173227102
0.000741744814063
0.000743342311807
0.000743269063377
0.000743410130286
0.000743436388707
0.000743274690824
0.000743307763176
0.000743335009893
0.000743375059105
0.000743155411384
0.000741642909944
0.000739235812102
0.000739284487496
0.000736877891395
0.000736928207079
0.000733426533977
0.000733478909347
0.000732255737479
0.000742694175424
0.000729049431557
0.000729091448178
0.000666124894081
0.000666146452138
0.000672699828178
0.000672719221867
0.00066151957612
0.000672726360591
0.00066243809112
0.000662447167784
0.000672725208254
0.000672729199921
0.000668628469686
0.000668626389338
0.000730048410699
0.000734469597114
0.000699767086459
0.000699742710589
0.00070844871181
0.000708409950645
0.000743371254754
0.000743320020721
0.00072517124893
0.000723871720217
0.000724328793792
0.000724296008318
0.000732486708427
0.000732464608659
0.000732813454954
0.000732805342835
0.000732736736553
0.000733164301288
0.000733125349872
0.000733139611894
0.000733488647393
0.000733511126534
0.000734453301323
0.000734478023274
0.000741018838782
)
;
        source          uniform 0;
        value           nonuniform List<scalar> 
60
(
788.566841406
788.566818889
788.619450019
788.619471219
788.698121141
788.698176348
788.801682789
788.801742605
788.930413859
788.930415684
789.084880676
789.084808908
789.263254178
789.263351706
789.448142208
789.448362956
789.638602144
789.639246847
789.836449478
789.836628844
790.045921167
790.071340384
790.266940756
790.32654042
790.492371635
790.493118494
790.6339048
790.645940927
790.75245048
790.762382254
790.836749006
790.829363881
790.861189839
790.862810964
790.851121872
790.788025934
790.718978929
790.727724439
790.649481533
790.645481028
790.514902346
790.50655217
790.323676949
790.35390907
790.16037359
790.160110084
790.009729171
790.000493062
789.906765061
789.905360232
789.873912166
789.873647424
789.896305893
789.895624784
789.963186239
789.961831351
790.065439989
790.063681203
790.176399467
790.169131427
)
;
        kappaMethod     solidThermo;
        Tnbr            T.liquid;
        region          solid;
        otherPhase      gas;
    }
    procBoundary3to0
    {
        type            processor;
        value           nonuniform List<scalar> 5(791.788095024 791.675564474 791.44846172 791.098310062 790.601546538);
    }
    procBoundary3to2
    {
        type            processor;
        value           nonuniform List<scalar> 5(790.233573314 790.097960745 789.826412496 789.418272829 788.872724336);
    }
}


// ************************************************************************* //
