/*--------------------------------*- C++ -*----------------------------------*\
| =========                 |                                                 |
| \\      /  F ield         | OpenFOAM: The Open Source CFD Toolbox           |
|  \\    /   O peration     | Version:  2312                                  |
|   \\  /    A nd           | Website:  www.openfoam.com                      |
|    \\/     M anipulation  |                                                 |
\*---------------------------------------------------------------------------*/
FoamFile
{
    version     2.0;
    format      ascii;
    arch        "LSB;label=32;scalar=64";
    class       volScalarField;
    location    "0.065/water";
    object      nut.gas;
}
// * * * * * * * * * * * * * * * * * * * * * * * * * * * * * * * * * * * * * //

dimensions      [0 2 -1 0 0 0 0];

internalField   nonuniform List<scalar> 
1504
(
3.91449325968e-06
3.40988723227e-06
2.78728539457e-06
2.27533466033e-06
1.90357709233e-06
1.60930817287e-06
1.38210280391e-06
1.22788526275e-06
1.08625284592e-06
8.66661285796e-07
6.12154701525e-07
3.90531312054e-07
2.23112281044e-07
1.09967342416e-07
4.37465264873e-08
1.32325913327e-08
2.69254231415e-09
3.47958201684e-10
6.48307317825e-11
4.32581425663e-11
4.09333281403e-06
3.52081411041e-06
2.84319466818e-06
2.30198319681e-06
1.91040517779e-06
1.59695897466e-06
1.35447818619e-06
1.19488684173e-06
1.06668891256e-06
8.66289138516e-07
6.15204928154e-07
3.87178701332e-07
2.16382907135e-07
1.03841976045e-07
4.03841582975e-08
1.20137375735e-08
2.44041989567e-09
3.17174009881e-10
6.23022653748e-11
4.32863332886e-11
4.30359391569e-06
3.68437663238e-06
2.93529187399e-06
2.33232408643e-06
1.90003144974e-06
1.56710589447e-06
1.31667193693e-06
1.15748623554e-06
1.04274019775e-06
8.60595370261e-07
6.08383004704e-07
3.70996037851e-07
1.99251844977e-07
9.18560841617e-08
3.44965882997e-08
9.9202936039e-09
1.94418232318e-09
2.52286444724e-10
5.54243956464e-11
4.29062069379e-11
4.48021038025e-06
3.85005987982e-06
3.04970361633e-06
2.37370267684e-06
1.88611523799e-06
1.53174047006e-06
1.27778480463e-06
1.12237407086e-06
1.01863366809e-06
8.50575730766e-07
5.910958638e-07
3.43986039348e-07
1.74989119701e-07
7.67429007396e-08
2.74949027993e-08
7.50927470197e-09
1.37421143511e-09
1.78623059712e-10
4.71643835206e-11
4.23628883018e-11
4.63256522385e-06
3.98926349881e-06
3.14999580607e-06
2.4132425174e-06
1.87707881797e-06
1.50330560715e-06
1.24695626422e-06
1.0963612404e-06
1.00015858806e-06
8.39127986069e-07
5.68396527543e-07
3.1213250576e-07
1.49264514832e-07
6.18470357134e-08
2.08817206319e-08
5.29697244915e-09
8.85811066136e-10
1.23681516707e-10
4.07702087049e-11
4.23769140061e-11
4.76875800548e-06
4.10523073357e-06
3.22705140882e-06
2.44236987452e-06
1.87207697754e-06
1.48406670494e-06
1.22764017895e-06
1.08358125191e-06
9.92304523514e-07
8.32148151457e-07
5.49755106523e-07
2.84692441478e-07
1.28034933032e-07
4.97630602016e-08
1.5601313262e-08
3.58952323495e-09
5.52111086382e-10
9.37481299537e-11
3.69584341602e-11
4.35432464107e-11
4.89838158043e-06
4.20433161209e-06
3.28694213981e-06
2.46402725361e-06
1.86887657023e-06
1.47139180444e-06
1.22033161525e-06
1.08638361363e-06
9.98501743698e-07
8.34530798988e-07
5.42559907979e-07
2.7007430459e-07
1.15664464232e-07
4.20937736543e-08
1.20355547108e-08
2.50747125211e-09
3.94808242862e-10
7.79211840367e-11
3.56788979565e-11
4.67761514985e-11
4.98713459481e-06
4.26958896803e-06
3.32260574311e-06
2.47292715383e-06
1.85999014715e-06
1.46076799934e-06
1.22497772682e-06
1.10780908767e-06
1.0213188115e-06
8.46095409322e-07
5.46501572046e-07
2.69940605308e-07
1.1389304603e-07
3.96119599123e-08
1.04173744296e-08
2.0264197386e-09
3.89042558521e-10
7.3732748455e-11
3.75208926871e-11
5.32224390751e-11
5.03606481479e-06
4.28720177944e-06
3.31655902251e-06
2.45262899394e-06
1.83518316644e-06
1.45022590147e-06
1.24458056161e-06
1.15027451453e-06
1.05991719082e-06
8.62786084733e-07
5.53060395354e-07
2.79541001886e-07
1.22141529543e-07
4.32013973961e-08
1.10869450092e-08
2.15693429752e-09
4.48276912376e-10
8.54193653994e-11
4.32387020999e-11
6.28726480827e-11
5.01613491741e-06
4.23265671556e-06
3.24466419475e-06
2.38560674577e-06
1.79053582888e-06
1.44731499343e-06
1.28935050792e-06
1.21664789572e-06
1.10839484454e-06
8.76719726687e-07
5.55882716807e-07
2.92951961609e-07
1.38587295303e-07
5.36599069658e-08
1.47976301663e-08
3.55844171199e-09
6.56421176121e-10
1.22778294345e-10
5.39835970818e-11
7.37016563474e-11
4.91667069119e-06
4.07193310712e-06
3.08208165415e-06
2.26847358223e-06
1.74240651453e-06
1.47619275588e-06
1.37582570971e-06
1.30773592236e-06
1.15750071227e-06
8.81757284048e-07
5.5706727727e-07
3.1272733301e-07
1.62917025496e-07
7.08632175627e-08
2.22063956013e-08
6.57351304164e-09
1.17345240992e-09
2.09493799265e-10
7.2390488533e-11
8.28966697385e-11
4.63430290718e-06
3.7773310579e-06
2.87091182504e-06
2.16971746857e-06
1.75530240716e-06
1.58321325907e-06
1.52121760713e-06
1.41495728787e-06
1.19391481671e-06
8.81249644657e-07
5.69678812558e-07
3.44742872015e-07
1.95932533205e-07
9.58959243935e-08
3.51833202555e-08
1.20037815465e-08
2.27668808504e-09
3.92082088561e-10
1.03397649407e-10
8.88019316731e-11
4.29133094233e-06
3.54677118167e-06
2.79384398827e-06
2.2260640943e-06
1.91580493288e-06
1.80700128871e-06
1.71876608028e-06
1.51338766763e-06
1.21072025657e-06
8.87257113973e-07
6.00520668877e-07
3.88074186963e-07
2.40486378759e-07
1.31189924335e-07
5.52784522251e-08
2.21327242861e-08
4.63362241304e-09
7.90230690636e-10
1.62791638644e-10
9.50806089681e-11
4.23228316344e-06
3.67636338594e-06
3.03232777877e-06
2.51295948204e-06
2.23665272134e-06
2.11674098239e-06
1.92235259663e-06
1.59534937357e-06
1.23348118719e-06
9.09815658902e-07
6.4140740414e-07
4.43413207629e-07
2.97540735847e-07
1.78035311739e-07
8.43466309716e-08
3.61952133784e-08
9.4618543062e-09
1.64526572049e-09
2.76704221507e-10
1.03338892062e-10
4.61945966159e-06
4.13279423397e-06
3.4525209029e-06
2.86285072069e-06
2.56432105932e-06
2.410596718e-06
2.12972245938e-06
1.72050530924e-06
1.31465238836e-06
9.83906436378e-07
7.26011864934e-07
5.27387834687e-07
3.69260373535e-07
2.33686565263e-07
1.22069908228e-07
4.8106745167e-08
1.68817682455e-08
3.41095993287e-09
5.0263112077e-10
1.1828851562e-10
5.11341472803e-06
4.46127960168e-06
3.6281345177e-06
2.98816381356e-06
2.70238347382e-06
2.58300997159e-06
2.320144362e-06
1.91311613044e-06
1.50499278966e-06
1.16740203354e-06
8.91897357335e-07
6.58493258181e-07
4.67609805439e-07
3.05984368065e-07
1.68610969673e-07
7.25646066807e-08
2.32675177125e-08
6.41670796679e-09
1.0036834324e-09
1.61391478203e-10
4.89694734832e-06
4.20782498584e-06
3.46692078086e-06
2.92317461318e-06
2.67890755052e-06
2.596119462e-06
2.42952675869e-06
2.12236636843e-06
1.76698550278e-06
1.42939999306e-06
1.11421936499e-06
8.1894523134e-07
5.83496051179e-07
3.95249785645e-07
2.29762813386e-07
1.04142496858e-07
3.60914222446e-08
9.19624174924e-09
2.012016512e-09
2.72336398344e-10
4.5778753352e-06
4.06056002275e-06
3.38832473681e-06
2.88415968718e-06
2.64758510899e-06
2.56664914282e-06
2.45646196262e-06
2.24444299999e-06
1.96480412914e-06
1.65745944888e-06
1.32691495464e-06
9.57469544878e-07
6.79600345663e-07
4.73827990065e-07
2.92577489862e-07
1.4190704107e-07
5.22898130337e-08
1.47468493676e-08
2.91438992524e-09
5.17182767717e-10
4.28016752051e-06
3.87159710688e-06
3.27904138344e-06
2.82513105786e-06
2.60566881127e-06
2.52734009607e-06
2.44535077067e-06
2.28792482542e-06
2.0549316517e-06
1.7614351388e-06
1.41631323705e-06
1.02951090672e-06
7.34814818129e-07
5.23435413918e-07
3.39208529062e-07
1.75508815625e-07
6.85544352247e-08
2.04688440894e-08
4.66607885315e-09
8.92865644632e-10
4.07996412832e-06
3.69626781216e-06
3.15167495036e-06
2.74575380034e-06
2.54905055306e-06
2.47318400329e-06
2.40091182591e-06
2.2667300643e-06
2.05463859349e-06
1.76668925706e-06
1.41515080918e-06
1.03384261623e-06
7.50500631613e-07
5.45535784141e-07
3.62888510556e-07
1.94485661626e-07
7.87113527393e-08
2.44001475713e-08
5.9771729421e-09
1.12509091233e-09
3.93556136878e-06
3.55593307651e-06
3.04128007647e-06
2.67186799422e-06
2.49044437544e-06
2.41118470272e-06
2.33303268613e-06
2.19714869963e-06
1.98249127262e-06
1.68700283482e-06
1.33205081716e-06
9.90820743191e-07
7.37650673609e-07
5.45800252475e-07
3.659757727e-07
1.975571942e-07
8.08048912476e-08
2.55159597126e-08
6.45377217652e-09
1.22802122719e-09
3.83643638774e-06
3.45621886115e-06
2.96676032747e-06
2.61622720845e-06
2.43882208463e-06
2.34665050524e-06
2.24578924264e-06
2.08690907269e-06
1.85192781476e-06
1.54449718329e-06
1.21075174659e-06
9.25320798627e-07
7.08811921562e-07
5.30143509903e-07
3.52391085205e-07
1.87262192555e-07
7.5819438897e-08
2.4024171781e-08
6.13170398965e-09
1.18166383067e-09
3.79822854377e-06
3.41994254815e-06
2.93710021705e-06
2.59648797462e-06
2.40808265491e-06
2.27982267355e-06
2.13364586875e-06
1.93440377542e-06
1.67214341613e-06
1.36925417229e-06
1.08988350306e-06
8.58620865526e-07
6.73182989061e-07
5.02597387154e-07
3.25743350685e-07
1.67470439837e-07
6.62070229591e-08
2.08399849536e-08
5.26380420467e-09
1.00537254724e-09
3.81491898225e-06
3.4277360592e-06
2.96429962751e-06
2.62656640137e-06
2.39771247641e-06
2.19902667909e-06
1.99163787046e-06
1.75418944162e-06
1.48169267828e-06
1.21674251413e-06
9.9024699934e-07
8.00909805933e-07
6.3442811358e-07
4.65454390289e-07
2.9010589755e-07
1.42755127137e-07
5.47685158888e-08
1.69683663437e-08
4.14218854349e-09
8.05525401338e-10
3.88665689307e-06
3.48793484605e-06
3.02458284944e-06
2.68751305994e-06
2.38625633244e-06
2.09747199728e-06
1.84949898688e-06
1.58090115356e-06
1.32685005241e-06
1.10420305333e-06
9.16395007409e-07
7.52149483754e-07
5.92543297155e-07
4.21527409088e-07
2.50391571117e-07
1.17464661598e-07
4.36485818285e-08
1.31052020929e-08
3.00489426706e-09
6.14145503207e-10
3.99030237269e-06
3.57924347828e-06
3.10721757156e-06
2.75745476174e-06
2.36184444961e-06
2.01497411052e-06
1.71566979646e-06
1.44839956573e-06
1.2193357111e-06
1.02658986204e-06
8.62161670929e-07
7.08857455211e-07
5.4832165462e-07
3.75035650846e-07
2.11543378089e-07
9.46695376879e-08
3.39068058947e-08
9.62105688824e-09
2.0092834992e-09
4.12663371658e-10
4.11223726455e-06
3.69076137067e-06
3.20029675112e-06
2.81995502441e-06
2.34174113888e-06
1.94101788098e-06
1.61260581773e-06
1.35421311679e-06
1.14495951234e-06
9.72334414016e-07
8.20644586672e-07
6.69388395848e-07
5.04622134407e-07
3.30613484186e-07
1.77188224443e-07
7.56280852935e-08
2.57088788648e-08
6.68824466717e-09
1.2771845565e-09
2.53564624744e-10
4.22043115675e-06
3.7854257302e-06
3.27200202413e-06
2.85879713237e-06
2.33476356585e-06
1.88433687965e-06
1.53661503776e-06
1.28422851119e-06
1.09074547527e-06
9.33242508213e-07
7.88087529496e-07
6.346362366e-07
4.6480453789e-07
2.91586049327e-07
1.48573987438e-07
6.00700694633e-08
1.89100415896e-08
4.37737799057e-09
8.12446667967e-10
1.53586671322e-10
4.31100684361e-06
3.86210128053e-06
3.31708015184e-06
2.86912813807e-06
2.32254370924e-06
1.84277710375e-06
1.48231142187e-06
1.23154650749e-06
1.05023248475e-06
9.04679149002e-07
7.63018368876e-07
6.05611356263e-07
4.30586280669e-07
2.58619695566e-07
1.24803825479e-07
4.70690879795e-08
1.33738470029e-08
2.68594805987e-09
4.78319932553e-10
9.79848054868e-11
4.38257333253e-06
3.91523858871e-06
3.33124074028e-06
2.84894235819e-06
2.29633738967e-06
1.81111496177e-06
1.44474962363e-06
1.19274038526e-06
1.01978998799e-06
8.83538835464e-07
7.43818569283e-07
5.81560754643e-07
4.01170197074e-07
2.29961999037e-07
1.04095290024e-07
3.59275042821e-08
9.01395764477e-09
1.58089189779e-09
2.62517957839e-10
6.89510166486e-11
4.45528384833e-06
3.95341499361e-06
3.31937794206e-06
2.80073036548e-06
2.25599029225e-06
1.78282897083e-06
1.41701470131e-06
1.1639804248e-06
9.96784366775e-07
8.67451313679e-07
7.2832054041e-07
5.60368417279e-07
3.74001773348e-07
2.03034933937e-07
8.50321835901e-08
2.63850115455e-08
5.74474136962e-09
9.3025095727e-10
1.43599531231e-10
5.4332008745e-11
4.52277458896e-06
3.9811005859e-06
3.29489730663e-06
2.73581488214e-06
2.20769810457e-06
1.75165477379e-06
1.39223288896e-06
1.14159852988e-06
9.79589667436e-07
8.550692842e-07
7.14590886697e-07
5.39509708742e-07
3.46324309222e-07
1.76054344175e-07
6.72040351376e-08
1.84774505708e-08
3.44638879599e-09
5.23858288335e-10
8.39310208502e-11
4.73301038139e-11
4.56758931835e-06
3.98945100563e-06
3.26128234765e-06
2.66475782867e-06
2.15321078266e-06
1.71533618993e-06
1.36789970478e-06
1.12415223488e-06
9.68069148221e-07
8.46239548533e-07
7.01450584256e-07
5.17109082218e-07
3.16650131485e-07
1.48886953988e-07
5.11072327814e-08
1.23070295248e-08
1.9770729685e-09
2.80520874609e-10
5.52968628541e-11
4.44394804587e-11
4.58692935529e-06
3.97457343762e-06
3.21846680529e-06
2.5949430873e-06
2.09597898021e-06
1.67824828955e-06
1.34636194443e-06
1.1130105394e-06
9.63598930172e-07
8.41580381352e-07
6.88447978992e-07
4.92619151411e-07
2.85520619629e-07
1.22956784174e-07
3.75817014128e-08
7.86452645522e-09
1.15425039752e-09
1.52217311923e-10
4.18755500502e-11
4.39133359702e-11
4.58828463672e-06
3.9403248388e-06
3.16628135809e-06
2.52998347769e-06
2.04387019966e-06
1.64668484042e-06
1.33202841631e-06
1.1111980863e-06
9.68090415606e-07
8.41482665405e-07
6.75289858417e-07
4.67012803947e-07
2.55486602148e-07
1.00477297671e-07
2.72583277119e-08
4.95371982531e-09
7.02959123851e-10
9.13909432741e-11
3.58823526092e-11
4.49134564595e-11
4.60048384749e-06
3.91930435252e-06
3.12597515428e-06
2.47860069115e-06
2.0033786039e-06
1.62585779007e-06
1.32890096654e-06
1.12135157583e-06
9.82127037746e-07
8.44892644425e-07
6.62291066502e-07
4.43178114382e-07
2.30452637692e-07
8.3527743996e-08
2.02812391247e-08
3.24637644038e-09
4.50719163306e-10
6.47143386104e-11
3.36895512429e-11
4.70157194621e-11
4.62656715967e-06
3.93036549962e-06
3.11778974346e-06
2.45486240335e-06
1.98316603818e-06
1.62113195272e-06
1.34015318836e-06
1.14399388915e-06
1.00351533069e-06
8.50488430513e-07
6.51493729087e-07
4.24981637961e-07
2.13942792495e-07
7.33759961822e-08
1.63536844795e-08
2.46103775207e-09
3.28382500898e-10
5.45023089016e-11
3.36084708635e-11
4.98305443139e-11
4.66202522518e-06
3.95275130426e-06
3.12483916502e-06
2.45253266416e-06
1.98423512535e-06
1.63536831729e-06
1.36714956433e-06
1.66384364764e-09
2.96080012469e-09
4.2120972818e-09
5.76550521963e-09
7.50135860276e-09
9.26782850353e-09
1.64248021001e-08
3.42263690101e-08
4.3626034576e-08
4.51877187855e-08
4.52897516363e-08
3.95702949929e-08
3.97632209823e-07
1.70609573064e-06
2.76168620434e-06
3.4602773035e-06
4.07873517331e-06
7.19877575459e-11
1.81282938416e-10
5.73972834882e-10
1.61951213083e-09
2.94132046852e-09
4.1803494711e-09
5.63376896438e-09
7.20199853718e-09
9.15957886706e-09
1.69066556648e-08
3.49358672617e-08
4.38066516557e-08
4.52123434242e-08
4.52877745171e-08
4.02145792902e-08
4.24648841982e-07
1.74995353309e-06
2.79061265398e-06
3.47491153703e-06
4.08947942379e-06
7.2755206766e-11
1.82113890529e-10
5.7191437611e-10
1.61849568705e-09
2.95889733828e-09
4.18977371482e-09
5.58921369377e-09
7.08443771024e-09
9.23182493118e-09
1.79248298959e-08
3.6064435676e-08
4.40415228487e-08
4.52331071748e-08
4.52748130973e-08
4.11581218486e-08
4.55361359866e-07
1.7990992071e-06
2.82306658445e-06
3.49019469996e-06
4.09759933992e-06
7.46366788859e-11
1.89049083855e-10
5.96617476285e-10
1.67758818937e-09
3.02893279838e-09
4.2486307325e-09
5.61595267954e-09
7.10911414314e-09
9.54354399429e-09
1.95524724696e-08
3.7435436941e-08
4.42802403269e-08
4.52448211363e-08
4.52481257021e-08
4.24548166071e-08
4.89807357894e-07
1.85313488205e-06
2.85894110694e-06
3.5059544395e-06
4.10325095333e-06
7.74215757878e-11
2.01176851342e-10
6.44487012465e-10
1.78697062707e-09
3.14134543159e-09
4.34731872205e-09
5.73733500034e-09
7.38275147181e-09
1.02596465255e-08
2.17124642208e-08
3.87595388278e-08
4.44750785267e-08
4.52453306042e-08
4.52017656061e-08
4.41534081617e-08
5.27719253762e-07
1.911048086e-06
2.89795315759e-06
3.52306921468e-06
4.10725855481e-06
8.19698670247e-11
2.22589215462e-10
7.35051083086e-10
1.97061526228e-09
3.30454835484e-09
4.51677607583e-09
6.06087814239e-09
8.13441327545e-09
1.15455699421e-08
2.39374433029e-08
3.97413453977e-08
4.45994244659e-08
4.52368100399e-08
4.5118733356e-08
4.63110565842e-08
5.68389117917e-07
1.97118349862e-06
2.93951042211e-06
3.54230223612e-06
4.11074350908e-06
9.01471076562e-11
2.61953933279e-10
8.94540288492e-10
2.22898434239e-09
3.52683525597e-09
4.79398946979e-09
6.69343177654e-09
9.46787480095e-09
1.31142905336e-08
2.54104464282e-08
4.02146247174e-08
4.4650056532e-08
4.52243931519e-08
4.49537035901e-08
4.90202527293e-08
6.10554502659e-07
2.03128861888e-06
2.98270986512e-06
3.56434295231e-06
4.11501584044e-06
1.04996737259e-10
3.29956807514e-10
1.11033663167e-09
2.49068984983e-09
3.78404321231e-09
5.21555258645e-09
7.75291481782e-09
1.12200404226e-08
1.43080599049e-08
2.56206884393e-08
4.01421319651e-08
4.46314606856e-08
4.52122598838e-08
4.46039911467e-08
5.2433264915e-08
6.52372406731e-07
2.08865825422e-06
3.02639384042e-06
3.5897942305e-06
4.12150237239e-06
1.29237845452e-10
4.24475677169e-10
1.30125088725e-09
2.69114408288e-09
4.05812025786e-09
5.83144264639e-09
9.23646447819e-09
1.28189026086e-08
1.47552155805e-08
2.46368246894e-08
3.94957241704e-08
4.45342439647e-08
4.51978813497e-08
4.38758348835e-08
5.67741575009e-08
6.91572070109e-07
2.14035601717e-06
3.06921317116e-06
3.6191300712e-06
4.13170100272e-06
1.60192882783e-10
5.10331589636e-10
1.40365862707e-09
2.81709785524e-09
4.34713936503e-09
6.63129545952e-09
1.07481074903e-08
1.37627420162e-08
1.46448163365e-08
2.28216610582e-08
3.81647180864e-08
4.43141235151e-08
4.51638667817e-08
4.24912808081e-08
6.2344259945e-08
7.25772698931e-07
2.18347108458e-06
3.10966413484e-06
3.65261396466e-06
4.14717848716e-06
1.86594568897e-10
5.51148764623e-10
1.42379878679e-09
2.86805009645e-09
4.61803936806e-09
7.39566587236e-09
1.17067860414e-08
1.41208956917e-08
1.43137143652e-08
2.05937330343e-08
3.59853354769e-08
4.38703397959e-08
4.50666304391e-08
4.0290566063e-08
6.9399217436e-08
7.5283790183e-07
2.21554300173e-06
3.14624736792e-06
3.69020438015e-06
4.16970926e-06
1.97052097804e-10
5.46175933893e-10
1.38118434091e-09
2.83852933661e-09
4.77273498814e-09
7.80357470435e-09
1.20419170529e-08
1.42414477024e-08
1.40067547085e-08
1.84202613871e-08
3.30626477329e-08
4.31014897578e-08
4.48904997759e-08
3.83213775881e-08
7.57041778237e-08
7.70356734277e-07
2.23846881621e-06
3.18020022366e-06
3.73275773076e-06
4.20181709982e-06
1.90078056796e-10
5.07653278572e-10
1.28585412632e-09
2.71903530184e-09
4.73038169244e-09
7.83293884095e-09
1.20933973246e-08
1.43334366121e-08
1.38283650531e-08
1.6599103238e-08
2.97550044806e-08
4.1946196168e-08
4.46890257113e-08
3.73835019062e-08
7.87768230857e-08
7.77145859086e-07
2.25400817097e-06
3.21240047786e-06
3.78078552725e-06
4.24560853691e-06
1.7330732264e-10
4.49071190031e-10
1.15058258774e-09
2.51836655494e-09
4.52971607497e-09
7.56148631717e-09
1.17720885144e-08
1.42953641281e-08
1.3773923135e-08
1.51746912022e-08
2.63314198543e-08
4.03176225978e-08
4.44770374916e-08
3.7433561103e-08
7.80222674658e-08
7.73778267424e-07
2.26223923737e-06
3.24199169723e-06
3.83290332515e-06
4.30140982646e-06
1.48412415365e-10
3.74808516156e-10
9.86928013769e-10
2.25101291383e-09
4.14085539209e-09
6.84779803895e-09
1.08880926796e-08
1.39923641069e-08
1.37892323289e-08
1.41300511666e-08
2.30534814014e-08
3.81655224852e-08
4.41929459203e-08
3.83755595384e-08
7.39558760642e-08
7.62121972077e-07
2.26338925504e-06
3.26792190251e-06
3.88689398616e-06
4.36808044679e-06
1.19427006199e-10
2.91056091906e-10
8.03054401013e-10
1.93282199876e-09
3.67217772359e-09
5.98626168948e-09
9.59302811939e-09
1.3238165412e-08
1.37505531136e-08
1.34159633738e-08
2.01391483266e-08
3.55267833258e-08
4.37205378185e-08
4.00844738584e-08
6.78572782927e-08
7.45048382831e-07
2.25823107013e-06
3.28937767015e-06
3.94010991213e-06
4.44293365558e-06
9.84380050392e-11
2.12563403532e-10
6.19954192143e-10
1.60751641806e-09
3.23056680587e-09
5.25221658793e-09
8.19933523111e-09
1.19180609947e-08
1.34452328602e-08
1.29429085304e-08
1.77205145152e-08
3.25493024939e-08
4.29564957419e-08
4.21715256947e-08
6.14716734211e-08
7.26025578739e-07
2.24810199735e-06
3.30599553306e-06
3.98990590936e-06
4.52191141148e-06
9.53333424554e-11
1.55129122944e-10
4.56576535288e-10
1.29694166682e-09
2.81771034315e-09
4.69436092419e-09
7.04112789917e-09
1.0249932513e-08
1.26414460867e-08
1.25614905035e-08
1.58229113422e-08
2.94558422302e-08
4.18598791715e-08
4.39162442914e-08
5.6628881793e-08
7.0863599259e-07
2.23462840895e-06
3.31783537959e-06
4.03402545969e-06
4.60011253775e-06
1.15651360508e-10
1.26002447539e-10
3.33373152474e-10
1.01354110985e-09
2.42442709774e-09
4.25489850611e-09
6.2500446492e-09
8.7207395704e-09
1.13276766982e-08
1.2069509329e-08
1.43830230183e-08
2.64782966767e-08
4.04551157459e-08
4.46712026076e-08
5.44115686115e-08
6.96003562884e-07
2.21953336327e-06
3.32536696097e-06
4.07097758911e-06
4.67277848989e-06
1.65125775146e-10
1.19515394013e-10
2.61444818049e-10
7.84314902031e-10
2.05911452389e-09
3.8824452432e-09
5.74427868682e-09
7.64100092933e-09
9.86727164446e-09
1.13233922816e-08
1.33072957747e-08
2.38921931654e-08
3.88952693917e-08
4.4562015794e-08
5.40586585e-08
6.89782938263e-07
2.20697554781e-06
3.33082674928e-06
4.10080048332e-06
4.73669878624e-06
2.29241825164e-10
1.24118177692e-10
2.28899117394e-10
6.3725264684e-10
1.75837121625e-09
3.57754745574e-09
5.42106814198e-09
6.99645838373e-09
8.68191874649e-09
1.03893314598e-08
1.25048069048e-08
2.19849637763e-08
3.75134525428e-08
4.43265618325e-08
5.43969672271e-08
6.90132002461e-07
2.20217600529e-06
3.33844704362e-06
4.12588818974e-06
4.79107500336e-06
2.74029931905e-10
1.30342212919e-10
2.17224980646e-10
5.63013589731e-10
1.55118145907e-09
3.35337749223e-09
5.22188298734e-09
6.63991376545e-09
7.89091218652e-09
9.47387654894e-09
1.18579024287e-08
2.07432935996e-08
3.65155856754e-08
4.41266285581e-08
5.53214787589e-08
6.97490980286e-07
2.20681222085e-06
3.34991388207e-06
4.14770222373e-06
4.835781274e-06
2.76568622197e-10
1.32438325453e-10
2.1539619118e-10
5.36784543647e-10
1.44431147662e-09
3.22669568946e-09
5.12814338864e-09
6.4620660459e-09
7.41991941348e-09
8.75199376981e-09
1.13420669526e-08
2.00915093912e-08
3.60089254917e-08
4.40145547418e-08
5.68623291321e-08
7.11984415437e-07
2.22129727752e-06
3.36602346833e-06
4.16747607726e-06
4.87167308905e-06
2.43294337037e-10
1.29723822713e-10
2.19015043954e-10
5.40873551144e-10
1.42559796315e-09
3.20819504792e-09
5.1353087853e-09
6.40571086199e-09
7.16567455605e-09
8.2760550634e-09
1.09996412381e-08
1.99714509978e-08
3.60179743847e-08
4.40032644699e-08
5.90677410139e-08
7.3340977284e-07
2.24520833973e-06
3.3869559328e-06
4.18624348809e-06
4.90027801974e-06
1.95449415626e-10
1.24967722085e-10
2.26873724156e-10
5.65786620394e-10
1.47669222627e-09
3.29200045528e-09
5.23182049883e-09
6.43707978551e-09
7.05261203636e-09
8.01868672533e-09
1.08761235827e-08
2.0358407053e-08
3.65031974074e-08
4.40748491898e-08
6.19876241719e-08
7.61319449659e-07
2.27754493814e-06
3.41240709382e-06
4.20473868626e-06
4.92330950835e-06
1.501532117e-10
1.21322073223e-10
2.39568978844e-10
6.0820963297e-10
1.57954884492e-09
3.45334545842e-09
5.38952109481e-09
6.51817146144e-09
7.01237121675e-09
7.89765252452e-09
1.09648416553e-08
2.12477137182e-08
3.73768465103e-08
4.4190742181e-08
6.56684837062e-08
7.95099159094e-07
2.31696720715e-06
3.44174582752e-06
4.2233797128e-06
4.94230964342e-06
1.15672170466e-10
1.2042176916e-10
2.5815170747e-10
6.73201607827e-10
1.74884219919e-09
3.70290386524e-09
5.61074062553e-09
6.64479750588e-09
7.0271782798e-09
7.89037536891e-09
1.12980264441e-08
2.2653215812e-08
3.85153076544e-08
4.43057485265e-08
7.01493239054e-08
8.34034768199e-07
2.3620062623e-06
3.4741754903e-06
4.24232148846e-06
4.95847825794e-06
9.31735975179e-11
1.22749104858e-10
2.83022881267e-10
7.6179606936e-10
1.98098338042e-09
4.01811005311e-09
5.87723001374e-09
6.81476317848e-09
7.12080056823e-09
8.05499271856e-09
1.19732547721e-08
2.4575954465e-08
3.9775182067e-08
4.43807530409e-08
7.54576096814e-08
8.7736320665e-07
2.4112216097e-06
3.50886503322e-06
4.2615369036e-06
4.97264731184e-06
8.02528722267e-11
1.28239338392e-10
3.14747574968e-10
8.74972616955e-10
2.26144494664e-09
4.35824426152e-09
6.1604563874e-09
7.008282765e-09
7.26793304453e-09
8.34445327039e-09
1.29847175714e-08
2.69455102567e-08
4.10175145945e-08
4.43901452819e-08
8.16058829436e-08
9.2431259179e-07
2.46330683454e-06
3.54504443053e-06
4.28090652318e-06
4.98534935468e-06
7.39752219831e-11
1.36662652941e-10
3.54310484073e-10
1.01625779066e-09
2.58222726105e-09
4.70221652559e-09
6.44892056112e-09
7.22058409721e-09
7.46155490195e-09
8.74068924793e-09
1.43639674867e-08
2.96437186351e-08
4.21309775296e-08
4.4323132284e-08
8.85886809461e-08
9.74126998374e-07
2.51713903916e-06
3.5820545347e-06
4.30028993868e-06
4.99691547532e-06
7.20591403678e-11
1.47863167191e-10
4.03141314116e-10
1.19076130264e-09
2.93629733997e-09
5.03957983955e-09
6.740745856e-09
7.45954369626e-09
7.71712598e-09
9.27175294507e-09
1.61933091923e-08
3.24956279577e-08
4.30461521589e-08
4.41809348568e-08
9.63797333897e-08
1.02607907424e-06
2.57178711409e-06
3.61936530733e-06
4.31958122456e-06
5.00758052914e-06
7.30174909425e-11
1.61890666897e-10
4.63264829531e-10
1.4040573589e-09
3.31207627325e-09
5.36274098654e-09
7.03750109215e-09
7.73959302258e-09
8.0574765284e-09
9.98313991575e-09
1.85402400244e-08
3.52754637684e-08
4.37387164001e-08
4.39725218089e-08
1.04927744408e-07
1.07945715672e-06
2.62647217348e-06
3.65655575285e-06
4.33872978817e-06
5.01755918327e-06
7.60029850614e-11
1.7905202329e-10
5.37514908603e-10
1.66070450244e-09
3.69323629517e-09
5.66653503016e-09
7.34379534937e-09
8.08191848877e-09
8.50756614227e-09
1.09262441622e-08
2.13947453293e-08
3.77587690459e-08
4.42216435641e-08
4.37107995548e-08
1.14151670223e-07
1.1335430217e-06
2.68051474355e-06
3.69328416295e-06
4.35774537112e-06
5.02709657874e-06
8.06296682936e-11
1.99887450365e-10
6.29561820221e-10
1.96064937079e-09
4.06096965918e-09
5.94822013056e-09
7.66801052003e-09
8.51691382159e-09
9.09342883733e-09
1.21517625242e-08
2.46142442867e-08
3.97866548857e-08
4.4530801156e-08
4.3410036284e-08
1.23935430225e-07
1.18757980268e-06
2.73327364906e-06
3.72924707812e-06
4.37667714763e-06
5.03647925187e-06
8.68036753219e-11
2.2505386337e-10
7.43290539924e-10
2.29314595859e-09
4.39773412747e-09
6.20677734428e-09
8.02265916309e-09
9.08540858977e-09
9.83606244447e-09
1.3684160912e-08
2.79037331227e-08
4.13027705482e-08
4.47104615168e-08
4.30844391338e-08
1.34125494649e-07
1.24075758822e-06
2.78411276124e-06
3.76415575503e-06
4.3955924586e-06
5.04602685298e-06
9.45180616231e-11
2.55076799215e-10
8.80702598741e-10
2.63223724023e-09
4.69121547565e-09
6.4426246204e-09
8.4238174638e-09
9.83349932626e-09
1.07307224893e-08
1.54568827325e-08
3.08881108911e-08
4.23456510701e-08
4.48026820409e-08
4.27473891488e-08
1.44533419263e-07
1.29222044341e-06
2.83239427164e-06
3.79772373002e-06
4.41454832e-06
5.05606223068e-06
1.03576838829e-10
2.89910924603e-10
1.03747267474e-09
2.94118218327e-09
4.93563072445e-09
6.65795501265e-09
8.88782578547e-09
1.07895118376e-08
1.1711436486e-08
1.72592991551e-08
3.3263082409e-08
4.30088201043e-08
4.48415224396e-08
4.24108355575e-08
1.54947667806e-07
1.34111718558e-06
2.87751646301e-06
3.82967723499e-06
4.43356701952e-06
5.06686896134e-06
1.13316784884e-10
3.28209742894e-10
1.19732366139e-09
3.18740313463e-09
5.12994582803e-09
6.85610832679e-09
9.42058084146e-09
1.19131352139e-08
1.26425363359e-08
1.87973896261e-08
3.49012953215e-08
4.33962713562e-08
4.48512573408e-08
4.20846428925e-08
1.6515394821e-07
1.38667393645e-06
2.91892806976e-06
3.85959766947e-06
4.45209029631e-06
5.07758509649e-06
)
;

boundaryField
{
    emptyPatch
    {
        type            empty;
    }
    minY
    {
        type            calculated;
        value           nonuniform List<scalar> 0();
    }
    maxY
    {
        type            calculated;
        value           nonuniform List<scalar> 0();
    }
    water_to_cooler
    {
        type            nutkWallFunction;
        blending        stepwise;
        value           uniform 0;
    }
    water_to_heater
    {
        type            nutkWallFunction;
        blending        stepwise;
        value           uniform 0;
    }
    procBoundary3to1
    {
        type            processor;
        value           nonuniform List<scalar> 
41
(
1.17737285689e-06
1.02967352991e-06
8.59043436283e-07
6.46226601017e-07
4.15950439949e-07
2.0776687463e-07
7.04096743448e-08
1.50597201287e-08
2.32512218401e-09
2.90783318319e-10
5.2897272838e-11
3.47351943494e-11
5.27425179157e-11
4.6799610212e-06
3.95853624563e-06
3.13310556615e-06
2.46309933083e-06
2.00265013848e-06
1.66666192448e-06
1.17737285689e-06
1.40738048089e-06
1.22510371442e-10
3.66222030828e-10
1.33215832883e-09
3.35705661465e-09
5.27591227414e-09
7.03756360918e-09
9.99470359435e-09
1.30492238224e-08
1.33905801097e-08
1.98365464155e-08
3.58354750007e-08
4.35939964691e-08
4.4847045654e-08
4.17760611559e-08
1.74975515753e-07
1.42833320407e-06
2.95623494346e-06
3.88713626424e-06
4.46989431973e-06
5.09317337729e-06
)
;
    }
    procBoundary3to2
    {
        type            processor;
        value           nonuniform List<scalar> 
41
(
3.73500154734e-06
3.27481308981e-06
2.70599455685e-06
2.22434271777e-06
1.8714934608e-06
1.60068584711e-06
1.39548105918e-06
1.25193710488e-06
1.1000957129e-06
8.62965184872e-07
6.02062690011e-07
3.82769240333e-07
2.19502435415e-07
1.09474890337e-07
4.39501480931e-08
1.32538408879e-08
2.60823442456e-09
3.33293096728e-10
6.22911777886e-11
4.28137407606e-11
1.72879043806e-09
3.00393684154e-09
4.28034310308e-09
5.98906282076e-09
7.95618429613e-09
9.46487960701e-09
1.63949518043e-08
3.39956429313e-08
4.3534848806e-08
4.51650456953e-08
4.52831855396e-08
3.91643647158e-08
3.74050440284e-07
1.6672976601e-06