/*--------------------------------*- C++ -*----------------------------------*\
| =========                 |                                                 |
| \\      /  F ield         | OpenFOAM: The Open Source CFD Toolbox           |
|  \\    /   O peration     | Version:  2312                                  |
|   \\  /    A nd           | Website:  www.openfoam.com                      |
|    \\/     M anipulation  |                                                 |
\*---------------------------------------------------------------------------*/
FoamFile
{
    version     2.0;
    format      ascii;
    arch        "LSB;label=32;scalar=64";
    class       volScalarField;
    location    "0.755/water";
    object      alpha.gas;
}
// * * * * * * * * * * * * * * * * * * * * * * * * * * * * * * * * * * * * * //

dimensions      [0 0 0 0 0 0 0];

internalField   nonuniform List<scalar> 
6000
(
0.170377862035
0.103298554381
0.0295394922258
0.00758204698245
0.00148544941847
0.000242898106935
3.19593638839e-05
2.47906436869e-06
5.29345098589e-08
4.51152381668e-10
2.23218765823e-12
8.97703988059e-15
1e-15
1e-15
1e-15
1e-15
1e-15
1e-15
1e-15
1e-15
0.613304089033
0.258173946034
0.107518773602
0.0371028210663
0.0120801535033
0.00334880268459
0.000777765012994
0.000138948305479
1.41776841013e-05
3.34667661793e-07
1.1256903656e-09
1.9323824531e-12
3.34744524727e-15
1e-15
1e-15
1e-15
1e-15
1e-15
1e-15
1e-15
0.613303650933
0.342163796846
0.16836807053
0.0721320406036
0.0283144125354
0.00974527535902
0.00280696235348
0.000641390758684
9.68977348589e-05
5.44284328431e-06
2.94191213993e-08
3.83801568277e-11
4.21508490764e-14
1e-15
1e-15
1e-15
1e-15
1e-15
1e-15
1e-15
0.613304089033
0.420125624658
0.244166111543
0.124124399783
0.0561699389739
0.0220707069231
0.00724996241362
0.00190958341443
0.000361174626547
3.45761746484e-05
5.68353685467e-07
7.3622838982e-10
6.43537692099e-13
1.42009099036e-15
1e-15
1e-15
1e-15
1e-15
1e-15
1e-15
0.600861311427
0.468024102495
0.322763671479
0.195532510992
0.103724833266
0.046801052277
0.0173038568121
0.00502703784053
0.00107337364345
0.000135606786559
5.21693330753e-06
1.12865639521e-08
8.6940285698e-12
6.40160379744e-15
1.00001407381e-15
1e-15
1e-15
1e-15
1e-15
1e-15
0.575389243117
0.484057751811
0.381425669713
0.271255037103
0.170185731141
0.0909090863252
0.0394139956859
0.0130466767981
0.00307638020669
0.000450813053227
2.76391675487e-05
2.00592243991e-07
1.33299303609e-10
7.3710615813e-14
1.0311903721e-15
1e-15
1e-15
1e-15
1e-15
1e-15
0.549708023949
0.480879839731
0.413190444526
0.331969554758
0.240483027935
0.151079501441
0.0784919802616
0.0313135352394
0.00867961630216
0.00146803803833
0.000117514377635
2.13120904541e-06
1.73084402405e-09
8.13347800736e-13
1.30422366971e-15
1.0017967399e-15
1.00154945808e-15
1.00133234045e-15
1.00116173458e-15
1.00089941143e-15
0.535717687186
0.47637048446
0.427395649048
0.370614341234
0.296611839243
0.211888016258
0.129712864569
0.063391646284
0.0219819204704
0.00460973399936
0.000469556482688
1.51483535299e-05
2.81994074206e-08
6.88904727755e-12
2.78574330258e-15
1.00295959994e-15
1.0021965357e-15
1.00194848181e-15
1.00172905816e-15
1.00144184533e-15
0.525622315866
0.475978354913
0.442129127306
0.399299535702
0.338273784307
0.263132484098
0.182737240293
0.106953145146
0.0470023808406
0.012961125119
0.00178299800046
8.94394378104e-05
7.22365649227e-07
8.95028313047e-11
1.68892213433e-14
1.00643422673e-15
1.00172539832e-15
1.00159457485e-15
1.00145840693e-15
1.0012510801e-15
0.526826618537
0.485188000166
0.460953484479
0.425232068053
0.371957509162
0.305218001209
0.231819655647
0.156010613487
0.0846594112978
0.0311370197158
0.00609451552205
0.000479296204252
9.90732900238e-06
1.60964285602e-09
2.86203681542e-13
1.09421694131e-15
1.00078139385e-15
1.00076576701e-15
1.00086774042e-15
1.0008257652e-15
0.558524289648
0.509688466854
0.481930222626
0.449918805158
0.403416851703
0.343767025398
0.27692768377
0.205533898514
0.131857838332
0.0632970996049
0.0179893929826
0.00228513174542
9.37118612331e-05
5.80721778174e-07
2.23785596295e-11
8.79227775526e-15
1.00260342664e-15
1.00073737473e-15
1.00073952727e-15
1.00073939813e-15
0.59362081361
0.527085284657
0.496540144755
0.470926672663
0.433322530249
0.380741379313
0.318715078421
0.252464768237
0.182684693824
0.109381077922
0.0442550208931
0.00906375121439
0.000686085394417
1.28924023385e-05
5.02581410412e-09
7.60100684387e-13
1.24877750378e-15
1.00073778507e-15
1.00073661039e-15
1.00073952727e-15
0.591749002562
0.528471264063
0.499433902495
0.478816544636
0.44954939818
0.406074719647
0.351289894922
0.291412967885
0.22950890376
0.162327864363
0.088041317321
0.0278261926452
0.00364651093519
0.000138597300017
8.59652397058e-07
1.43666176711e-10
4.13219896935e-14
1.0125604694e-15
1.00099206532e-15
1.00073680736e-15
0.596040651189
0.526265040942
0.502679883537
0.48045984354
0.45045197909
0.409622543502
0.364260065173
0.315621362618
0.266028599864
0.212020134231
0.142449517728
0.0636420234645
0.0133891260099
0.000919351458367
1.41301650283e-05
1.19601257703e-08
2.95541461123e-12
2.11251153455e-15
1.00511892175e-15
1.00390172824e-15
0.591892763085
0.520063849017
0.50343349836
0.480168518485
0.447916652622
0.406083082058
0.362521325364
0.324747270554
0.289400351825
0.250748650673
0.193486949272
0.11011634729
0.033879148202
0.00381769237994
0.000106753808656
4.3883563865e-07
1.21059327976e-10
6.34884421999e-14
1.03495618264e-15
1.00905078405e-15
0.596047259601
0.509360130528
0.49905912604
0.474643979064
0.438163116454
0.394377771122
0.353906965662
0.323255618734
0.301522897459
0.27605953795
0.230285101736
0.152095042037
0.0617732205664
0.0103996058288
0.000466552175271
3.7898003243e-06
2.53181923117e-09
1.2864808055e-12
1.6060932239e-15
1.01431354236e-15
0.591776114173
0.495579842294
0.484005484238
0.457413424482
0.417891379865
0.373505822582
0.338616217963
0.319247703874
0.307763054814
0.290419750339
0.251923944264
0.181151686072
0.0883935901055
0.0200621185815
0.00131259220433
1.66199519563e-05
2.69195320514e-08
1.35814287137e-11
7.20181460371e-15
1.01895152505e-15
0.59448526591
0.48106652847
0.45862765614
0.428139209329
0.389357621604
0.349782254976
0.324821364827
0.316818955627
0.312027623741
0.29930333094
0.26587792829
0.20162133227
0.1103007958
0.0308922177835
0.00273162595517
4.90187467229e-05
1.26664852081e-07
6.70050558399e-11
2.92384592288e-14
1.02554082192e-15
0.591472953029
0.469765934462
0.439277994859
0.404215324236
0.368653289707
0.337785792104
0.321964644995
0.318469235954
0.317745604503
0.308876498428
0.280588333801
0.222706309015
0.132613417101
0.0438386648541
0.00507659167979
0.000130473127195
5.27095059668e-07
2.78904756139e-10
9.41747595346e-14
1.0262443158e-15
0.591591589798
0.462851412823
0.434809392233
0.401617317613
0.367612971861
0.33897636136
0.32600824917
0.326897434753
0.329079013702
0.324144235519
0.302821515961
0.253694275119
0.166592453322
0.0658264214055
0.0103568379653
0.000419704886163
3.13873180268e-06
4.49310216726e-10
4.22330654206e-14
1.01188267519e-15
0.573749460486
0.457767568933
0.438467172583
0.410901975157
0.379147339996
0.352797330861
0.342669526868
0.344540068856
0.346455479638
0.342992343387
0.329726789542
0.298283326037
0.224996985158
0.112007794471
0.0254113073731
0.00173357686103
2.55570941326e-05
1.57941491535e-08
4.13967284543e-13
1.08215808503e-15
0.546666890446
0.463571686386
0.461896378866
0.447431407075
0.417312527098
0.386854887963
0.371415246851
0.36580085263
0.35966566637
0.347673716123
0.339985823543
0.335911068463
0.300412959062
0.19453046559
0.065691591242
0.0076294998818
0.000221552235137
1.05344707324e-06
2.94556517556e-11
6.56738269458e-15
0.546825252483
0.500421777943
0.514054647887
0.509079038418
0.474770993665
0.430870459269
0.401165117661
0.381795617269
0.361339710332
0.344294707054
0.338450452354
0.338303423425
0.337609016129
0.279337027363
0.140773887361
0.0280994364117
0.0015523091879
1.87554996863e-05
7.06381029827e-09
2.1555619809e-13
0.563736838385
0.559870857046
0.578198668911
0.570551954586
0.528829423174
0.47167079802
0.425857314693
0.391318747723
0.358727942043
0.33244258005
0.327447866953
0.335895780254
0.337527567492
0.325875645729
0.222260767572
0.0720395167772
0.00731832633802
0.00017726586116
5.94906935541e-07
1.15929293806e-11
0.593623134187
0.605170192187
0.619112402069
0.608727751086
0.56756027308
0.50435879445
0.445350133132
0.395976082859
0.351432573495
0.313092228209
0.307019905088
0.322147920853
0.336815237175
0.333755239236
0.270037836957
0.126347151941
0.0219730341499
0.000990893258087
8.69554955061e-06
3.23975359488e-10
0.621786403686
0.624886151427
0.631570183091
0.625119121997
0.590709672477
0.526517995663
0.458102993876
0.396364550957
0.340281973975
0.298218318628
0.29637881647
0.303918116652
0.325786894359
0.330296542115
0.289136748991
0.169667896855
0.0444425600839
0.00332801024808
5.17532082921e-05
3.46801315168e-08
0.643426959078
0.631642103142
0.632185112804
0.629811524518
0.600304325754
0.53667667853
0.462163479565
0.392194902918
0.325316375418
0.296308728317
0.296386226514
0.296233593596
0.30566590754
0.319302674109
0.294720757112
0.199569397659
0.0690738501471
0.0076358450502
0.000181867518619
5.85071462655e-07
0.657695944496
0.632638336292
0.632411134746
0.629694507417
0.600563282818
0.537124727499
0.45981188539
0.37993440683
0.308410782888
0.296386226514
0.295896612179
0.296386226514
0.29617425637
0.3044060603
0.297505381306
0.225173100885
0.0942013571601
0.0139700945757
0.000474387312098
2.87188703941e-06
0.66957763985
0.631032344171
0.632185112804
0.62780417419
0.596400873157
0.530969180019
0.447618710699
0.359938712577
0.297789250687
0.296044136779
0.296386226514
0.2955365089
0.296386226514
0.296094924062
0.30496910504
0.253003697631
0.122644863199
0.0233000471625
0.00110807114453
1.01787056168e-05
0.673292586311
0.62513802497
0.630780138925
0.621276580344
0.583429061899
0.512804055854
0.423771653116
0.334845000693
0.296302559924
0.296386226514
0.295440605707
0.296386226514
0.295257028492
0.296386226514
0.328159837648
0.288677423303
0.157755837585
0.0380140663864
0.00254096844989
3.34591885004e-05
0.671978522812
0.616481508353
0.622738477268
0.608170884929
0.562079620223
0.484901708161
0.393500953447
0.311099612876
0.296386226514
0.29562306008
0.296386226514
0.294894015646
0.296386226514
0.296972897515
0.355291728113
0.321297873696
0.199187254449
0.0608971832029
0.00565589099153
0.00010375075841
0.677272637806
0.605341093794
0.607593731555
0.587961624687
0.534463088358
0.452004726611
0.361770110117
0.297835137767
0.295978780426
0.296386226514
0.294939481627
0.296386226514
0.294504098804
0.314468992191
0.35966102936
0.341340628847
0.238863407066
0.090133687585
0.0113415088907
0.000289734887085
0.672610648469
0.592552079561
0.584949058696
0.558054660405
0.499815534159
0.416078364822
0.330718324228
0.296254294499
0.296386226514
0.295183533459
0.296386226514
0.294376342486
0.296386226514
0.334543471911
0.359487878544
0.351949287626
0.267554205184
0.118889973215
0.0197069519983
0.000707126275487
0.677957009236
0.576128405256
0.558330594222
0.520533349121
0.458568471767
0.378577870562
0.305356013648
0.296386226514
0.295422910969
0.296386226514
0.294482190528
0.296386226514
0.294485721685
0.355116313176
0.359796860697
0.355742690209
0.283718357112
0.142499555669
0.0301261841143
0.00150199990624
0.673245209952
0.554149294327
0.526309870823
0.477727157975
0.413401417452
0.342585453741
0.296386226514
0.29580640631
0.296386226514
0.294676859119
0.296386226514
0.294353896922
0.320112674368
0.359707571043
0.359487878544
0.355984459773
0.293458348733
0.163095616866
0.0423239358153
0.00279361277337
0.677500291062
0.523650477068
0.485680862728
0.431367509047
0.371484011386
0.316629570515
0.296094567226
0.296386226514
0.294866093085
0.296386226514
0.294353896922
0.296386226514
0.348949833494
0.359487878544
0.359586369591
0.356129138567
0.305662556855
0.187984532027
0.0574198923794
0.0046690804638
0.672609296216
0.481310436174
0.434844949777
0.385044385047
0.342413165989
0.309724711573
0.296386226514
0.295198947862
0.296386226514
0.294514697623
0.296386226514
0.31600274513
0.348674109999
0.355590896477
0.357880399093
0.358379640735
0.32753352084
0.223223725037
0.0775517097286
0.00743735777449
0.674189005367
0.424610228032
0.379556551459
0.347123102093
0.330839834475
0.314190349379
0.303821027601
0.306201625676
0.309539443249
0.30894968825
0.30621870165
0.314905459328
0.325169798451
0.336276157583
0.350339973694
0.365140420566
0.356930636613
0.265965736777
0.105318106396
0.0122251774989
0.661983571552
0.365383576449
0.348916810308
0.338235228173
0.333651191961
0.329937679391
0.328346704571
0.327550630415
0.321560040247
0.308704397592
0.295122766589
0.287908965713
0.291651269499
0.310918259176
0.342914163663
0.37442034211
0.387935827212
0.307044910502
0.144072980756
0.0216280639792
0.567372212522
0.348003049254
0.34722229303
0.345568894257
0.34606501046
0.339556461975
0.331863125877
0.324788680843
0.309343587254
0.285566155745
0.265505436977
0.257697954841
0.265974294966
0.294709755243
0.342710624241
0.38401017894
0.389170473003
0.342617073936
0.194605115349
0.0400356982855
0.44253703671
0.349859088531
0.37388778775
0.377575617548
0.358283721466
0.335600290279
0.320610562564
0.302927997752
0.277967462684
0.254702521734
0.24249078907
0.239825108775
0.249682037651
0.283365016128
0.341672062619
0.386080774361
0.388572861014
0.380421308007
0.248609771955
0.0726210853257
0.440582394325
0.448270353132
0.469234483401
0.432587288279
0.371434081493
0.330271616519
0.301856710532
0.277238607047
0.254501162104
0.238944400058
0.232802824748
0.231695152487
0.23750405778
0.266996138471
0.331702972592
0.383303133879
0.389216179292
0.388572861014
0.293306416318
0.120940525234
0.554258941307
0.647440889061
0.602284503424
0.540205600214
0.445229546165
0.362798648592
0.308701152377
0.274896122816
0.250643159117
0.234930355184
0.229456273423
0.229039978329
0.230075448987
0.24392592872
0.303293562631
0.370964765853
0.388572861014
0.38915451014
0.327186631778
0.17813254887
0.754759270982
0.768386355989
0.721798916164
0.684293612592
0.623424027897
0.521402972812
0.397649821379
0.30884462809
0.261293460051
0.236261805725
0.228465217216
0.228546764564
0.228507028508
0.230006613818
0.260096198517
0.342610620334
0.388870509811
0.388572861014
0.354411709014
0.234889556756
0.845323321937
0.799640121782
0.774212289366
0.761299273113
0.740964508309
0.686339772483
0.563380659177
0.410440991967
0.306038928672
0.247474574356
0.228546764564
0.228346999711
0.228546764564
0.228486728228
0.232029791639
0.300546282629
0.381736059814
0.389080460057
0.386579109365
0.286697996083
0.845476045762
0.805015227824
0.790608849892
0.783637495124
0.77151871627
0.73813340094
0.656410818399
0.50705632603
0.367707866422
0.271416912235
0.228231456847
0.228518342485
0.22831051242
0.228546764564
0.228381466322
0.258541408873
0.359535514728
0.388572861014
0.389080240875
0.327591943637
0.848590658068
0.806789970997
0.796814740253
0.790060995162
0.777988247633
0.747275637429
0.680305997713
0.553253899399
0.409883639165
0.293145231631
0.228518342485
0.22799085995
0.228518342485
0.227993720955
0.228546764564
0.229052521101
0.325477168941
0.388972848478
0.388572861014
0.35442199178
0.846226688889
0.807090860199
0.799219314144
0.792039667923
0.779423327201
0.748518315555
0.683773076577
0.567612006264
0.427983778561
0.302305193265
0.228121503742
0.228380518536
0.227664296308
0.228518342485
0.227603299121
0.228546764564
0.287493078387
0.388508388087
0.389004882505
0.36838893236
0.84932919851
0.805846480537
0.799452962582
0.791647790449
0.778099893163
0.745877112177
0.68057027188
0.567555070803
0.430343328722
0.302189716849
0.228380518536
0.227834238246
0.228380518536
0.22744223629
0.228518342485
0.227308124451
0.262190919663
0.378027175532
0.388572861014
0.374291886923
0.846636701696
0.802234183428
0.797377942536
0.78754221012
0.77098490052
0.734715745058
0.665939026541
0.55565896594
0.421525600498
0.292899834435
0.228446054095
0.228258388692
0.227600998418
0.228380518536
0.227282174323
0.228518342485
0.247416905021
0.358448460724
0.388735854489
0.376882769681
0.849330130625
0.797829133252
0.789910416453
0.776207258962
0.754766662696
0.712667360032
0.637852402377
0.527268103911
0.396114610276
0.273404628257
0.228258388692
0.227895575433
0.228258388692
0.227463879254
0.228371283603
0.227167733338
0.242300504889
0.339411493966
0.388572861014
0.379431740469
0.846549043572
0.79348673266
0.775445145874
0.756347091192
0.72904996536
0.679902776065
0.597610383485
0.484617152412
0.356435316605
0.249152855342
0.228087103871
0.22815555611
0.227549588482
0.228258388692
0.227335980236
0.228371283603
0.24194455353
0.328032669686
0.385928185939
0.385173981454
0.849150823011
0.785398899501
0.753303285087
0.727646563239
0.693234083026
0.634140194416
0.543212395691
0.426987068258
0.304645416862
0.231028374212
0.22815555611
0.227580409781
0.22815555611
0.227360473401
0.228258388692
0.227260466931
0.245856343725
0.321443738999
0.38323073958
0.401668479943
0.845908623555
0.767553876345
0.721911182247
0.688540424864
0.643648126401
0.571667968033
0.471294998173
0.353864504844
0.252096984235
0.22815555611
0.227695195061
0.228041956582
0.22727754743
0.228180430197
0.227333457667
0.228258388692
0.253706114858
0.321947454551
0.385409539029
0.404665951343
0.849547834932
0.730055348789
0.678291746073
0.634147877003
0.574626886969
0.488594203493
0.381295394204
0.275081674915
0.228714954653
0.227872588295
0.228041956582
0.22722349835
0.228041956582
0.227250211207
0.22815555611
0.227374474418
0.266117369656
0.32348944202
0.386310919816
0.40470548871
0.845282814395
0.668306716655
0.61545920853
0.555822887109
0.480552615524
0.384531148348
0.284672623379
0.23048620344
0.227934256382
0.228041956582
0.227270405355
0.227904007404
0.227099431194
0.228041956582
0.22729474276
0.234402387636
0.274405118077
0.323567000006
0.385387361593
0.404692093636
0.848495459994
0.59113110336
0.524604447641
0.447106962313
0.362906660904
0.276504657594
0.230494565004
0.227910714284
0.228041956582
0.227231721209
0.227904007404
0.226918781194
0.227904007404
0.227192863617
0.228041956582
0.244972713492
0.275428947306
0.322053462307
0.383924813516
0.404705164582
0.844671635236
0.508810545906
0.407235161365
0.315924977488
0.252738215754
0.228439582319
0.227833965141
0.228041956582
0.226998833877
0.227904007404
0.226820870953
0.227807505118
0.226984478677
0.227904007404
0.228872950906
0.251470510018
0.270312946912
0.316870543011
0.380102425681
0.404420622827
0.845682472574
0.412211698956
0.285781283323
0.230502429512
0.22815555611
0.227201872587
0.228041956582
0.226348560533
0.227904007404
0.226424197232
0.22781480321
0.226717157432
0.227807505118
0.227283954922
0.238594786984
0.248280171021
0.257900673414
0.30366540135
0.370209173534
0.403709220838
0.807328247149
0.294118071338
0.228599542543
0.22815555611
0.226224907063
0.228041956582
0.225166651751
0.227904007404
0.225473024918
0.227807505118
0.226266747394
0.227690395215
0.226983325329
0.230612729579
0.239263539611
0.239880508516
0.242356704024
0.2800011886
0.351892114121
0.400880345458
0.689183728696
0.228011575547
0.22815555611
0.225547297395
0.228041956582
0.22374430434
0.227904007404
0.22413202356
0.227807505118
0.225577560718
0.227690395215
0.226613490532
0.227690395215
0.235460776589
0.238752039898
0.233062430738
0.230220426576
0.2515466029
0.322643954302
0.391265791869
0.542502201901
0.230728086917
0.226401640128
0.228041956582
0.223519899641
0.227904007404
0.223398722175
0.227807505118
0.225124186686
0.227690395215
0.226522147652
0.227690395215
0.230458892349
0.235621608745
0.234261474578
0.229726676422
0.226955241671
0.230678321475
0.281978842283
0.368850253448
0.522543264795
0.357797037438
0.316615362648
0.289268608568
0.271334893612
0.257438076593
0.246931404024
0.234641955131
0.228888312765
0.227083151584
0.227690395215
0.227402410824
0.231239174725
0.23169969638
0.230421461107
0.22847210412
0.226809761505
0.226778124468
0.241947481391
0.330814491591
0.617754762903
0.647577119804
0.597948615999
0.553258539519
0.510317152301
0.468653496101
0.399042225499
0.316715985227
0.25899713046
0.23459179515
0.22817970257
0.227673058136
0.227859513734
0.22766758961
0.22811216855
0.227839302313
0.226803935515
0.226809761505
0.226842407272
0.279321734826
0.792715565247
0.826963844587
0.801671124299
0.775156748325
0.748224588907
0.716990207618
0.648936153445
0.520800021509
0.369152580658
0.270367360045
0.23431807494
0.226821528615
0.226809761505
0.226800922605
0.22698561291
0.227354287351
0.226809761505
0.226653761246
0.226809761505
0.23495603298
0.863305493548
0.858091312927
0.848421760203
0.829270049874
0.813033925353
0.796166835638
0.762184746099
0.683597114112
0.537006646949
0.368911377445
0.262358741419
0.226809761505
0.226686947534
0.226809761505
0.226798629722
0.226928281107
0.226803782741
0.226809761505
0.226515858109
0.226809761505
0.864874903786
0.861508710869
0.853934279046
0.833262470734
0.817665001316
0.802607206363
0.775483448429
0.719903048029
0.615048728528
0.465484736712
0.321883195979
0.22886322449
0.226809761505
0.226655917279
0.226809761505
0.226768702176
0.226811546631
0.226618862868
0.226809761505
0.226373111691
0.863505188543
0.861894290229
0.852115763499
0.829041694713
0.812704920348
0.7976544906
0.771535360828
0.719269190024
0.6247158906
0.496054139329
0.360277312136
0.243582803603
0.226509208224
0.226809761505
0.226436082395
0.226809761505
0.226672957313
0.226809761505
0.226390140051
0.226809761505
0.864869032834
0.858064921524
0.841437853095
0.814045678926
0.796332678859
0.780424898021
0.754129004734
0.704316309902
0.61650731233
0.495343198595
0.364332938185
0.251729104156
0.226809761505
0.226222529707
0.226809761505
0.226226522158
0.226809761505
0.226464702736
0.226809761505
0.226066382453
0.863505188543
0.843310988025
0.82001242141
0.792284368133
0.7745945936
0.756778841719
0.726654393338
0.672530366883
0.586783969109
0.474831163087
0.350956392548
0.246931404111
0.226529190283
0.226809761505
0.225970905702
0.226809761505
0.226077860485
0.226809761505
0.226208239842
0.226809761505
0.863818057198
0.816824252039
0.7939301365
0.77222970959
0.756913468314
0.736921845825
0.700157019086
0.635917982793
0.543876718595
0.432578226657
0.314003441474
0.232962561745
0.226809761505
0.226154277982
0.226809761505
0.22580979378
0.226809761505
0.225978893316
0.226809761505
0.225885455892
0.848136759734
0.786308666697
0.769916258561
0.757052786108
0.745568192452
0.723756973665
0.679087012915
0.603099127495
0.501283734851
0.384544173358
0.271150874027
0.226809761505
0.226496636876
0.226809761505
0.225875943274
0.226809761505
0.225750025311
0.226809761505
0.225879286801
0.226809761505
0.804438935529
0.760018138792
0.749720247391
0.744924476837
0.73722493959
0.713823674538
0.661090801439
0.574312737734
0.463105386805
0.341394563777
0.242285467707
0.226648506987
0.226809761505
0.225988664184
0.226809761505
0.225670772196
0.226809761505
0.225717158923
0.226809761505
0.225747266728
0.778001612798
0.736623250438
0.729125782671
0.730553423484
0.725962166795
0.700927360664
0.640728555064
0.54534701374
0.42727390522
0.304598955067
0.229660615576
0.226809761505
0.226136025391
0.226809761505
0.225661507103
0.226809761505
0.22559137033
0.226809761505
0.225740243509
0.226809761505
0.777892711617
0.699726521451
0.699592285216
0.706217319282
0.703594930471
0.676607991882
0.610474831732
0.509614572808
0.388521860794
0.271175177349
0.226809761505
0.226415265005
0.226809761505
0.225731049716
0.226809761505
0.225529814172
0.226809761505
0.225635308031
0.226809761505
0.225733367781
0.777430543684
0.619682519413
0.648300681652
0.66133980409
0.659014777213
0.629782142796
0.560889655713
0.458968021968
0.339991261043
0.240908242972
0.226570424054
0.226809761505
0.22577248641
0.226809761505
0.225486547412
0.226809761505
0.225555190298
0.226809761505
0.225744176746
0.226809761505
0.776962458669
0.511957490791
0.568779619011
0.582674732781
0.579622723898
0.549429456613
0.482921667129
0.385676745062
0.277888414443
0.226856448719
0.226809761505
0.225889284412
0.226809761505
0.225429498471
0.226809761505
0.225525085869
0.226809761505
0.225744590784
0.226809761505
0.2259018738
0.775971872878
0.425606478024
0.467433123412
0.469592300584
0.463016009429
0.433380870836
0.375144236628
0.291642549711
0.229813665064
0.226809761505
0.225834055168
0.226809761505
0.225262582976
0.226809761505
0.225502871934
0.226809761505
0.225791251736
0.226809761505
0.226014954078
0.226809761505
0.750639788291
0.407429149058
0.390469672349
0.36468323768
0.343127679558
0.310041153022
0.263628952065
0.228353248857
0.226809761505
0.225575747222
0.226809761505
0.224810730532
0.226809761505
0.225327497958
0.226809761505
0.229887493876
0.233569867648
0.234649475638
0.231671837795
0.22673025521
0.658223668898
0.420953338461
0.385166270412
0.34462735626
0.303814932088
0.26090806083
0.226604491022
0.226809761505
0.22509524965
0.226809761505
0.224400417663
0.226809761505
0.225943169155
0.240839380585
0.247011664382
0.246696192983
0.24262692111
0.239860600644
0.235980456385
0.231762777434
0.570316639798
0.457073793621
0.417017744114
0.3720949725
0.323046450886
0.275121502774
0.237202734259
0.229913617171
0.231659300406
0.2396004729
0.254544531352
0.266701521167
0.277529305888
0.273166926563
0.260195840313
0.246430964323
0.239893989054
0.236617704991
0.234441496606
0.232210389798
0.570482689462
0.548523221109
0.52520934621
0.485872138582
0.434834833025
0.386836828905
0.35498419015
0.349073631294
0.369605242561
0.407337921233
0.431294432101
0.408476641635
0.357600578086
0.303661763599
0.264517017761
0.241790915408
0.232645253792
0.230342825874
0.230504663034
0.230822854605
0.62680946766
0.656223180995
0.648020559163
0.636882966001
0.623695973688
0.610983061934
0.604717305225
0.609237635473
0.635913637456
0.666997348261
0.668444408159
0.596114214092
0.478880737272
0.364453427324
0.283755047031
0.241836192798
0.227737820417
0.226850961787
0.227225281746
0.228400388224
0.700439758648
0.709026654102
0.700696951401
0.708872078884
0.726650018947
0.741515237294
0.751114913305
0.758469493651
0.76808857738
0.774669623433
0.767185221359
0.705224172216
0.589674531689
0.453371108825
0.331621634658
0.250070874716
0.226521541617
0.226531511095
0.226523946342
0.226757846453
0.736210973476
0.722563921444
0.715216608832
0.727759373882
0.744628084543
0.759348731367
0.769828347776
0.776324428788
0.78044291676
0.780759645543
0.773733336262
0.722230783748
0.621798957021
0.49751488159
0.370076195846
0.259798915129
0.226531511095
0.226445375521
0.226531511095
0.2265003421
0.760459159541
0.730532488097
0.727334971576
0.734515730263
0.742936817902
0.751637431138
0.758736089923
0.76392310361
0.767640066285
0.768924646798
0.759616004421
0.711202740365
0.616114445554
0.498066393865
0.373123769596
0.258963598862
0.226379987125
0.226531511095
0.226281429336
0.226531511095
0.802632048334
0.747829223835
0.740083043913
0.740769434001
0.737127361056
0.723886436078
0.71241572925
0.710112535789
0.714480558923
0.718017050266
0.70644645033
0.660260754494
0.576360120742
0.471246013801
0.351419379073
0.244989278376
0.226531511095
0.226039809961
0.226531511095
0.226068150444
0.855231282518
0.770706734072
0.755214422029
0.749758412498
0.737105903855
0.691449373471
0.629746969564
0.603797629455
0.609914472399
0.617068749276
0.607076787385
0.562947682255
0.490731733061
0.397588339726
0.290628833849
0.227218631909
0.226151263557
0.226531511095
0.225884677674
0.268099637317
0.86024340517
0.797465687215
0.774407295205
0.762792854826
0.745165594021
0.696258902458
0.578563089337
0.482833263631
0.471246847862
0.478648102725
0.47263551774
0.435820870049
0.374336207618
0.295194825322
0.233264363572
0.226377254076
0.226531511095
0.225884677674
0.259074431992
0.420601328158
0.856831668659
0.821942713671
0.796318745033
0.780180053491
0.762138324703
0.72225947513
0.611461398385
0.462110319675
0.369644123171
0.341704757185
0.329936240972
0.304030716194
0.26309629457
0.230539532938
0.22638615662
0.226531511095
0.225921577513
0.267991169421
0.436739816971
0.554869238937
0.860211357432
0.836939864264
0.815235069034
0.798834085095
0.783270173459
0.755052103512
0.682686440203
0.522858605112
0.38334497578
0.313214213728
0.267763582847
0.231711312064
0.226531511095
0.226361748437
0.226531511095
0.226043714172
0.282786279444
0.462108172554
0.595718216144
0.586820123886
0.856976646882
0.844129329204
0.826955135956
0.81358867802
0.802098481565
0.784644282172
0.744590380854
0.642656707308
0.477204034304
0.348331799152
0.277210408339
0.231106792402
0.226346092311
0.226531511095
0.228184674118
0.297643298203
0.479187962866
0.613532018301
0.616816123804
0.583334389856
0.860237313078
0.848531603624
0.832800745831
0.821993031074
0.814179012568
0.803676609316
0.781677048588
0.729233671305
0.612934518772
0.45706797383
0.335029001054
0.259827983024
0.237253285366
0.244468154815
0.312018327499
0.484414925746
0.614796218705
0.626576886192
0.61709700761
0.555455173885
0.856976646882
0.854364856024
0.835912348442
0.82531429683
0.819174095407
0.811083089983
0.793994254249
0.756680143569
0.684107835523
0.565039491456
0.432824898798
0.334867913256
0.307112611404
0.340754495369
0.474793382116
0.607460507909
0.626787376851
0.626837913005
0.59094546027
0.490792863791
0.86021217885
0.856974013861
0.838255364498
0.826165907207
0.820130533766
0.812032653999
0.794500213305
0.756865238459
0.690056061252
0.593047115653
0.488499567108
0.412626134218
0.405655498031
0.458089994642
0.571237321211
0.625480545841
0.626837913005
0.610996576047
0.531171443218
0.399165097967
0.857021332836
0.857440192253
0.840771378549
0.826305955895
0.819435415294
0.810450437931
0.791519554184
0.751514419842
0.684576513714
0.589489378872
0.492010440324
0.437608180621
0.444877269829
0.502739221364
0.585235146795
0.622039730413
0.616377674222
0.563375287983
0.446510165862
0.303864058637
0.860129700213
0.857021332836
0.843482847794
0.826163166687
0.815951430208
0.803569410238
0.78008220929
0.734481457328
0.664103486337
0.572569558299
0.484520516604
0.436254985023
0.445741703639