/*--------------------------------*- C++ -*----------------------------------*\
| =========                 |                                                 |
| \\      /  F ield         | OpenFOAM: The Open Source CFD Toolbox           |
|  \\    /   O peration     | Version:  2312                                  |
|   \\  /    A nd           | Website:  www.openfoam.com                      |
|    \\/     M anipulation  |                                                 |
\*---------------------------------------------------------------------------*/
FoamFile
{
    version     2.0;
    format      ascii;
    arch        "LSB;label=32;scalar=64";
    class       volScalarField;
    location    "0.53/water";
    object      p_rgh;
}
// * * * * * * * * * * * * * * * * * * * * * * * * * * * * * * * * * * * * * //

dimensions      [1 -1 -2 0 0 0 0];

internalField   nonuniform List<scalar> 
6000
(
101734.41218
101731.026384
101730.469066
101729.812181
101729.164215
101728.555722
101727.990374
101727.473664
101727.01053
101726.599044
101726.236948
101725.920891
101725.646155
101725.408259
101725.203472
101725.028737
101724.881584
101724.76013
101724.663064
101724.589533
101717.581435
101722.607823
101725.696355
101727.055382
101727.227137
101727.105123
101726.878636
101726.623056
101726.35722
101726.094685
101725.850182
101725.628727
101725.428232
101725.246399
101725.082443
101724.936574
101724.809398
101724.70162
101724.614003
101724.547286
101705.316116
101712.315065
101718.775646
101722.50737
101724.086312
101724.789714
101725.07694
101725.166096
101725.162382
101725.109117
101725.030421
101724.943948
101724.858082
101724.774464
101724.693283
101724.615463
101724.542779
101724.477493
101724.422055
101724.37871
101695.83605
101703.359156
101712.222207
101718.11361
101721.263915
101722.890474
101723.657991
101723.990227
101724.133172
101724.195468
101724.218567
101724.221675
101724.215333
101724.204328
101724.189815
101724.17216
101724.152256
101724.13171
101724.112657
101724.097251
101687.198312
101694.002789
101703.592348
101711.507076
101716.979683
101720.417367
101722.254419
101723.076745
101723.403243
101723.536533
101723.601879
101723.641754
101723.669679
101723.691531
101723.709479
101723.723798
101723.734544
101723.742247
101723.747995
101723.753013
101680.813618
101686.166355
101694.537551
101702.974867
101710.41668
101716.244354
101720.052551
101722.039188
101722.843588
101723.106378
101723.191494
101723.231539
101723.258759
101723.281065
101723.301581
101723.320953
101723.338963
101723.355472
101723.370711
101723.384983
101675.090694
101679.724769
101686.369092
101693.866134
101701.902808
101709.648848
101715.942146
101720.071692
101722.103174
101722.787071
101722.933059
101722.952675
101722.953541
101722.952564
101722.95403
101722.959084
101722.967496
101722.978729
101722.992356
101723.007864
101669.133043
101674.179372
101679.979556
101685.981916
101693.167399
101701.409253
101709.560075
101716.242781
101720.480389
101722.294489
101722.713674
101722.721788
101722.678932
101722.640056
101722.611211
101722.593469
101722.58621
101722.588231
101722.598232
101722.6146
101663.355258
101669.385764
101674.153413
101678.850122
101684.86344
101692.755687
101701.708517
101710.310839
101717.120236
101721.024307
101722.285588
101722.392364
101722.309184
101722.235035
101722.182692
101722.151371
101722.138951
101722.142782
101722.160059
101722.18789
101658.220439
101664.531582
101667.367682
101670.772762
101676.0021
101683.747306
101693.02794
101702.609568
101711.413848
101718.000848
101721.097288
101721.70128
101721.657928
101721.593015
101721.559118
101721.552799
101721.569707
101721.605517
101721.656078
101721.71738
101651.769827
101656.780612
101658.078523
101660.473947
101665.581979
101673.707415
101683.289493
101693.246689
101703.167024
101712.314252
101718.339142
101720.320634
101720.568809
101720.613917
101720.679398
101720.76549
101720.86682
101720.979044
101721.098142
101721.220277
101640.394068
101644.561313
101645.734886
101648.008553
101653.526615
101662.132713
101671.929208
101681.932119
101692.357542
101703.427506
101713.096171
101717.923025
101719.074596
101719.382576
101719.63597
101719.882021
101720.1183
101720.343856
101720.557688
101720.758494
101621.687539
101627.756139
101632.180596
101635.554363
101641.288204
101649.740727
101659.4353
101669.450389
101679.986977
101691.866989
101704.698657
101714.031965
101717.442839
101718.275245
101718.742572
101719.156285
101719.528128
101719.862525
101720.163198
101720.432637
101605.701718
101616.169006
101622.282335
101626.48748
101632.058883
101639.783679
101648.813286
101658.496425
101668.617308
101679.888261
101693.626218
101707.605093
101715.572656
101717.745213
101718.401024
101718.894975
101719.329388
101719.711664
101720.047679
101720.341958
101599.485025
101609.372638
101614.449218
101619.203681
101625.57216
101633.885922
101642.748647
101651.325254
101660.205403
101669.61661
101681.654224
101697.736921
101711.955118
101717.666384
101718.792519
101719.252021
101719.639923
101719.979955
101720.276379
101720.532988
101594.99412
101606.344971
101609.851007
101614.541067
101621.806607
101631.103619
101640.491356
101648.914446
101655.50506
101662.067237
101670.849917
101685.82974
101704.967507
101716.941779
101719.74831
101720.171963
101720.418528
101720.633137
101720.818926
101720.977613
101590.683187
101602.540695
101605.664067
101610.689433
101618.685823
101629.022334
101639.380975
101647.994127
101653.880367
101657.311779
101662.60359
101675.029447
101695.875177
101714.41132
101720.815649
101721.47962
101721.521523
101721.546319
101721.567117
101721.582562
101586.861114
101602.147409
101604.428302
101609.571931
101618.254594
101629.709135
101640.930236
101649.383306
101653.354323
101654.278561
101656.990752
101667.307632
101687.819674
101710.438555
101721.43639
101722.892553
101722.719924
101722.520833
101722.350218
101722.203039
101581.631576
101600.273551
101603.471007
101610.365368
101620.597762
101633.258002
101644.971942
101652.172945
101652.304534
101651.98496
101652.811381
101661.70366
101681.774176
101706.319467
101721.290654
101724.005414
101723.693036
101723.292293
101722.950784
101722.661449
101575.048579
101599.033132
101603.558448
101612.777123
101624.957804
101638.449646
101649.051784
101649.677632
101649.219682
101648.936128
101648.506123
101655.862605
101675.96152
101702.03759
101720.174779
101724.409758
101724.108264
101723.59257
101723.155036
101722.788748
101568.03753
101595.452172
101602.16561
101613.186276
101626.601238
101639.713418
101645.866255
101645.260957
101644.886564
101644.284678
101640.771175
101647.530342
101667.640546
101695.582682
101717.354895
101723.767309
101723.732518
101723.235944
101722.81926
101722.47619
101559.21608
101591.065027
101599.52478
101610.218787
101622.650372
101634.862794
101640.34723
101639.696672
101639.107914
101632.68172
101628.573539
101634.546955
101653.286262
101683.053199
101710.848577
101721.665634
101722.496754
101722.183469
101721.921439
101721.715833
101550.387795
101585.979418
101594.521489
101603.379383
101614.990163
101626.814899
101632.766562
101631.034794
101624.820177
101616.704757
101615.7833
101618.732822
101631.287596
101660.071841
101696.677896
101717.112847
101720.51378
101720.590505
101720.591986
101720.619253
101546.016221
101577.705065
101582.885262
101590.364324
101601.089884
101611.75505
101616.006567
101612.786035
101606.863914
101606.947298
101607.363299
101607.743006
101610.281661
101630.009588
101670.717618
101707.217298
101717.776809
101718.757624
101719.081032
101719.390448
101541.337033
101559.980482
101558.532791
101562.904594
101574.552196
101587.386624
101592.99353
101593.573765
101595.32982
101599.109403
101601.38135
101600.910057
101601.263517
101605.094634
101637.620784
101688.068536
101713.28413
101716.965894
101717.673955
101718.265613
101524.740926
101528.312966
101521.738433
101524.538327
101539.896108
101558.904243
101570.703733
101578.344183
101586.987647
101595.122879
101599.971949
101597.759384
101594.738228
101595.34007
101612.443525
101661.902601
101704.612129
101715.212628
101716.627025
101717.467158
101502.347768
101493.67974
101488.886856
101492.098135
101508.594373
101532.528758
101551.754129
101566.412659
101580.945843
101595.128573
101602.305404
101599.423351
101592.106845
101589.930561
101599.428281
101638.936815
101690.947692
101712.966937
101716.143732
101717.189511
101473.020535
101470.116821
101470.935257
101473.783238
101487.383153
101511.90299
101536.645667
101557.658897
101577.902266
101596.682037
101602.853177
101601.565021
101594.990263
101589.015071
101595.450851
101623.636912
101675.300447
101709.4659
101716.303076
101717.575493
101453.090165
101460.014379
101461.380343
101464.267595
101475.444849
101498.766683
101526.499858
101552.748323
101577.712709
101597.898859
101601.31201
101602.035811
101599.182631
101593.91482
101594.870686
101613.292103
101660.619411
101704.483682
101717.0048
101718.68925
101449.346236
101455.810603
101457.143054
101458.775331
101468.83709
101491.863878
101521.532486
101551.638993
101580.394594
101599.680157
101601.120578
101601.813216
101601.906053
101598.933485
101595.628482
101605.696589
101646.75687
101697.920804
101717.947508
101720.494887
101446.310315
101453.92704
101455.173849
101455.844647
101465.779891
101489.37084
101520.674598
101553.577629
101585.904121
101601.708117
101602.114503
101602.522392
101602.771741
101601.938859
101595.641606
101598.349089
101632.028435
101689.221998
101718.618069
101722.886082
101445.454963
101453.089291
101453.324092
101454.556173
101465.2965
101489.852965
101522.98313
101559.688185
101593.408738
101603.837369
101603.851201
101603.852406
101603.944662
101603.61222
101595.47477
101589.30022
101617.467073
101678.318033
101718.28198
101725.683916
101443.089889
101455.749554
101454.438337
101457.384141
101470.211206
101496.41099
101531.642556
101570.422316
101601.549697
101606.090688
101605.790769
101605.770034
101605.201236
101604.842997
101594.610087
101580.674708
101605.323342
101666.665365
101716.425196
101728.601976
101442.06219
101459.991137
101459.396561
101465.494285
101481.906167
101510.176377
101546.381396
101584.537362
101608.052035
101608.06953
101607.770243
101607.085717
101606.821176
101605.625275
101592.349967
101573.740033
101596.838727
101656.847651
101713.455322
101731.288902
101437.880514
101466.680261
101468.74484
101479.400219
101499.973507
101529.840995
101565.325009
101599.722322
101610.265474
101609.456661
101608.715758
101608.401821
101607.167909
101606.503552
101585.790611
101570.607073
101592.428715
101649.979508
101710.023117
101733.360814
101435.636891
101473.196385
101481.521283
101498.192258
101522.587508
101553.206104
101586.177943
101610.364018
101610.467352
101609.595551
101609.174523
101607.898076
101607.403624
101604.37266
101575.332742
101568.934616
101589.247313
101643.37642
101705.360256
101734.357364
101430.580602
101482.417279
101499.680197
101522.236652
101548.479049
101577.447972
101604.856009
101610.818539
101609.640253
101608.996734
101607.657668
101606.993682
101605.117995
101591.670816
101566.947096
101566.124605
101583.198111
101632.441305
101697.379337
101733.721667
101428.318284
101494.134243
101522.53031
101549.684961
101574.29931
101597.129194
101610.337826
101608.877046
101608.027848
101606.550759
101605.85147
101603.874111
101601.925066
101571.887678
101562.071787
101561.762413
101570.929885
101613.444513
101683.013821
101730.448425
101422.77076
101511.433088
101547.32077
101575.435618
101594.16464
101608.230041
101607.740121
101606.60921
101604.881164
101603.99557
101601.799109
101600.529289
101587.361672
101563.59009
101558.029718
101555.596929
101555.091366
101585.463395
101657.748693
101722.525393
101420.094423
101536.351163
101567.038231
101587.104678
101599.184948
101606.659081
101605.006466
101602.883843
101601.686882
101599.184458
101597.807918
101594.77963
101578.325697
101562.967465
101555.889083
101548.06818
101545.871374
101554.503107
101622.514884
101707.132951
101442.174226
101556.139078
101567.720142
101581.584119
101593.321533
101601.954923
101599.277702
101597.536858
101594.498778
101592.806369
101589.725398
101586.365338
101576.875576
101569.545908
101555.352114
101539.636984
101536.747865
101536.313192
101586.746877
101681.044873
101467.803229
101532.84945
101536.84816
101547.635749
101564.803203
101578.607386
101580.602943
101576.219798
101571.926772
101571.315507
101576.944672
101579.045027
101579.45048
101573.583995
101554.318758
101531.231673
101525.258127
101525.117179
101553.622054
101643.744147
101415.65166
101433.707989
101435.730293
101448.731916
101483.442502
101512.157727
101525.478155
101529.315769
101535.458244
101548.41812
101561.578101
101569.154448
101571.42388
101568.368819
101553.926016
101526.968076
101512.311802
101512.459201
101524.68823
101601.00184
101314.527038
101306.298023
101314.358073
101325.892728
101361.345394
101403.501937
101441.080204
101468.605026
101493.949362
101519.631513
101539.222484
101551.376452
101555.755925
101557.097225
101553.525637
101531.114015
101504.968785
101500.256299
101501.307891
101561.443234
101250.40956
101254.493931
101256.605002
101259.563015
101273.296544
101299.476944
101346.41096
101397.233418
101443.324489
101484.991432
101517.242248
101535.560542
101542.558333
101546.295669
101549.39437
101541.435305
101510.58376
101490.177095
101486.072268
101529.535483
101248.01993
101251.254645
101250.54106
101251.534467
101250.848049
101256.409518
101283.295186
101331.98369
101389.722214
101445.713983
101496.100055
101527.577661
101536.154333
101540.177617
101544.14462
101546.43762
101526.313137
101490.273047
101479.037548
101504.28609
101253.098887
101252.145943
101253.320727
101251.944728
101253.60171
101252.871568
101262.009637
101295.814969
101353.318835
101416.657645
101478.840008
101524.628454
101535.823181
101539.172829
101542.492671
101545.853104
101542.992308
101503.541588
101474.632271
101484.47133
101251.804013
101255.447851
101253.517384
101255.508489
101254.005231
101255.789736
101256.960029
101283.616797
101338.557901
101405.179232
101472.875047
101525.800284
101539.414241
101541.897243
101544.31771
101546.887063
101549.175965
101521.526528
101474.372314
101468.591037
101257.553255
101256.197611
101257.741865
101255.817222
101257.976864
101256.831112
101258.102495
101281.887694
101336.762826
101405.984889
101476.976412
101531.915728
101545.062235
101546.684777
101548.554427
101550.298851
101552.116538
101536.41933
101478.756075
101465.49776
101256.571621
101260.081157
101258.211729
101260.210081
101258.452037
101260.488389
101260.207873
101284.738381
101341.332474
101413.296662
101487.386757
101542.204155
101551.610443
101552.860023
101553.906993
101555.322875
101556.230263
101547.895475
101488.476948
101466.435071
101262.49079
101261.286558
101262.52919
101260.690282
101262.880831
101261.925222
101263.067003
101291.454451
101353.422778
101430.695622
101508.029298
101555.434514
101558.690904
101559.23673
101560.248689
101560.677861
101561.755061
101556.731765
101500.79127
101468.153696
101262.474324
101264.973845
101263.358223
101265.344099
101263.895335
101265.521517
101267.85227
101305.845317
101376.141291
101458.591536
101534.866649
101565.672281
101565.617225
101566.150991
101566.157602
101566.834705
101566.674119
101564.908517
101513.052697
101470.301201
101267.413835
101267.076741
101267.818183
101266.257307
101268.001529
101267.371778
101277.699463
101328.076279
101406.348325
101491.491156
101559.923201
101572.85312
101572.75035
101572.465725
101572.855003
101572.309269
101572.769864
101571.225151
101522.954457
101472.901172
101269.286129
101270.336014
101269.074899
101270.552141
101269.678602
101270.571789
101294.236423
101358.196118
101441.948217
101526.541868
101577.979129
101579.870338
101579.267813
101579.336008
101578.332483
101578.399507
101577.290767
101576.820457
101529.454666
101473.680823
101272.770849
101273.808184
101273.054127
101272.1864
101273.071023
101278.591038
101322.658422
101397.324455
101483.133326
101561.93844
101587.705107
101586.44237
101586.047559
101584.756302
101584.557027
101582.968504
101582.76588
101580.183241
101532.867724
101473.467103
101276.188853
101281.958174
101275.134479
101275.564965
101277.980142
101305.099328
101366.66638
101445.90486
101530.208964
101590.107632
101593.81486
101592.728019
101591.135442
101590.637053
101588.491207
101587.904345
101585.898696
101582.436372
101534.068251
101471.569656
101285.224367
101292.115992
101281.218085
101283.405282
101302.148611
101352.133118
101422.257937
101501.767305
101577.763216
101600.767402
101598.759058
101596.890549
101596.126934
101593.605331
101592.853885
101590.330597
101589.226317
101581.338343
101532.141691
101469.202021
101290.404991
101301.153254
101298.237501
101310.752031
101348.325222
101409.609545
101481.891211
101558.62306
101604.669734
101603.107883
101601.127959
101600.215081
101597.518423
101596.738449
101593.69281
101592.417578
101589.724148
101578.477402
101527.794116
101467.971029
101289.584403
101311.438424
101322.973699
101351.903788
101401.70823
101466.666493
101538.201223
101599.660077
101605.69618
101603.519207
101602.586197
101599.831455
101599.208614
101595.77686
101594.590682
101591.471043
101589.43179
101574.026583
101523.851944
101466.710878
101289.48017
101330.818946
101351.025402
101391.973385
101448.881816
101515.067845
101582.375693
101606.827277
101604.299624
101603.277432
101600.502583
101600.155112
101596.417235
101595.562996
101591.682192
101589.791477
101586.788457
101570.817563
101522.010557
101466.50083
101298.346321
101366.849764
101382.665162
101422.887602
101481.753116
101547.922258
101602.548114
101603.53857
101602.057921
101599.255786
101599.103802
101594.992828
101594.81665
101587.832218
101578.204068
101581.870268
101584.388336
101572.703615
101527.212182
101469.383607
101320.038981
101406.498597
101407.256611
101436.660312
101495.434694
101562.32414
101599.80703
101597.354518
101594.699339
101594.503651
101590.241733
101590.452206
101573.825849
101554.021528
101565.461347
101578.401098
101585.687468
101581.073561
101542.685074
101477.540107
101340.874225
101402.823155
101404.01976
101425.312938
101486.848995
101555.990716
101586.702413
101584.132947
101584.019338
101580.002458
101580.253233
101550.30523
101518.044489
101536.778237
101559.277293
101572.194878
101582.732532
101587.926025
101562.843737
101493.172858
101330.902807
101360.289216
101351.672758
101375.490715
101445.024595
101520.956815
101559.378216
101561.003594
101558.265057
101538.841382
101495.897488
101463.395953
101485.8745
101523.799593
101547.414011
101558.602352
101571.137015
101585.005061
101581.79562
101516.875843
101264.395992
101252.805769
101242.895733
101266.351748
101338.480468
101422.890301
101471.638723
101478.312739
101450.109925
101398.333841
101367.926357
101393.933696
101454.295841
101503.181625
101529.378221
101540.851765
101554.269726
101574.097287
101586.547898
101544.686376
101175.50777
101152.791173
101150.212489
101164.885494
101212.230326
101279.847164
101330.399018
101337.534979
101304.66183
101271.485802
101274.949754
101327.309405
101405.25574
101473.350124
101510.775875
101521.987797
101533.346672
101559.227685
101578.098645
101571.274071
101129.539173
101129.085268
101130.938202
101130.626833
101148.006408
101185.773848
101228.527357
101243.483256
101228.8102
101209.69786
101213.370602
101258.098366
101337.397548
101428.68861
101490.897181
101505.730724
101513.511205
101540.514575
101571.689672
101574.370705
101127.74183
101131.314334
101130.455227
101131.920735
101132.932057
101158.665368
101195.537972
101210.975429
101202.473058
101184.895695
101179.213279
101208.229054
101278.610087
101380.014181
101466.368143
101492.691711
101500.044959
101524.584029
101568.549167
101570.706164
101130.865339
101130.396812
101132.090889
101131.05659
101132.235225
101155.804088
101191.54443
101204.316456
101194.117749
101177.09749
101176.691362
101188.056211
101245.942731
101345.99036
101442.809946
101483.448963
101494.585424
101517.294596
101563.274673
101569.445333
101128.947817
101132.111995
101131.440171
101132.978457
101133.16677
101160.065827
101195.415202
101206.163264
101194.441929
101177.151441
101176.863269
101182.933188
101234.14958
101331.021992
101430.134864
101480.227591
101494.978357
101515.742802
101557.081201
101569.130598
101132.890828
101134.945894
101133.799751
101133.517138
101142.716161
101178.126361
101211.299102
101215.306913
101199.16705
101177.80585
101177.976784
101183.022465
101233.934956
101330.109218
101429.298904
101482.223817
101497.79574
101517.1549
101554.750597
101570.434857
101132.449649
101148.680974
101137.210553
101140.538539
101166.681433
101212.062443
101242.193382
101238.458683
101212.256958
101181.425532
101178.508625
101186.938711
101241.234404
101337.548915
101435.330231
101487.025191
101502.117585
101520.459139
101555.99134
101572.181355
101134.986265
101167.043905
101153.578679
101163.644772
101202.504881
101254.884299
101281.937608
101272.648064
101235.077023
101195.068788
101186.442018
101204.290629
101266.307553
101361.906454
101452.853238
101496.877246
101509.587641
101526.549817
101559.774748
101574.875738
101133.845126
101185.362085
101176.552345
101195.08055
101243.532898
101301.185495
101324.688333
101311.747353
101267.792878
101225.233471
101218.228305
101244.028369
101312.827841
101406.050497
101483.663511
101512.640039
101520.949781
101536.230904
101566.246533
101578.421445
101133.134452
101205.534997
101201.096313
101228.680668
101287.104471
101348.488451
101367.810797
101353.151351
101310.390996
101273.787085
101273.225703
101304.603429
101376.563488
101462.901802
101519.417904
101531.794887
101536.089922
101549.112769
101574.414376
101582.594623
101136.833112
101232.518281
101229.437148
101263.688694
101329.944698
101394.051288
101411.500942
101396.988824
101361.523384
101336.426926
101341.891558
101379.8329
101450.889305
101521.54444
101550.806755
101552.050394
101553.638882
101562.973923
101581.052736
101586.654487
101150.960378
101263.23745
101258.968552
101293.460635
101362.319782
101430.232718
101454.031217
101442.859233
101419.082883
101407.370042
101419.256092
101462.405707
101523.903711
101566.288436
101572.381927
101569.606293
101568.757485
101572.832922
101584.139314
101589.694096
101175.800244
101275.311863
101273.984655
101303.522058
101373.475334
101444.482397
101478.07067
101479.848967
101472.229788
101473.354138
101492.975182
101532.564233
101571.163275
101584.375466
101582.551283
101578.528413
101575.007529
101576.614799
101584.762143
101590.966746
101197.15894
101257.856367
101252.501736
101283.186361
101358.242761
101432.52159
101468.963531
101480.185861
101487.634578
101501.87093
101526.840985
101556.888736
101578.432422
101583.858393
101582.756941
101579.220409
101575.288375
101576.867552
101583.771413
101590.513154
101170.776953
101192.402905
101183.679398
101216.228861
101296.612708
101381.094129
101430.861576
101453.349764
101468.731939
101488.85193
101517.439865
101548.046446
101569.976912
101578.666589
101579.08813
101577.138972
101574.36589
101576.309181
101581.964992
101588.493622
101102.539564
101080.101926
101084.879208
101109.423334
101166.1466
101243.733512
101315.276441
101369.651194
101412.621802
101452.405227
101492.355425
101530.565295
101559.238157
101572.801446
101575.59712
101575.690847
101574.731512
101576.308195
101580.131846
101585.168953
101018.236606
101016.831766
101030.029554
101038.267633
101054.145587
101087.336119
101138.837142
101204.550768
101280.635119
101357.114128
101427.704644
101491.333526
101542.737119
101568.091904
101573.96886
101575.74127
101576.428984
101577.299357
101578.614178
101580.580343
100970.743532
101027.452532
101027.187057
101022.599522
101022.070893
101025.136028
101037.102489
101070.461895
101139.656867
101233.690985
101334.068555
101431.868185
101518.290344
101566.710132
101574.738697
101576.777771
101578.367953
101579.060272
101577.652535
101573.88957
100972.041311
101070.702787
101039.057097
101025.494794
101024.660912
101024.674341
101024.61651
101041.473464
101094.351262
101180.146114
101284.77625
101396.838006
101503.067789
101569.328633
101578.53648
101579.574541
101580.740497
101580.872791
101576.123799
101563.482518
100984.064801
101084.556871
101065.700784
101043.745298
101033.749008
101032.192504
101033.334645
101050.263379
101100.445341
101183.226831
101286.250873
101399.276141
101507.926818
101575.877288
101583.379431
101583.534542
101583.649685
101582.176633
101569.588927
101551.314496
101014.570315
101085.907354
101093.384216
101085.769195
101072.933059
101069.186223
101071.850112
101089.182038
101134.26515
101209.399438
101307.771481
101419.286028
101526.127162
101585.772293
101587.637456
101586.703257
101586.244362
101577.145759
101554.164786
101547.766309
101055.565625
101092.581439
101118.008069
101143.575077
101153.26798
101157.626357
101163.740035
101182.264603
101222.001411
101287.267717
101376.330628
101479.443932
101567.996563
101591.858214
101589.633372
101588.229148
101581.815499
101554.766287
101541.317716
101545.44887
101106.660843
101114.249194
101140.920148
101194.250351
101249.456275
101284.069009
101303.084099
101326.706747
101363.717146
101419.484968
101493.387776
101565.5778
101592.820412
101589.890374
101587.723997
101578.368125
101546.051223
101521.879173
101533.64215
101547.05589
101149.025077
101137.409398
101147.133303
101206.080321
101303.170973
101386.893711
101436.239326
101472.097742
101506.491685
101543.597455
101575.957284
101586.564122
101583.674021
101578.995716
101555.697464
101512.024453
101479.884134
101497.169454
101533.216038
101556.272616
101129.089888
101130.928679
101129.352321
101183.964876
101289.405674
101395.071383
101468.457685
101512.505816
101538.248267
101553.818773
101560.130085
101559.95408
101538.762205
101492.557697
101432.649861
101397.004816
101419.138425
101486.652855
101540.751474
101564.813192
101097.645434
101094.00312
101082.847398
101137.439306
101244.099342
101352.93122
101430.920746
101475.478788
101496.190331
101499.423909
101483.332285
101436.910837
101369.158337
101304.427105
101280.363687
101314.505274
101395.870672
101483.531472
101547.410373
101562.677163
101047.816307
100979.184879
100996.407514
101050.64002
101139.102913
101235.607848
101309.044132
101344.321369
101347.25205
101323.138917
101272.273237
101212.781588
101172.222313
101172.814568
101218.583054
101296.213579
101390.970529
101490.116514
101552.044193
101556.169844
100906.089531
100869.80406
100907.72517
100955.848768
101012.860668
101073.412804
101115.119138
101129.64167
101125.338626
101109.723192
101092.414804
101089.065958
101109.353117
101151.902678
101215.043254
101301.126654
101408.270797
101514.191643
101555.084228
101553.978605
100811.160164
100826.480231
100858.643003
100889.811051
100925.280752
100970.90786
101006.475483
101024.858453
101033.589969
101043.474914
101059.143464
101080.680731
101112.325222
101163.766886
101241.173262
101345.876108
101465.126865
101548.853982
101556.800683
101555.604582
100795.247168
100818.720614
100838.316761
100854.232069
100876.132551
100921.786286
100980.511409
101024.712253
101039.400076
101052.942451
101073.686108
101104.13618
101152.144997
101223.806093
101322.759828
101441.096621
101539.337233
101561.531931
101560.979099
101560.468704
100797.694628
100817.674957
100830.313632
100836.73071
100849.724459
100887.678899
100965.161671
101049.526202
101088.814472
101109.327081
101139.481197
101186.478313
101254.472712
101344.774654
101451.099272
101541.474022
101567.156179
101566.972428
101567.129202
101565.415592
100797.686691
100818.640891
100828.106921
100829.821342
100835.641619
100862.6506
100939.831887
101064.555274
101178.856347
101222.696433
101265.523057
101326.983605
101406.920371
101492.946006
101556.955748
101573.190543
101573.251657
101573.770358
101572.898257
101556.115779
100800.146118
100822.803702
100829.909598
100830.175218
100830.750695
100848.848763
100911.804898
101051.757729
101208.29261
101334.357127
101407.619932
101481.14615
101545.190904
101575.661998
101579.401817
101579.778663
101580.73574
101580.362447
101580.569921
101430.132172
100800.69642
100836.725721
100836.951876
100833.027666
100832.786643
100845.242338
100897.096675
101024.912367
101199.665224
101360.376857
101494.37561
101572.471753
101585.696671
101586.200325
101586.716768
101588.087241
101587.922457
101589.212966
101535.148502
101293.846321
100803.171601
100865.484826
100855.308524
100841.420524
100836.949977
100848.62545
100897.6767
101010.212031
101181.610332
101359.566166
101511.631775
101592.627701
101594.169865
101594.461784
101595.831374
101595.461403
101597.074346
101594.845267
101414.274368
101272.721452
100808.215968
100903.310635
100883.701248
100860.69545
100851.35063
100861.059199
100906.769153
101015.427795
101179.380083
101357.878459
101517.444038
101601.505395
101602.900214
101603.693608
101603.171898
101604.760923
101603.146898
101574.027541
101315.552801
101278.522155
100832.985433
100927.999646
100916.709783
100895.055441
100885.309337
100894.351389
100936.946521
101037.723309
101192.004035
101366.332042
101525.9059
101610.210855
101611.18349
101610.534027
101611.518249
101609.923618
101610.966139
101491.536892
101287.358539
101282.169426
100852.348849
100953.391729
100952.102344
100945.985739
100946.013857
100960.335102
101003.83591
101094.341284
101230.233318
101390.906371
101543.921089
101618.564152
101617.400005
101617.276359
101615.528091
101616.224125
101608.646535
101398.851861
101284.624789
101284.003906
100884.584337
100966.019815
100987.824433
101009.171187
101030.869274
101060.516877
101109.810308
101190.423672
101305.599906
101446.570662
101582.027798
101623.739025
101622.202275
101620.131398
101620.079467
101616.633785
101558.112159
101352.500002
101291.981047
101288.312174
100933.075373
100996.222615
101030.578045
101080.132494
101134.572924
101189.910524
101249.551136
101323.559232
101422.06629
101539.953302
101624.133086
101625.864404
101623.419443
101622.821843