/*--------------------------------*- C++ -*----------------------------------*\
| =========                 |                                                 |
| \\      /  F ield         | OpenFOAM: The Open Source CFD Toolbox           |
|  \\    /   O peration     | Version:  2312                                  |
|   \\  /    A nd           | Website:  www.openfoam.com                      |
|    \\/     M anipulation  |                                                 |
\*---------------------------------------------------------------------------*/
FoamFile
{
    version     2.0;
    format      ascii;
    arch        "LSB;label=32;scalar=64";
    class       surfaceScalarField;
    location    "0.685/water";
    object      phi;
}
// * * * * * * * * * * * * * * * * * * * * * * * * * * * * * * * * * * * * * //

dimensions      [0 3 -1 0 0 0 0];

oriented        oriented;

internalField   nonuniform List<scalar> 
2914
(
-1.13840098272e-08
6.51598389287e-07
4.11468869649e-09
5.37009221607e-07
2.81173832029e-08
5.66542579455e-07
6.40313122122e-08
5.9793615509e-07
1.06641362395e-07
6.361562213e-07
1.43115297512e-07
6.60637298699e-07
1.67531850183e-07
6.69290469829e-07
1.83569762911e-07
6.70481064864e-07
1.97794962822e-07
6.69691134777e-07
2.1294013236e-07
6.68014978811e-07
2.26934963973e-07
6.6761377052e-07
2.38004364448e-07
6.68412982789e-07
2.47195868539e-07
6.66926543893e-07
2.543810284e-07
6.63823332378e-07
2.60107660213e-07
6.59932172042e-07
2.6592356689e-07
6.56450849663e-07
2.70565434775e-07
6.55763752693e-07
2.58569738232e-07
6.7645920874e-07
2.22332731028e-07
7.41740029775e-07
8.32394237622e-07
1.97223184031e-07
4.5014339543e-08
6.42720978834e-07
4.90379741671e-08
5.26558425003e-07
6.43149028213e-08
5.49129457788e-07
9.14408308785e-08
5.69997192199e-07
1.25886591351e-07
6.01395466466e-07
1.57908382209e-07
6.28532914741e-07
1.81259691179e-07
6.45956410224e-07
1.9728988822e-07
6.54501570802e-07
2.09775850807e-07
6.57259194267e-07
2.1937445059e-07
6.58460119559e-07
2.26515759499e-07
6.60511366129e-07
2.34769478741e-07
6.60196760922e-07
2.45239984346e-07
6.56509051964e-07
2.57808664238e-07
6.51301962311e-07
2.71626173266e-07
6.46179728246e-07
2.85112886226e-07
6.43033319567e-07
2.88897990668e-07
6.52029271521e-07
2.78587727483e-07
6.86880058055e-07
2.77742164781e-07
7.42748475123e-07
8.16130173119e-07
2.94206143473e-07
8.7506316849e-08
6.12546799477e-07
8.6840046369e-08
5.14723042668e-07
9.48766505179e-08
5.36544204148e-07
1.10805288892e-07
5.52758034077e-07
1.33944301301e-07
5.77899807971e-07
1.57500043317e-07
6.04899419861e-07
1.76948416053e-07
6.26517905997e-07
1.90440707106e-07
6.41042324774e-07
1.9813543801e-07
6.49596952617e-07
2.03171279476e-07
6.53457430032e-07
2.11493402396e-07
6.52218030641e-07
2.26469148839e-07
6.4527180411e-07
2.4694124583e-07
6.3608160053e-07
2.70930223487e-07
6.27378535356e-07
2.94196707492e-07
6.2297832622e-07
3.13995137836e-07
6.23267504776e-07
3.32312372473e-07
6.33792075666e-07
3.61551617034e-07
6.57742849124e-07
4.08525177339e-07
6.95891760547e-07
7.74495085655e-07
4.50298549817e-07
1.23617424759e-07
6.30416126579e-07
1.15018273939e-07
5.07135316314e-07
1.13522945899e-07
5.31781055869e-07
1.15718941157e-07
5.48760347518e-07
1.24537787011e-07
5.68637842255e-07
1.36145014432e-07
5.9320064637e-07
1.44538050358e-07
6.18119489341e-07
1.49090294623e-07
6.36503011768e-07
1.51850935568e-07
6.46865543161e-07
1.59162841949e-07
6.46164104703e-07
1.75978026339e-07
6.35446014905e-07
2.02433608315e-07
6.18851590008e-07
2.34059303302e-07
6.04508411062e-07
2.64907868821e-07
5.96584538868e-07
2.99317426546e-07
5.88568956689e-07
3.38999377849e-07
5.83630038827e-07
3.92186713183e-07
5.80656108349e-07
4.63547589107e-07
5.86448290242e-07
5.39934145343e-07
6.19584258952e-07
7.43758223716e-07
5.70770303315e-07
1.58307030902e-07
6.30878058899e-07
1.27276989486e-07
5.22461447801e-07
1.05502492506e-07
5.47882681588e-07
8.8660216924e-08
5.63967182453e-07
8.064193915e-08
5.76276061227e-07
7.79503717669e-08
5.95818619167e-07
7.38887483481e-08
6.22175336251e-07
6.98039159087e-08
6.40616361952e-07
7.1253644049e-08
6.45431650498e-07
8.28579072996e-08
6.34595054721e-07
1.08133949915e-07
6.10205634725e-07
1.37303200363e-07
5.89696605873e-07
1.71143121171e-07
5.70733638663e-07
2.11306197472e-07
5.56430291756e-07
2.58894832711e-07
5.41011098635e-07
3.2064818557e-07
5.21910537044e-07
3.94295894415e-07
5.07107040185e-07
4.75390823155e-07
5.05444012025e-07
5.31878928465e-07
5.63183966353e-07
7.94874534526e-07
4.80832334459e-07
1.54917341783e-07
6.31743510475e-07
9.83196007608e-08
5.65701625888e-07
5.05676630581e-08
5.91435986653e-07
1.31935780925e-08
6.00464767845e-07
-1.07359783648e-08
6.00092583237e-07
-2.63017890239e-08
6.11387764878e-07
-3.73603726978e-08
6.33268368282e-07
-4.55101160987e-08
6.48794745735e-07
-4.90028020424e-08
6.48956529427e-07
-4.24376167894e-08
6.28083002997e-07
-2.30643271859e-08
5.90821578245e-07
6.13329328603e-09
5.60541147937e-07
4.49449553787e-08
5.31966124247e-07
9.6230063029e-08
5.05204280571e-07
1.56836579553e-07
4.80469421766e-07
2.23163751843e-07
4.55665430334e-07
2.91231665278e-07
4.39116088446e-07
3.36406915341e-07
4.60346709479e-07
3.05105265449e-07
5.94572296436e-07
1.12572919779e-06
-2.55468817021e-08
1.53872858879e-07
6.38604767679e-07
7.90170160727e-08
6.30807445285e-07
1.52476469083e-08
6.53334788683e-07
-3.97429063672e-08
6.55361218913e-07
-8.3203139592e-08
6.43610276764e-07
-1.16872516409e-07
6.45082779065e-07
-1.44250465756e-07
6.60646235575e-07
-1.75401208596e-07
6.79953755039e-07
-2.12032968154e-07
6.85625235188e-07
-2.31772131426e-07
6.47837946209e-07
-2.17858125986e-07
5.76949787396e-07
-1.71587526117e-07
5.14320033905e-07
-1.13337889106e-07
4.73764192344e-07
-5.31603864336e-08
4.45075426977e-07
6.60994203302e-09
4.20747081198e-07
6.24576179229e-08
3.99866267165e-07
1.00487903427e-07
4.01141241586e-07
6.17193321188e-08
4.99202252896e-07
-2.33560695016e-07
8.90042125948e-07
1.18684843978e-06
-2.94470590544e-07
1.98161303837e-07
6.16369910885e-07
1.60097179875e-07
6.52756299278e-07
1.18066927263e-07
6.84897365053e-07
6.25551368227e-08
7.05590347616e-07
-4.98523231352e-09
7.09115293274e-07
-7.59987057482e-08
7.15539506528e-07
-1.49960302757e-07
7.34561490954e-07
-2.35741715185e-07
7.65810517231e-07
-3.32150785e-07
7.8213713051e-07
-3.90598950742e-07
7.0640117297e-07
-3.65936067007e-07
5.52370027957e-07
-3.08140578847e-07
4.56571360012e-07
-2.4972200213e-07
4.15379823693e-07
-1.97826927828e-07
3.93210482691e-07
-1.54378350218e-07
3.77331086121e-07
-1.23377294889e-07
3.68905755489e-07
-1.32478460933e-07
4.10310895688e-07
-2.30443882738e-07
5.97307662695e-07
-3.65112187167e-07
1.02491009291e-06
1.17828405626e-06
-3.5633276166e-07
2.6607998949e-07
4.84931014148e-07
2.26180144416e-07
6.566812618e-07
1.88557256417e-07
7.0527083654e-07
1.3603491673e-07
7.50586436e-07
5.50150154931e-08
7.87509814415e-07
-4.75240374422e-08
8.1751925351e-07
-1.62595831697e-07
8.4975835185e-07
-2.79365171683e-07
8.82817816285e-07
-3.8077301372e-07
8.83793176326e-07
-4.31767666346e-07
7.57612259179e-07
-4.12801226129e-07
5.33526141434e-07
-3.69696975227e-07
4.13535843989e-07
-3.31757952804e-07
3.77488412687e-07
-3.0236519598e-07
3.63859217686e-07
-2.81869265739e-07
3.56878241232e-07
-2.79516485142e-07
3.66608170754e-07
-3.15335918731e-07
4.46233812344e-07
-3.84169568881e-07
6.66306286898e-07
-3.91918449366e-07
1.032863798e-06
1.13323455095e-06
-3.46654873192e-07
8.67571284525e-08
4.50907753827e-07
9.40471370401e-08
6.30040553957e-07
8.95001069389e-08
6.99376183383e-07
6.79763218164e-08
7.67514534866e-07
1.70593519165e-08
8.36942315103e-07
-5.39698337412e-08
8.88376959489e-07
-1.37667410051e-07
9.33686955633e-07
-2.23330655937e-07
9.68726980708e-07
-3.04392361102e-07
9.65082187681e-07
-3.84670765271e-07
8.38094999148e-07
-3.98764668434e-07
5.4777282021e-07
-3.82549863079e-07
3.97413257558e-07
-3.69791865253e-07
3.64793373296e-07
-3.62982009837e-07
3.57103520799e-07
-3.63533915139e-07
3.57483818964e-07
-3.79737256869e-07
3.82883924331e-07
-4.16310526359e-07
4.82930188459e-07
-4.54479893101e-07
7.04648630606e-07
-4.15247119816e-07
9.93834547026e-07
1.06810360461e-06
-3.49904826578e-07
4.19134913398e-08
4.4691806698e-07
3.62984304137e-08
6.23627030625e-07
2.87692199869e-08
7.00407088244e-07
1.31359380986e-08
7.8030939128e-07
-2.23678653817e-08
8.71590299146e-07
-6.88316721453e-08
9.34882195882e-07
-1.24036145584e-07
9.89139189943e-07
-1.87205592265e-07
1.03212882683e-06
-2.58957326945e-07
1.03704924411e-06
-3.41597851023e-07
9.20933290225e-07
-3.83707691611e-07
5.90043244556e-07
-3.86890511174e-07
4.00702820655e-07
-3.91525178766e-07
3.69501143142e-07
-4.00079461304e-07
3.65721089122e-07
-4.1415440397e-07
3.71622074823e-07
-4.37583345518e-07
4.06400658382e-07
-4.65289080496e-07
5.1077321609e-07
-4.84735539557e-07
7.24270529067e-07
-4.25936550147e-07
9.35234489864e-07
9.98310710585e-07
-3.55937442236e-07
2.98636558871e-08
4.56396235559e-07
2.24539157513e-08
6.21332097411e-07
1.61463721691e-08
7.01439571829e-07
4.59337535602e-09
7.89472967355e-07
-2.35049469603e-08
8.98980125589e-07
-6.03194688424e-08
9.71762665304e-07
-1.03846591739e-07
1.03288263051e-06
-1.56703874505e-07
1.08519772956e-06
-2.21960989545e-07
1.10251025787e-06
-3.02706876583e-07
1.00187412085e-06
-3.69151053743e-07
6.56653318346e-07
-3.8641461201e-07
4.18081707643e-07
-4.02071823589e-07
3.85238500557e-07
-4.19884142434e-07
3.83603226926e-07
-4.41020285383e-07
3.92828627574e-07
-4.64743690235e-07
4.30220486695e-07
-4.81076848785e-07
5.27249256264e-07
-4.59888019572e-07
7.03256944582e-07
-4.1007177937e-07
8.85613113614e-07
9.40170068891e-07
-3.51729558641e-07
2.66659144798e-08
4.6912688441e-07
2.14225797147e-08
6.18189053091e-07
1.99829285585e-08
6.98167354827e-07
1.58372347156e-08
7.91250253117e-07
-3.86999969776e-09
9.17886430627e-07
-3.6295081402e-08
1.004166633e-06
-7.39935623011e-08
1.07074908575e-06
-1.18350420156e-07
1.12974553113e-06
-1.72958960776e-07
1.15731457294e-06
-2.4349660509e-07
1.07260677758e-06
-3.45550725763e-07
7.58874786707e-07
-3.7475674922e-07
4.47408609201e-07
-3.97937686013e-07
4.08504939874e-07
-4.21287498451e-07
4.07027323753e-07
-4.46059849571e-07
4.17675363231e-07
-4.69184743738e-07
4.53444492086e-07
-4.80216446467e-07
5.38424609956e-07
-4.49474704979e-07
6.72690635725e-07
-3.95199464827e-07
8.31531059241e-07
8.93920282177e-07
-3.48750417642e-07
2.71938724189e-08
4.81633086932e-07
2.09254061883e-08
6.1721968491e-07
2.05423691961e-08
6.94558100009e-07
2.10793578397e-08
7.88502407558e-07
1.17677131452e-08
9.26287621242e-07
-1.72129243092e-08
1.03303032279e-06
-5.17085986717e-08
1.10537429769e-06
-9.05377186226e-08
1.16875156098e-06
-1.35240282931e-07
1.20221193029e-06
-1.96359478989e-07
1.13393319911e-06
-3.02140456637e-07
8.64840921058e-07
-3.44450564689e-07
4.89853520868e-07
-3.74516270637e-07
4.3866510582e-07
-4.01826165626e-07
4.34415865085e-07
-4.29140151297e-07
4.45066433715e-07
-4.52137692317e-07
4.76539255758e-07
-4.61649830483e-07
5.4807396085e-07
-4.46816632575e-07
6.58032087487e-07
-3.86700861593e-07
7.71607124866e-07
8.53506962022e-07
-3.46089242552e-07
2.83108631776e-08
4.92739451365e-07
1.8387925605e-08
6.21142495587e-07
1.45452032068e-08
6.95627183112e-07
1.38893101923e-08
7.87470203838e-07
1.17695054793e-08
9.27577270994e-07
-1.01521810047e-08
1.05479115701e-06
-4.05360814731e-08
1.13585533055e-06
-7.16950874074e-08
1.20007169739e-06
-1.00036853746e-07
1.23073906946e-06
-1.43322753666e-07
1.1774223628e-06
-2.30351625039e-07
9.52060367598e-07
-2.87687356382e-07
5.47331648505e-07
-3.25767438648e-07
4.76848555097e-07
-3.56435397389e-07
4.65164997036e-07
-3.84674392625e-07
4.73382036498e-07
-4.06396590474e-07
4.98351853274e-07
-4.14444410036e-07
5.56248347074e-07
-4.03239238352e-07
6.46988888227e-07
-3.76419060374e-07
7.44972650476e-07
8.07810778026e-07
-3.30528418857e-07
2.90018723291e-08
5.02144334317e-07
1.66063402733e-08
6.2962420758e-07
9.04041268558e-09
7.02577432043e-07
4.28747210298e-09
7.91467256912e-07
2.03505389521e-09
9.29248221408e-07
-1.10506726479e-08
1.06773712516e-06
-3.39360932253e-08
1.15882695792e-06
-5.28616288133e-08
1.21914797771e-06
-5.75402222144e-08
1.23559163641e-06
-6.47439299747e-08
1.18481596221e-06
-1.28944677629e-07
1.01644693983e-06
-2.00594344167e-07
6.19128063399e-07
-2.48248929891e-07
5.24617736519e-07
-2.83242796309e-07
5.00244316457e-07
-3.11159189257e-07
5.01373453752e-07
-3.31772273459e-07
5.19044740113e-07
-3.37084414371e-07
5.61669890774e-07
-3.24025295999e-07
6.34073504047e-07
-2.93833368411e-07
7.14946795955e-07
7.65467552916e-07
-2.51315247298e-07
3.72083472945e-08
4.99501864171e-07
2.38526596128e-08
6.38872647408e-07
1.41584645948e-08
7.13707231615e-07
5.35090973969e-09
8.00863481124e-07
-1.19446806352e-09
9.35705220816e-07
-1.0373880966e-08
1.07689726839e-06
-2.63329210384e-08
1.17489556631e-06
-3.79241592679e-08
1.23089422971e-06
-3.03836336585e-08
1.22822332517e-06
-7.55510313775e-09
1.16217015699e-06
-2.00569211382e-08
1.02912486719e-06
-9.17461924844e-08
6.90960440912e-07
-1.46807876849e-07
5.79800481573e-07
-1.87361484224e-07
5.4089193164e-07
-2.16615882275e-07
5.30700979382e-07
-2.37687382398e-07
5.40185707431e-07
-2.43793748804e-07
5.67862759394e-07
-2.3191353023e-07
6.22313232027e-07
-2.08459749934e-07
6.91635730865e-07
7.38580773125e-07
-1.81423102057e-07
6.8651863839e-08
4.79044113157e-07
5.27614308035e-08
6.42628983359e-07
4.27085827365e-08
7.24172281993e-07
3.25611283482e-08
8.1245683536e-07
2.40276718215e-08
9.44845788497e-07
1.5409163492e-08
1.08576345321e-06
1.99765689507e-09
1.18850091923e-06
-1.29278937116e-08
1.24600770368e-06
-1.88576345017e-08
1.23434049189e-06
-1.03063736926e-08
1.15380587651e-06
5.78629042192e-08
9.61125026515e-07
1.13340476021e-08
7.37631247026e-07
-3.87585741684e-08
6.30009407637e-07
-8.07581791067e-08
5.82989149697e-07
-1.12772539148e-07
5.62790206306e-07
-1.3514338887e-07
5.62618563436e-07
-1.45718068928e-07
5.78502365642e-07
-1.38158679017e-07
6.14845236191e-07
-1.19919510393e-07
6.73516500444e-07
7.26937353288e-07
-1.0814382088e-07
1.2105424514e-07
4.56706549731e-07
1.04623160573e-07
6.36594944031e-07
9.92591089607e-08
7.2520584837e-07
9.66166706601e-08
8.15736345136e-07
9.6985418464e-08
9.45525763567e-07
9.7999410736e-08
1.08539036317e-06
9.53610952767e-08
1.19150553812e-06
8.92392573241e-08
1.25237389302e-06
8.32521407031e-08
1.24052175215e-06
8.88336898756e-08
1.14839360417e-06
1.0879096893e-07
9.41316043498e-07
8.65419688074e-08
7.60009758184e-07
5.13521552841e-08
6.65311436507e-07
1.75034110046e-08
6.16932281055e-07
-1.21856923887e-08
5.92553926739e-07
-3.51213905573e-08
5.85610484478e-07
-5.03960044104e-08
5.93828298921e-07
-5.08399218554e-08
6.1535283664e-07
-3.85631205436e-08
6.61334991536e-07
7.24859226965e-07
-3.63627729678e-08
1.51054516691e-07
4.37398644706e-07
1.46157304347e-07
6.156488092e-07
1.56960577573e-07
7.05759562945e-07
1.75621062191e-07
7.95801202075e-07
1.94368156078e-07
9.27589320238e-07
2.08270216566e-07
1.07241615108e-06
2.13128551381e-07
1.18724361225e-06
2.09699762072e-07
1.25614761058e-06
1.9552726252e-07
1.25491280693e-06
1.7854544289e-07
1.1655371121e-06
1.64953276629e-07
9.5503814203e-07
1.43477107854e-07
7.81597983493e-07
1.19816052316e-07
6.89072855392e-07
9.52848674452e-08
6.41550191447e-07
7.23124084755e-08
6.15596089469e-07
5.24273181182e-08
6.05547972026e-07
3.60212603842e-08
6.1027944959e-07
2.80694137312e-08
6.23353499345e-07
2.9896170309e-08
6.5958255673e-07
7.29921497463e-07
2.49491597701e-08
1.64687396023e-07
4.16768238712e-07
1.81879541003e-07
5.73774044848e-07
2.33266144374e-07
6.41838400959e-07
2.7699751585e-07
7.45789238236e-07
3.15548807346e-07
8.86984994237e-07
3.33563090712e-07
1.05415139061e-06
3.36829686827e-07
1.18421442217e-06
3.28429194424e-07
1.26480285507e-06
3.05215103581e-07
1.27831565515e-06
2.71797944459e-07
1.19909256524e-06
2.32161809883e-07
9.94781839046e-07
1.9704011203e-07
8.16812393396e-07
1.73275391752e-07
7.12920208981e-07
1.54877379681e-07
6.60021754255e-07
1.37950042229e-07
6.32583963706e-07
1.22062151764e-07
6.21480963951e-07
1.0734258617e-07
6.25039877252e-07
9.66314874797e-08
6.34107722158e-07
8.61776019632e-08
6.70103760805e-07
7.45777270478e-07
7.04320765038e-08
1.59116527592e-07
4.07556280727e-07
2.360078813e-07
4.68877766369e-07
3.4727690286e-07
5.10441697896e-07
4.55426473003e-07
6.25393145431e-07
4.69512431989e-07
8.66278978575e-07
4.70414525817e-07
1.05061975188e-06
4.56494504162e-07
1.19730823752e-06
4.34872612688e-07
1.2862658179e-06
4.0072886407e-07
1.31249721989e-06
3.51615963533e-07
1.24828187199e-06
3.02152265112e-07
1.04431996386e-06
2.55154503866e-07
8.63881967565e-07
2.22905681312e-07
7.45236473929e-07
2.02473636606e-07
6.80513307658e-07
1.87105998061e-07
6.48000231573e-07
1.73480286255e-07
6.35144093357e-07
1.60677157234e-07
6.37880340032e-07
1.45344499785e-07
6.49482245867e-07
1.17626186478e-07
6.97895159898e-07
7.62814547838e-07
1.00721464833e-07
2.1595879318e-07
3.35797003177e-07
2.62546322222e-07
3.89444509393e-07
2.84881806168e-07
4.70714875081e-07
3.34737117836e-07
5.66508196528e-07
4.24969640598e-07
7.70482421079e-07
4.53416876144e-07
1.01901446726e-06
4.61792509119e-07
1.18752668324e-06
4.60971428535e-07
1.28657136176e-06
4.47468602962e-07
1.32585793185e-06
4.15788457502e-07
1.27995175912e-06
3.62717447342e-07
1.09742183407e-06
3.09387302147e-07
9.17258319561e-07
2.71120505796e-07
7.83554692452e-07
2.45985704529e-07
7.05696993406e-07
2.28117365365e-07
6.65909861909e-07
2.12086897257e-07
6.51207632005e-07
1.95269098702e-07
6.54734093968e-07
1.6535795407e-07
6.79444919215e-07
1.30452975078e-07
7.32915676705e-07
7.63858150765e-07
1.29565862422e-07
2.13758132744e-07
2.67433205604e-07
1.96682982831e-07
3.78140601788e-07
2.03846106533e-07
4.51280434595e-07
2.31487853456e-07
5.33356764081e-07
3.1466605306e-07
6.84028989265e-07
3.68258569914e-07
9.63118783236e-07
4.08861500253e-07
1.14564331214e-06
4.38959640386e-07
1.25586237349e-06
4.59636061477e-07
1.30492662355e-06
4.6353565234e-07
1.27596025132e-06
4.09832239253e-07
1.15110428378e-06
3.58706456529e-07
9.68400485533e-07
3.16558225857e-07
8.25736687569e-07
2.86738084104e-07
7.35555798888e-07
2.63006111884e-07
6.89677822503e-07
2.37701324318e-07
6.76546265161e-07
2.068219503e-07
6.85657662053e-07
1.68287595288e-07
7.18078888081e-07
1.53925922299e-07
7.47426678483e-07
7.53426888352e-07
1.6452022884e-07
1.61859654924e-07
2.54095545354e-07
1.31613116191e-07
3.89230856203e-07
1.28190902696e-07
4.4861495454e-07
1.43295512632e-07
5.15741469665e-07
1.81642670749e-07
6.44146571055e-07
2.87250673497e-07
8.56150151271e-07
3.43329210646e-07
1.08857118722e-06
3.91586919349e-07
1.2070283645e-06
4.30612572103e-07
1.26560210305e-06
4.50344524451e-07
1.25608527294e-06
4.4229763465e-07
1.15908846558e-06
4.06960021532e-07
1.00372599845e-06
3.66636910168e-07
8.66075928673e-07
3.28972702696e-07
7.73248391234e-07
2.91092416152e-07
7.27588777358e-07
2.5163719181e-07
7.16042429286e-07
2.11576963872e-07
7.25807088864e-07
1.88997835665e-07
7.40787421066e-07
1.89133564125e-07
7.47437826703e-07
7.36446487206e-07
2.06263735498e-07
1.00163212264e-07
3.06494305391e-07
7.49650286501e-08
4.06803540766e-07
6.47300637936e-08
4.56586021342e-07
6.5768238044e-08
5.13696168239e-07
9.30720413421e-08
6.16158865008e-07
1.59815826011e-07
7.88738301884e-07
2.6690109288e-07
9.80872314509e-07
3.33048276995e-07
1.14042923651e-06
3.88410256485e-07
1.20995837225e-06
4.28893950918e-07
1.215440636e-06
4.5472870643e-07
1.13316611193e-06
4.40624210825e-07
1.01779597568e-06
4.0508050097e-07
9.01619222292e-07
3.5878554851e-07
8.19562664742e-07
3.08821741452e-07
7.77592780884e-07
2.6359875869e-07
7.61343368346e-07
2.31742077356e-07
7.57768249213e-07
2.18910316152e-07
7.53738090522e-07
2.22798339196e-07
7.43680996269e-07
7.12625447163e-07
2.46757018243e-07
6.63138863921e-08
3.95176952779e-07
3.99615593492e-08
4.28944147502e-07
2.25400627924e-08
4.72472550139e-07
1.00787147926e-08
5.25603147736e-07
1.9485260989e-08
6.06423105681e-07
7.2809277616e-08
7.35090553573e-07
1.57561476143e-07
8.95796169607e-07
2.56027039883e-07
1.0416816709e-06
3.2532358136e-07
1.14045149674e-06
3.88603919349e-07
1.15202162117e-06
4.15789345949e-07
1.10589931767e-06
4.14158339371e-07
1.01939143966e-06
3.85669244477e-07
9.30108465886e-07
3.41520745988e-07
8.63741401949e-07
2.96036662487e-07
8.23136808623e-07
2.59750608022e-07
7.97711913278e-07
2.35996387656e-07
7.81621215768e-07
2.27578225593e-07
7.62274695727e-07
2.40101881205e-07
7.31286251022e-07
6.83789455608e-07
2.69064681245e-07
6.55345897073e-08
4.80441561478e-07
3.3618776097e-08
4.55242203671e-07
1.01015082112e-08
4.9400157033e-07
-1.00585068977e-08
5.45205799672e-07
-1.77635087784e-08
6.13918950454e-07
1.07703338194e-08
7.06394864408e-07
7.95653457132e-08
8.26834825631e-07
1.59054243676e-07
9.62032830339e-07
2.36876264332e-07
1.06249691042e-06
2.89923066106e-07
1.09888351838e-06
3.17121410877e-07
1.07864985503e-06
3.18361383508e-07
1.01813746052e-06
2.99993387346e-07
9.48493969658e-07
2.72130151098e-07
8.91649073415e-07
2.44591077868e-07
8.50744506931e-07
2.20764775986e-07
8.2162675978e-07
2.08349968871e-07
7.94140326773e-07
2.14153858038e-07
7.56584145777e-07
2.35959471895e-07
7.09591904256e-07
6.54688748242e-07
2.6515772715e-07
8.42820809692e-08
5.47294204153e-07
4.86213848367e-08
4.83010784386e-07
2.04534170141e-08
5.19349833765e-07
-4.25420828418e-09
5.69131145934e-07
-2.18926748608e-08
6.31368511115e-07
-2.25680585325e-08
7.0699825365e-07
1.19363413016e-08
7.92262936989e-07
8.01078307012e-08
8.93797073098e-07
1.43771927688e-07
9.98782717772e-07
1.8650544639e-07
1.0561211746e-06
2.08592823795e-07
1.0565592367e-06
2.11069974257e-07
1.01568309368e-06
2.01843341656e-07
9.57766428853e-07
1.87964846981e-07
9.05593815337e-07
1.75008896019e-07
8.63783596492e-07
1.69289250432e-07
8.27441124843e-07
1.76016168001e-07
7.87511521961e-07
1.94201126746e-07
7.38493217551e-07
2.17880748917e-07
6.85993501228e-07
6.29181969658e-07
2.43452443132e-07
1.16084087971e-07
5.9505660487e-07
7.7139245636e-08
5.12583896785e-07
4.49807864128e-08
5.480532251e-07
1.72179041029e-08
5.96016933719e-07
-6.1284711985e-09
6.54500556718e-07
-2.12506032122e-08
7.22088872131e-07
-2.41505627969e-08
7.9515850427e-07
4.70075489835e-09
8.64934920612e-07
5.85269805262e-08
9.44954473663e-07
9.64599785072e-08
1.01820589741e-06
1.1441097017e-07
1.03864565221e-06
1.20566297695e-07
1.00958379159e-06
1.20362766963e-07
9.58040692385e-07
1.19920074609e-07
9.06117562387e-07
1.24062432092e-07
8.59727632708e-07
1.35281941942e-07
8.1630663439e-07
1.54282840432e-07
7.68587733842e-07
1.77300006578e-07
7.15544179209e-07
2.00932956853e-07
6.62419198605e-07
6.04393274265e-07
2.25770846843e-07
1.60551980311e-07
6.02517630782e-07
1.15679137644e-07
5.46126628704e-07
7.99920241696e-08
5.8040612004e-07
4.79741791055e-08
6.27000282881e-07
2.03824299618e-08
6.8190304386e-07
-2.83929115085e-09
7.45286822459e-07
-1.90545541247e-08
8.11395563752e-07
-2.7537221212e-08
8.73440533569e-07
-5.70184471621e-09
9.23160989875e-07
2.65492020419e-08
9.86005517594e-07
4.27517404844e-08
1.02251180824e-06
5.56286647649e-08
9.96783345691e-07
6.65666101219e-08
9.47181387041e-07
7.80766408751e-08
8.94683909846e-07
9.34580772402e-08
8.44417349396e-07
1.14165606318e-07
7.95663433571e-07
1.40681170623e-07
7.4212954784e-07
1.69816619941e-07
6.8646246301e-07
2.00948119064e-07
6.3133733855e-07
5.71152264352e-07
2.34232387698e-07
1.71490806436e-07
5.92646365777e-07
1.26116281346e-07
5.81435577836e-07
8.81423734429e-08
6.14527080246e-07
5.65592388243e-08
6.5771653922e-07
2.74155169939e-08
7.10808563876e-07
2.19646105133e-09
7.70511122986e-07
-1.87513433185e-08
8.3237153453e-07
-3.27788173786e-08
8.8752839006e-07
-3.82351827641e-08
9.28665894124e-07
-2.32213353503e-08
9.7108518885e-07
-1.06221351879e-08
1.00999670254e-06
6.3788407977e-09
9.79863411606e-07
2.36600441443e-08
9.29975415173e-07
4.24720316043e-08
8.75939061735e-07
6.56836862183e-08
8.21264955997e-07
9.58685765829e-08
7.65530288217e-07
1.34527707986e-07
7.03515480466e-07
1.77799795945e-07
6.43230868589e-07
2.26162225898e-07
5.83011328588e-07
5.179440672e-07
2.79402113124e-07
1.3912785175e-07
6.10912179468e-07
8.33613653662e-08
6.26057288595e-07
4.35082037019e-08
6.51377093825e-07
1.09626110425e-08
6.89439496228e-07
-1.71789142507e-08
7.38960367158e-07
-4.21722651779e-08
7.95551269343e-07
-6.29698671214e-08
8.53255408725e-07
-7.74088951915e-08
9.02059103484e-07
-8.35337575614e-08
9.34952931192e-07
-9.22318530682e-08
9.79849110035e-07
-8.0115960471e-08
9.97976490175e-07
-5.90275656055e-08
9.58859868193e-07
-3.53927364551e-08
9.06410845806e-07
-6.42530003309e-09
8.47027448266e-07
3.0782843806e-08
7.84099976412e-07
7.80539989714e-08
7.18291364002e-07
1.3335831442e-07
6.48235197392e-07
1.93200162795e-07
5.83408193157e-07
2.61047259603e-07
5.151806913e-07
4.41180414074e-07
3.37824277692e-07
8.68143193141e-08
6.8803884467e-07
-3.0862794393e-08
7.31417401108e-07
-9.4201326584e-08
7.12126746051e-07
-1.30872310579e-07
7.26071424264e-07
-1.49376633762e-07
7.57602023573e-07
-1.65675552831e-07
8.11992406789e-07
-1.79457278249e-07
8.67177196453e-07
-1.94573204011e-07
9.17320783394e-07
-2.16150372611e-07
9.56541231638e-07
-2.28728145037e-07
9.92519680646e-07
-2.01284717176e-07
9.70623072559e-07
-1.62207276609e-07
9.19852134339e-07
-1.16782717934e-07
8.61034762003e-07
-6.50857768241e-08
7.95360861804e-07
-7.03155872079e-09
7.26060570249e-07
5.76862436546e-08
6.53578899241e-07
1.23581597648e-07
5.82339839429e-07
1.92826725103e-07
5.14162281311e-07
2.69501998916e-07
4.38505585549e-07
3.59201626997e-07
3.51481978617e-07
8.50796803892e-08
7.80035063607e-07
-1.06247053992e-07
9.1206857851e-07
-2.03912642303e-07
8.11321115976e-07
-2.65709281207e-07
7.88861829621e-07
-3.06608723774e-07
7.98727095611e-07
-3.38365410093e-07
8.43699506317e-07
-3.76445920962e-07
9.05281775573e-07
-4.18925500033e-07
9.59824512656e-07
-4.49714646597e-07
9.87439830704e-07
-4.1692184054e-07
9.5985065763e-07
-3.4595655242e-07
8.99747312602e-07
-2.67477450246e-07
8.41430730718e-07
-1.86700072584e-07
7.80289713165e-07
-1.06389975113e-07
7.1506175296e-07
-2.89752558059e-08
6.48641723083e-07
4.29732733892e-08
5.81616229341e-07
1.07496623574e-07
5.17802129738e-07
1.73166900384e-07
4.48482052697e-07
2.39735932531e-07
3.71931647588e-07
2.93891048951e-07
3.0504521612e-07
8.39040751082e-08
8.1126569655e-07
-1.77148555742e-09
9.94801250963e-07
-1.42203898094e-07
9.54508117783e-07
-2.69855226132e-07
9.18531449178e-07
-3.80344103115e-07
9.09832371319e-07
-4.8121608744e-07
9.44830911296e-07
-5.71665571018e-07
9.95896826585e-07
-6.33121014649e-07
1.02149908073e-06
-6.04164706624e-07
9.58710291078e-07
-5.05831712601e-07
8.61699205531e-07
-3.92873375727e-07
7.86920386766e-07
-2.81351289976e-07
7.29997431301e-07
-1.77824190371e-07
6.76816887197e-07
-8.63980231443e-08
6.23663667256e-07
-1.03509570375e-08
5.72605216235e-07
4.7566365501e-08
5.23698588089e-07
9.61360185415e-08
4.69229829961e-07
1.4077138553e-07
4.03845198204e-07
1.80161388667e-07
3.32542417843e-07
2.51922859711e-07
2.22129476383e-07
1.15002873746e-08
-1.90845999236e-08
-7.04531969448e-08
-1.49971174642e-07
-2.49202206233e-07
-3.4317250726e-07
-4.1656446086e-07
-4.48559828087e-07
-3.84197534669e-07
-3.02314490529e-07
-2.18725571769e-07
-1.38921389593e-07
-6.8085549564e-08
-1.03596457118e-08
3.23827011695e-08
6.18724692024e-08
8.23164879008e-08
9.42624319489e-08
9.9116141876e-08
1.05749066374e-07
8.5336626862e-08
6.76210245408e-07
7.61754687053e-08
5.75471899236e-07
5.33038653231e-08
4.96331222866e-07
3.46966095155e-08
4.32662442736e-07
3.63788803118e-08
3.41627745019e-07
4.69189799779e-08
2.20121030573e-07
3.92810378635e-08
1.47022150889e-07
2.82303289127e-08
9.92627554528e-08
2.08024888624e-08
5.87349579255e-08
2.35214656249e-08
2.01211120522e-08
3.23135896805e-08
-1.095902901e-08
3.62278440227e-08
-7.35360032409e-09
2.73186883813e-08
7.62140515563e-08
3.7793176893e-09
8.9380795705e-08
-2.9018987486e-09
3.4436497021e-09
-3.16224910695e-08
1.84124341219e-07
8.68631978542e-07
1.68378702577e-07
8.55024933324e-07
1.5032530634e-07
8.30191878368e-07
1.26724162885e-07
7.84813285849e-07
9.50576098434e-08
7.08004029425e-07
5.8881606257e-08
6.11712771526e-07
3.10311832308e-08
5.24202318328e-07
2.13817698579e-08
4.42317443358e-07
3.19350758314e-08
3.31077268068e-07
2.07741819307e-08
2.31289647706e-07
4.55831547552e-09
1.63257492479e-07
1.29512940589e-09
1.02547815483e-07
5.48676306842e-09
5.4564552139e-08
1.46788433443e-08
1.09391202088e-08
2.36320867646e-08
-1.99085555852e-08
2.94948362297e-08
-1.31975557452e-08
3.45136956128e-08
7.12620154978e-08
4.83372933947e-09
1.1912972186e-07
-6.15982097397e-09
1.44674824627e-08
-3.77820192423e-08
3.00656521514e-07
8.62393794114e-07
2.81106211811e-07
8.74773931245e-07
2.31217695681e-07
8.80266084134e-07
1.55848849094e-07
8.60354822726e-07
7.489805356e-08
7.89083513524e-07
1.99429412513e-08
6.66731769184e-07
-3.29008817396e-09
5.47456770231e-07
-6.41660073273e-09
4.45452572321e-07
-2.22576516424e-08
3.46932612897e-07
-4.44910696106e-08
2.53553811297e-07
-4.15638060769e-08
1.60378223169e-07
-3.24474391904e-08
9.34594643926e-08
-2.30051527409e-08
4.51299503699e-08
-1.54709333866e-08
3.4060123744e-09
-9.06874142016e-09
-2.63091421701e-08
1.42581765424e-09
-2.36760193651e-08
2.53704911788e-08
4.73726528209e-08
9.22595432363e-09
1.35345413077e-07
-8.7959750857e-09
3.25273807994e-08
-4.65775577445e-08
4.51307154404e-07
8.61551741471e-07
4.02713588603e-07
9.23542305214e-07
3.01355885569e-07
9.81822946555e-07
1.62844049112e-07
9.99061737546e-07
2.72124617837e-08
9.24886646348e-07
-5.17227625197e-08
7.45759535612e-07
-8.78985419526e-08
5.83674746045e-07
-1.16189699766e-07
4.73779057459e-07
-1.52346133556e-07
3.83137800896e-07
-1.32507917984e-07
2.33752271254e-07
-9.9322199313e-08
1.27212920005e-07
-8.03020108583e-08
7.44434737708e-08
-7.23434417343e-08
3.71718095756e-08
-6.77928293985e-08
-1.14455445438e-09
-6.18974102616e-08
-3.22038277758e-08
-4.77897524142e-08
-3.77760293663e-08
-1.39569509861e-08
1.35679781601e-08
3.82899244948e-09
1.17606856746e-07
-7.82322555655e-09
4.42104779898e-08