/*--------------------------------*- C++ -*----------------------------------*\
| =========                 |                                                 |
| \\      /  F ield         | OpenFOAM: The Open Source CFD Toolbox           |
|  \\    /   O peration     | Version:  2312                                  |
|   \\  /    A nd           | Website:  www.openfoam.com                      |
|    \\/     M anipulation  |                                                 |
\*---------------------------------------------------------------------------*/
FoamFile
{
    version     2.0;
    format      ascii;
    arch        "LSB;label=32;scalar=64";
    class       volScalarField;
    location    "0.16/water";
    object      p;
}
// * * * * * * * * * * * * * * * * * * * * * * * * * * * * * * * * * * * * * //

dimensions      [1 -1 -2 0 0 0 0];

internalField   nonuniform List<scalar> 
1504
(
100884.65963
100880.431352
100881.06322
100880.636843
100879.558566
100878.307768
100876.74147
100875.087646
100873.661123
100872.952353
100872.421381
100871.718182
100870.528884
100869.692296
100869.203647
100868.830272
100868.726056
100868.803396
100868.887062
100868.514715
100874.629903
100869.518905
100869.875696
100869.287859
100868.008333
100866.412982
100864.66416
100863.375411
100862.682954
100862.16638
100861.444131
100860.343602
100859.06525
100857.885575
100856.955683
100856.539287
100856.191453
100856.235372
100856.501507
100856.236962
100863.7124
100857.019348
100857.291308
100856.740803
100855.413842
100853.777133
100852.339366
100851.339448
100850.538566
100849.692991
100848.602593
100847.234525
100845.80546
100844.449541
100843.554122
100842.881461
100842.627602
100842.790786
100842.908965
100842.855746
100840.494068
100833.083714
100834.575302
100835.405851
100835.302736
100834.598088
100833.876949
100833.316817
100832.838642
100832.238463
100831.336015
100830.317229
100829.36399
100828.459923
100827.792855
100827.348784
100827.280974
100827.550774
100827.937093
100828.222886
100798.470716
100794.678766
100797.96867
100800.496412
100803.004
100804.995634
100806.43273
100807.583423
100808.540306
100809.201498
100809.574122
100809.844213
100810.100928
100810.296883
100810.50291
100810.650195
100811.12407
100811.631445
100812.099056
100812.855342
100763.304304
100764.534256
100766.500806
100768.080811
100770.289137
100773.782743
100777.420312
100780.500276
100783.108588
100785.349384
100787.277534
100788.990238
100790.56996
100792.017579
100793.34413
100794.537046
100795.274555
100796.133414
100797.033423
100797.887016
100752.883815
100753.79038
100754.635864
100754.825596
100754.976935
100755.73517
100758.010679
100761.079995
100764.010391
100766.731736
100769.26367
100771.611893
100773.828695
100775.93032
100777.881844
100779.635161
100780.860087
100781.941557
100783.010152
100783.851914
100746.820515
100748.067354
100748.908979
100749.171917
100749.038671
100748.741706
100748.812022
100750.027093
100751.968329
100754.188092
100756.495037
100758.765715
100760.963859
100763.100623
100765.115494
100767.071914
100768.378829
100769.794016
100770.90562
100771.868036
100742.94734
100743.83731
100744.56671
100744.840484
100744.862218
100744.689731
100744.339617
100744.335975
100745.12247
100746.43482
100748.067775
100749.870734
100751.723382
100753.591578
100755.472839
100757.155854
100758.750769
100759.893411
100760.961544
100762.095549
100739.587324
100740.443768
100741.024118
100741.328197
100741.409825
100741.354788
100741.129547
100740.854325
100741.060883
100741.74068
100742.751294
100744.005529
100745.39916
100746.8901
100748.382917
100749.671761
100750.842062
100752.208167
100753.122238
100753.891983
100737.174175
100737.799751
100738.384538
100738.631325
100738.688071
100738.63395
100738.515113
100738.323359
100738.336518
100738.692499
100739.307105
100740.128284
100741.080799
100742.113453
100743.307025
100744.217891
100745.303035
100745.911005
100746.745856
100747.588138
100734.726432
100735.345976
100735.986638
100736.277023
100736.378569
100736.376722
100736.342445
100736.240848
100736.25199
100736.491553
100736.906294
100737.444832
100738.041157
100738.777382
100739.510724
100740.130118
100740.431662
100741.199122
100741.826217
100742.240317
100733.111477
100733.48498
100734.017565
100734.253048
100734.336512
100734.348721
100734.313568
100734.277545
100734.341081
100734.554908
100734.87545
100735.238894
100735.579864
100735.97223
100736.605605
100736.850688
100736.918919
100737.044692
100737.600568
100738.035011
100731.382677
100731.601054
100732.081882
100732.310149
100732.403506
100732.419673
100732.4253
100732.436481
100732.543148
100732.741456
100733.012282
100733.275979
100733.430491
100733.671819
100733.886748
100733.866993
100733.327773
100733.713363
100734.007021
100734.081784
100729.978317
100730.00272
100730.346292
100730.534795
100730.609467
100730.640868
100730.684204
100730.794343
100730.972503
100731.196937
100731.45727
100731.561026
100731.416018
100731.302053
100731.445797
100730.86637
100730.1656
100730.104974
100730.300439
100730.437184
100728.151512
100728.165287
100728.617398
100728.807538
100728.882449
100728.911717
100728.995107
100729.189183
100729.422262
100729.667025
100729.790585
100729.41937
100728.881962
100728.695753
100728.367795
100727.259521
100726.339739
100726.749893
100726.68469
100726.439796
100726.154765
100726.153135
100726.647979
100726.839177
100726.878569
100726.909056
100727.028507
100727.225043
100727.423447
100727.514427
100727.036366
100726.106998
100725.580638
100725.201382
100724.760267
100723.479409
100722.747432
100722.55439
100722.359018
100722.265503
100723.903553
100723.827406
100724.404609
100724.555081
100724.585491
100724.580713
100724.613174
100724.648981
100724.602699
100723.987998
100722.768493
100721.978037
100721.494774
100721.16939
100720.419687
100718.745199
100717.752493
100718.037764
100717.71853
100717.293283
100721.336307
100721.00247
100721.741116
100721.901114
100721.872998
100721.711604
100721.460131
100721.143581
100720.306352
100718.788815
100717.746605
100717.063999
100716.623067
100716.016376
100715.106755
100713.424097
100712.712538
100712.442808
100712.022805
100711.835224
100717.791681
100717.034993
100717.948653
100718.17613
100718.000906
100717.510414
100716.88558
100715.870575
100714.11134
100712.826931
100711.947738
100711.429365
100710.7683
100710.053087
100708.937739
100707.083252
100706.091865
100706.067536
100705.658509
100705.245704
100711.452473
100710.751819
100712.45904
100712.79094
100712.348578
100711.533684
100710.464215
100708.645872
100707.076009
100705.977878
100705.373841
100704.579344
100703.814427
100702.890532
100701.53269
100699.822907
100698.913893
100698.473571
100698.010949
100697.856683
100703.642357
100702.963297
100705.433942
100705.789653
100705.103922
100704.025293
100702.422351
100700.541956
100699.181965
100698.489566
100697.563543
100696.7984
100695.862558
100694.73311
100693.443546
100691.187932
100690.086942
100689.863212
100689.356777
100688.958398
100695.759269
100694.897069
100697.815622
100698.093629
100697.153114
100695.724257
100693.675717
100691.850732
100691.009061
100689.910563
100689.11833
100688.025834
100686.796806
100685.656994
100683.523802
100681.542691
100680.616096
100679.941526
100679.343519
100679.089018
100688.431091
100687.185895
100690.082457
100690.171592
100688.909901
100687.040327
100684.698096
100683.416397
100682.062429
100681.166469
100679.832028
100678.413498
100677.026975
100675.263427
100673.500775
100671.057941
100669.764797
100669.097153
100668.292121
100667.719445
100680.7578
100678.932419
100681.184387
100680.986481
100679.475538
100677.43958
100675.453687
100673.833313
100672.867948
100671.410717
100669.970296
100668.467382
100666.115302
100664.57563
100661.716081
100659.616075
100658.192784
100656.999686
100656.05242
100655.460784
100670.227807
100668.456539
100671.14578
100670.567769
100668.855651
100666.989281
100664.861465
100663.748004
100662.263177
100660.72627
100658.919865
100655.231882
100653.296331
100651.205397
100649.321109
100647.247793
100645.463874
100644.051225
100642.910132
100642.009979
100658.455078
100656.50784
100659.033297
100658.26271
100656.580231
100654.731647
100653.063237
100651.213103
100648.718364
100645.573663
100641.491116
100640.161715
100639.388476
100638.222431
100636.375158
100634.263183
100632.219016
100630.502416
100629.347834
100628.447399
100646.356326
100643.327045
100644.529759
100643.012414
100640.303772
100637.582801
100634.993683
100631.836448
100628.916833
100626.658196
100626.665597
100627.072846
100626.710494
100625.271394
100623.340706
100621.116335
100618.94143
100617.120258
100615.72134
100614.516054
100635.588487
100630.515523
100629.680407
100626.926854
100623.270528
100620.530512
100618.750669
100617.453787
100616.652162
100616.772854
100617.050284
100616.731959
100615.426296
100613.41283
100611.077157
100608.589884
100606.096299
100603.902619
100602.240385
100601.046746
100629.066623
100621.927046
100620.162614
100617.410029
100614.720332
100613.512829
100612.793907
100611.893566
100610.935478
100610.059133
100609.057363
100607.620645
100605.478952
100602.70028
100599.702649
100596.671385
100593.642728
100591.043051
100589.046234
100587.55013
100623.254046
100614.828253
100613.425811
100610.958944
100608.781373
100608.009868
100607.006178
100605.315602
100603.452238
100601.761839
100600.097489
100598.014134
100595.098937
100591.550611
100587.959381
100584.486996
100581.080073
100578.239523
100576.167613
100574.885945
100611.681007
100601.376846
100601.362721
100598.832363
100597.21387
100596.996095
100596.042137
100594.075042
100591.854379
100589.765837
100587.569344
100584.72748
100581.082239
100577.22996
100573.709453
100570.438101
100567.334038
100564.901898
100563.349846
100562.439979
100574.044721
100563.872989
100565.080621
100564.084886
100565.89516
100567.809917
100568.748655
100568.47341
100567.646157
100566.376282
100564.486564
100561.934098
100559.162806
100556.700618
100554.593694
100552.668781
100550.92331
100549.772688
100549.221643
100548.653259
100492.318118
100488.038825
100493.543841
100498.422089
100503.534197
100508.345024
100513.399528
100518.588701
100522.992721
100525.992891
100527.602986
100528.464247
100529.132202
100529.773103
100530.337457
100530.825911
100531.304608
100532.015775
100532.75092
100532.751583
100448.331799
100448.400372
100449.463478
100451.553812
100453.937212
100456.282055
100459.210049
100464.219764
100471.568212
100479.794621
100486.970387
100492.61541
100497.210579
100501.106081
100504.483583
100507.47157
100510.17497
100512.674837
100514.687374
100515.963262
100446.204216
100446.198286
100446.176627
100446.147736
100446.10167
100446.04868
100445.910406
100445.937455
100446.887483
100450.24192
100456.698451
100464.067594
100470.837897
100476.773561
100481.986598
100486.630087
100490.819072
100494.594527
100497.745245
100500.464708
100444.812416
100444.804709
100444.790036
100444.768422
100444.738329
100444.701066
100444.656268
100444.617239
100444.598033
100444.630566
100445.804842
100449.115349
100454.112244
100459.797573
100465.472666
100470.802172
100475.724814
100480.194086
100484.197645
100487.679381
100443.660309
100443.65797
100443.654342
100443.652271
100443.650484
100443.649371
100443.650299
100877.23827
100876.793266
100876.426957
100876.125928
100875.87907
100875.677112
100875.512807
100875.381484
100875.279859
100875.201904
100875.139246
100875.086289
100875.040705
100875.002108
100874.97068
100874.947299
100874.925266
100867.737912
100866.972367
100866.351824
100865.84712
100865.437382
100865.105217
100864.8363
100864.618946
100864.443575
100864.302828
100864.192006
100864.108037
100864.045192
100863.995161
100863.95214
100863.913928
100863.880436
100863.852238
100863.830451
100863.806997
100855.574465
100854.880026
100854.344323
100853.92868
100853.6048
100853.351944
100853.15431
100852.999807
100852.879043
100852.78511
100852.713904
100852.663253
100852.628431
100852.601581
100852.576964
100852.552752
100852.529407
100852.508009
100852.490137
100852.466254
100842.501338
100842.035231
100841.699709
100841.46583
100841.303232
100841.191285
100841.115279
100841.064715
100841.031976
100841.011894
100841.002058
100841.002252
100841.009711
100841.017609
100841.020652
100841.017721
100841.010016
100840.999424
100840.988094
100840.965157
100828.389478
100828.400883
100828.437743
100828.512408
100828.606979
100828.709577
100828.812403
100828.910549
100829.001002
100829.082392
100829.15558
100829.223673
100829.287044
100829.340628
100829.380052
100829.405249
100829.418463
100829.422483
100829.420297
100829.399913
100813.579985
100814.254224
100814.807283
100815.294544
100815.724166
100816.100325
100816.427108
100816.708658
100816.949038
100817.152471
100817.324455
100817.472581
100817.601426
100817.708367
100817.790373
100817.848701
100817.886725
100817.908341
100817.917399
100817.901184
100798.896624
100800.167807
100801.270092
100802.198496
100802.986729
100803.655274
100804.220632
100804.696697
100805.095283
100805.426781
100805.701786
100805.932816
100806.129209
100806.291193
100806.417316
100806.510204
100806.574398
100806.614765
100806.636101
100806.625519
100784.985395
100786.649537
100788.273608
100789.62623
100790.752974
100791.694946
100792.481978
100793.137853
100793.681993
100794.130749
100794.499522
100794.805472
100795.062653
100795.274263
100795.440461
100795.565108
100795.653645
100795.711779
100795.745028
100795.741123
100772.927287
100774.437592
100776.318837
100777.989708
100779.377513
100780.531091
100781.48979
100782.284709
100782.941078
100783.479867
100783.920153
100784.282631
100784.58534
100784.834219
100785.030918
100785.180184
100785.288035
100785.360586
100785.403863
100785.407162
100762.807603
100764.006214
100765.7809
100767.595417
100769.13616
100770.411423
100771.467693
100772.340995
100773.060143
100773.648847
100774.128199
100774.52074
100774.84711
100775.115464
100775.32871
100775.492039
100775.611521
100775.693286
100775.743396
100775.753757
100754.831923
100755.696973
100756.996708
100758.658545
100760.199753
100761.486238
100762.550958
100763.430393
100764.153748
100764.745053
100765.225429
100765.617226
100765.941827
100766.208837
100766.42214
100766.586861
100766.708643
100766.793111
100766.845932
100766.86251
100748.33506
100749.045149
100749.916821
100751.213998
100752.592328
100753.781209
100754.76563
100755.578492
100756.246859
100756.792895
100757.235883
100757.595986
100757.893232
100758.137849
100758.334375
100758.487383
100758.601604
100758.681794
100758.732748
100758.753924
100742.930907
100743.616606
100744.336087
100745.187326
100746.237138
100747.213707
100748.033544
100748.713194
100749.273289
100749.731438
100750.103138
100750.404317
100750.651208
100750.854139
100751.018194
100751.146947
100751.243927
100751.312795
100751.35735
100751.380955
100738.372652
100739.057116
100739.484234
100740.118007
100740.851594
100741.557355
100742.161925
100742.664769
100743.07924
100743.418307
100743.693239
100743.914828
100744.094122
100744.241011
100744.360816
100744.455894
100744.528384
100744.580688
100744.615436
100744.63922
100734.416668
100734.646957
100735.287613
100735.788254
100736.220299
100736.599805
100736.935241
100737.223419
100737.462807
100737.659216
100737.818516
100737.945942
100738.047031
100738.129511
100738.197926
100738.253337
100738.296485
100738.328556
100738.35097
100738.372611
100730.379854
100730.818273
100731.176666
100731.6534
100731.877763
100731.955514
100732.018782
100732.087572
100732.147028
100732.196073
100732.235519
100732.265647
100732.286883
100732.303606
100732.318878
100732.332558
100732.344224
100732.35406
100732.362688
100732.380126
100726.52017
100726.535129
100727.092634
100727.421143
100727.440063
100727.254629
100727.082796
100726.955847
100726.851568
100726.764739
100726.692658
100726.63182
100726.57841
100726.533516
100726.49848
100726.472096
100726.453006
100726.440693
100726.435293
100726.446936
100721.995993
100722.344081
100722.616368
100722.848372
100722.689889
100722.283027
100721.906256
100721.604581
100721.353029
100721.143587
100720.970681
100720.827627
100720.707
100720.606695
100720.52609
100720.462979
100720.415262
100720.381842
100720.362706
100720.367288
100717.306495
100717.257968
100717.763368
100717.862517
100717.501446
100716.876632
100716.312217
100715.850398
100715.464744
100715.144505
100714.881047
100714.664556
100714.484342
100714.335131
100714.214117
100714.118115
100714.044339
100713.99123
100713.95876
100713.955111
100711.50148
100711.997286
100712.395275
100712.27056
100711.662655
100710.835813
100710.109612
100709.50929
100709.008707
100708.594384
100708.254357
100707.975239
100707.743558
100707.552015
100707.395973
100707.271365
100707.174781
100707.104052
100707.059009
100707.046129
100705.363438
100705.751492
100706.113017
100705.786365
100704.949052
100703.963921
100703.117807
100702.412896
100701.825039
100701.338811
100700.939837
100700.612173
100700.340542
100700.116025
100699.932349
100699.784676
100699.669039
100699.582773
100699.525872
100699.502745
100697.763299
100698.499155
100698.718601
100698.215276
100697.202994
100696.115683
100695.193951
100694.423129
100693.779572
100693.246816
100692.80942
100692.450768
100692.154811
100691.910367
100691.709424
100691.546578
100691.417505
100691.319001
100691.251341
100691.216809
100689.251316
100689.75064
100689.934184
100689.345784
100688.280944
100687.181798
100686.243057
100685.451449
100684.787402
100684.235709
100683.781712
100683.409917
100683.104805
100682.853392
100682.646111
100682.477112
100682.341672
100682.235776
100682.159253
100682.112123
100679.067705
100679.732647
100679.853756
100679.294272
100678.270928
100677.193051
100676.265087
100675.480773
100674.821468
100674.272295
100673.819511
100673.449624
100673.148546
100672.901863
100672.698439
100672.53198
100672.397278
100672.288956
100672.20577
100672.144799
100667.924606
100668.280483
100668.490016
100668.064666
100667.134272
100666.119873
100665.241405
100664.49804
100663.871569
100663.347645
100662.914112
100662.560618
100662.275877
100662.044875
100661.855041
100661.699784
100661.573384
100661.468456
100661.381338
100661.304915
100655.215848
100655.639682
100655.739922
100655.402324
100654.72965
100653.915573
100653.163656
100652.513905
100651.957938
100651.486546
100651.092015
100650.769272
100650.512037
100650.306337
100650.138655
100650.002702
100649.892787
100649.798749
100649.71211
100649.618802
100641.92775
100641.985574
100642.022209
100641.708946
100641.32542
100640.794811
100640.201892
100639.663251
100639.190939
100638.782701
100638.435659
100638.15
100637.925225
100637.749595
100637.608818
100637.49773
100637.412564
100637.340376
100637.262969
100637.152805
100627.911662
100628.229014
100628.287041
100627.927289
100627.546514
100627.090091
100626.590118
100626.112543
100625.69752
100625.341434
100625.039551
100624.792556
100624.603343
100624.462058
100624.352626
100624.270242
100624.214717
100624.174088
100624.118898
100623.995315
100614.343778
100614.600614
100614.578533
100614.06558
100613.104558
100612.506238
100612.222135
100611.788615
100611.441043
100611.161625
100610.93355
100610.752152
100610.621183
100610.533226
100610.470544
100610.427409
100610.406678
100610.40349
100610.387013
100610.263341
100600.578445
100600.321236
100599.543773
100598.027593
100595.438471
100595.876975
100596.496052
100596.348909
100596.258527
100596.204548
100596.16465
100596.134611
100596.124366
100596.135342
100596.153247
100596.172984
100596.199148
100596.236214
100596.272471
100596.175228
100586.761937
100585.269105
100582.66585
100578.417888
100576.444794
100577.219514
100578.955793
100579.860507
100580.413027
100580.822411
100581.124523
100581.347193
100581.523595
100581.676075
100581.80336
100581.905735
100581.989547
100582.063748
100582.148332
100582.102399
100573.67167
100571.003899
100567.220189
100561.852682
100561.338846
100561.983683
100562.927834
100564.411412
100565.494695
100566.247466
100566.801705
100567.212977
100567.529117
100567.787274
100567.998981
100568.170242
100568.308252
100568.419116
100568.518204
100568.517658
100560.795829
100557.656783
100553.229258
100548.708628
100550.28694
100550.882242
100551.128515
100551.751574
100552.618059
100553.328827
100553.866926
100554.279783
100554.602283
100554.865524
100555.083842
100555.263558
100555.409351
100555.522759
100555.607195
100555.61862
100546.734124
100543.755234
100539.491978
100537.985806
100539.223376
100539.877719
100540.503526
100540.753559
100541.158178
100541.66408
100542.083683
100542.413813
100542.675647
100542.888311
100543.065621
100543.213997
100543.335692
100543.428708
100543.490896
100543.511093
100531.734439
100530.751988
100527.96785
100527.009017
100528.27473
100529.222181
100530.007477
100530.296544
100530.445226
100530.727199
100531.028068
100531.27873
100531.479412
100531.640083
100531.772848
100531.884619
100531.976697
100532.045598
100532.086514
100532.112616
100517.033808
100517.04758
100514.706822
100516.27805
100517.488178
100518.56201
100519.381992
100519.700788
100519.842108
100520.042355
100520.293701
100520.524784
100520.713324
100520.862371
100520.982698
100521.08171
100521.161097
100521.217901
100521.245868
100521.274856
100502.502969
100503.397943
100502.725077
100504.731573
100505.979159
100507.364708
100508.289954
100508.766622
100509.097717
100509.411122
100509.733612
100510.028133
100510.268706
100510.455565
100510.60182
100510.717829
100510.807465
100510.869887
100510.897728
100510.928724
100490.779785
100491.805597
100491.850443
100494.112559
100495.348499
100496.570059
100497.49237
100498.128442
100498.657701
100499.145983
100499.590649
100499.980282
100500.297518
100500.542782
100500.732408
100500.879991
100500.991816
100501.069653
100501.106576
100501.139686
)
;

boundaryField
{
    emptyPatch
    {
        type            empty;
    }
    minY
    {
        type            calculated;
        value           nonuniform List<scalar> 0();
    }
    maxY
    {
        type            calculated;
        value           nonuniform List<scalar> 0();
    }
    water_to_cooler
    {
        type            calculated;
        value           nonuniform List<scalar> 
38
(
100874.925266
100863.806997
100852.466254
100840.965157
100829.399913
100817.901184
100806.625519
100795.741123
100785.407162
100775.753757
100766.86251
100758.753924
100751.380955
100744.63922
100738.372611
100732.380126
100726.446936
100720.367288
100713.955111
100707.046129
100699.502745
100691.216809
100682.112123
100672.144799
100661.304915
100649.618802
100637.152805
100623.995315
100610.263341
100596.175228
100582.102399
100568.517658
100555.61862
100543.511093
100532.112616
100521.274856
100510.928724
100501.139686
)
;
    }
    water_to_heater
    {
        type            calculated;
        value           nonuniform List<scalar> 
60
(
100885.335239
100882.981966
100874.718994
100863.799774
100842.864403
100839.817491
100799.990997
100797.132433
100763.965617
100761.729988
100752.990184
100746.927125
100744.553947
100742.557475
100740.719419
100738.675228
100737.787354
100735.786049
100734.840214
100733.22792
100733.033686
100730.989496
100731.113852
100729.08384
100728.785295
100726.741106
100726.280302
100724.032003
100723.072866
100720.931955
100719.026843
100716.823055
100712.150412
100709.900665
100703.779913
100695.899107
100690.274097
100688.007036
100682.030574
100679.775023
100670.938573
100668.683781
100658.604322
100646.507354
100637.516459
100635.149233
100630.440919
100628.000733
100624.074629
100621.398848
100611.822554
100574.176911
100494.84585
100491.666337
100449.491937
100447.492937
100446.595062
100445.526968
100444.913269
100443.75317
)
;
    }
    procBoundary3to1
    {
        type            processor;
        value           nonuniform List<scalar> 
41
(
100443.652976
100443.653795
100443.651241
100443.906517
100445.092957
100447.569374
100451.22738
100455.745983
100460.660323
100465.53311
100470.102561
100474.293461
100478.263389
100442.593447
100442.591399
100442.591
100442.595526
100442.604439
100442.61793
100443.652976
100442.635952
100481.499714
100480.979683
100483.710827
100485.094238
100485.841166
100486.928602
100487.764509
100488.458668
100489.098838
100489.693654
100490.223566
100490.679519
100491.051146
100491.339661
100491.563116
100491.736823
100491.868147
100491.960373
100492.007414
100492.044147
)
;
    }
    procBoundary3to2
    {
        type            processor;
        value           nonuniform List<scalar> 
41
(
100894.09131
100890.556906
100891.224563
100891.139565
100890.433303
100889.528083
100888.350743
100887.300374
100886.214642
100884.801885
100883.966152
100883.045902
100882.068815
100880.848484
100880.506083
100880.441576
100880.600217
100880.748549
100880.703442
100880.114585
100888.121979
100887.685272
100887.322322
100887.021285
100886.772227
100886.566715
100886.398124
100886.262259
100886.156157
100886.074018
100886.007727
100885.952046
100885.904739
100885.865263
100885.833635
100885.810601
100885.79081
100879.231728
100878.432857
100877.778271
100877.778271
)
;
    }
}


// ************************************************************************* //
