/*--------------------------------*- C++ -*----------------------------------*\
| =========                 |                                                 |
| \\      /  F ield         | OpenFOAM: The Open Source CFD Toolbox           |
|  \\    /   O peration     | Version:  2312                                  |
|   \\  /    A nd           | Website:  www.openfoam.com                      |
|    \\/     M anipulation  |                                                 |
\*---------------------------------------------------------------------------*/
FoamFile
{
    version     2.0;
    format      ascii;
    arch        "LSB;label=32;scalar=64";
    class       surfaceScalarField;
    location    "0.73/water";
    object      phi;
}
// * * * * * * * * * * * * * * * * * * * * * * * * * * * * * * * * * * * * * //

dimensions      [0 3 -1 0 0 0 0];

oriented        oriented;

internalField   nonuniform List<scalar> 
2916
(
2.83707079617e-07
7.69680974516e-07
3.02579440143e-07
7.41837605096e-07
3.0417928045e-07
7.02064945985e-07
2.96760190736e-07
6.67268546998e-07
2.85603883236e-07
6.43852250263e-07
2.73050366848e-07
6.33224157443e-07
2.60204242097e-07
6.33387862809e-07
2.48705035967e-07
6.33737050027e-07
2.38505649451e-07
6.31229016899e-07
2.29983010275e-07
6.27287000969e-07
2.23636230122e-07
6.22610626996e-07
2.20008757594e-07
6.1623951329e-07
6.061858674e-07
2.19458547751e-07
3.92997628586e-08
4.93843317315e-07
2.84013118056e-08
5.28007152695e-07
3.46983459736e-08
5.98321702094e-07
6.46738327132e-08
6.49167688953e-07
1.042426409e-07
7.02622469905e-07
1.63892625379e-07
7.28841900502e-07
2.30434851959e-07
7.38471665422e-07
2.64026436435e-07
7.36234619667e-07
2.86178380763e-07
7.19923779852e-07
2.94232015354e-07
6.94271897201e-07
2.92273562818e-07
6.69463440047e-07
2.84287797175e-07
6.52024174726e-07
2.71960054664e-07
6.45691765589e-07
2.58609051153e-07
6.46874041348e-07
2.46303576528e-07
6.46189637906e-07
2.34899174922e-07
6.42786957069e-07
2.24673542118e-07
6.37674929548e-07
2.16163493594e-07
6.31290877147e-07
2.09842171374e-07
6.22736371075e-07
6.10087595985e-07
2.06122273824e-07
1.64995154742e-08
6.16931286892e-07
6.31667075145e-09
5.32541030113e-07
2.22111216683e-08
5.79836302254e-07
5.87203377499e-08
6.11451971334e-07
1.12320151968e-07
6.4848921083e-07
1.62239169592e-07
6.78775436556e-07
2.03824814593e-07
6.96959839359e-07
2.376805808e-07
7.02569464224e-07
2.6094479042e-07
6.96897169361e-07
2.724725876e-07
6.8298076514e-07
2.74012960356e-07
6.68125592866e-07
2.67116063438e-07
6.5907422397e-07
2.54284458368e-07
6.58652811201e-07
2.41324453723e-07
6.59974087689e-07
2.28904137427e-07
6.58754693529e-07
2.16891774704e-07
6.54954613149e-07
2.05568803107e-07
6.49161258324e-07
1.95377436351e-07
6.41652003618e-07
1.86826137507e-07
6.31465935638e-07
6.17038942222e-07
1.80055562075e-07
5.04196333146e-08
7.00513348887e-07
3.85955498286e-08
5.37146739013e-07
4.92249637302e-08
5.66441373242e-07
7.40080473318e-08
5.85723043935e-07
1.09156288578e-07
6.13058504252e-07
1.48038834795e-07
6.39900447075e-07
1.84478260168e-07
6.6066515412e-07
2.14239523873e-07
6.73012181611e-07
2.35326000646e-07
6.76026579036e-07
2.45927688839e-07
6.72574899268e-07
2.4567611353e-07
6.6853320006e-07
2.36189465781e-07
6.68688000125e-07
2.23673199307e-07
6.71302491245e-07
2.11632394886e-07
6.72151950734e-07
1.99759746599e-07
6.70775250096e-07
1.87923604076e-07
6.66946110816e-07
1.76292660084e-07
6.6095523667e-07
1.64921112102e-07
6.53197393417e-07
1.54218003678e-07
6.42341056176e-07
6.2631112257e-07
1.45133269577e-07
8.26446694025e-08
7.44619905134e-07
7.32386900519e-08
5.3666948078e-07
7.98370211942e-08
5.5609915956e-07
9.55297112837e-08
5.68916732946e-07
1.19761567483e-07
5.8858178755e-07
1.47617876339e-07
6.12088553997e-07
1.74301099196e-07
6.34126939702e-07
1.96221702613e-07
6.5126420951e-07
2.09834801294e-07
6.62578594374e-07
2.12755213457e-07
6.69794217083e-07
2.06112898756e-07
6.75296560858e-07
1.94751546797e-07
6.80177276784e-07
1.83611132634e-07
6.8257352499e-07
1.72970470222e-07
6.82933598005e-07
1.62440503557e-07
6.81452470701e-07
1.51699076334e-07
6.77842136219e-07
1.40074131733e-07
6.72748239761e-07
1.28464150972e-07
6.64977370033e-07
1.17494262488e-07
6.53502402235e-07
6.36515273647e-07
1.07485110826e-07
1.18594262636e-07
7.54015771088e-07
1.12180703845e-07
5.30498630396e-07
1.16323572522e-07
5.46866771005e-07
1.2395743615e-07
5.59705217528e-07
1.36558246462e-07
5.75624223146e-07
1.51961621763e-07
5.96694326296e-07
1.6627265177e-07
6.19920618211e-07
1.74597089888e-07
6.43058898699e-07
1.74935649377e-07
6.62354138987e-07
1.68190386223e-07
6.76650524788e-07
1.57284362521e-07
6.86326772568e-07
1.46599047741e-07
6.90987046266e-07
1.36906927723e-07
6.92401004289e-07
1.28059394535e-07
6.91921553238e-07
1.1912105474e-07
6.90537350434e-07
1.08850977225e-07
6.88276026457e-07
9.83641270215e-08
6.83406105292e-07
8.81976772812e-08
6.75334188153e-07
7.92450165059e-08
6.62651982368e-07
6.4547205114e-07
7.04873422339e-08
1.61010190319e-07
7.41081960835e-07
1.48386318427e-07
5.27686568825e-07
1.44633888209e-07
5.44730471848e-07
1.41479260726e-07
5.6099514139e-07
1.41194252755e-07
5.75459847639e-07
1.42972390349e-07
5.94881682008e-07
1.42492619377e-07
6.20466616967e-07
1.3668865965e-07
6.48957341937e-07
1.26913655818e-07
6.72232522102e-07
1.1517015616e-07
6.88515365192e-07
1.03876137712e-07
6.97740908497e-07
9.37213827222e-08
7.0127401189e-07
8.5374052491e-08
7.00885498968e-07
7.72404488466e-08
7.00194231672e-07
6.86644961917e-08
6.99274824605e-07
6.04155824169e-08
6.96695512793e-07
5.37413437581e-08
6.90264973101e-07
4.83062475522e-08
6.80961046875e-07
4.35575129938e-08
6.67597340509e-07
6.5083914543e-07
3.83902476894e-08
1.81423446228e-07
7.16812531868e-07
1.54088859814e-07
5.40633582764e-07
1.35882928083e-07
5.57966579204e-07
1.20340945361e-07
5.75037002104e-07
1.09185543114e-07
5.86280507766e-07
1.00831969034e-07
6.03228860267e-07
9.16444061496e-08
6.29730123259e-07
8.08615686652e-08
6.59840519809e-07
6.95754254728e-08
6.83638205485e-07
5.80140597979e-08
7.0020268034e-07
4.62076863886e-08
7.09672342138e-07
3.47194531706e-08
7.12900087904e-07
2.47120528968e-08
7.11021084475e-07
1.63308425013e-08
7.08735417671e-07
1.09354977804e-08
7.04840941639e-07
9.9727722128e-09
6.97839957437e-07
1.14385181495e-08
6.8898351443e-07
1.35544508718e-08
6.79035037678e-07
1.54554376234e-08
6.65890158709e-07
6.50044568547e-07
1.64487450201e-08
1.77889783517e-07
6.96859191099e-07
1.32800926868e-07
5.72799299774e-07
1.00276561918e-07
5.87132084207e-07
7.47977431246e-08
5.99915056157e-07
5.68993054313e-08
6.04189129385e-07
4.45026066752e-08
6.15734636209e-07
3.50150367011e-08
6.39333343814e-07
2.62459038457e-08
6.6873185558e-07
1.52512859469e-08
6.94759711158e-07
1.77777539608e-10
7.15386833645e-07
-1.83409159921e-08
7.28317979857e-07
-3.55953947188e-08
7.30291275923e-07
-4.79833456116e-08
7.23574622239e-07
-5.14051113185e-08
7.12334959491e-07
-4.5463551144e-08
6.99083500194e-07
-3.44207244799e-08
6.8697696189e-07
-2.18503980537e-08
6.7659157929e-07
-9.06022452663e-09
6.66427239854e-07
2.23459524794e-09
6.54783779907e-07
6.40764100006e-07
1.1711337587e-08
1.88121919262e-07
6.74231931553e-07
1.38293760118e-07
6.13863338658e-07
1.05437419493e-07
6.18450992e-07
7.94808663486e-08
6.25558848292e-07
5.78493678123e-08
6.25701329293e-07
4.03809398085e-08
6.33200456093e-07
2.62080170765e-08
6.5356846344e-07
1.25237788637e-08
6.82506809465e-07
-5.47871850257e-09
7.12863334683e-07
-3.16827519945e-08
7.41719445248e-07
-6.26049592486e-08
7.59407293032e-07
-8.68127105222e-08
7.54696992741e-07
-9.58300032497e-08
7.32800832083e-07
-8.98264942884e-08
7.0653760742e-07
-7.39765560441e-08
6.83425766571e-07
-5.26204303553e-08
6.65800568586e-07
-2.92836357928e-08
6.53429276517e-07
-6.454826829e-09
6.43773453432e-07
1.40616089398e-08
6.34449984479e-07
6.22881829407e-07
3.21364736517e-08
2.52535481972e-07
6.0523806059e-07
2.3878024129e-07
6.06807794377e-07
2.17861644054e-07
6.24213221178e-07
1.95701188353e-07
6.39472585393e-07
1.68572683628e-07
6.48982363514e-07
1.38199821439e-07
6.61997946395e-07
1.07346759483e-07
6.83906498617e-07
7.6767319146e-08
7.13046497846e-07
4.49294278166e-08
7.44878073957e-07
1.2365370299e-08
7.74564137052e-07
-2.01973300773e-08
7.9229063441e-07
-4.41765270432e-08
7.78998304216e-07
-5.19554511741e-08
7.40880584122e-07
-4.77995510671e-08
7.02648972053e-07
-3.52378782978e-08
6.71096425669e-07
-1.598075006e-08
6.46746116818e-07
8.57649738158e-09
6.29053487938e-07
3.45248667356e-08
6.17998017417e-07
5.95819917481e-08
6.09570059027e-07
5.99747880285e-07
8.29032317636e-08
2.53221734001e-07
4.57495033233e-07
2.3135283113e-07
5.92612450468e-07
2.28691757134e-07
6.08275251987e-07
2.32969282805e-07
6.25402538336e-07
2.27999567901e-07
6.49131316396e-07
2.09936441948e-07
6.77896457319e-07
1.82274492007e-07
7.10748410277e-07
1.50403338718e-07
7.44758240546e-07
1.17972298046e-07
7.77463660326e-07
8.97624832439e-08
8.03074582624e-07
7.30741622528e-08
8.09341060188e-07
6.31893010223e-08
7.89260146477e-07
6.11458966751e-08
7.4328825358e-07
6.21768630655e-08
7.01955893476e-07
6.71822120213e-08
6.66391835976e-07
7.74187631345e-08
6.36765059945e-07
9.32356529823e-08
6.13446036384e-07
1.14216061473e-07
5.97195270404e-07
1.37726667985e-07
5.86230740865e-07
5.75817094318e-07
1.61837533555e-07
6.90888386897e-08
4.0534041447e-07
8.66551061696e-08
5.58186363848e-07
9.93953416057e-08
5.84392655507e-07
1.14426123589e-07
6.04602844031e-07
1.25982723201e-07
6.34794466542e-07
1.31589432715e-07
6.71045699566e-07
1.32091376612e-07
7.09799043773e-07
1.3112472848e-07
7.45702500693e-07
1.31606111654e-07
7.77183803907e-07
1.3545550816e-07
7.99540960402e-07
1.42810897258e-07
8.02351972735e-07
1.53306640536e-07
7.7914665121e-07
1.67080804002e-07
7.29892505877e-07
1.75475925357e-07
6.93925309393e-07
1.81809848623e-07
6.60396013e-07
1.88753456353e-07
6.30118224186e-07
1.98305508317e-07
6.04136977912e-07
2.12378421113e-07
5.83312861631e-07
2.31298478166e-07
5.6747816007e-07
5.53030920005e-07
2.54257476414e-07
2.10396427448e-08
3.99987569009e-07
1.2211701139e-08
5.61558469777e-07
8.53628447643e-09
5.84826174531e-07
9.5821115429e-09
6.01468391249e-07
1.48518003659e-08
6.28490014902e-07
2.56610446869e-08
6.59795946479e-07
4.2771056318e-08
6.92623399926e-07
6.55613439999e-08
7.23063111738e-07
9.22344059472e-08
7.50776135902e-07
1.23074116031e-07
7.69034361288e-07
1.59613891695e-07
7.66176731491e-07
2.13304991215e-07
7.25826838633e-07
2.38085069022e-07
7.05480720075e-07
2.53482620378e-07
6.78885174414e-07
2.64315038035e-07
6.49897782988e-07
2.7339889657e-07
6.21330428039e-07
2.83034641627e-07
5.94745305023e-07
2.95621737483e-07
5.70915184986e-07
3.13058980075e-07
5.50203834015e-07
5.29420278442e-07
3.36838137337e-07
-1.34210205675e-08
4.36470880009e-07
-4.57563378096e-08
5.97817742478e-07
-6.96492065724e-08
6.12497194979e-07
-9.08793395187e-08
6.24104535492e-07
-1.05619499093e-07
6.43656237191e-07
-1.0586584305e-07
6.60254681677e-07
-7.06087610558e-08
6.57601863332e-07
-8.0078916367e-09
6.60749052362e-07
6.13822888881e-08
6.81696496163e-07
1.35639968784e-07
6.95107901783e-07
2.05935465877e-07
6.96227391388e-07
2.4278828259e-07
6.89328744687e-07
2.70936803743e-07
6.77686063188e-07
2.91509185224e-07
6.58656606877e-07
3.0696785022e-07
6.34759855642e-07
3.19707958543e-07
6.08872649111e-07
3.31874609142e-07
5.82809044834e-07
3.45794302461e-07
5.57173886604e-07
3.63976600799e-07
5.32181525945e-07
5.03934456384e-07
3.89631676962e-07
-2.74528033653e-08
4.86278959384e-07
-6.63601385052e-08
6.42552126267e-07
-9.30017614893e-08
6.44569428404e-07
-1.13763429507e-07
6.4704218042e-07
-1.18519595919e-07
6.49074243408e-07
-4.62689394754e-08
5.88325284611e-07
1.81362102269e-08
5.93452933496e-07
6.59509122457e-08
6.13196304504e-07
1.14224876559e-07
6.33709937286e-07
1.60829333835e-07
6.48808412919e-07
2.01642136628e-07
6.55731091681e-07
2.36339082694e-07
6.54954764814e-07
2.65925402747e-07
6.48420885762e-07
2.90251739064e-07
6.34638990311e-07
3.10014155211e-07
6.15279633774e-07
3.26487851962e-07
5.92639436627e-07
3.41467603175e-07
5.68019029165e-07
3.57095683591e-07
5.41702207795e-07
3.77452789847e-07
5.11983824076e-07
4.77576060651e-07
4.03982804748e-07
-3.37883550344e-08
5.41885763231e-07
-6.49733676213e-08
6.78930334215e-07
-7.8392694868e-08
6.63346483391e-07
-7.67347162206e-08
6.47242336937e-07
-1.96234011477e-09
5.74852518891e-07
2.75400141256e-08
5.59042433209e-07
5.51168649838e-08
5.66107408916e-07
8.62235271294e-08
5.82340296697e-07
1.19841543971e-07
6.00354288992e-07
1.5405918374e-07
6.14860420469e-07
1.86619763455e-07
6.23443312276e-07
2.16100170982e-07
6.2574601315e-07
2.42975551762e-07
6.21808900115e-07
2.66378898239e-07
6.11480098611e-07
2.86179859817e-07
5.95691521401e-07
3.03142351844e-07
5.75849949872e-07
3.1908936964e-07
5.52218490899e-07
3.3710773666e-07
5.23832385279e-07
3.59131218637e-07
4.90122003801e-07
4.52608752164e-07
3.84270478023e-07
-6.65162371623e-08
6.36268084071e-07
-1.02010891634e-07
7.29649706526e-07
-7.22120898301e-08
6.40651246165e-07
1.44099031702e-08
5.6194943913e-07
4.24404551801e-08
5.46759089558e-07
5.95473530074e-08
5.42080248205e-07
7.67638093844e-08
5.49096954889e-07
9.6532439064e-08
5.62788486661e-07
1.19089132421e-07
5.78013753921e-07
1.43297169389e-07
5.90864847591e-07
1.67362325306e-07
5.99584840422e-07
1.90154741261e-07
6.0315178668e-07
2.11161247874e-07
6.00986945515e-07
2.29913593867e-07
5.9289210372e-07
2.46470881259e-07
5.79277067123e-07
2.61996575043e-07
5.60456505982e-07
2.78608755298e-07
5.35744777387e-07
2.97750542647e-07
5.04842103869e-07
3.18207468958e-07
4.69824294488e-07
4.32380818114e-07
3.38605174594e-07
-1.04637965915e-07
7.8520623187e-07
-8.57930895293e-08
7.25346374238e-07
2.36217487317e-08
5.34422686531e-07
5.6132388562e-08
5.28238666201e-07
7.43753082037e-08
5.2822986332e-07
8.51211951719e-08
5.31412469378e-07
9.46781430254e-08
5.39709026304e-07
1.05687054492e-07
5.51956371123e-07
1.18977998026e-07
5.64887180719e-07
1.33395180422e-07
5.76596378885e-07
1.4756174027e-07
5.85554427476e-07
1.61245493237e-07
5.89595612929e-07
1.74512350585e-07
5.87841148287e-07
1.87350958411e-07
5.80171140184e-07
2.00178742258e-07
5.66569562804e-07
2.14256522854e-07
5.46507428136e-07
2.30276203586e-07
5.19867081073e-07
2.46596731523e-07
4.88672849523e-07
2.6127408541e-07
4.55309364457e-07
4.19659928033e-07
2.74165349958e-07
-1.78823167624e-07
9.97744576342e-07
2.17979143306e-08
5.46186925585e-07
5.43638422817e-08
4.99010279132e-07
7.79520874024e-08
5.03323387039e-07
9.23211395595e-08
5.13546274829e-07
1.00567289902e-07
5.232130811e-07
1.0598083094e-07
5.34430318491e-07
1.11193210804e-07
5.46879972833e-07
1.1647988525e-07
5.59714913699e-07
1.20947908707e-07
5.72228322345e-07
1.25599348087e-07
5.81000737224e-07
1.31108760375e-07
5.84187293215e-07
1.3767338319e-07
5.8138282332e-07
1.45522341752e-07
5.72435176357e-07
1.55161770003e-07
5.57050279054e-07
1.66496558528e-07
5.35303980377e-07
1.77838203555e-07
5.08667653033e-07
1.86829837357e-07
4.79836185222e-07
1.9243826412e-07
4.49863307539e-07
4.17209576584e-07
1.9505980245e-07
1.0984413464e-08
9.98082582656e-07
4.29263730114e-08
5.06325950151e-07
6.58926231547e-08
4.72439470955e-07
8.35460402564e-08
4.84417499954e-07
9.57566957364e-08
5.01050566511e-07
1.02542510359e-07
5.16456749618e-07
1.05594477257e-07
5.31479190128e-07
1.05939690065e-07
5.46630987949e-07
1.03660437431e-07
5.6207922495e-07
1.01103884075e-07
5.74872735852e-07
9.99120786228e-08
5.8228769447e-07
1.00485265552e-07
5.83714168997e-07
1.02833542737e-07
5.79141042132e-07
1.06944976342e-07
5.68436283225e-07
1.12319540071e-07
5.51798073971e-07
1.17559258778e-07
5.30196816613e-07
1.20344699981e-07
5.06027874777e-07
1.18807319077e-07
4.8152914041e-07
1.11339204559e-07
4.57494689091e-07
4.30091550092e-07
9.86484395985e-08
6.37558965735e-08
9.29555630913e-07
6.7385760471e-08
4.8666125341e-07
7.6325864692e-08
4.58237454007e-07
8.61181038652e-08
4.73136666307e-07
9.34373185262e-08
4.93412395175e-07
9.6762876267e-08
5.13129904044e-07
9.52742730683e-08
5.33032827227e-07
8.95674468346e-08
5.52410397173e-07
8.26978051453e-08
5.69028369589e-07
7.71763318256e-08
5.80483138783e-07
7.335850845e-08
5.86198091416e-07
7.10261940516e-08
5.86147715566e-07
6.99276374231e-08
5.80349522817e-07
6.9433010204e-08
5.69045544642e-07
6.85460301617e-08
5.52806822178e-07
6.53012707768e-08
5.33574840214e-07
5.73037458782e-08
5.14171187916e-07
4.124824955e-08
4.97738824321e-07
1.5138406276e-08
4.83793392248e-07
4.63530918166e-07
-1.80262818039e-08
9.5716084243e-08
8.43218958956e-07
8.87566662093e-08
4.75561471611e-07
8.75088631383e-08
4.52811200207e-07
8.97844726728e-08
4.69078807926e-07
9.09766275623e-08
4.91832330165e-07
8.77240069968e-08
5.16349530725e-07
8.01045368599e-08
5.40698691334e-07
7.07217279141e-08
5.61861582114e-07
6.23537877839e-08
5.77478096361e-07
5.54160561059e-08
5.87508725642e-07
4.94932032249e-08
5.92216730747e-07
4.42678446004e-08
5.91475292726e-07
3.91652431235e-08
5.85558570388e-07
3.34227735324e-08
5.7490129348e-07
2.56236786313e-08
5.60723228463e-07
1.35598199319e-08
5.45768199713e-07
-6.68272517469e-09
5.34553407183e-07
-4.08953029173e-08
5.32128053251e-07
-8.95244714659e-08
5.32681345978e-07
5.1264979193e-07
-1.38333711168e-07
1.12666412385e-07
7.63173912877e-07
1.05108577218e-07
4.65838408287e-07
9.8409860968e-08
4.52709922469e-07
9.48987004097e-08
4.70788435089e-07
8.84392136797e-08
4.97909126275e-07
7.84922887442e-08
5.26255859694e-07
6.71434610575e-08
5.52093092679e-07
5.66478164824e-08
5.72428642716e-07
4.72916456433e-08
5.86912722641e-07
3.86796840131e-08
5.96209690465e-07
3.059086775e-08
6.00401794156e-07
2.22605488207e-08
5.99903626448e-07
1.30682432916e-08
5.94854633269e-07
2.07177201651e-09
5.86000555512e-07
-1.24779585002e-08
5.75389723829e-07
-3.32689130004e-08
5.66684328208e-07
-6.5181068458e-08
5.66624006246e-07
-1.14073726329e-07
5.81251101161e-07
-1.73549150527e-07
5.92446586387e-07
5.69961354271e-07
-2.30572162606e-07
1.25024161236e-07
6.78037886827e-07
1.16112337882e-07
4.5866282992e-07
1.07774889986e-07
4.55287196182e-07
9.80895269877e-08
4.78999535264e-07
8.56055214924e-08
5.10058229373e-07
7.24332534379e-08
5.39402164099e-07
5.99569370341e-08
5.64624068111e-07
4.86680412494e-08
5.83789932137e-07
3.81170242176e-08
5.97544210012e-07
2.7889943373e-08
6.06523445412e-07
1.7265355027e-08
6.11116793575e-07
5.79765968731e-09
6.11471036669e-07
-7.46396301777e-09
6.08211958391e-07
-2.45119139239e-08
6.03159007511e-07
-4.59314563306e-08
5.96920950025e-07
-7.38359041663e-08
5.94728048347e-07
-1.11608231492e-07
6.0458226968e-07
-1.61399938774e-07
6.31290794851e-07
-2.1933224553e-07
6.50659199156e-07
6.34383990083e-07
-2.83487090082e-07
1.42552662713e-07
5.75095620663e-07
1.28505665712e-07
4.56734212087e-07
1.16633440032e-07
4.62530470377e-07
1.0122106947e-07
4.93250462433e-07
8.58581214822e-08
5.25193187792e-07
7.1086727421e-08
5.54170517952e-07
5.76324240073e-08
5.78141713928e-07
4.52618675323e-08
5.96240495942e-07
3.34725509269e-08
6.09417685827e-07
2.13169096381e-08
6.18758828556e-07
8.19891165841e-09
6.24322983533e-07
-7.42322752149e-09
6.27182416121e-07
-2.62694688795e-08
6.27171785881e-07
-4.83701453635e-08
6.25364108776e-07
-7.44993509374e-08
6.2317557649e-07
-1.050628426e-07
6.25438164995e-07
-1.40677084886e-07
6.40379112306e-07
-1.83275689075e-07
6.74117814518e-07
-2.35174498539e-07
7.02809223841e-07
6.99866734452e-07
-3.00394746161e-07
1.57277626999e-07
4.94343221832e-07
1.40652018751e-07
4.60443388086e-07
1.22669015607e-07
4.77060044849e-07
1.04021243257e-07
5.10993936091e-07
8.63820168054e-08
5.42645846681e-07
7.01589898949e-08
5.70424472474e-07
5.54296663701e-08
5.92938800514e-07
4.21362490229e-08
6.09618315935e-07
2.88919850627e-08
6.2274448795e-07
1.45225571774e-08
6.3321626643e-07
-3.02231627701e-09
6.41942106067e-07
-2.2802576894e-08
6.47080553359e-07
-4.57043852249e-08
6.50175336314e-07
-7.09803225084e-08
6.50756270633e-07
-9.8225879552e-08
6.50545004353e-07
-1.27217297935e-07
6.54566642432e-07
-1.5787393728e-07
6.71200509567e-07
-1.91800356654e-07
7.0824432775e-07
-2.34215773469e-07
7.45452066177e-07
7.54693723339e-07
-2.88804602753e-07
1.59777349008e-07
5.00385574198e-07
1.42088151051e-07
4.68361177409e-07
1.19237505691e-07
4.97228048515e-07
9.8031503222e-08
5.31482619288e-07
7.86562298499e-08
5.61959365818e-07
6.09670879129e-08
5.88148738675e-07
4.54943963176e-08
6.08488095537e-07
3.11514652045e-08
6.24040073503e-07
1.55087936667e-08
6.3848750316e-07
-2.87653230024e-09
6.51661731842e-07
-2.35623960264e-08
6.62738086026e-07
-4.66580174665e-08
6.70280464781e-07
-7.09282257605e-08
6.74556561828e-07
-9.64548864249e-08
6.76396626325e-07
-1.23336508799e-07
6.77544585036e-07
-1.50455180561e-07
6.81812851451e-07
-1.75301817325e-07
6.96194240081e-07
-1.97463492566e-07
7.3058319615e-07
-2.26474012246e-07
7.74669439797e-07
7.97322395836e-07
-2.68893064047e-07
1.53991019813e-07
5.32216317128e-07
1.30346756827e-07
4.84631446594e-07
1.0301074196e-07
5.22129942748e-07
7.85947891774e-08
5.5548842319e-07
5.61170851024e-08
5.84373013349e-07
3.64625672358e-08
6.07874059104e-07
1.93064221329e-08
6.25712723168e-07
2.14157240445e-09
6.41301797297e-07
-1.75376402893e-08
6.58225585134e-07
-3.97075606289e-08
6.73943637978e-07
-6.17907755398e-08
6.8493294824e-07
-8.44917126428e-08
6.93096638929e-07
-1.0843876488e-07
6.9861803921e-07
-1.33764437831e-07
7.01835622405e-07
-1.59606309576e-07
7.03499545331e-07
-1.83556801086e-07
7.05878671517e-07
-2.01713108113e-07
7.14474631512e-07
-2.11462136814e-07
7.40477254207e-07
-2.23227713644e-07
7.86606576358e-07
8.26424125283e-07
-2.52144831566e-07
1.44806778982e-07
5.60216297397e-07
1.06503134923e-07
5.17966734545e-07
7.09196297225e-08
5.56461763626e-07
3.80820441262e-08
5.87985324202e-07
9.01820138504e-09
6.135106344e-07
-1.61067027592e-08
6.33073302661e-07
-3.84468827632e-08
6.48158538385e-07
-6.13786951479e-08
6.64313351208e-07
-8.41156987503e-08
6.81108049004e-07
-1.04462404301e-07
6.9443063551e-07
-1.24691856395e-07
7.05292375787e-07
-1.45330092064e-07
7.13854845093e-07
-1.66717001785e-07
7.2011702579e-07
-1.88612866589e-07
7.23837364339e-07
-2.0998443798e-07
7.24971188824e-07
-2.28553350662e-07
7.24543788657e-07
-2.4010981304e-07
7.26126690963e-07
-2.39866994842e-07
7.40339984923e-07
-2.33356650654e-07
7.8022314888e-07
8.34196790621e-07
-2.40988166578e-07
1.12458528228e-07
6.07375090787e-07
4.49416113634e-08
5.79933682818e-07
-1.52526979415e-08
6.14697349044e-07
-6.59864622409e-08
6.38667694718e-07
-1.07418546958e-07
6.55050067275e-07
-1.40648933634e-07
6.66445520549e-07
-1.67203365027e-07
6.74834544297e-07
-1.87645105062e-07
6.8492178252e-07
-2.01755480762e-07
6.9535278533e-07
-2.13483140426e-07
7.06277710167e-07
-2.24618951118e-07
7.16534426101e-07
-2.3602113922e-07
7.25353706487e-07
-2.47887663817e-07
7.32072760036e-07
-2.59998413164e-07
7.36030548155e-07
-2.71618563181e-07
7.36666948554e-07
-2.81348450685e-07
7.34342745369e-07
-2.86067341282e-07
7.30910093038e-07
-2.7938951365e-07
7.33729262525e-07
-2.59372997712e-07
7.6028934536e-07
8.16837612781e-07
-2.41910041811e-07
6.72367753174e-08
6.97833775269e-07
-9.30457381095e-08
7.34609745727e-07
-2.22625007157e-07
7.44226698263e-07
-3.12982767536e-07
7.29511105697e-07
-3.67021189184e-07
7.09325630061e-07
-3.9280573879e-07
6.92372242287e-07
-3.99728322203e-07
6.81871695832e-07
-3.92687922113e-07
6.77953114437e-07
-3.80389339418e-07
6.83113155928e-07
-3.68149273445e-07
6.94090718782e-07
-3.57923494696e-07
7.06358660513e-07
-3.49709383125e-07
7.17187503472e-07
-3.43266854693e-07
7.25675896297e-07
-3.38383563286e-07
7.31190333238e-07
-3.34779879705e-07
7.3310312847e-07
-3.31815845495e-07
7.31415368757e-07
-3.27740686292e-07
7.26869397732e-07
-3.16837992061e-07
7.22862052486e-07
-2.90516593717e-07
7.34012370127e-07
7.80613320259e-07
-2.54227429206e-07
6.45234142919e-08
8.02847831359e-07
-2.0459343946e-07
1.00423504645e-06
-3.98606330035e-07
9.45899591652e-07
-5.38206997367e-07
8.72147827115e-07
-6.2225921294e-07
7.94194818144e-07
-6.54806195903e-07
7.25135401626e-07
-6.4057323421e-07
6.6769346006e-07
-6.01411664939e-07
6.38803645913e-07
-5.56476065164e-07
6.38179451213e-07
-5.14391211437e-07
6.5200770195e-07
-4.77475120853e-07
6.69447865645e-07
-4.45949709981e-07
6.85670627867e-07
-4.19337199921e-07
6.99074216727e-07
-3.97135332887e-07
7.0900067305e-07
-3.78902656587e-07
7.14883073498e-07
-3.63897211141e-07
7.16422626544e-07
-3.50697072288e-07
7.13682226425e-07
-3.35908082973e-07
7.08087316595e-07
-3.09924588873e-07
7.08047392936e-07
7.38022866058e-07
-2.67304083429e-07
1.11360208289e-07
8.52582409773e-07
-5.12329605374e-08
1.16300732305e-06
-2.5040683873e-07
1.14450033305e-06
-4.19061180372e-07
1.04347782332e-06
-5.57194312496e-07
9.34102652481e-07
-6.47660154475e-07
8.16273834635e-07
-6.81546882974e-07
7.01759556222e-07
-6.60108889823e-07
6.1743168806e-07
-6.10245083548e-07
5.88356635666e-07
-5.58289658288e-07
6.00075850615e-07
-5.11288197787e-07
6.22461859034e-07
-4.70581784434e-07
6.44975550438e-07
-4.35968037301e-07
6.64469472008e-07
-4.06911174361e-07
6.79951205195e-07
-3.8275339227e-07
6.90731282315e-07
-3.6257878089e-07
6.96252908142e-07
-3.45009004782e-07
6.9611675243e-07
-3.27879993604e-07
6.90962863739e-07
-3.05647858407e-07
6.85821338913e-07
7.00104147826e-07
-2.67717777807e-07
8.24599363342e-08
8.46122428666e-07
9.95752597512e-08
1.13481144656e-06
8.66602025533e-08
1.14880486107e-06
7.4544218817e-09
1.1190237542e-06
-1.44784489964e-07
1.08497477326e-06
-3.61034955813e-07
1.03239881833e-06
-5.14106522678e-07
8.55094136053e-07
-5.54858181641e-07
6.5830431707e-07
-5.32874232874e-07
5.6641834652e-07
-4.94414749255e-07
5.61652758195e-07
-4.55647995959e-07
5.83718852384e-07
-4.21103469638e-07
6.10448095484e-07
-3.91335850166e-07
6.3471299842e-07
-3.66175288049e-07
6.54799141521e-07
-3.45076230257e-07
6.69637824156e-07
-3.27157874158e-07
6.78337847034e-07
-3.11148646148e-07
6.80109069174e-07
-2.95386420202e-07
6.75201396068e-07
-2.7734682119e-07
6.67782638736e-07
6.72204034365e-07
-2.49443653773e-07
5.50157649344e-08
8.30221235153e-07
8.22560196937e-08
1.09187401237e-06
9.15889500178e-08
1.12786232305e-06
8.01382043763e-08
1.12454965514e-06
3.54160640205e-08
1.12716232112e-06
-5.11902353577e-08
1.11808041262e-06
-2.48038642247e-07
1.05179857486e-06
-3.91667361893e-07
8.02002805199e-07
-3.95697318519e-07
5.70493237525e-07
-3.79574968357e-07
5.45555734069e-07
-3.55768568683e-07
5.5993147226e-07
-3.32598654439e-07
5.87289920582e-07
-3.12582084096e-07
6.14704374728e-07
-2.95730019308e-07
6.37951052462e-07
-2.81696096008e-07
6.55607318976e-07
-2.69685044845e-07
6.66327489168e-07
-2.58533334203e-07
6.68956643957e-07
-2.46863151949e-07
6.63529663493e-07
-2.33449457415e-07
6.54367430572e-07
6.53869432225e-07
-2.15115094765e-07
2.96809067371e-08
8.38255880977e-07
4.67920802535e-08
1.06118577569e-06
6.06352871926e-08
1.10377683959e-06
6.19732279592e-08
1.11766608266e-06
3.92888578775e-08
1.14737310746e-06
-7.97421567228e-09
1.16446643174e-06
-7.60229786056e-08
1.11964594893e-06
-2.41947452543e-07
9.67940588118e-07
-2.55213269654e-07
5.83779697563e-07
-2.55501670605e-07
5.45861617369e-07
-2.46720356976e-07
5.51161681221e-07
-2.34702987526e-07
5.75278325081e-07
-2.24301141932e-07
6.04303307737e-07
-2.15881792345e-07
6.29532757151e-07
-2.092144278e-07
6.48938220324e-07
-2.03615590353e-07
6.60726834768e-07
-1.97996523075e-07
6.63333981829e-07
-1.91277400159e-07
6.56807078792e-07
-1.82967410412e-07
6.46054592184e-07
6.43367513281e-07
-1.72466834728e-07
7.79613394272e-09
1.1795640878e-08
1.42359777035e-08
4.15016079078e-09
-2.61133359094e-08
-7.51903459833e-08
-1.35779274669e-07
-1.26667037167e-07
-1.39318030224e-07
-1.45570711967e-07
-1.46842713282e-07
-1.43851430989e-07
-1.40914773911e-07
-1.39130962307e-07
-1.38427047379e-07
-1.38135222784e-07
-1.37274502367e-07
-1.35105464137e-07
-1.31770762122e-07
-1.27875478255e-07
2.2187223952e-07
5.63278486638e-07
2.26392008468e-07
4.93772310533e-07
2.32156191114e-07
4.27816680879e-07
2.39138686438e-07
3.65988999542e-07
2.48876504733e-07
3.12864748373e-07
2.61512813352e-07
2.74269899451e-07
2.7517595446e-07
2.40656803202e-07
2.859578358e-07
2.0053532235e-07
2.82653146222e-07
1.76650659031e-07
2.42568380393e-07
2.01185572125e-07
1.96601827503e-07
2.32998585595e-07
1.51528577272e-07
2.27126607927e-07
1.07758388538e-07
2.12667736448e-07
6.58678028186e-08
1.9561283241e-07
2.5991167637e-08
1.70907605267e-07
4.64954706386e-08
3.54005661332e-08
3.56859302789e-08
-3.78978312469e-08
2.18093521727e-08
-5.32375731941e-08
1.00503191112e-08
-5.43960967612e-08
-5.11630486682e-08
2.04999655702e-07
5.64580442637e-07
2.05855383631e-07
4.93082214703e-07
2.07945965564e-07
4.25884540944e-07
2.10760416293e-07
3.6332176867e-07
2.15499810935e-07
3.08271440937e-07
2.24160468082e-07
2.65793348599e-07
2.37414168516e-07
2.2761108292e-07
2.46095119624e-07
1.92052054968e-07
2.35138191084e-07
1.87826031842e-07
1.85349961247e-07
2.51306877199e-07
1.47470616984e-07
2.71204367006e-07
1.11499280507e-07
2.63407237723e-07
7.71786690602e-08
2.47284847252e-07
4.53259760864e-08
2.27745960711e-07
2.37115564584e-08
1.92789799163e-07
4.6295547257e-08
1.30338141362e-08
3.63939934776e-08
-2.79554168749e-08
2.28271074205e-08
-3.96700761738e-08
1.06267685787e-08
-4.21956895632e-08
-4.0536254918e-08
1.75620785549e-07
5.69195065037e-07
1.72855331998e-07
4.96015905963e-07
1.70980170726e-07
4.27915587816e-07
1.69702990429e-07
3.64744695355e-07
1.70121769584e-07
3.08001399465e-07
1.75313443247e-07
2.60766231808e-07
1.84608704405e-07
2.18486478873e-07
1.86368929206e-07
1.90467254698e-07
1.64504914526e-07
2.0995073755e-07
1.2544175228e-07
2.9070709487e-07
9.77728181778e-08
2.99195832025e-07
7.41555488424e-08
2.87335738791e-07
5.41254806216e-08
2.67609550673e-07
4.06099556262e-08
2.41543257733e-07
4.8221533945e-08
1.85444570932e-07
4.9617042488e-08
1.1791371525e-08
3.68870444059e-08
-1.52131905635e-08
2.34714323722e-08
-2.62543362638e-08
1.1063043299e-08
-2.97872275494e-08
-2.94731859035e-08
1.38071103202e-07
5.76437124431e-07
1.32470107925e-07
5.01785097159e-07
1.27261757801e-07
4.33282605633e-07
1.22346810776e-07