/*--------------------------------*- C++ -*----------------------------------*\
| =========                 |                                                 |
| \\      /  F ield         | OpenFOAM: The Open Source CFD Toolbox           |
|  \\    /   O peration     | Version:  2312                                  |
|   \\  /    A nd           | Website:  www.openfoam.com                      |
|    \\/     M anipulation  |                                                 |
\*---------------------------------------------------------------------------*/
FoamFile
{
    version     2.0;
    format      ascii;
    arch        "LSB;label=32;scalar=64";
    class       volScalarField;
    location    "0.67/water";
    object      alpha.gas;
}
// * * * * * * * * * * * * * * * * * * * * * * * * * * * * * * * * * * * * * //

dimensions      [0 0 0 0 0 0 0];

internalField   nonuniform List<scalar> 
1497
(
0.746674750019
0.681330351608
0.582313173142
0.467923301877
0.355265244359
0.258284809421
0.212413769679
0.208325616996
0.208328298357
0.209093383468
0.210763413111
0.210920617703
0.209802491537
0.815505952127
0.799045810229
0.790120628968
0.789664381556
0.789574597618
0.789484444893
0.7827887549
0.75582133664
0.69963912503
0.614704185773
0.50950216738
0.396391817848
0.289744502186
0.220576931085
0.208328298357
0.208262128565
0.208311751167
0.208431919971
0.209523749774
0.209532326266
0.814097756846
0.798577912734
0.789157352953
0.78854092366
0.789476518857
0.789398849671
0.782775508914
0.756064057126
0.70173970098
0.622852976985
0.525604980101
0.416828002329
0.308196223884
0.227666542358
0.208277737866
0.208311751167
0.20816715074
0.208287695227
0.20822103007
0.208268903425
0.815005831598
0.793450085618
0.780107185825
0.778694456622
0.782871822779
0.78410843052
0.777228339866
0.750831130362
0.698141825492
0.621467452136
0.526401240151
0.419437298946
0.310693048334
0.228350532825
0.208328298357
0.208158459058
0.20829387734
0.208070162707
0.208266601852
0.208147993132
0.814097756846
0.777812993434
0.754448702971
0.749627387483
0.759485637108
0.763734934484
0.757090667334
0.731536730869
0.682001053429
0.609921270451
0.518867753168
0.413607100519
0.305395900729
0.224937504968
0.208259809987
0.208328298357
0.208004005364
0.20829387734
0.207992117994
0.208266601852
0.810160377341
0.745108703588
0.706895576252
0.697751898183
0.711485918146
0.719729966892
0.714061545304
0.690736982726
0.645109047677
0.577953638182
0.491066249727
0.388370917625
0.283469533991
0.21534492815
0.208352005212
0.208040386228
0.208328298357
0.207963992355
0.20829387734
0.212716440396
0.793192583815
0.699116142441
0.645257654597
0.628412307787
0.638716672492
0.647332338374
0.642922609112
0.622987469644
0.581739647001
0.518587614545
0.434827564723
0.335937216568
0.244040743013
0.208510739255
0.208210221802
0.208352005212
0.207964676422
0.208328298357
0.214073729798
0.230575796539
0.756295407703
0.670583415996
0.589698546381
0.547870022674
0.54501904446
0.546488713135
0.54106940247
0.523145733242
0.486235737332
0.427505650179
0.348937243233
0.263803163984
0.21223740778
0.208297870671
0.208378332729
0.207984396749
0.208352005212
0.218523747526
0.235205636221
0.236954995215
0.714401055949
0.64938740839
0.559239697146
0.474356207299
0.439703370844
0.422746128357
0.408591774565
0.389381902386
0.357436592548
0.308830267394
0.251413989938
0.213052690123
0.208330857774
0.208405357001
0.208123602466
0.21079386468
0.225188176528
0.238344483483
0.238442280788
0.237202140125
0.676404538738
0.621522840313
0.539978916928
0.432351157845
0.352095440194
0.303362901406
0.271525263364
0.25224368232
0.234991389183
0.217883962048
0.208773244911
0.208334344244
0.208435779312
0.208165905081
0.215494130963
0.233188895645
0.239599171519
0.239623808878
0.23820262521
0.233505242905
0.635939199188
0.573047057544
0.510584160094
0.41057524612
0.311093246623
0.236027930373
0.209915002972
0.208531099343
0.20813201168
0.208497127513
0.207681636281
0.208465638416
0.20769703379
0.216708939288
0.24180796331
0.241846920512
0.240322870347
0.237443945159
0.231871484097
0.225595899646
0.585159008058
0.507049392669
0.467778928783
0.390314448417
0.296708421173
0.221308560359
0.208564428131
0.20776395614
0.208531099343
0.206815958402
0.208497127513
0.206887816038
0.212878249896
0.250478355708
0.250957676135
0.24192790241
0.234924486946
0.228409786859
0.221805302526
0.217735504796
0.539322260907
0.469024484582
0.446608932282
0.382991620153
0.294133142849
0.222225973475
0.208030317744
0.208564428131
0.206501229341
0.208531099343
0.206477311781
0.219150609477
0.256801597449
0.268552279366
0.248982097565
0.232503591799
0.223680514121
0.218222305775
0.214781028865
0.212835113757
0.531549906736
0.49365948382
0.47281783633
0.411210494882
0.325145930007
0.256013172137
0.227372258147
0.221018687133
0.225020243029
0.236041050627
0.258687047803
0.290309410379
0.298590036442
0.272184582633
0.242409786902
0.222494286688
0.215559329777
0.213001397199
0.211772532089
0.210648467306
0.586481051322
0.601411827756
0.577129898491
0.526177328035
0.458854325351
0.402222155337
0.370624703972
0.370582941143
0.388004204613
0.405119115836
0.40539155788
0.384186441441
0.336254915891
0.282942831582
0.244056475189
0.220197775223
0.212270027681
0.210894904368
0.210509342167
0.209714973396
0.726226535039
0.743006361318
0.709658081257
0.674424956636
0.642520849862
0.619738255826
0.611111575047
0.61949182712
0.632472103855
0.622500886661
0.568320628313
0.489406020815
0.404506069426
0.325117996854
0.260644622668
0.22153370731
0.21085723316
0.209858543604
0.209843204331
0.209190113779
0.835811390272
0.807190267347
0.77736250959
0.757781823976
0.744768390012
0.736157866475
0.733732432986
0.734243099127
0.732809028823
0.714142754064
0.658183622497
0.573807276833
0.481536934064
0.386637075644
0.294694083067
0.227227783254
0.210007921229
0.209391547689
0.209678405085
0.208892080558
0.845088814845
0.818189776387
0.803291639836
0.791445536334
0.782701191647
0.772354683881
0.760687660173
0.749483423022
0.739876953317
0.721095127013
0.674316710494
0.600872620826
0.513043187071
0.416178552745
0.316039634349
0.233029617365
0.20945459278
0.209244321384
0.209676071979
0.208811254541
0.843517774631
0.82303142428
0.815199758868
0.807371771995
0.800444981476
0.788639341768
0.769933803647
0.748666485489
0.730716830009
0.707808170436
0.6646730407
0.59719990324
0.512468546244
0.416359504376
0.315663346894
0.232354438654
0.208881436645
0.209152811542
0.209673286971
0.208847243816
0.845210426564
0.826033480754
0.819892242677
0.814167976788
0.809455766372
0.799006986606
0.776757882921
0.742585348464
0.700924216998
0.662163138328
0.620490751231
0.563347115129
0.486283398722
0.3932097942
0.294662745576
0.222215541087
0.208466765743
0.208923636024
0.209669964957
0.208902930305
0.843517774631
0.826428537917
0.819897437991
0.815089974693
0.812048623609
0.803664459062
0.781289577708
0.736635951857
0.667066512273
0.599296723776
0.544830992259
0.488497237551
0.416110714541
0.328120908079
0.245420539586
0.20965857454
0.208453944379
0.208560515867
0.209667613948
0.208796119064
0.84435000061
0.82363025187
0.814873365723
0.811443969439
0.810061041565
0.803045160518
0.781876046319
0.73437516105
0.651098103067
0.553483237312
0.470559931165
0.397189091312
0.319026469962
0.245544611288
0.210623447164
0.208453944379
0.20832758756
0.208414934956
0.209330235393
0.208335389048
0.843517774631
0.813764112561
0.797212194206
0.794524515651
0.798222495583
0.794990578169
0.777301192071
0.730091756676
0.643970159281
0.532527040072
0.4230571097
0.323758039458
0.2413489073
0.209413486707
0.208453944379
0.208229463509
0.208414934956
0.208270856873
0.208380375299
0.208272024494
0.840860320232
0.790194879894
0.759312602174
0.752633644891
0.765097374581
0.769027263001
0.757066064471
0.714568372201
0.630852579765
0.516718268984
0.394959463547
0.280910956834
0.213366511516
0.208466382852
0.208184360104
0.208417889697
0.208075778939
0.208369596149
0.208227679113
0.208325440171
0.821875994516
0.748694864102
0.690756521887
0.678903305686
0.699876138853
0.713930593198
0.707475066649
0.672724619844
0.596969201296
0.488647330438
0.366412362789
0.253940219864
0.208860524365
0.208326183731
0.208466382852
0.208023727317
0.208417889697
0.208041486663
0.208369596149
0.207935421811
0.78241317325
0.692968423246
0.598644207061
0.577617237025
0.59798827414
0.619207375908
0.617308625107
0.591815246179
0.529142432924
0.434126473393
0.322567566033
0.22879438595
0.208469032915
0.208504815364
0.208081856581
0.208466382852
0.207927202436
0.208417889697
0.207918007548
0.208369596149
0.72067243977
0.643253320153
0.517179341121
0.454118569176
0.461458960688
0.481524108194
0.483167421108
0.466943808672
0.42035423046
0.344802252731
0.258359891333
0.210182844994
0.208554530438
0.208187140303
0.208504815364
0.207927202436
0.208466382852
0.20789026964
0.218564586967
0.288143613661
0.660723356365
0.597292104396
0.457454928636
0.337471022578
0.311091690059
0.317179027593
0.318438387958
0.310025787385
0.283057239032
0.241574063171
0.211205729901
0.208596153927
0.208212217209
0.208554530438
0.207968156783
0.208504815364
0.224063811344
0.27068637823
0.370565923292
0.510369767468
0.60551875736
0.542659474529
0.42429130956
0.290787944836
0.227448754347
0.215400256374
0.213432523415
0.212040354763
0.209516956091
0.208515499568
0.208639223526
0.207957187364
0.208596153927
0.20791772645
0.224120696324
0.272025405724
0.353523795666
0.454353271594
0.54608577352
0.597411828697
0.537398385961
0.473513570708
0.393269627354
0.286079007056
0.216341083708
0.208771390237
0.207925944669
0.208727840235
0.207064132729
0.20867593675
0.206713769251
0.208639223526
0.20949881151
0.251806998713
0.324121810276
0.409242757189
0.476581626849
0.524868043313
0.559477843529
0.580267767622
0.464331766704
0.420736905499
0.382035291635
0.290988006299
0.2206470463
0.208181986969
0.208771390237
0.206170990425
0.208727840235
0.205953299891
0.20867593675
0.232917775327
0.288429496795
0.356318686054
0.413840358851
0.447747928073
0.477341811496
0.500887810998
0.506456592335
0.489289593614
0.454321968857
0.446268195035
0.421078750723
0.343819677274
0.266347075239
0.231831824766
0.222459810023
0.225014988731
0.23875718187
0.271093963786
0.316508457595
0.367495758367
0.404467238577
0.42499060725
0.432406439775
0.434133471498
0.432834242946
0.417094416
0.377413750387
0.335130221139
0.527076045786
0.579130128351
0.568718798294
0.520823258093
0.451267342697
0.414014490982
0.409149430087
0.427505736675
0.470223584352
0.51767594938
0.544564815104
0.533626062821
0.505207031383
0.474531544963
0.445432970063
0.415918487608
0.3765177785
0.322500077099
0.25395862529
0.225153151039
0.699173642124
0.746081487518
0.739935974752
0.726297099571
0.708596924108
0.709036870018
0.713733836515
0.724950839853
0.731108706511
0.727892148901
0.701457561949
0.648552266789
0.588252572709
0.530230137715
0.474249659049
0.417866408461
0.352702735069
0.269102506683
0.20921178779
0.207108807677
0.81368279573
0.815425914385
0.80752737645
0.811199157931
0.830360061532
0.84247468285
0.845433883309
0.845319529486
0.82562616832
0.790746148189
0.740471994084
0.680988206668
0.618749493191
0.555542743866
0.489322287788
0.415991736254
0.328743739382
0.23063406292
0.207080846864
0.207152933664
0.845372525519
0.825544765465
0.823565344007
0.830973388227
0.853106342937
0.854196875765
0.853106342937
0.854350306417
0.84538839499
0.803350290772
0.738744030578
0.670966441786
0.606381816115
0.543833123113
0.472930184008
0.384835867186
0.278047546841
0.207607301788
0.207152933664
0.217129161948
0.848218646278
0.828732238606
0.829471794755
0.838382797745
0.853848940617
0.853106342937
0.854595902852
0.853106342937
0.853883624482
0.808663586515
0.731127113449
0.632520460274
0.552318032796
0.491055400425
0.414935172551
0.315031605055
0.222309450236
0.207152933664
0.206863650552
0.291364542498
0.848314398999
0.830553260005
0.832115148003
0.842343035198
0.853106342937
0.85459483434
0.853106342937
0.854443113992
0.853106342937
0.813809709913
0.731383476286
0.605438908968
0.486113620346
0.411889336002
0.331961654353
0.241793863149
0.207152933664
0.20690882345
0.207152933664
0.427108610985
0.207789700251
0.207791349368
0.207786381223
0.221264596105
0.268022630402
0.309143469796
0.316912526517
0.341599452706
0.396997237924
0.40870022244
0.473941727649
0.677443331386
0.706519556485
0.701927594473
0.706617249916
0.70226978935
0.706318778224
0.702024844436
0.236929915007
0.00441544350246
0.208334396118
0.207792884051
0.207751306457
0.209021969594
0.222606682234
0.234985826291
0.250069167722
0.296168347537
0.341544514758
0.4097394225
0.632097368948
0.704906005122
0.70165472694
0.705429652662
0.701927594473
0.706060730461
0.702024844436
0.70498538881
0.229297872166
0.00379818695723
0.208226764898
0.207782498041
0.207806716805
0.207709942757
0.207845493303
0.207587111005
0.21322264449
0.249299389873
0.28042649377
0.486708284863
0.702988298318
0.701561699082
0.703697694681
0.70165472694
0.704669190254
0.701927594473
0.704941893973
0.701832355567
0.219148108593
0.0032490363869
0.20824004345
0.208589666644
0.20777359901
0.207845493303
0.207579100789
0.207887369332
0.207302521952
0.207925687731
0.253103712888
0.602059982584
0.701199238145
0.701974006728
0.701561699082
0.702986269876
0.70165472694
0.704717747765
0.701832355567
0.703236656332
0.205119728502
0.00283564256925
0.21169567944
0.213368892588
0.208938792456
0.207763184834
0.207887369332
0.207406637686
0.207925687731
0.206912438201
0.273894028204
0.649833689605
0.696677712954
0.683261119953
0.680658527875
0.682235946443
0.698515846128
0.70165472694
0.702557111552
0.701561699082
0.186726969146
0.00266577857773
0.223150238352
0.219758466631
0.210377361254
0.207887369332
0.207685605266
0.207925687731
0.207169061128
0.207969557536
0.316959957058
0.648706837245
0.654756156492
0.631490117891
0.622284526107
0.615619034139
0.627351705075
0.664191925051
0.685756673572
0.638871033659
0.133419066774
0.00259607338656
0.231087260869
0.221758109647
0.21092256118
0.207861823446
0.207925687731
0.20767997272
0.207969557536
0.206867717504
0.370899022152
0.640917007763
0.604446907948
0.581132197827
0.575964733957
0.556742516561
0.53830142344
0.547256711377
0.570793016928
0.505943680849
0.0846630530482
0.00259421306906
0.232091078384
0.221309042485
0.211165096984
0.207925687731
0.207879504446
0.207969557536
0.207363050113
0.208005526393
0.442692738053
0.62100956252
0.572705699989
0.556885752551
0.562076404805
0.548923461503
0.495607118896
0.448992886779
0.438983509848
0.408755675867
0.0708579046195
0.00259486265674
0.230478890153
0.219931375713
0.210811006244
0.207948655824
0.207969557536
0.207865123742
0.208005526393
0.260867876164
0.52098636933
0.592625695483
0.557624551334
0.556634256255
0.564391448148
0.555514818386
0.497096909682
0.410742828177
0.358619671498
0.360985785861
0.0824868277439
0.00259299383641
0.22599143169
0.21676357808
0.20959287627
0.207969557536
0.207965952862
0.208005526393
0.217501415168
0.396249198095
0.589993380814
0.574912425299
0.555914732393
0.557195704226
0.57321522762
0.559348285753
0.490511524119
0.384371182332
0.303625587238
0.320379758545
0.0933097838772
0.00259365701679
0.219439646656
0.212055801871
0.208172247056
0.207985554713
0.208005526393
0.212353652646
0.32299831659
0.580384173712
0.619651276684
0.57520166272
0.555907756328
0.571791779043
0.573464928606
0.54870715173
0.459672039151
0.340998602339
0.253990678485
0.278235701329
0.0906429594179
0.00259187572224
0.213243440821
0.208610454795
0.208030071638
0.208009911212
0.210290005957
0.276895918238
0.526075239334
0.647014414851
0.633081169362
0.582406987461
0.567104560746
0.575907395464
0.573707995003
0.516158749956
0.405132098884
0.283149497099
0.210855484929
0.247640193237
0.0759937645081
0.00259264385314
0.209942379079
0.208061691016
0.208050992325
0.208474921637
0.248899573886
0.430523047281
0.613584694278
0.647116438092
0.63905079318
0.591194084164
0.57599432084
0.575951050946
0.554774476697
0.461148979319
0.335405634083
0.216102117854
0.181314711424
0.23631055208
0.0607280202979
0.00259088777815
0.208527689689
0.208089075131
0.208061691016
0.228907839429
0.341491612401
0.513616211716
0.610464998646
0.640494667064
0.631861580815
0.58849958575
0.569450195953
0.561138443698
0.501057057225
0.382408537271
0.257906979393
0.148384846469
0.164880785126
0.25218454809
0.0556630195209
0.00259159045282
0.208117299684
0.208085726653
0.215079566937
0.285324074186
0.417652776644
0.506017787008
0.575373600372
0.601609792404
0.597894237164
0.5620128383
0.537112246448
0.505881861479
0.410854570797
0.284467357394
0.180021091812
0.0976894184204
0.154384381275
0.287994432762
0.0648888341485
0.00258980220846
0.208128343875
0.20811704359
0.241258210664
0.345418912592
0.425786541295
0.472029854624
0.513634956546
0.534589953939
0.533737207049
0.502138191502
0.46980875743
0.411400267125
0.297452625653
0.185722776884
0.106013978702
0.0571338881384
0.148750275501
0.317822891628
0.0958893481864
0.00259049357836
0.208159690961
0.211703471965
0.281661348894
0.383734793924
0.417703297358
0.428962633988
0.450739377761
0.462775039695
0.454954925868
0.421673271783
0.377341349719
0.297134708566
0.187869222183
0.103864266212
0.0453864511291
0.0317801121628
0.147921677078
0.317660963328
0.140074459897
0.00258876532591
0.208168473943
0.221838910969
0.317966719441
0.400057556027
0.409336132379
0.400063836428
0.40224390196
0.402639691488
0.380557389963
0.339024038569
0.278718088338
0.190426910823
0.10244670722
0.0449784276468
0.0169768268538
0.0237027390578
0.229251665071
0.318914663894
0.156604308018
0.00258953372782
0.208198635323
0.230120645358
0.325347412094
0.40581854894
0.408919916205
0.386717448711
0.373163221492
0.35855304333
0.322454069569
0.266282472631
0.190800394806
0.107135881629
0.0447193698619
0.014603562808
0.0116686355018
0.0284957715196
0.318614280158
0.317856708105
0.147877734066
0.00258795879691
0.208147368636
0.227737318202
0.318257341806
0.406411022739
0.410298740237
0.382006233869
0.356939761334
0.329452685925
0.278285079082
0.20412279127
0.119675899877
0.0494597483794
0.0148072857517
0.0091449462982
0.0107422237968
0.0533051953108
0.318068930856
0.319256061342
0.125346445733
0.00258889950517
0.208244406041
0.22002064716
0.300789013883
0.404278716067
0.413711310997
0.381878252836
0.345923994025
0.306601304254
0.237315943489
0.146185287031
0.0657649154981
0.0177955999462
0.00892602999854
0.00892984788406
0.010608464406
0.110003111641
0.31960037452
0.318090987942
0.103499396294
0.00258766710949
0.208091979994
0.208283113715
0.276895219515
0.402565977437
0.420233612428
0.384272853538
0.337698551715
0.282125282054
0.190020173708
0.0910496409435
0.0295079651672
0.00904176611199
0.00890813645024
0.00892602999854
0.0109456680428
0.201981159656
0.318256820582
0.319192656406
0.0866429741756
0.00258874808919
0.208283113715
0.207999213151
0.269658279363
0.41435153347
0.433913453295
0.390237489674
0.335840895082
0.252139092925
0.135871540062
0.047816914655
0.0103159544753
0.00889397923154
0.0089187141267
0.00887397442347
0.0138448395245
0.278513897228
0.319497537911
0.318151576076
0.0729868069018
0.00258780390499
0.207965219816
0.208325440171
0.305742619806
0.465884795718
0.461502899405
0.40336822242
0.336056905894
0.217229158454
0.086481314153
0.0233842625159
0.00887935228934
0.00891061203932
0.00882115914424
0.0089187141267
0.0256099335399
0.314794676117
0.31828842128
0.318399714078
0.0638885825978
0.00258899309307
0.208325440171
0.244318229524
0.464094269546
0.543650005078
0.497521192577
0.425605473297
0.335973392975
0.183487982533
0.0550060621403
0.0138695844913
0.00890135701974
0.00880711150017
0.00891061203932
0.00880077505408
0.0645462221615
0.317929258969
0.319167521464
0.317929258969
0.0642111335091
0.00258815278404
0.245889547375
0.443607247889
0.596620803895
0.587542826483
0.518044435082
0.437005646752
0.332382746179
0.156699745978
0.0386143896235
0.00992953966893
0.00882199528803
0.00890135701974
0.00880111135031
0.0203068056887
0.143567495464
0.283685277892
0.317929258969
0.311021557681
0.0755213820803
0.00258947024652
0.458396494852
0.594209787785
0.598482213315
0.588743014559
0.515244612746
0.430831669709
0.318935063316
0.134873544314
0.0284185954618
0.00883004033574
0.00889110930676
0.00880604146017
0.017718750879
0.105894993472
0.174993078322
0.189431804496
0.245144460764
0.303932643358
0.100252985098
0.00258867006828
0.597327956965
0.598472963587
0.598108805084
0.568222512729
0.483409830303
0.397078777337
0.290352972622
0.119149458017
0.0244569042794
0.00888278562082
0.00881374429716
0.0154769033942
0.0979586539536
0.133779789682
0.137204519977
0.102753417646
0.183775177683
0.315459110713
0.144846552259
0.002590082669
0.597827217191
0.594957015488
0.569887038707
0.499191092952
0.406484212894
0.334348512683
0.260679350039
0.116859685337
0.0243090940981
0.00882114216596
0.0151440142526
0.102154188305
0.111050551659
0.111778199455
0.0699487711742
0.0332256248914
0.155679670094
0.352477863301
0.232499571912
0.0025891964198
0.56967132826
0.534821064601
0.47254772824
0.387501793655
0.318866077632
0.294113487805
0.262395425783
0.132026133442
0.0293040777176
0.0302736137166
0.125909785628
0.130178728632
0.100405576168
0.0431410481857
0.0110205352178
0.0115715009718
0.140888326349
0.395697917901
0.376921267512
0.00749735836811
0.453236558184
0.395415539882
0.335297378829
0.303234208998
0.302729886257
0.312415853722
0.335676004725
0.25071459137
0.124491804319
0.193487431657
0.288792697757
0.130785726687
0.0367347961775
0.00781696925029
0.00196493030225
0.00813522887419
0.119004419397
0.413985265224
0.509788590372
0.0180028076332
0.290276134279
0.263980468482
0.26273856392
0.314366659547
0.400959603658
0.501802093487
0.573505883235
0.562086743094
0.497987897099
0.525420230097
0.397985045008
0.131652543248
0.0337561931766
0.00805947461292
0.00154436702458
0.00222067193864
0.0661114197103
0.388194912105
0.568100932507
0.027804756669
0.219973259206
0.239469402058
0.375660259173
0.570708194684
0.689898594227
0.739421652446
0.75390596577
0.755914586981
0.74655273005
0.715571529785
0.49843622345
0.198630583639
0.0592716977296
0.0149582418043
0.0022184268285
0.000187515860212
0.0171202313655
0.324849635673
0.574865612437
0.032510144356
0.218310147848
0.39871847877
0.685074292535
0.757533278097
0.761727820586
0.759794934136
0.762804369787
0.759794934136
0.761556798293
0.74026786459
0.509736699122
0.226614659634
0.0740261755388
0.0189458403006
0.00270532773766
8.16322898152e-05
0.00354292410937
0.275798609498
0.575264865275
0.0328871412796
0.313960740436
0.67968390119
0.759794934136
0.761785576799
0.759794934136
0.762803705946
0.759794934136
0.76239022361
0.759794934136
0.710138765312
0.473871954914
0.215205390419
0.0703120965755
0.0164630980534
0.00179591936467
3.41080892707e-05
0.000521232175896
0.276485063894
0.574865612437
0.0266168163393
0.534783160685
0.759794934136
0.760923792853
0.759794934136
0.762041953433
0.759794934136
0.762016941299
0.759794934136
0.760280897827
0.648957362546
0.409161778791
0.177490018919
0.0532531279274
0.00971564039673
0.000584142126649
1.14282631114e-05
0.00166702564433
0.333095388696
0.570029375272
0.0183073135617
0.696388225456
0.75988871147
0.759794934136
0.761297612022
0.759794934136
0.761304199228
0.759794934136
0.760601067822
0.742906564752
0.572618065932
0.32808137408
0.12669154738
0.0308495164347
0.00338451686999
7.63431659918e-05
9.94061600992e-06
0.00855171981152
0.437950581359
0.502442001397
0.0117054813945
0.733893202081
0.756906228909
0.760308046028
0.759794934136
)
;

boundaryField
{
    emptyPatch
    {
        type            empty;
    }
    minY
    {
        type            fixedValue;
        value           nonuniform List<scalar> 0();
    }
    maxY
    {
        type            inletOutlet;
        phi             phi.gas;
        inletValue      nonuniform List<scalar> 0();
        value           nonuniform List<scalar> 0();
    }
    water_to_cooler
    {
        type            zeroGradient;
    }
    water_to_heater
    {
        type            zeroGradient;
    }
    procBoundary1to0
    {
        type            processor;
        value           nonuniform List<scalar> 
41
(
0.844624886069
0.830939746961
0.832939159758
0.843870575629
0.853969238689
0.853106342937
0.854647610666
0.853106342937
0.853793834053
0.820643085046
0.737403140351
0.61003754149
0.474672735924
0.358253083534
0.263504406549
0.208585430847
0.207032307761
0.207152933664
0.213834463674
0.54525583369
0.760509473012
0.759794934136
0.760283309303
0.751782675481
0.668660992822
0.46877610363
0.235429427209
0.0738758029516
0.0115890502637
0.000493095214527
1.09846428647e-05
9.96535175685e-06
0.0294547659708
0.534149319009
0.462234104569
0.00816522252935
0.736998214057
0.747531259949
0.759794934136
0.760509473012
0.760134603618
)
;
    }
    procBoundary1to3
    {
        type            processor;
        value           nonuniform List<scalar> 
41
(
0.710598904946
0.624334110183
0.511642406768
0.400280056234
0.302102811677
0.230169645583
0.209436945282
0.208437438978
0.209514996268
0.211738341961
0.212505516569
0.211140383375
0.208410020078
0.814097756846
0.796809713054
0.786562328171
0.786508108614
0.787377901556
0.786550145145
0.777526283383
0.777526283383
0.207833033251
0.20777703715
0.207927396032
0.248015437116
0.332880382516
0.389490338501
0.389834734587
0.388824658025
0.411932906198
0.415139107581
0.414879743894
0.487676293062
0.68847368251
0.70674415942
0.70226978935
0.706617249916
0.702272931165
0.705689676081
0.233058320253
0.00410245238929
)
;
    }
}


// ************************************************************************* //
