/*--------------------------------*- C++ -*----------------------------------*\
| =========                 |                                                 |
| \\      /  F ield         | OpenFOAM: The Open Source CFD Toolbox           |
|  \\    /   O peration     | Version:  2312                                  |
|   \\  /    A nd           | Website:  www.openfoam.com                      |
|    \\/     M anipulation  |                                                 |
\*---------------------------------------------------------------------------*/
FoamFile
{
    version     2.0;
    format      ascii;
    arch        "LSB;label=32;scalar=64";
    class       volScalarField;
    location    "0.73/water";
    object      rhom;
}
// * * * * * * * * * * * * * * * * * * * * * * * * * * * * * * * * * * * * * //

dimensions      [1 -3 0 0 0 0 0];

internalField   nonuniform List<scalar> 
1497
(
848.820028958
876.950399284
883.123605526
883.421746509
883.179369218
883.726678545
883.233774276
877.119124139
841.922031164
828.082819786
845.139463834
870.510419474
888.508281406
706.386806279
719.473144175
710.396805967
710.467752253
727.351603008
766.742780424
812.681929009
851.614781075
878.567359551
883.268171027
883.1236094
883.670432215
882.312956249
852.959753245
806.773532301
786.10307343
804.801373555
835.363984076
860.06149387
878.618222112
693.251938489
690.130408219
681.053115164
681.815026632
697.101888031
733.674434815
782.967518803
829.898016633
863.014786551
876.785820815
877.493184133
866.246752781
817.621280304
745.948374892
714.930743736
732.574539914
772.573498855
811.392322336
840.067294968
863.724919566
656.098385707
645.689149767
645.354330398
647.746300882
656.190195507
675.887541366
710.596068135
758.164796366
804.721111147
833.156129986
829.746249364
792.204489422
721.850631144
686.961602602
685.144373436
698.045369871
733.850797688
779.124752772
820.24041142
852.687199554
619.047983331
621.414557902
627.607014989
629.620834405
631.904292456
637.642401563
652.646053617
685.660114223
732.493483015
767.276023628
764.632805514
733.771418923
690.064698027
685.144300535
684.878260849
687.809628232
715.078834306
763.683227024
813.322470329
850.943561431
603.111696021
617.657608409
623.803084616
624.37677152
624.641632029
626.711267323
636.350309064
663.297219979
705.755701876
740.194065975
742.212717342
723.434504291
688.732403191
684.795797983
685.144343826
687.540047132
714.671129651
763.917848111
814.549552925
853.134990894
603.09385506
618.621792807
623.493116689
623.732405627
623.823196911
625.483867686
635.898422426
663.459041072
705.62819845
739.534129843
741.774513356
723.68991775
689.637205594
685.144275006
685.021071788
690.125305221
721.105772238
772.30813688
823.592426917
862.604656396
602.425037194
623.332803346
625.187177097
624.4200883
624.124438057
626.843656095
640.437405094
671.28602376
713.240690572
744.831882014
746.007056836
727.530266193
694.112856626
685.0725769
685.876803436
701.350286523
741.723390773
795.513705429
844.911042119
880.286405606
602.815398958
635.618791566
631.457693885
628.429968496
627.960839943
634.919340046
657.003985548
693.768648662
734.498927818
760.444450316
758.945064242
736.866911565
703.056616617
691.039433715
697.874862735
727.785766754
777.764461177
831.624641306
872.696009447
895.33283791
602.496416169
655.420478764
641.403796755
638.879809151
640.311484085
655.804584643
688.459698209
729.882854466
767.163449931
784.384141589
778.956650268
751.425329931
719.654629802
712.427400652
727.882818707
769.307102716
823.180938248
868.515040919
891.56888923
897.824588508
602.92603062
675.176161672
654.905836798
656.456428905
664.201551446
690.435128691
730.471391407
772.66397745
804.475479372
811.84122125
801.919847689
771.646001871
747.504359414
749.158863755
772.964765327
818.7526129
865.02472377
889.147624395
895.885919022
897.803268117
602.890163636
692.159093255
672.339119533
679.87202903
697.289907897
732.646546948
775.170268202
815.516761878
841.039837127
840.348327283
825.362067973
798.371513418
786.170552787
794.832957252
823.629479355
862.711499643
887.240437816
893.12614791
895.973596046
897.855192556
603.278586719
707.407561117
694.451164227
707.63234575
734.018580686
774.607212471
816.553690061
853.042812602
867.990069418
864.627279744
848.691304914
830.315993503
828.447765786
840.28867376
865.302924324
885.900201881
891.56014807
893.3226013
896.193808294
897.803255651
620.658239041
723.059395166
717.331656806
734.957542014
768.718895486
812.341510353
850.94452225
872.519560083
873.513178625
873.628283789
868.280091443
859.844799827
861.676604133
872.18652697
885.364575979
890.954693089
892.043693627
893.700454222
896.805547595
897.846976021
659.648728956
736.728107752
733.81781283
753.896479107
796.327159656
842.001117703
870.854243002
873.513136661
873.766005223
873.721626702
873.842947971
873.463591327
876.711801692
884.57673664
890.010249004
891.845512814
892.655881234
894.718130393
896.664912132
897.375562303
701.448607407
737.617576389
737.784558104
758.707956244
808.899016377
853.114856814
873.513078043
873.765953418
873.721577959
873.868140335
873.864925807
873.940324787
879.292018378
887.204078217
891.247887392
892.760402522
893.736157089
894.799462017
895.164420444
893.153731206
715.418157003
730.613482824
726.837355281
753.149010688
805.364562402
848.836992478
869.355637591
873.384923239
873.734185752
872.956229366
871.096652133
871.684731152
879.220421532
887.819726998
892.39679618
894.125608634
894.83005462
894.456291823
890.674913157
882.80195243
692.546260535
682.931206748
690.951998526
721.025768685
767.648975839
808.663110376
835.943135189
851.245144743
856.96081842
857.573110165
858.524936674
865.953938745
877.531416813
887.766314248
893.698064819
895.457728928
895.641862806
893.133097548
882.687009876
868.353001558
636.08682743
627.360424549
641.952315655
662.056856414
686.417348867
713.296003895
744.248303886
776.337086822
800.534224698
816.58438427
831.35124255
850.200014743
869.754890266
886.081668418
894.593404099
896.610857645
896.232735642
891.005843088
873.400306704
855.897882627
595.158861817
605.72199516
614.472848992
620.500803537
626.738558162
636.990136362
656.034622337
685.177140884
722.310567856
758.105885888
790.276860227
821.507098211
852.597242433
880.354017345
895.057980958
897.494364362
896.820103694
888.795553474
865.560622173
848.910537402
593.929058141
604.270034647
607.237711514
608.399158707
609.465410216
614.11357649
626.644429392
647.727572649
680.326997167
719.919902514
759.483203127
797.998107209
836.85711785
873.732179177
895.648418955
897.803043262
897.441206686
886.706943368
858.72813176
847.607437697
593.072352489
605.460085457
606.660507372
607.157674172
607.396539162
611.412100999
623.644915198
643.904814661
674.221112158
712.088124556
752.212879303
792.870152359
834.095096476
873.0819669
896.862559667
897.822171612
897.802342265
884.295117741
852.274762849
847.603249178
593.823616568
610.109179651
608.783447143
608.670547776
608.493427451
612.67953659
625.673777543
647.006552279
677.580679911
714.816257602
754.864150189
796.387028784
839.107905065
878.599321737
897.805912799
897.803020818
897.845827921
880.143911048
847.590523201
847.596220925
593.180048261
619.197725491
616.430464655
615.667424278
615.013401479
620.276161707
636.225119417
661.605075066
694.060083339
730.9504796
771.406142583
815.083882977
859.539005912
892.70960794
897.802993842
897.963586187
897.803028849
870.73990738
846.131049654
847.508092736
593.955649019
632.432381674
630.861771706
630.7394083
630.768353323
638.759438375
659.529577654
690.109658406
725.76515314
764.582772603
807.565145805
853.161531606
889.220083411
897.802966754
898.008913908
897.803005928
895.584854214
854.384178415
845.674167247
850.975820381
593.371783908
660.730486955
652.47005707
654.402027788
656.710773523
668.756366182
693.331861537
726.846042518
765.468832804
808.440196732
854.884900639
890.417554699
897.802937744
898.040734171
897.802980701
898.216437204
879.999645975
839.476488721
845.330534322
858.051431535
594.140948001
703.850682558
683.343513872
687.241644554
692.115624972
707.31428967
733.182455644
767.140455265
807.642615384
853.701079291
891.226121258
897.802906507
898.084199916
897.802952578
898.260732474
892.810478003
842.198665781
838.095937444
849.845611669
865.49336712
596.379219442
743.444940198
723.379699069
728.245268838
734.597864268
751.302109074
777.267586025
811.090535466
851.117933848
889.105416983
897.802873524
898.100269169
897.802921074
898.260702511
892.958163267
848.622830051
824.930599127
837.80681468
859.709832962
871.126242751
622.084057164
767.958828722
758.606985591
765.239239188
775.340334936
796.054668648
823.647526263
856.244679678
887.682725051
897.802836918
898.077576253
897.802884748
898.260666184
885.782142661
840.017966838
814.089707387
823.870840817
846.946311804
869.452986644
875.388772942
674.937257141
770.065175182
770.167559531
775.985675918
796.147371247
825.604635944
854.478762363
879.866438107
897.021146125
897.994772558
897.802839309
895.476791528
873.469751665
826.360102056
807.230460542
811.50500167
832.097133363
862.305717217
877.318793189
879.076096331
714.195769908
764.155445338
759.509888428
769.193363419
794.522405837
826.350710638
855.007475345
877.685063004
890.708047769
891.186434794
883.519388943
857.309607589
819.390172959
799.824542818
806.251174112
822.230038092
853.226429673
877.083205908
884.126002631
882.292963909
699.379344199
707.906190066
712.55834126
733.294766647
766.33033929
798.864420738
824.123079163
839.421448994
844.298072004
840.581801069
824.550364799
802.273718728
790.247145173
799.669727376
818.626092151
850.553639955
877.812902871
888.772871583
889.833236555
885.310004194
635.035323906
619.721595329
638.247703368
665.22963744
693.126478016
714.271825901
727.656678595
732.572727556
731.782100475
731.151023837
733.058212927
746.856204751
770.208365532
797.431751246
827.187606652
863.241641883
888.622708091
896.467845033
894.002356441
888.59198806
566.326996554
571.150587934
591.763546615
613.333106894
628.038090657
635.216811035
638.442920255
639.237585379
639.812893052
644.035418188
657.171598395
687.202248861
730.614285634
775.09146545
816.087181766
856.940570045
887.260881163
896.994474937
896.861782041
892.591786914
553.617302974
560.819166713
577.296915865
596.403653033
606.423587215
610.384149447
612.262547269
613.874233367
616.454748466
621.60909026
632.139527023
653.032083841
687.517707682
732.298137355
781.642358875
831.888901466
875.926058289
896.927550504
899.117789643
896.92376585
552.716858699
557.832436659
574.252346793
593.427807065
603.366393745
607.664409285
610.156993605
612.688065103
616.209597101
621.967000964
632.10911647
649.803677899
676.480879587
712.556114813
757.264432741
807.813523407
859.078833807
893.702465266
901.456398007
900.922288498
553.611226725
556.756826195
574.517745016
594.119794709
604.20151598
608.914584549
612.267288743
616.430149937
622.605639917
631.169997429
642.680586544
659.099591961
683.098092121
716.129053856
758.049409655
806.497873138
856.235964831
892.745150396
903.832782391
904.308925619
552.699532232
557.728291443
578.268438678
598.940194977
609.02921459
614.583093027
619.933409373
627.686706232
639.100117713
653.602326525
669.826633886
688.305020709
711.332378769
741.515445108
779.572978868
823.408123885
867.230863305
897.822327069
906.405990324
906.51307336
894.581796694
895.836111195
886.379681153
857.050697818
821.145450533
799.29152134
797.596392202
797.989058964
797.606058599
797.989062042
801.569225204
823.695854997
828.727693094
754.760731285
660.424970391
658.763421044
698.61415709
783.239024485
905.283987743
998.451961693
891.677676634
896.465581869
896.42593103
888.322586803
865.117362351
833.366797958
809.459194055
797.803929504
797.989053511
797.910254697
806.100672007
821.353214488
778.679887139
675.246482713
657.026719866
658.779348723
720.649954822
816.022295377
933.589501743
999.308730349
884.080389988
895.811117496
897.802664596
897.558945723
893.572763589
878.904594
852.230838554
821.073382055
800.133805005
800.326490516
812.897937467
806.4389757
727.539065786
656.621511703
657.121091457
674.887850715
744.619885432
854.25795431
962.098292922
999.792056354
877.854881504
894.644870256
897.803286997
897.827559202
897.803289973
897.677566915
890.029408088
864.766874338
824.835055737
813.133889072
820.012194293
790.517566434
689.143956483
657.121072685
658.439306078
709.599294635
783.546332131
898.136638017
984.618829991
999.947981288
877.647165633
895.050786518
897.827733456
897.803284528
897.909941045
897.803286582
897.936068884
892.552841433
864.299757723
843.879895623
832.956057911
768.354051369
660.991292502
655.717898124
663.001661685
752.624613763
842.341215589
946.22575279
996.738436872
999.962151878
880.618538032
896.839919763
897.803280713
897.920053001
897.803281546
898.0463665
897.803282114
898.048851692
894.205540736
882.951171998
844.860390281
725.292273679
655.414651747
657.121013142
664.841464671
793.297055237
896.816663386
977.316311642
999.453869526
999.962145836
889.318924143
897.803278212
897.890271026
897.803277886
898.069004479
897.803276933
898.214917183
897.803275498
898.21758695
897.803272801
823.777380361
670.100187343
657.120979554
655.537156543
663.857770391
807.815551379
924.728237087
987.715957397
999.716567408
999.962153953
897.217709166
897.854475262
897.803275337
898.053662107
897.803273238
898.254719298
897.803270248
898.400863246
897.803266317
876.635188938
722.737553887
657.120948222
654.9393977
657.12094917
661.817050373
811.402564079
942.276705556
992.739430514
999.688594907
999.962147786
897.838269527
897.803273325
898.026577657
897.803270485
898.253425362
897.803266295
898.452141986
897.80326083
887.437900164
747.319709681
657.143599296
655.019186539
657.120926412
655.640529224
662.572390467
831.584199113
961.082004921
996.517508397
999.413300478
999.962155676
897.803271194
897.990492725
897.803268094
898.22483372
897.803263116
898.454819798
897.803256406
888.209279796
749.402975754
657.143949516
655.128884015
657.12090915
654.652547836
657.120909582
678.124445651
867.855460813
974.950263298
998.186834237
998.586056716
999.815246271
897.93315867
897.803265413
898.163080559
897.803260135
898.409006897
897.803252642
885.070962081
758.425375442
657.121664309
655.520297443
657.120895063
654.705600009
657.120895327
656.590364544
719.163234037
898.768590045
981.989227093
998.7908497
996.512437851
999.184316845
897.803261635
898.062964968
897.803256717
898.304751391
897.803248984
878.723811081
763.499053361
657.147505785
656.05252543
657.120884161
655.082585385
657.120885076
655.908323817
658.45178973
775.393904364
927.682702342
988.355860275
999.351153439
991.968450607
997.416002188
897.942930866
897.803252186
898.157589803
897.803245503
873.848615479
783.126528605
686.650012164
656.859718013
657.120875769
655.864120312
657.12087654
656.303222278
657.120877129
691.127301206
838.965742918
957.321255709
994.851859151
999.790690943
983.589396592
994.028631678
897.80324503
898.000050092
897.187291595
874.716110568
808.996072383
740.280970978
686.147233201
657.301533143
656.796346207
657.120869198
656.647817122
660.382349499
681.695598747
769.425056343
908.94082588
983.493657447
998.964441996
999.932655596
970.31115566
989.946985761
897.294136474
895.376921856
879.928983885
833.500335236
785.804177627
746.391813144
706.805654718
678.321658252
668.887070638
668.948620772
678.772387525
702.930129054
755.165345573
870.875132701
968.755250798
997.36919525
999.928668555
999.950207583
950.910473863
986.21338664
890.218337269
883.109268289
856.030664144
818.750067522
790.731481248
767.223561023
745.199053109
725.521250713
716.456784853
722.341049084
749.750083667
793.36537721
862.827687048
958.31948333
996.137840514
999.903064997
999.968725576
999.952446021
929.456817737
981.93245932
875.71084117
866.252240854
844.442033489
821.817661682
804.014995529
791.891601663
780.92317745
774.893744633
780.481929712
807.356621238
852.661080785
902.84278727
958.944227529
995.726852887
999.901424936
999.974634522
999.970869043
999.952930036
899.963635722
972.495464541
860.49451641
855.289218567
845.496009273
830.126946866
819.81609985
811.133093749
802.674366378
801.00232379
823.497432055
885.442768189
943.887212983
978.795028037
996.310851309
999.906573791
999.974697458
999.97459901
999.973353663
999.925169994
834.271833796
960.706827461
852.180877671
853.097987936
848.826419311
839.922241257
833.237120697
825.317719001
815.156263948
811.171212724
835.959082193
927.313987551
986.899228546
998.646730142
999.92216705
999.974690974
999.974636002
999.974832049
999.974599006
996.0323135
810.199137682
961.967129571
849.689121568
853.351224448
852.718714998
848.172449303
843.261502963
836.314332917
825.238164656
818.091618517
837.428779248
936.772133257
994.673702942
999.862081607
999.974688988
999.974664049
999.974832044
999.974635998
999.972074924
983.766852556
809.605484058
978.513929151
849.248250543
854.435642514
856.406402967
854.523364318
850.56176724
844.94361209
834.704315301
825.875448681
839.246782111
935.50088093
994.72573391
999.863055165
999.974664045
999.974832041
999.974664045
999.974862906
999.964905852
944.16500625
810.199078924
995.846202134
849.545690717
856.788215586
860.382609722
859.42024145
855.949611944
851.400140531
843.160534605
835.465183731
844.617149396
931.863863252
993.867640623
999.786857208
999.96246876
999.9746671
999.974095545
999.971658853
998.39445561
839.334577703
809.844155844
999.770566775
851.470384359
860.729814006
864.464487112
863.166485099
860.006532945
856.099267731
850.981347248
847.24956621
855.968699625
925.908205848
990.173037143
999.318616962
999.842209933
999.931807428
999.925932425
999.850849937
956.289490496
781.121562031
838.737770893
999.902887994
856.028201821
865.472168482
867.779120262
866.06928649
863.228051833
860.498368339
859.546166793
862.754934755
874.869500479
922.255964273
980.057186522
997.325533364
999.311310452
999.734021126
999.738226931
989.367048297
811.616096726
781.211551514
901.163590522
999.902809142
862.243002291
869.385487752
870.111717598
868.594536027
866.695958417
866.277692059
871.52291951
883.480871155
899.596684632
925.201801689
966.016143723
992.092733293
998.140304201
999.132970939
995.082777047
860.36797879
776.988380614
791.850711908
948.144107397
999.902972811
867.662785065
871.944393826
872.079696464
871.415830157
871.455551327
875.840406735
889.536220343
908.903297618
924.900698632
937.203187055
962.571363357
986.517997893
995.915404499
992.85453157
887.383323961
776.988349457
776.93811423
839.248426418
978.275098369
999.902889296
871.241332361
873.827980421
874.2242055
875.152719699
879.247205206
892.029612188
914.635880379
936.348149095
944.713100404
952.194737716
964.621861835
980.393101306
974.709047802
879.57725392
776.988315934
776.938080881
781.463604716
883.950925945
989.287153632
999.903014542
873.795765194
875.60546397
876.860344596
880.928799572
892.795487953
917.170624745
943.681837412
953.469025487
955.174567266
955.550279238
956.661026826
908.725086607
820.727266689
777.034547849
776.938042391
779.639510365
805.955632573
903.94410953
991.729209555
999.902916422
876.03032656
877.455361974
880.700284647
891.273181841
915.222583253
947.586133567
956.561864938
956.533822119
956.468354564
943.975248416
818.444113078
719.131244132
718.82398612
777.978304642
796.607814708
802.124070855
827.730830878
910.228444142
992.483599019
999.903000202
878.179315318
879.713280402
887.511295021
910.181643937
944.542017342
956.812383187
956.686379691
956.849256063
947.541531617
783.659111699
702.587001823
703.245562509
711.221218212
783.629400967
811.625442267
818.858375339
840.370548916
916.380710072
993.396381026
999.902907501
880.3621067
883.254878225
899.705214578
933.219893515
956.908656708
956.79502101
957.169137115
956.686370312
841.076827748
702.605968852
703.245523218
702.60479973
713.732816698
781.430623917
815.322972214
830.689525012
858.305996993
932.111816832
995.450166842
999.902967236
882.887454557
888.964545282
917.283518214
953.908468786
956.941108402
957.331534397
956.795013151
934.256148255
747.39738475
703.24548838
703.894019665
703.245486098
709.958661848
768.763275646
816.588518628
846.025163895
888.989062127
958.15585242
997.871996262
999.902875268
886.28591917
896.717595047
933.667740431
956.997791483
957.345363858
956.941102272
957.362438615
880.803698077
748.153331245
741.223446833
737.672453634
705.074576683
695.478566196
738.15436091
801.695267718
856.214101523
923.275197634
980.69996523
999.169290009
999.902926569
890.970949216
904.088802216
943.807128688
957.345356927
957.034793988
957.453712602
955.81452667
837.205738785
777.23611061
788.274889844
763.427602823
692.080209492
690.869353213
699.991446537
751.238184352
844.188832023
936.144132746
988.927732853
999.436647793
999.902837867
896.549900837
909.395840189
945.660340711
957.10166486
957.443068894
957.023750063
918.977436599
812.353348629
806.15831687
807.513791678
755.506811028
690.212168493
691.831040569
690.77430592
700.393968612
806.415112299
924.477978198
986.41956525
999.257428509
999.902881721
901.741968433
912.570345874
944.322407809
957.355675387
957.04270512
951.758008691
834.616195011
812.265940393
820.443723048
812.163775571
738.388449204
691.831010931
689.631101592
691.83100634
691.114869804
770.846891515
896.779212626
973.650943943
998.363101753
999.902794158
905.579111084
912.496534725
937.056372641
957.034804396
951.668969315
858.634093389
793.12646629
814.034989466
831.083084191
815.112624361
728.438516138
689.717510848
691.580628061
689.788709565
691.830972738
759.043762294
882.446540604
953.397259471
996.001712193
999.902825964
906.142321959
901.14807016
897.526770656
916.687517805
)
;

boundaryField
{
    emptyPatch
    {
        type            empty;
    }
    minY
    {
        type            calculated;
        value           nonuniform List<scalar> 0();
    }
    maxY
    {
        type            calculated;
        value           nonuniform List<scalar> 0();
    }
    water_to_cooler
    {
        type            calculated;
        value           nonuniform List<scalar> 
37
(
998.451961694
999.308730349
999.792056354
999.947981288
999.962151878
999.962145836
999.962153953
999.962147786
999.962155676
999.815246271
999.184316845
997.41600219
994.028631684
989.946985772
986.213386659
981.932459349
972.495464594
960.706827553
961.967129677
978.513929221
995.846202151
999.770566777
999.902887995
999.902809142
999.902972812
999.902889297
999.903014543
999.902916423
999.903000203
999.902907502
999.902967237
999.902875269
999.90292657
999.902837868
999.902881722
999.902794159
999.902825966
)
;
    }
    water_to_heater
    {
        type            calculated;
        value           nonuniform List<scalar> 
60
(
706.22205497
706.222027465
693.081947264
693.081921103
655.925963161
655.92593844
618.895496023
602.979633558
602.968570144
602.968557381
602.301382283
602.301372089
602.690931572
602.690922197
602.367607259
602.793160544
602.754558733
602.754544809
603.137478957
603.137460893
620.501712786
620.501687931
659.483341643
701.286475058
715.25627229
715.256243987
692.376756907
692.376725821
635.920802681
635.920771353
595.026007615
593.813455842
592.961547776
592.961530013
593.713458138
593.713444572
593.067727228
593.067717661
593.836320332
593.249026633
594.018693492
594.01869549
596.248371271
596.248374851
621.930765199
621.930765562
674.776459858
714.03818092
699.213401942
699.213399295
634.876592529
634.876595788
566.22015513
566.220173836
553.533739715
552.639191677
553.533762847
553.533785117
552.621029844
552.621047747
)
;
    }
    procBoundary1to0
    {
        type            processor;
        value           nonuniform List<scalar> 
41
(
553.685213422
561.956234766
587.867513363
608.819059088
618.15583474
624.375071431
632.024559479
644.040266903
661.619800989
683.207816269
706.723455538
732.054202393
760.384413
793.174519499
829.871025033
866.223160745
894.362179041
906.501892756
907.19784556
906.700615071
853.150409684
777.074320119
792.555404632
822.190783663
841.164246858
827.683516746
733.522378719
691.580591488
689.485819892
691.557583324
690.654947311
759.775262917
885.705446004
940.072009983
992.336313922
999.902738301
885.299399917
817.195925318
765.934013684
853.150409684
779.894683884
)
;
    }
    procBoundary1to3
    {
        type            processor;
        value           nonuniform List<scalar> 
41
(
809.70932566
845.00652054
877.040385754
883.179357269
883.511918531
883.233771547
883.751250114
883.290293537
879.665545867
851.347992498
851.999783936
872.670935556
891.960917254
696.891892356
719.431257526
718.947180714
719.722117804
735.303094948
771.851049146
813.184902135
813.184902135
894.603781284
889.215963927
860.680520756
816.743678011
797.98906706
797.54078153
797.989065417
797.540784671
797.989065757
797.884253442
802.362548888
823.313557611
870.749718068
872.239084467
772.967918091
664.250886495
686.758115686
768.607947804
896.803216829
998.856269037
)
;
    }
}


// ************************************************************************* //
