/*--------------------------------*- C++ -*----------------------------------*\
| =========                 |                                                 |
| \\      /  F ield         | OpenFOAM: The Open Source CFD Toolbox           |
|  \\    /   O peration     | Version:  2312                                  |
|   \\  /    A nd           | Website:  www.openfoam.com                      |
|    \\/     M anipulation  |                                                 |
\*---------------------------------------------------------------------------*/
FoamFile
{
    version     2.0;
    format      ascii;
    arch        "LSB;label=32;scalar=64";
    class       surfaceScalarField;
    location    "0.42/water";
    object      phi.gas;
}
// * * * * * * * * * * * * * * * * * * * * * * * * * * * * * * * * * * * * * //

dimensions      [0 3 -1 0 0 0 0];

oriented        oriented;

internalField   nonuniform List<scalar> 
2928
(
3.46660677118e-07
3.14090519936e-07
2.40442055698e-07
2.10267090751e-07
3.16809601214e-07
1.93378692646e-07
2.9372392738e-07
1.82907649155e-07
3.0664460851e-07
1.85135250693e-07
2.97573650367e-07
1.8917039948e-07
2.49542758929e-07
1.95401824351e-07
1.88717784071e-07
2.15095969775e-07
1.76103127808e-07
3.47439633225e-07
1.4087034165e-07
4.2804670365e-07
1.14740266485e-07
4.54252908887e-07
8.8772742038e-08
4.78747461148e-07
6.3498608791e-08
5.04300107484e-07
3.91669611705e-08
5.30810088515e-07
1.63052842531e-08
5.58174249995e-07
-4.320285752e-09
5.86317078843e-07
-2.21668723203e-08
6.15262538195e-07
-3.6974183805e-08
6.45148542563e-07
-4.88597775777e-08
6.76186867066e-07
7.08606563929e-07
-5.80213534478e-08
1.42927247604e-07
3.33078922766e-07
2.45088377013e-07
2.63849345659e-07
2.42972907571e-07
2.42197293472e-07
2.77097880367e-07
2.35500866405e-07
2.78473323161e-07
2.36317816141e-07
2.82305225761e-07
2.42337751108e-07
2.69486060939e-07
2.51168025213e-07
2.38823219342e-07
2.64834756092e-07
1.15922425868e-07
3.18925644849e-07
3.33038795501e-08
3.62094344801e-07
2.46074095491e-08
3.75882146773e-07
1.86976486224e-08
3.92356882004e-07
1.35665596131e-08
4.09860046599e-07
8.98095591135e-09
4.28375054417e-07
4.81348481322e-09
4.47970380474e-07
1.02926795142e-09
4.687314445e-07
-2.3850862376e-09
4.90738235355e-07
-5.43843524991e-09
5.1405639116e-07
-8.1467857567e-09
5.38739802316e-07
5.64838303936e-07
-1.04898814249e-08
1.60373399329e-07
4.06700304767e-07
2.05821067113e-07
3.21891676563e-07
2.1859285735e-07
2.88080923062e-07
2.36117129949e-07
2.76215206115e-07
2.43562173915e-07
2.74774211238e-07
2.46013101329e-07
2.78669048582e-07
2.42981099529e-07
2.86107635749e-07
2.2772299757e-07
2.97738703976e-07
1.69905362228e-07
3.29794005901e-07
3.55683346974e-08
3.69084976106e-07
5.81483152908e-09
3.9110683232e-07
3.18536781613e-09
4.09125817375e-07
6.25471626086e-10
4.28122322588e-07
-1.77294023638e-09
4.4809273258e-07
-4.09857309723e-09
4.69050413928e-07
-6.41221922739e-09
4.91050771492e-07
-8.72465077809e-09
5.14173191684e-07
-1.10030838355e-08
5.38507702271e-07
-1.31925949951e-08
5.64149006963e-07
5.91196462815e-07
-1.51503139982e-08
2.21336636169e-07
4.41036699367e-07
2.37648014903e-07
3.70321356631e-07
2.41588226337e-07
3.23965776423e-07
2.4470460703e-07
3.05901138676e-07
2.4114248831e-07
3.00824757023e-07
2.3468686993e-07
3.02608917177e-07
2.26156845914e-07
3.08424726078e-07
2.12927578685e-07
3.17877591502e-07
1.8596385342e-07
3.38249798808e-07
8.51642595709e-08
3.66027324795e-07
-8.21553624987e-09
3.88943524272e-07
-1.06909192752e-08
4.0691647092e-07
-1.13897744959e-08
4.25910204734e-07
-1.21887390299e-08
4.45923856334e-07
-1.29822321692e-08
4.66916446419e-07
-1.38065607243e-08
4.88923081288e-07
-1.47115927994e-08
5.1201017974e-07
-1.5706021064e-08
5.36264629186e-07
-1.67537842629e-08
5.6178612269e-07
5.88683335239e-07
-1.76960517249e-08
2.61733510253e-07
4.59491781756e-07
2.75718501046e-07
4.0561698173e-07
2.69739656373e-07
3.57077446557e-07
2.66161364033e-07
3.30710455989e-07
2.56441632301e-07
3.21621823581e-07
2.42863502818e-07
3.20828663779e-07
2.26621775415e-07
3.24841458225e-07
2.08967431413e-07
3.32442484884e-07
1.86181525431e-07
3.46787649085e-07
1.34446107017e-07
3.67623173498e-07
4.0688382487e-09
3.89376228083e-07
-2.12057337503e-08
4.07348852696e-07
-2.10728977082e-08
4.26377705741e-07
-2.11137444717e-08
4.46573242979e-07
-2.11465926399e-08
4.6777224434e-07
-2.11446562508e-08
4.89996251743e-07
-2.11600790156e-08
5.13296032998e-07
-2.12315715854e-08
5.37746036257e-07
-2.13551901026e-08
5.63438497024e-07
5.90478552343e-07
-2.13903453577e-08
2.8946515731e-07
4.65207061173e-07
3.01077507554e-07
4.27763829862e-07
2.89558616332e-07
3.86099331202e-07
2.82312993969e-07
3.53758305925e-07
2.73035162715e-07
3.39612371115e-07
2.58964724314e-07
3.35940175739e-07
2.39376505154e-07
3.37934177218e-07
2.16430468987e-07
3.43703295182e-07
1.91472719247e-07
3.54352729222e-07
1.58214446964e-07
3.703760932e-07
5.5624946183e-08
3.89496929486e-07
-2.84072576278e-08
4.07080565116e-07
-2.85096651022e-08
4.26083140189e-07
-2.7981025607e-08
4.46317560926e-07
-2.7493721747e-08
4.67618153722e-07
-2.69598480775e-08
4.89970427115e-07
-2.64042066918e-08
5.13410988955e-07
-2.58658653821e-08
5.38001025691e-07
-2.5353679646e-08
5.63821842585e-07
5.9096988375e-07
-2.47428315837e-08
2.94670844293e-07
4.66093565674e-07
3.04473118433e-07
4.38858132797e-07
2.94993370363e-07
4.06043398408e-07
2.85467362199e-07
3.75930387413e-07
2.7893005493e-07
3.56281621213e-07
2.69880052648e-07
3.49444013324e-07
2.5362892377e-07
3.49263584638e-07
2.30232986293e-07
3.53142738621e-07
2.03291336551e-07
3.61138756565e-07
1.72774010849e-07
3.73875289611e-07
1.14725873052e-07
3.9052348558e-07
-2.06667924884e-08
4.08309141611e-07
-3.47119648344e-08
4.25645952752e-07
-3.34767932765e-08
4.45802764441e-07
-3.24469725021e-08
4.67247081074e-07
-3.14652829779e-08
4.89754072913e-07
-3.05026361712e-08
5.13352624669e-07
-2.95707093461e-08
5.38094108161e-07
-2.8666995238e-08
5.64050859903e-07
5.91312795563e-07
-2.76548996064e-08
2.82407209038e-07
4.67946890107e-07
2.93317950151e-07
4.45197942076e-07
2.89090118769e-07
4.19139618092e-07
2.81967665095e-07
3.93972332405e-07
2.77724562476e-07
3.73379706433e-07
2.73802804983e-07
3.62745266581e-07
2.63854524185e-07
3.60364669851e-07
2.44497284335e-07
3.62188109847e-07
2.18108345258e-07
3.67814351838e-07
1.88734659863e-07
3.77985621987e-07
1.50291884511e-07
3.92482947354e-07
4.05483074485e-08
4.1004435043e-07
-3.8138645082e-08
4.24498764651e-07
-3.67780549234e-08
4.45086275105e-07
-3.54494703376e-08
4.66722833866e-07
-3.42870000957e-08
4.89425356158e-07
-3.32015485266e-08
5.13199903512e-07
-3.21676250715e-08
5.38092951032e-07
-3.11546329866e-08
5.64173139347e-07
5.91525779186e-07
-3.0020477985e-08
2.81028658032e-07
4.68251441037e-07
2.99198445402e-07
4.48041918022e-07
2.91656730929e-07
4.28531972284e-07
2.8585624991e-07
4.09319886313e-07
2.80182440728e-07
3.9187883294e-07
2.77400243577e-07
3.78414840772e-07
2.71866458623e-07
3.73003868748e-07
2.5754872256e-07
3.72391761625e-07
2.33985661173e-07
3.75627679807e-07
2.05808411671e-07
3.83364876308e-07
1.73201483184e-07
3.958810598e-07
1.1112113145e-07
4.12287787818e-07
-2.70479203468e-08
4.27821249673e-07
-3.65578135008e-08
4.44925471018e-07
-3.57359856133e-08
4.66603144663e-07
-3.5053660023e-08
4.89453794885e-07
-3.43966327803e-08
5.13347409239e-07
-3.37147534117e-08
5.38326905456e-07
-3.29681770953e-08
5.64458532498e-07
5.9182389475e-07
-3.20390836742e-08
2.77019060447e-07
4.67757238265e-07
3.0526568314e-07
4.48558338425e-07
2.97255160142e-07
4.35287699105e-07
2.9222598935e-07
4.2287320688e-07
2.85807082109e-07
4.10314563718e-07
2.81159858269e-07
3.97260179344e-07
2.76626343835e-07
3.87895097187e-07
2.66722969457e-07
3.84685649158e-07
2.47257870739e-07
3.85494853407e-07
2.20833350015e-07
3.90721192498e-07
1.91744644461e-07
4.0106863012e-07
1.50179856717e-07
4.15834188402e-07
3.66968546707e-08
4.33829385895e-07
-3.29146346083e-08
4.45635329786e-07
-3.38223008691e-08
4.67519854353e-07
-3.44423725242e-08
4.90337976686e-07
-3.48339863751e-08
5.14167822351e-07
-3.4967040847e-08
5.3905673574e-07
-3.48356580376e-08
5.6507436797e-07
5.92308931776e-07
-3.43393927361e-08
2.71204988556e-07
4.68625936964e-07
3.09710512288e-07
4.49928529075e-07
3.018681162e-07
4.4240641567e-07
2.96615227092e-07
4.36802524884e-07
2.88569136915e-07
4.2967604152e-07
2.80860161742e-07
4.18548568267e-07
2.75650655665e-07
4.05893803764e-07
2.69149273745e-07
3.99555209019e-07
2.5397299485e-07
3.97880506847e-07
2.29826531089e-07
4.00383169174e-07
2.0209384996e-07
4.08043727822e-07
1.67845704881e-07
4.20785307657e-07
9.50304849095e-08
4.3795805779e-07
-2.62587456396e-08
4.50067926353e-07
-3.26309893763e-08
4.69952761077e-07
-3.50232593728e-08
4.92306512405e-07
-3.67113383712e-08
5.15748821326e-07
-3.77548560989e-08
5.40272003483e-07
-3.82067748258e-08
5.65946823193e-07
5.92862676426e-07
-3.80429083643e-08
2.66350489795e-07
4.7421101443e-07
3.07302902551e-07
4.55919347632e-07
2.97882600141e-07
4.52225166879e-07
2.90291243249e-07
4.52247971388e-07
2.8051376216e-07
4.4985321523e-07
2.72213457089e-07
4.40506155469e-07
2.66750253521e-07
4.26078832429e-07
2.61738257247e-07
4.15740014192e-07
2.50056066672e-07
4.11605950809e-07
2.28090216037e-07
4.1130114015e-07
2.00232335414e-07
4.15816703342e-07
1.68965593983e-07
4.25921476424e-07
1.20507997124e-07
4.40918324915e-07
-4.63473395206e-09
4.62195450901e-07
-3.79131533879e-08
4.73231178392e-07
-4.12890623029e-08
4.94761342631e-07
-4.3462654407e-08
5.17479058527e-07
-4.4637588408e-08
5.41372296228e-07
-4.49521250992e-08
5.66512143126e-07
5.92978471968e-07
-4.44763322354e-08
2.59370834731e-07
4.89140453076e-07
2.8900131524e-07
4.69652289076e-07
2.76764312647e-07
4.6599632772e-07
2.66281383908e-07
4.68708331801e-07
2.56961253338e-07
4.68889732054e-07
2.51626336788e-07
4.6031945764e-07
2.47762065619e-07
4.45057826218e-07
2.43634987927e-07
4.30830482012e-07
2.34046236209e-07
4.23700509932e-07
2.13954279225e-07
4.20592163506e-07
1.86128990373e-07
4.21950937116e-07
1.56005308951e-07
4.2909843499e-07
1.18118888207e-07
4.41682123505e-07
2.98705074457e-08
4.60769652562e-07
-5.57612797178e-08
4.75945556168e-07
-5.7767200485e-08
4.95831667683e-07
-5.81466701926e-08
5.17725633253e-07
-5.75999343722e-08
5.4101391621e-07
-5.62845088282e-08
5.65689202843e-07
5.91803743399e-07
-5.43049572953e-08
2.69823478162e-07
5.08813724038e-07
2.77681801925e-07
4.87286797957e-07
2.50231653577e-07
4.81399243093e-07
2.32838957656e-07
4.83436144883e-07
2.25232283379e-07
4.83175915613e-07
2.24999097898e-07
4.74268485888e-07
2.24606997909e-07
4.58907002901e-07
2.21161136613e-07
4.42555127628e-07
2.12721600792e-07
4.31238144597e-07
1.95065292576e-07
4.25489149935e-07
1.67736294721e-07
4.24028447718e-07
1.36478379136e-07
4.28528452157e-07
1.03781622963e-07
4.39006975885e-07
5.3979076109e-08
4.55381833233e-07
-7.60420015395e-08
4.81095293945e-07
-8.47167859485e-08
4.92966673893e-07
-8.0335119444e-08
5.14446140398e-07
-7.58317339243e-08
5.37700419037e-07
-7.1212190557e-08
5.62386078148e-07
5.88561691858e-07
-6.64813508882e-08
2.70950029545e-07
5.25337461243e-07
2.52404606059e-07
5.00932646883e-07
2.19021460689e-07
4.92232579894e-07
2.0097117335e-07
4.91721905453e-07
1.9800153591e-07
4.89414437445e-07
2.03265950358e-07
4.80007661534e-07
2.07429363331e-07
4.65438017653e-07
2.06255336882e-07
4.49461395984e-07
1.99938755337e-07
4.3541851665e-07
1.85876063085e-07
4.26507764947e-07
1.60715297511e-07
4.22815952732e-07
1.28049672368e-07
4.25046587536e-07
9.63125217169e-08
4.33794428996e-07
6.10895702342e-08
4.48550453369e-07
-3.06462349833e-08
4.70347062869e-07
-1.14738676127e-07
4.86676617958e-07
-1.04102388038e-07
5.07031979525e-07
-9.45151781477e-08
5.30995867329e-07
-8.5847222645e-08
5.56407508357e-07
5.83217463123e-07
-7.78913598169e-08
2.6150620721e-07
5.34117811766e-07
2.42182994443e-07
5.09812779871e-07
2.13558158197e-07
5.00044597919e-07
1.97844608652e-07
4.97483853769e-07
1.96182043248e-07
4.93204946009e-07
2.03085906438e-07
4.83178681252e-07
2.10139134156e-07
4.69353915727e-07
2.12871910434e-07
4.54446971956e-07
2.09360401516e-07
4.40588375115e-07
1.97827368595e-07
4.29552896326e-07
1.75588017602e-07
4.23525408872e-07
1.42864264201e-07
4.23251671932e-07
1.07614702396e-07
4.29738472584e-07
7.69739044327e-08
4.43006728178e-07
3.17206833362e-08
4.62422979155e-07
-1.13629819581e-07
4.87631618924e-07
-1.19700167396e-07
4.98031994339e-07
-1.06297014035e-07
5.22473225158e-07
-9.46767540509e-08
5.49061282501e-07
5.7684200378e-07
-8.44027153371e-08
2.65609434444e-07
5.39611516331e-07
2.52142405232e-07
5.17217645627e-07
2.27592994695e-07
5.08053287247e-07
2.13893189357e-07
5.0476206145e-07
2.12405442015e-07
4.99236778118e-07
2.20028599089e-07
4.88631287385e-07
2.29552899449e-07
4.75201430401e-07
2.35604825295e-07
4.61133814956e-07
2.35145510011e-07
4.48024382242e-07
2.25224932617e-07
4.3723283976e-07
2.03535525598e-07
4.29650428172e-07
1.72372621735e-07
4.26524121972e-07
1.36457005358e-07
4.29951777453e-07
1.05344464952e-07
4.40932867049e-07
7.3795874496e-08
4.58831620345e-07
-1.42146479491e-08
4.82449589912e-07
-1.1944091948e-07
4.90169124738e-07
-1.05656468849e-07
5.14982628152e-07
-9.36263158232e-08
5.42413247357e-07
5.7106109739e-07
-8.30118110096e-08
2.54123658799e-07
5.44588798841e-07
2.44416844134e-07
5.2172565398e-07
2.26311330406e-07
5.12585883919e-07
2.18879280565e-07
5.09282900476e-07
2.22087596011e-07
5.03725243778e-07
2.33338857577e-07
4.93496357325e-07
2.46393199308e-07
4.80982930363e-07
2.5686608068e-07
4.6814672344e-07
2.61060802014e-07
4.56558008045e-07
2.53294562261e-07
4.47568744218e-07
2.30907608664e-07
4.40281920747e-07
2.00370387229e-07
4.3491434946e-07
1.67838513285e-07
4.35250652446e-07
1.37453939763e-07
4.43346505951e-07
1.1228019774e-07
4.59539525998e-07
6.7878079306e-08
4.81397049072e-07
-8.28604299508e-08
5.02198832788e-07
-9.18351827797e-08
5.10310990913e-07
-8.20041475319e-08
5.37951460633e-07
5.67134833905e-07
-7.32194047194e-08
2.50968766119e-07
5.47387458897e-07
2.47710714569e-07
5.23658825827e-07
2.25905521063e-07
5.15722345559e-07
2.19688386143e-07
5.123019487e-07
2.25300320258e-07
5.06665842809e-07
2.39886522099e-07
4.97197934148e-07
2.57417821916e-07
4.86140040947e-07
2.7382140392e-07
4.75294976201e-07
2.82994197662e-07
4.66651865872e-07
2.76846779915e-07
4.60348435506e-07
2.53085754021e-07
4.54274095604e-07
2.21451238967e-07
4.48143830134e-07
1.92287441408e-07
4.45730315955e-07
1.6603708346e-07
4.50762787334e-07
1.46732123291e-07
4.64583341566e-07
1.18128536452e-07
4.85083289008e-07
1.43587753682e-08
5.0849720353e-07
-6.68386848429e-08
5.08700000742e-07
-6.17904918147e-08
5.36499148538e-07
5.65771020902e-07
-5.67557138447e-08
2.43996002358e-07
5.51837145084e-07
2.44595455795e-07
5.2538818451e-07
2.21299585013e-07
5.18199048193e-07
2.16680375761e-07
5.14687344774e-07
2.25174855438e-07
5.09040469951e-07
2.44159928272e-07
5.00661812493e-07
2.67828340201e-07
4.9165336482e-07
2.90374442694e-07
4.84057866729e-07
3.00461662114e-07
4.79436899246e-07
2.93180545055e-07
4.75625300014e-07
2.68907783394e-07
4.70973434256e-07
2.35841011702e-07
4.65374120701e-07
2.07754595193e-07
4.60856843282e-07
1.85874359201e-07
4.62812663474e-07
1.68993636005e-07
4.7372174843e-07
1.47531102153e-07
4.92533217993e-07
8.00932769585e-08
5.14009360594e-07
-3.48256360695e-08
5.11357282879e-07
-3.74728725393e-08
5.38238131945e-07
5.67096407067e-07
-3.73197387905e-08
2.3577121669e-07
5.61222414855e-07
2.39493282489e-07
5.30039597114e-07
2.16927453178e-07
5.21804273492e-07
2.15773406425e-07
5.17636361355e-07
2.28292848685e-07
5.12135868774e-07
2.52666656822e-07
5.05076560679e-07
2.82120797656e-07
4.98562167204e-07
3.02861196215e-07
4.95142979242e-07
3.08814688608e-07
4.94292057644e-07
3.02609958957e-07
4.93157084478e-07
2.79008879944e-07
4.90390988573e-07
2.44228508782e-07
4.85985876687e-07
2.14998516065e-07
4.7964779858e-07
1.95643815343e-07
4.78476796408e-07
1.79902914705e-07
4.86011570824e-07
1.60583352249e-07
5.02323435735e-07
1.12033419213e-07
5.23103181322e-07
-3.50568111368e-09
5.19243359665e-07
-1.56268736531e-08
5.42471831959e-07
5.70538370605e-07
-1.9969878476e-08
2.25222325111e-07
5.74341532428e-07
2.31141081119e-07
5.37502544683e-07
2.13577231663e-07
5.26240582869e-07
2.18368729473e-07
5.21096473536e-07
2.3625659047e-07
5.16412063474e-07
2.65260097899e-07
5.11235486902e-07
2.92222925537e-07
5.07689234066e-07
3.06962512212e-07
5.08450416011e-07
3.1284985751e-07
5.10821071624e-07
3.07843800363e-07
5.12288237372e-07
2.85466851974e-07
5.12193407798e-07
2.47392153454e-07
5.10390346389e-07
2.15075358564e-07
5.01465367046e-07
1.96410537131e-07
4.96666348444e-07
1.80210920377e-07
5.0009829617e-07
1.59511910665e-07
5.12834776241e-07
1.19656970389e-07
5.32058116137e-07
1.80046844423e-08
5.3278348303e-07
-2.2255569962e-09
5.48038955914e-07
5.75071306117e-07
-9.28624483297e-09
2.11763859066e-07
5.93976905988e-07
2.2187877656e-07
5.48237867682e-07
2.1125066037e-07
5.31720810475e-07
2.22394821099e-07
5.25244271666e-07
2.45036529656e-07
5.2199716254e-07
2.74503045762e-07
5.19215888089e-07
2.94985736739e-07
5.18795428282e-07
3.07414985263e-07
5.22677830249e-07
3.14855824397e-07
5.27663413087e-07
3.12570454906e-07
5.31803726913e-07
2.91080834192e-07
5.35529772054e-07
2.43811221844e-07
5.3629461798e-07
2.07836241616e-07
5.24859185675e-07
1.8833594645e-07
5.14872720652e-07
1.70226913345e-07
5.13754119578e-07
1.46509698005e-07
5.21717607389e-07
1.09634151784e-07
5.38239165348e-07
2.5301041258e-08
5.56246891268e-07
-7.05980735547e-10
5.53427228633e-07
5.79377738256e-07
-7.9299813547e-09
2.16527886087e-07
6.09964299854e-07
2.37684995541e-07
5.58234981694e-07
2.23703273683e-07
5.39400396278e-07
2.33681950203e-07
5.32415230559e-07
2.54590827705e-07
5.3051012528e-07
2.78896055078e-07
5.29600881192e-07
2.95741413591e-07
5.31380206332e-07
3.09420262081e-07
5.37225729751e-07
3.19280425465e-07
5.44038347581e-07
3.20250721424e-07
5.50758756047e-07
2.83197779134e-07
5.56242472285e-07
2.32400566037e-07
5.56792476272e-07
1.97867175984e-07
5.47746862814e-07
1.75463227923e-07
5.31923702923e-07
1.52836466811e-07
5.2474877466e-07
1.24862443813e-07
5.27137258512e-07
8.75224113412e-08
5.40129119957e-07
2.18051447308e-08
5.65327587146e-07
-1.0790911578e-08
5.56959341045e-07
5.82076073608e-07
-1.58236448577e-08
2.27253006041e-07
6.18543499888e-07
2.61790775819e-07
5.66770550837e-07
2.43657105582e-07
5.50046391455e-07
2.47267368647e-07
5.44877956068e-07
2.62109239568e-07
5.44405498573e-07
2.81870651335e-07
5.44409346982e-07
2.9779667736e-07
5.46708234724e-07
3.11789570573e-07
5.53182647818e-07
3.21484073398e-07
5.60948317477e-07
3.0076357939e-07
5.67620216696e-07
2.56365481904e-07
5.71420741384e-07
2.20435802664e-07
5.70584020401e-07
1.89923350223e-07
5.65163357737e-07
1.62649323868e-07
5.49930503776e-07
1.33929832739e-07
5.32714787852e-07
1.008957909e-07
5.29577214154e-07
6.21851447367e-08
5.38633519817e-07
9.85971540404e-09
5.6034413604e-07
-2.80064195184e-08
5.57131693982e-07
5.8270578308e-07
-3.01493544782e-08
2.42399211834e-07
6.22816237165e-07
2.87110606009e-07
5.77350149501e-07
2.63453517994e-07
5.66698770527e-07
2.59261928397e-07
5.66111915535e-07
2.67258108938e-07
5.66859538208e-07
2.82190616407e-07
5.65570151584e-07
2.93761185785e-07
5.66089346617e-07
2.9972611855e-07
5.70970465056e-07
2.84657659159e-07
5.76491452577e-07
2.51513387484e-07
5.80226004969e-07
2.26338865914e-07
5.80399355213e-07
2.02968996181e-07
5.7837836581e-07
1.77885300941e-07
5.74420520674e-07
1.47884306147e-07
5.65092811523e-07
1.17858642904e-07
5.4188970818e-07
8.14424145176e-08
5.3065559479e-07
4.29550807512e-08
5.35561050578e-07
-8.72709744395e-10
5.53517247291e-07
-4.87347497024e-08
5.81011638512e-07
5.82052277346e-07
-4.81696101449e-08
2.57385876389e-07
6.29024033766e-07
2.98294302518e-07
5.93004154238e-07
2.6863520346e-07
5.91082128754e-07
2.53393444331e-07
5.97373086638e-07
2.50335603246e-07
5.9694772123e-07
2.54849069273e-07
5.89907225254e-07
2.52541284638e-07
5.85870902364e-07
2.36865692872e-07
5.8670961309e-07
2.12948578185e-07
5.8759512508e-07
1.97364698572e-07
5.85512972864e-07
1.8732466417e-07
5.81456574765e-07
1.74037467738e-07
5.78607039394e-07
1.54850437399e-07
5.77028061696e-07
1.33125294014e-07
5.71788071362e-07
1.04732820275e-07
5.51373716934e-07
6.94128015356e-08
5.30677517809e-07
3.10246877724e-08
5.3175883177e-07
-8.30714964892e-09
5.46714323029e-07
-6.79058368814e-08
5.75817113817e-07
5.78731083131e-07
-6.93874216409e-08
2.64015903458e-07
6.40901415197e-07
2.7462820096e-07
6.15871627012e-07
2.30699529753e-07
6.23300147224e-07
1.93968769658e-07
6.37177649774e-07
1.75883274527e-07
6.30296907867e-07
1.68579692929e-07
6.11935915116e-07
1.56618954287e-07
6.0112782594e-07
1.4302322389e-07
5.96546751498e-07
1.3695911572e-07
5.90929027478e-07
1.38470602128e-07
5.82647419491e-07
1.41167686747e-07
5.75124114875e-07
1.39120051665e-07
5.71937839272e-07
1.29529782853e-07
5.72604165988e-07
1.13656756268e-07
5.71083773092e-07
9.33636672318e-08
5.55593487169e-07
6.54398351742e-08
5.30068005785e-07
2.71390314432e-08
5.27594495566e-07
-8.72627617806e-09
5.39774035477e-07
-5.22376412811e-08
5.63932777852e-07
5.81083823463e-07
-9.38625307122e-08
2.78850507254e-07
6.52630711174e-07
2.35434123431e-07
6.41900653497e-07
1.59491108095e-07
6.61938717042e-07
9.71352937862e-08
6.82436432017e-07
6.68905472644e-08
6.61932495274e-07
5.80665779723e-08
6.27746052845e-07
5.58498412394e-08
6.07866568373e-07
5.99159572777e-08
5.96477789637e-07
7.09238087033e-08
5.8496192598e-07
8.64506034252e-08
5.72547824709e-07
1.00351744853e-07
5.64538579097e-07
1.06628340589e-07
5.61014492008e-07
1.0524983593e-07
5.61869936007e-07
9.79886699974e-08
5.63329120517e-07
8.74686222789e-08
5.53359487672e-07
6.73020673157e-08
5.29365985126e-07
3.2034731697e-08
5.23106254924e-07
-5.3356239914e-10
5.32309982109e-07
-3.24749244267e-08
5.53135027178e-07
5.90100233675e-07
-1.22267527623e-07
2.56245476702e-07
6.66177020424e-07
1.70250734613e-07
6.66076747795e-07
9.32149239162e-08
6.98460801676e-07
2.87304908733e-08
7.22289332585e-07
-3.47251229601e-09
6.85547287302e-07
-9.88882265772e-09
6.36556587397e-07
-7.54317087541e-10
6.06166127296e-07
1.62544752872e-08
5.87908401561e-07
3.74996094575e-08
5.72323380799e-07
6.04730927381e-08
5.58573740114e-07
7.94292711602e-08
5.52167688096e-07
8.99460249629e-08
5.4902053767e-07
9.45504888975e-08
5.48500887228e-07
9.57941999221e-08
5.50758742894e-07
9.15161071989e-08
5.46675267657e-07
7.62659619638e-08
5.29146966573e-07
4.56873002006e-08
5.19142718589e-07
1.2173301551e-08
5.24851449751e-07
-1.49175670474e-08
5.43557107387e-07
5.74237681934e-07
-1.11786179668e-07
2.13346109217e-07
6.90714886102e-07
1.43180047701e-07
6.94899705087e-07
9.35102767569e-08
7.28963961801e-07
4.91940333274e-08
7.53862235176e-07
1.65107048096e-08
7.07699200255e-07
3.82271568756e-09
6.47478796935e-07
1.12779111784e-08
6.05874405606e-07
2.89616984189e-08
5.8034440201e-07
5.09443331003e-08
5.61342335338e-07
7.30254893072e-08
5.47371917614e-07
9.1792183501e-08
5.42410814152e-07
1.03535194491e-07
5.39911804893e-07
1.09515887109e-07
5.38102279432e-07
1.13246171074e-07
5.39293869756e-07
1.10169220177e-07
5.39576404998e-07
9.49004186033e-08
5.3021030872e-07
6.73653543057e-08
5.17039190236e-07
3.27883757677e-08
5.18663246698e-07
6.24178602483e-09
5.34939659454e-07
5.61324988969e-07
-4.3781936425e-08
2.35582838459e-07
7.06683048643e-07
1.86111286476e-07
7.19232312607e-07
1.5820125598e-07
7.48482531682e-07
1.29866479936e-07
7.77100421325e-07
9.27610668553e-08
7.3659684091e-07
7.25170806981e-08
6.65727856871e-07
7.21848565792e-08
6.13525872847e-07
8.40421696274e-08
5.80561769251e-07
1.01385485942e-07
5.57992104311e-07
1.18958284189e-07
5.43589327578e-07
1.35017716889e-07
5.39090275524e-07
1.45467858023e-07
5.36824310219e-07
1.49714589047e-07
5.34063917706e-07
1.50568419164e-07
5.33625288769e-07
1.44070923943e-07
5.35947921805e-07
1.23021175515e-07
5.34156286444e-07
9.48938455562e-08
5.19323618549e-07
6.08721214478e-08
5.15355644898e-07
3.54155817411e-08
5.28279098018e-07
5.52332939727e-07
4.54836888755e-09
2.34078296752e-07
7.14984513656e-07
1.97821562665e-07
7.29117096543e-07
1.81218311593e-07
7.53097862924e-07
1.69844028773e-07
7.81092776559e-07
1.47629309991e-07
7.525975728e-07
1.34794683101e-07
6.79800449953e-07
1.35911414485e-07
6.22647206312e-07
1.46806675803e-07
5.85351173532e-07
1.62239063733e-07
5.60619802666e-07
1.77303804617e-07
5.46204642782e-07
1.90816689218e-07
5.41961538109e-07
1.9984026276e-07
5.39804953961e-07
2.02318224817e-07
5.36640813069e-07
1.99693006767e-07
5.3490946175e-07
1.87248691265e-07
5.37858768909e-07
1.57664061523e-07
5.42072353501e-07
1.25867119705e-07
5.27922583044e-07
9.32164002856e-08
5.16370778417e-07
6.70333181129e-08
5.24896787345e-07
5.47499591922e-07
4.18761283515e-08
2.42015362289e-07
7.13887708034e-07
2.12910838392e-07
7.29322646852e-07
1.98234052803e-07
7.50688848225e-07
1.90354050324e-07
7.76813231127e-07
1.81549708108e-07
7.54552241551e-07
1.80379854565e-07
6.85159170781e-07
1.87995976687e-07
6.29033153415e-07
2.01953674172e-07
5.9123133432e-07
2.18865243779e-07
5.66400274001e-07
2.33801688003e-07
5.53039995147e-07
2.45610607371e-07
5.4942701321e-07
2.5364489629e-07
5.47638110147e-07
2.55371370817e-07
5.44699271645e-07
2.50495743601e-07
5.42525932452e-07
2.31674907894e-07
5.45715319789e-07
1.93254372591e-07
5.54175303499e-07
1.56055025903e-07
5.42146158252e-07
1.25698313695e-07
5.22724108444e-07
9.99636750049e-08
5.26188030241e-07
5.46877894231e-07
7.63364921876e-08
2.38850811771e-07
7.10468681149e-07
2.14078350684e-07
7.23174477212e-07
2.01348540521e-07
7.42802215385e-07
1.97109986318e-07
7.64940362856e-07
2.03039183837e-07
7.41086174536e-07
2.13709395337e-07
6.80506247606e-07
2.28845872473e-07
6.3084750919e-07
2.47821090042e-07
5.96257274389e-07
2.68439680408e-07
5.73748314691e-07
2.84284109474e-07
5.62887696276e-07
2.94412082677e-07
5.6045795671e-07
3.01266818656e-07
5.59363719168e-07
3.02227233741e-07
5.57131124119e-07
2.95917638144e-07
5.55574015438e-07
2.71165003372e-07
5.59523811167e-07
2.24396385566e-07
5.70842908771e-07
1.82805084668e-07
5.60602585666e-07
1.55029728101e-07
5.35159600497e-07
1.32070626923e-07
5.33373378203e-07
5.51142309373e-07
1.09813448698e-07
2.30199394998e-07
7.14213686159e-07
2.07971750411e-07
7.16317069578e-07
1.95233823546e-07
7.32336312503e-07
1.97158791677e-07
7.45083836395e-07
2.16614555186e-07
7.16593361311e-07
2.38544405424e-07
6.69127477835e-07
2.62054299034e-07
6.29389552642e-07
2.8800707938e-07
6.00764885281e-07
3.12978831208e-07
5.82670606879e-07
3.2847022955e-07
5.75475764065e-07
3.36486488387e-07
5.7456663906e-07
3.41303468584e-07
5.74458816791e-07
3.40781015266e-07
5.73292612556e-07
3.33255980277e-07
5.73136450237e-07
3.02536069879e-07
5.78993285496e-07
2.48617972211e-07
5.92241071098e-07
2.04951928574e-07
5.83204623354e-07
1.79346635163e-07
5.53656342908e-07
1.59843265937e-07
5.46532913034e-07
5.60283880474e-07
1.39713169669e-07
2.14190560838e-07
7.29022728484e-07
1.91728102352e-07
7.13129040117e-07
1.83633866356e-07
7.17867046431e-07
1.98627140088e-07
7.16705296937e-07
2.28151108217e-07
6.90332505074e-07
2.59529333345e-07
6.55961287418e-07
2.91597815311e-07
6.26734261283e-07
3.24716855984e-07
6.05477128594e-07
3.51986495061e-07
5.93314480732e-07
3.65116305224e-07
5.90236974492e-07
3.70949631071e-07
5.91008781547e-07
3.73665529905e-07
5.92092588292e-07
3.71115708912e-07
5.92227910952e-07
3.61988101939e-07
5.94097492093e-07
3.24224757851e-07
6.03205721139e-07
2.65867335505e-07
6.17540136544e-07
2.22466830565e-07
6.09511464958e-07
1.97902417231e-07
5.7713522629e-07
1.80829117258e-07
5.64624457479e-07
5.7328627389e-07
1.61071332561e-07
1.95550847339e-07
1.74086614364e-07
1.75551301923e-07
2.02846346856e-07
2.39375631855e-07
2.77950774554e-07
3.17728352783e-07
3.56679695053e-07
3.82114528959e-07
3.91857976081e-07
3.97107145553e-07
3.97841520465e-07
3.93957874309e-07
3.82027704843e-07
3.35247360152e-07
2.76629840669e-07
2.35224036295e-07
2.11027486389e-07
1.94331224096e-07
1.72720687062e-07
-6.52811988942e-08
7.07646605762e-07
-7.14220882816e-08
6.7347242e-07
-7.68488462654e-08
6.40992078551e-07
-8.1910362245e-08
6.10106969362e-07
-8.69250835624e-08
5.80717293153e-07
-9.20945415575e-08
5.52731285365e-07
-9.76335087429e-08
5.2606745325e-07
-1.03667122891e-07
5.00650893974e-07
-1.10337651325e-07
4.76416036137e-07
-1.17730316844e-07
4.53301613139e-07
-1.25992539265e-07
4.31249129198e-07
-1.3532380181e-07
4.10191724975e-07
-1.46102960157e-07
3.90052901189e-07
-1.58682207381e-07
3.70759729319e-07
-1.72732071653e-07
3.52322581516e-07
-1.8321205938e-07
3.35099991405e-07
-2.08592047137e-07
3.18305665631e-07
-1.50283284075e-07
3.05845309497e-07
-1.04361508071e-06
2.50222279209e-07
2.60379397261e-07
-1.25415342346e-08
5.6453486165e-07
-1.43904857358e-08
5.37852078224e-07
-1.61005200093e-08
5.12570814188e-07
-1.77500635102e-08
4.88589392971e-07
-1.93911536724e-08
4.65828552436e-07
-2.10597390921e-08
4.44220389106e-07
-2.27836318908e-08
4.23703308473e-07
-2.45756958064e-08
4.04218338831e-07
-2.64556469631e-08
3.85708625506e-07
-2.84552925619e-08
3.68118820441e-07
-3.06494802851e-08
3.51397876007e-07
-3.31503323395e-08
3.35503033503e-07
-3.60307173205e-08
3.20409202446e-07
-3.90128313582e-08
3.06115264407e-07
-4.12375195156e-08
2.92628686495e-07
-4.23529942342e-08
2.79861490158e-07
-4.36055781839e-08
2.67628790635e-07
-4.93107319867e-08
2.54005030056e-07
-1.46467983852e-08
2.431898753e-07
2.09801447389e-07
-1.69265876596e-08
5.90594641146e-07
-1.85779249451e-08
5.62439410793e-07
-2.00731583421e-08
5.35807348001e-07
-2.14377282463e-08
5.10577156227e-07
-2.2680545624e-08
4.86647843584e-07
-2.38097477094e-08
4.63930353422e-07
-2.48376035294e-08
4.4234378687e-07
-2.57742740649e-08
4.21813231379e-07
-2.66552493427e-08
4.02269864101e-07
-2.75334372137e-08
3.83652010373e-07
-2.84766521457e-08
3.65907769555e-07
-2.94766828202e-08
3.48997516498e-07
-3.02776107878e-08
3.32895318991e-07
-3.021394716e-08
3.17583197701e-07
-2.86903248005e-08
3.03025499459e-07
-2.61422562971e-08
2.890726814e-07
-2.39400096268e-08
2.750001362e-07
-2.19733700818e-08