/*--------------------------------*- C++ -*----------------------------------*\
| =========                 |                                                 |
| \\      /  F ield         | OpenFOAM: The Open Source CFD Toolbox           |
|  \\    /   O peration     | Version:  2312                                  |
|   \\  /    A nd           | Website:  www.openfoam.com                      |
|    \\/     M anipulation  |                                                 |
\*---------------------------------------------------------------------------*/
FoamFile
{
    version     2.0;
    format      ascii;
    arch        "LSB;label=32;scalar=64";
    class       volScalarField;
    location    "0.94/cooler";
    object      T;
}
// * * * * * * * * * * * * * * * * * * * * * * * * * * * * * * * * * * * * * //

dimensions      [0 0 0 1 0 0 0];

internalField   nonuniform List<scalar> 
187
(
300.000030292
300.000028873
300.000027777
300.000027038
300.000026667
300.000031323
300.000029983
300.000028907
300.000028164
300.000027786
300.000032655
300.000031361
300.000030288
300.000029531
300.000029141
300.000034322
300.000033019
300.000031912
300.000031121
300.000030711
300.000036416
300.000035049
300.000033874
300.000033033
300.000032597
300.000039111
300.000037627
300.000036353
300.000035444
300.000034976
300.000042615
300.000040954
300.000039542
300.000038544
300.000038032
300.000047191
300.000045271
300.000043666
300.000042545
300.000041976
300.000053192
300.000050898
300.000049021
300.000047733
300.000047086
300.000061055
300.000058238
300.000055991
300.000054479
300.000053727
300.000071249
300.00006774
300.000065014
300.000063214
300.00006233
300.000084223
300.000079842
300.000076524
300.000074372
300.000073328
300.000100381
300.000094914
300.000090881
300.00008831
300.000087074
300.000120045
300.000113262
300.000108371
300.000105291
300.000103821
300.000143453
300.000135174
300.000129291
300.000125608
300.000123853
300.000171111
300.00016121
300.000154209
300.00014982
300.000147723
300.00020357
300.000191918
300.000183649
300.000178438
300.000175941
300.000244061
300.000228238
300.000218024
300.000211793
300.000208826
300.000285991
300.000268711
300.000257222
300.000250033
300.000246569
300.00033233
300.000314345
300.000301488
300.000293252
300.000289251
300.00038512
300.000365235
300.000350713
300.000341366
300.000336799
300.000443203
300.000420869
300.000404677
300.000394193
300.000389039
300.000505528
300.000480983
300.000463132
300.000451481
300.000445714
300.000571946
300.000545261
300.000525722
300.000512859
300.000506453
300.000641978
300.000613147
300.000591874
300.000577751
300.000570677
300.000714747
300.000683754
300.000660696
300.000645264
300.000637496
300.00078915
300.000755945
300.000731047
300.000714267
300.000705784
300.000864081
300.000828551
300.000801737
300.000783567
300.000774354
300.000938639
300.000900552
300.000871684
300.000852057
300.000842088
300.001012242
300.000971158
300.000939978
300.000918762
300.000907985
300.001084731
300.001039851
300.001005883
300.00098282
300.000971124
300.001156734
300.001106634
300.001069
300.001043591
300.001030751
300.001230572
300.001172746
300.001129827
300.001101121
300.001086704
300.001311607
300.001241731
300.001190617
300.001156867
300.001140066
300.001409752
300.001320715
300.001256449
300.001214619
300.001194015
300.001540763
300.001421688
300.001336449
300.001281653
300.001254925
300.001726733
300.001562397
300.00144493
300.001369977
300.001333649
300.001497488
300.001446934
)
;

boundaryField
{
    emptyPatch
    {
        type            empty;
    }
    minY
    {
        type            zeroGradient;
    }
    maxY
    {
        type            zeroGradient;
    }
    maxX
    {
        type            zeroGradient;
    }
    cooler_to_water
    {
        type            compressible::turbulentTemperatureTwoPhaseRadCoupledMixed;
        refValue        nonuniform List<scalar> 
37
(
300.000069374
300.000068737
300.000068991
300.000070895
300.000074872
300.000081374
300.000090928
300.000104578
300.000123926
300.000150859
300.000187051
300.000233951
300.000294639
300.000370983
300.000461324
300.000563842
300.000675129
300.000790433
300.000918072
300.001051301
300.001184688
300.001323086
300.001469149
300.001618143
300.001770508
300.001924807
300.002081464
300.002242708
300.002413243
300.002605054
300.002837027
300.003138718
300.00355829
300.004170858
300.005084266
300.00643802
300.008390317
)
;
        refGradient     uniform 0;
        valueFraction   nonuniform List<scalar> 
37
(
0.0215865381981
0.0203862647758
0.0193291798124
0.0184132991635
0.0176948006841
0.0171822323516
0.0168473068838
0.0166384211522
0.0165146523903
0.0164453843588
0.0164093131818
0.0163924957424
0.016386074683
0.0163749249825
0.0163408870311
0.0162438384376
0.0160023305899
0.0217200501982
0.0215752323342
0.0196884460165
0.0148212880732
0.0157832139248
0.0163124084752
0.0163459059727
0.0163460391181
0.0163513050197
0.0163669556364
0.016403833415
0.0164579864015
0.0164843380753
0.0164699321126
0.0164469297128
0.0164235283323
0.0164028454805
0.0163862459598
0.0163737803925
0.0163645728618
)
;
        source          uniform 0;
        value           nonuniform List<scalar> 
37
(
300.000031132
300.000032083
300.000033356
300.000034995
300.000037096
300.000039836
300.000043428
300.000048145
300.000054358
300.000062528
300.000073144
300.000086669
300.000103552
300.000124136
300.000148622
300.000177457
300.000211074
300.000255847
300.000299523
300.000346374
300.000396927
300.000457031
300.000521172
300.000588967
300.00066034
300.000734443
300.000810207
300.000886597
300.000962801
300.001038383
300.00111346
300.001189175
300.001268604
300.001358246
300.001469612
300.001620476
300.001835153
)
;
        kappaMethod     solidThermo;
        Tnbr            T.liquid;
        region          solid;
        otherPhase      gas;
    }
    procBoundary2to0
    {
        type            processor;
        value           nonuniform List<scalar> 5(300.000029507 300.000028013 300.000026903 300.000026172 300.000025811);
    }
    procBoundary2to3
    {
        type            processor;
        value           nonuniform List<scalar> 6(300.001996243 300.001767285 300.001602519 300.001602519 300.001692759 300.001621335);
    }
}


// ************************************************************************* //
