/*--------------------------------*- C++ -*----------------------------------*\
| =========                 |                                                 |
| \\      /  F ield         | OpenFOAM: The Open Source CFD Toolbox           |
|  \\    /   O peration     | Version:  2312                                  |
|   \\  /    A nd           | Website:  www.openfoam.com                      |
|    \\/     M anipulation  |                                                 |
\*---------------------------------------------------------------------------*/
FoamFile
{
    version     2.0;
    format      ascii;
    arch        "LSB;label=32;scalar=64";
    class       volScalarField;
    location    "0.435/water";
    object      alpha.gas;
}
// * * * * * * * * * * * * * * * * * * * * * * * * * * * * * * * * * * * * * //

dimensions      [0 0 0 0 0 0 0];

internalField   nonuniform List<scalar> 
1504
(
0.69268143297
0.46139940114
0.38776805949
0.339593687421
0.323720382852
0.314820189987
0.315993187684
0.324342588141
0.329819473499
0.323390226679
0.307970664834
0.30224074533
0.304223815147
0.312245674212
0.339567650767
0.371713404186
0.378309199564
0.306098528088
0.149994527513
0.0266499193844
0.688408386722
0.400419858669
0.35073294871
0.331086894634
0.32844747638
0.337618731194
0.343919238112
0.344377480414
0.336141923958
0.31603443895
0.290335960796
0.274390155524
0.275216894163
0.295076202724
0.339687591936
0.38018846489
0.392851145739
0.335034006297
0.188147141127
0.0414233624904
0.647509985771
0.344521597954
0.33808970065
0.332682381372
0.345472804819
0.347059292114
0.34699360576
0.339491731924
0.318220803735
0.284976736447
0.257498531637
0.249711345081
0.259338750231
0.293371574766
0.345377849114
0.385794175748
0.394157752823
0.361049375658
0.231935821869
0.0647947811048
0.524226208326
0.338967983096
0.338528621687
0.344442835167
0.351784838028
0.343930827248
0.33056197107
0.308304862721
0.277282163875
0.248736396014
0.235319509038
0.235968139136
0.251545812166
0.293145608623
0.349823048457
0.386760166745
0.394232508663
0.382650619554
0.27542616907
0.100747157801
0.429189856081
0.347120225958
0.365849481294
0.3763227184
0.351339613936
0.316796046574
0.289489996705
0.264723756425
0.242979403242
0.230138640097
0.226153098223
0.227634347289
0.242654229374
0.286010043276
0.346636052165
0.385251645698
0.394307263288
0.393581230023
0.313960125423
0.151927086468
0.456413965562
0.489251355506
0.479753906509
0.433288324404
0.360268721024
0.306871853956
0.268027741086
0.243927026145
0.229572358245
0.22337717019
0.221918622851
0.222207794805
0.22941354259
0.262239252608
0.326608178412
0.37699856426
0.394382016699
0.397027513244
0.347357323279
0.213884865584
0.63714939432
0.705150424584
0.640863173575
0.570427708269
0.469951571264
0.368613436465
0.289163956347
0.247230593068
0.228628364658
0.221009749297
0.219441118415
0.219437634876
0.220789221536
0.231683040083
0.283602640412
0.354446899449
0.390820103638
0.398595680836
0.383134575482
0.276350595509
0.822407035952
0.804702690009
0.760428266144
0.726002746666
0.675203240743
0.579804491266
0.430670159803
0.302970387578
0.242838281439
0.22227144317
0.218158577016
0.218108128768
0.218658850177
0.219752710227
0.237363037396
0.312607849979
0.377042177322
0.402637314475
0.403154058746
0.329126269986
0.865928333875
0.822713818154
0.801467144316
0.789803644511
0.772413464229
0.728740736686
0.621670657569
0.444206090233
0.303194138149
0.235136861234
0.217923462106
0.217742809998
0.21802558471
0.218173227889
0.219801097047
0.262606045796
0.346850160189
0.402938117357
0.402793841746
0.365667522605
0.863932114606
0.826077192895
0.812510286405
0.804629932438
0.792036120024
0.762458107922
0.696514499119
0.559115349337
0.392377753763
0.269783157783
0.217824182774
0.217522336243
0.217754914308
0.217983022906
0.218057384357
0.225118463444
0.303827290745
0.395061344723
0.40316043819
0.386463535006
0.866928729538
0.826983137603
0.816114309755
0.808168968839
0.795725006339
0.767723742861
0.70982161666
0.601264891433
0.451731963042
0.31083107685
0.220098638706
0.21736737998
0.217544573643
0.217788307199
0.21786871545
0.218016613548
0.263553963914
0.372407296113
0.402793841746
0.396448427485
0.864222790309
0.826385027425
0.816957031827
0.80837116825
0.795528956935
0.767290232833
0.710293058583
0.609802483003
0.473455761941
0.333336657968
0.229892876634
0.217328947134
0.217325419947
0.217599916203
0.21772667292
0.217806424242
0.235999862276
0.338953846078
0.402880690041
0.401110768881
0.866574488342
0.824347554563
0.815433791983
0.805284513699
0.790715904626
0.760592953041
0.703713002598
0.606597656193
0.474991018183
0.337190148173
0.234589862003
0.217140755746
0.217328947134
0.217311789186
0.217585222355
0.217677817177
0.223180673059
0.311537087482
0.400120851971
0.403519067515
0.86416535489
0.822530305983
0.808491834795
0.794451669556
0.776328949318
0.74196437203
0.682186961816
0.587653287357
0.462774042628
0.329041028277
0.232237206574
0.21708919092
0.217067062195
0.217328947134
0.217463539396
0.217619345956
0.220596973348
0.297816070683
0.393416296053
0.405851327974
0.866244217363
0.819991376229
0.793388623476
0.773713614024
0.750554090785
0.710362035494
0.644589482749
0.548341004412
0.427377717356
0.301237145702
0.223721781966
0.216892344709
0.21708919092
0.217058609871
0.217363172651
0.217475186399
0.221698305168
0.293400774833
0.386787288544
0.409901676154
0.863932114606
0.813240074331
0.768797808044
0.742511961822
0.713323763199
0.665927416213
0.592235782527
0.491547625822
0.372253037198
0.260350442081
0.217420778705
0.217022376491
0.216688688902
0.21708919092
0.217265150017
0.217431120678
0.226356830176
0.294699239973
0.382705673842
0.417447782679
0.866399000926
0.793134425362
0.73209460031
0.699692209291
0.662703534705
0.605661234433
0.523024544781
0.41793718922
0.304364735807
0.226219360997
0.21692280831
0.216600192582
0.217022376491
0.216584903533
0.217315867709
0.217454896661
0.236736364687
0.300934428248
0.382207259802
0.421506177542
0.863730532318
0.750339051998
0.680721058096
0.640405579666
0.592876386998
0.524030275869
0.433255727599
0.329126177416
0.241043799064
0.216704109326
0.216667406304
0.21692280831
0.216333905966
0.217022376491
0.217163951478
0.221085879338
0.252109271145
0.308777245921
0.3811493256
0.421498836764
0.867161296106
0.668090133698
0.609705698547
0.556466288751
0.495868917334
0.417204137963
0.325882338054
0.245458753614
0.216841903435
0.216438653203
0.216648141725
0.216471564513
0.21692280831
0.21634118458
0.217846917226
0.23208820221
0.265040402262
0.313125081612
0.379666822335
0.420477790124
0.863477388909
0.592279846696
0.514654383136
0.442138189605
0.37187417648
0.295829843834
0.235192551357
0.216386156399
0.216298972087
0.216499674349
0.216222812507
0.216586252365
0.216485739261
0.21692280831
0.222033490612
0.243130215672
0.268630409553
0.313355727962
0.377623152931
0.418232000818
0.866149777996
0.522653629067
0.403773623497
0.310281660218
0.251534745087
0.22045275321
0.216079166509
0.215914205807
0.216354345138
0.215736107961
0.216499674349
0.216126265136
0.216586252365
0.218307017794
0.230745529635
0.246300398814
0.26560683501
0.309850949794
0.373140708121
0.415146988545
0.863144865837
0.445819473444
0.291767975393
0.220971617603
0.216128156811
0.216079166509
0.215003645116
0.216079166509
0.215030522758
0.216354345138
0.215541492944
0.216499674349
0.216139426725
0.223043502768
0.236305581901
0.242608836617
0.254003832342
0.296624762182
0.362595127794
0.409895940213
0.855271908796
0.350727366622
0.221625862519
0.215619854576
0.216079166509
0.213930058961
0.216079166509
0.213360182199
0.216079166509
0.214659143839
0.216354345138
0.215575122139
0.217131035655
0.22913985424
0.235534207869
0.233124408869
0.236727987443
0.271684525886
0.340766511327
0.400274174669
0.785064690675
0.251248985335
0.21572328812
0.216079166509
0.21288791293
0.215969196002
0.211842753552
0.216015175599
0.212928888098
0.216079166509
0.214905555784
0.216354345138
0.220566657007
0.230137440595
0.230978003695
0.224168581551
0.221304404219
0.241073315651
0.304927700888
0.382536635583
0.667144872275
0.215829253059
0.216079166509
0.212364221715
0.215969196002
0.21151982655
0.215963148203
0.211544475442
0.216015175599
0.21366034377
0.216079166509
0.216030113022
0.226973113317
0.229717835272
0.226311828005
0.219427330337
0.214557968071
0.21786815892
0.260868330471
0.351616761748
0.558843919219
0.254998441528
0.227258383787
0.216448947846
0.213243644237
0.215969196002
0.212134936263
0.21761302343
0.216928274386
0.217985295716
0.218959526021
0.223279538559
0.225701522717
0.225569484479
0.222636335755
0.217946699171
0.213623601145
0.213042935783
0.223795988299
0.305256861244
0.571048139639
0.466818259347
0.408199137427
0.368373621495
0.343337044747
0.328130933533
0.308871932166
0.276230745456
0.248627545133
0.232690122607
0.225116710901
0.221076437811
0.219465788961
0.219123480939
0.219513325627
0.217424952111
0.213665782752
0.212983991355
0.213003112283
0.250874593904
0.69528487923
0.741694173595
0.696985443376
0.652893955878
0.619149984551
0.588886656721
0.528777173305
0.432526343948
0.332370996887
0.265408448293
0.232122339948
0.218191778926
0.214261694569
0.214405364857
0.216327760082
0.216832750662
0.214082860146
0.213003112283
0.212873777642
0.216033017305
0.829586753258
0.845423175903
0.819332495613
0.78909647816
0.765218808282
0.742291502925
0.698084212796
0.610843293699
0.478825794405
0.348978628204
0.261437338752
0.220730087316
0.213197720737
0.213125251476
0.213858722005
0.215188723181
0.214326417119
0.212899326495
0.212960806567
0.212786379236
0.866403008039
0.852853462571
0.835192663122
0.807475233195
0.786436553038
0.767021967637
0.735729044373
0.675097194806
0.568709539737
0.437673370343
0.317153666811
0.232008052605
0.213048727617
0.213042935783
0.213035220938
0.213652482021
0.213891985918
0.212960806567
0.212690280865
0.212919156027
0.866988926785
0.851154121157
0.833484428456
0.806014802925
0.784990481243
0.765626385389
0.735573603654
0.679095642473
0.583888922337
0.466187641291
0.347147786252
0.245320068168
0.213042935783
0.212913863486
0.213003112283
0.212959521196
0.213357539308
0.212923232495
0.212919156027
0.212620757451
0.866817844928
0.84160772011
0.821696628297
0.795443756731
0.774824389175
0.754916692287
0.72469094865
0.668519142185
0.577355448715
0.464576709585
0.347588914489
0.246009068628
0.212943212702
0.213003112283
0.212753776796
0.212960806567
0.212905814587
0.212960741783
0.212773487504
0.212878522967
0.866830558596
0.821191272494
0.799648875308
0.77809274267
0.760611945218
0.74031933238
0.70637810794
0.644306058477
0.552792058502
0.444241265439
0.330246287294
0.235333397941
0.213003112283
0.212685311725
0.212960806567
0.212622721224
0.212919156027
0.212820955673
0.212878522967
0.21260646084
0.84785213148
0.796369554747
0.778158681244
0.764877230946
0.753367231254
0.734092278877
0.695175309868
0.624419958582
0.525302172284
0.412514294217
0.298442112489
0.220199518963
0.212816611622
0.212960806567
0.212442942838
0.212919156027
0.212528880884
0.212878522967
0.212705454253
0.212835889188
0.806879989325
0.775678604621
0.764524190498
0.75886989134
0.75234767001
0.734350769739
0.691774716965
0.614807489377
0.508755701724
0.389226322827
0.27440904792
0.214688904982
0.212960806567
0.2125045875
0.212919156027
0.212301699051
0.212878522967
0.212472156655
0.212835889188
0.212565307048
0.776005763419
0.762747716336
0.756137146762
0.754953966617
0.751288243585
0.734018112879
0.688741700912
0.607806629941
0.498099312694
0.375219874601
0.26198914008
0.213427950396
0.212736653738
0.212919156027
0.21228846108
0.212878522967
0.212242071794
0.212835889188
0.212418674285
0.212792930837
0.768149531665
0.754341055237
0.746478578306
0.747460742879
0.745920249278
0.72929334038
0.6811576326
0.596875910015
0.485307956642
0.361797609279
0.252163071136
0.212966766847
0.212919156027
0.212430588043
0.212878522967
0.212154657542
0.212835889188
0.212221489948
0.212792930837
0.212350213195
0.765165125231
0.739955657035
0.726736939482
0.729238137456
0.729446343494
0.713234310011
0.662497688775
1e-15
1.00481426169e-15
1.02766774597e-15
1.0278357923e-15
1.02762473231e-15
1.0191696383e-15
1.00912786015e-15
1.00541310466e-15
1.00433534423e-15
1.00405243435e-15
1.00419193423e-15
1.00477679944e-15
1.00627978426e-15
1.00977286727e-15
1.03368892316e-15
1.05212019805e-15
1.72718730166e-15
0.000747186072833
3.60704998572e-07
1e-15
1e-15
1e-15
1.01758147555e-15
1.02475041869e-15
1.01974913816e-15
1.01045874413e-15
1.00511201144e-15
1.00321844506e-15
1.00254629126e-15
1.00240587496e-15
1.00253457979e-15
1.0029780094e-15
1.00413590966e-15
1.00691873864e-15
1.03254340491e-15
1.05604712869e-15
1.72399648668e-15
0.00161616610309
4.00159824179e-06
1e-15
1e-15
1e-15
1.00879889189e-15
1.01541402475e-15
1.01024583577e-15
1.00492313206e-15
1.00233236188e-15
1.00138021987e-15
1.00102124573e-15
1.00096039208e-15
1.00106253814e-15
1.00138050008e-15
1.00214862655e-15
1.00420893104e-15
1.03141059231e-15
1.05987030981e-15
1.72657640585e-15
0.00374974676308
2.74105037435e-05
7.54245524151e-09
1e-15
1e-15
1e-15
1.00730829596e-15
1.00419539255e-15
1.00156635823e-15
1.00046999743e-15
1.00021035949e-15
1.00012341044e-15
1.00011483789e-15
1.00014683685e-15
1.00024924946e-15
1.00052590367e-15
1.00187099247e-15
1.03066423084e-15
1.06610832315e-15
1.72403793894e-15
0.00929728229125
0.000153324367594
3.65802914988e-07
1e-15
1e-15
1e-15
1.0024660867e-15
1.00080735877e-15
1.00008842525e-15
1e-15
1e-15
1e-15
1e-15
1e-15
1e-15
1e-15
1.0003220224e-15
1.03062210864e-15
1.07604533111e-15
1.72604796773e-15
0.0233473023313
0.00074075599952
4.66759870472e-06
1e-15
1e-15
1e-15
1.00025106067e-15
1e-15
1e-15
1e-15
1e-15
1e-15
1e-15
1e-15
1e-15
1e-15
1e-15
1.03158339691e-15
1.0903682092e-15
1.72410665453e-15
0.0539549174409
0.00310828307872
4.06074609363e-05
8.50463631591e-09
1e-15
1e-15
1e-15
1e-15
1e-15
1e-15
1e-15
1e-15
1e-15
1e-15
1e-15
1e-15
1e-15
1.03369260577e-15
1.10670597196e-15
1.72507599571e-15
0.105295950637
0.0109689612762
0.000262689711392
3.60901620561e-07
1e-15
1e-15
1e-15
1e-15
1e-15
1e-15
1e-15
1e-15
1e-15
1e-15
1e-15
1e-15
1e-15
1.03677544266e-15
1.12239757765e-15
1.72418770758e-15
0.167321921545
0.0303242476457
0.00127592794499
6.13602196789e-06
1e-15
1e-15
1e-15
1e-15
1e-15
1e-15
1e-15
1e-15
1e-15
1e-15
1e-15
1e-15
1e-15
1.04069322695e-15
1.13629783043e-15
1.7243530966e-15
0.223472744638
0.0616035323892
0.00463336749408
5.35854917638e-05
1.11051926163e-15
1e-15
1e-15
1e-15
1e-15
1e-15
1e-15
1e-15
1e-15
1e-15
1e-15
1e-15
1e-15
1.04522611529e-15
1.14716427623e-15
1.72428109812e-15
0.264312935852
0.0964880130842
0.0119672880815
0.000288347084806
6.2209427652e-08
1e-15
1e-15
1e-15
1e-15
1e-15
1e-15
1e-15
1e-15
1e-15
1e-15
1e-15
1.00799547402e-15
1.05013951402e-15
1.15520241221e-15
1.73163223971e-15
0.290927252423
0.127401089997
0.0228668597324
0.000982904409161
2.27483764599e-06
1e-15
1e-15
1e-15
1e-15
1e-15
1e-15
1e-15
1e-15
1e-15
1e-15
1e-15
1.01780668547e-15
1.05531267667e-15
1.15999576445e-15
1.74819327791e-15
0.309241370057
0.153245622438
0.0357905943935
0.00235457982264
1.60415740249e-05
1.00707258535e-15
1e-15
1e-15
1e-15
1e-15
1e-15
1e-15
1e-15
1e-15
1.00149564746e-15
1.01271073949e-15
1.02345520887e-15
1.06039334752e-15
1.16087565254e-15
1.7687493657e-15
0.324635916697
0.176649710642
0.050037781852
0.00452554193113
5.80093431565e-05
1.11499195952e-15
1e-15
1e-15
1e-15
1e-15
1e-15
1.00070119982e-15
1.00496350532e-15
1.01127613522e-15
1.01846275838e-15
1.0227215741e-15
1.02865982715e-15
1.06505993879e-15
1.1599982696e-15
1.79125800468e-15
0.340094233808
0.200563865905
0.0660316346642
0.00766690830273
0.00015077537687
1e-15
1e-15
1e-15
1e-15
1.01063385114e-15
1.01427272475e-15
1.01690420739e-15
1.01911571419e-15
1.02172548007e-15
1.02460147974e-15
1.02780103012e-15
1.03274783573e-15
1.06908896022e-15
1.15768084832e-15
1.81532882557e-15
0.356996264118
0.226079586242
0.0842946640408
0.0120924728151
0.00033248271216
4.98410322434e-08
1e-15
1e-15
1e-15
1.01615573688e-15
1.02082252515e-15
1.02200289521e-15
1.02349701498e-15
1.02557118601e-15
1.02827482827e-15
1.03137461168e-15
1.03548329102e-15
1.07235955405e-15
1.15588667256e-15
1.83844531035e-15
0.374531001582
0.251771322226
0.104618582305
0.018273191351
0.000693348069758
8.1592696047e-07
1e-15
1e-15
1e-15
1.01555133132e-15
1.02222570081e-15
1.02409966449e-15
1.02553869723e-15
1.02750287993e-15
1.03020955974e-15
1.03329248191e-15
1.03632248325e-15
1.07479951898e-15
1.1536240465e-15
1.86014483553e-15
0.388628509187
0.275823536534
0.126794586899
0.0268350954179
0.00143045032674
5.33561794438e-06
1e-15
1e-15
1e-15
1.00578186738e-15
1.02010396311e-15
1.02414927743e-15
1.02568343624e-15
1.02764740979e-15
1.03056229575e-15
1.03420560163e-15
1.03719203395e-15
1.07777317728e-15
1.14587932506e-15
1.88004890083e-15
0.399105371308
0.299326099577
0.152138372747
0.0388332850764
0.00294343987644
2.64662400703e-05
1e-15
1e-15
1e-15
1.00055355983e-15
1.01611780748e-15
1.02191522963e-15
1.02369323951e-15
1.02571744243e-15
1.02892529662e-15
1.03358595219e-15
1.03992935969e-15
1.08559491497e-15
1.13392950444e-15
1.89553451916e-15
0.409297837054
0.325387682337
0.183472546971
0.0565500898519
0.00612950674009
0.000118516201898
1e-15
1e-15
1e-15
1.0014091747e-15
1.0058783738e-15
1.01624768946e-15
1.01967675386e-15
1.02183092927e-15
1.02512986618e-15
1.03067675442e-15
1.04402807658e-15
1.10105464146e-15
1.12810078106e-15
1.90922923319e-15
0.419274225884
0.353013268774
0.222123767482
0.0833828840077
0.0129186699859
0.00051041917401
2.47796208804e-06
1e-15
1e-15
1.00092248937e-15
1.00166344465e-15
1.01128636318e-15
1.01478046076e-15
1.01690785322e-15
1.02017232296e-15
1.02607780389e-15
1.04835202541e-15
1.11744973657e-15
1.12710452266e-15
1.91626205647e-15
0.422787277494
0.378867908193
0.267323854752
0.122150185941
0.0264791124858
0.00194746591649
3.42021111641e-05
1.68008919322e-08
1e-15
1e-15
1e-15
1.00035970158e-15
1.00884902214e-15
1.01157538404e-15
1.01472413552e-15
1.02040714904e-15
1.05086841337e-15
1.12875338995e-15
1.12841531859e-15
1.91680900945e-15
0.422787044694
0.404372264926
0.315610296872
0.17270019827
0.051079428197
0.0063035971583
0.000275869951401
2.53047049883e-06
1e-15
1e-15
1e-15
1.00011738111e-15
1.00461480365e-15
1.00652779774e-15
1.00917419509e-15
1.01431948397e-15
1.05155370793e-15
1.12876878792e-15
1.12748283795e-15
1.92191753e-15
0.422093866522
0.422113349711
0.356021576118
0.228247023358
0.0898159733847
0.0172964667258
0.00150366828278
4.28049602007e-05
4.81649847823e-08
1e-15
1e-15
1e-15
1.00019597524e-15
1.00224115653e-15
1.00394768045e-15
1.00758383897e-15
1.05044509503e-15
1.11744096982e-15
1.12428906182e-15
1.94643601821e-15
0.420458563675
0.423001257889
0.386541555351
0.281391061897
0.140954330352
0.0397219826655
0.00572884389099
0.000378267764333
4.72458428256e-06
1e-15
1e-15
1e-15
1e-15
1.00009831071e-15
1.00028156818e-15
1.00093643776e-15
1.05571739038e-15
1.11377395037e-15
1.12545884296e-15
1.96469633649e-15
0.413927972913
0.423163876789
0.418542791965
0.331285734761
0.199544031951
0.0769504167282
0.0166781991218
0.00196719464028
7.55662708118e-05
4.15148938756e-08
1e-15
1e-15
1e-15
1e-15
1e-15
1e-15
1.05457479587e-15
1.12418317978e-15
1.13781466657e-15
1.9646922397e-15
0.396434644074
0.423001257889
0.423404188262
0.37095973244
0.258990830806
0.127537580162
0.0386255079268
0.00682677237546
0.000571589129088
8.25458235113e-06
1e-15
1e-15
1e-15
1e-15
1e-15
1e-15
1.03970760701e-15
1.12845126972e-15
1.18701540036e-15
1.96476246984e-15
0.361808798227
0.423185339059
0.423001257889
0.410185889856
0.315905241806
0.18449428793
0.0725491921818
0.0176915747781
0.00248797013257
0.000119842445337
1.56792799685e-07
1e-15
1e-15
1e-15
1e-15
1e-15
1.00083424717e-15
1.11607743693e-15
1.28268537561e-15
1.96483269998e-15
0.316278225256
0.41939316758
0.423486137619
0.423001257889
0.360190042345
0.238650867481
0.113633873436
0.0361755552662
0.00735316359358
0.00076827597691
1.91849227485e-05
1.04685183468e-09
9.20046280531e-14
1.98176072275e-13
2.49400588951e-13
2.66858316191e-13
2.93791646484e-14
1.5784182912e-15
1.31523783768e-15
1.96490293011e-15
0.270835436944
0.403274569216
0.423001257889
0.423473576969
0.387772106824
0.281315415588
0.154035664281
0.0610296740366
0.0166514556752
0.00283746216384
0.000201236781005
1.63453271506e-06
1.09790918754e-09
1.62070073479e-09
1.34259351916e-09
1.33925468106e-09
2.80386172957e-10
4.71946823395e-12
2.54077291314e-14
1.48622887499e-14
0.234694310925
0.371824441084
0.423358442519
0.423001257889
0.403071295545
0.312160349804
0.191156121699
0.0904644323168
0.0313195455103
0.00734557749697
0.000925564693997
3.39172768822e-05
6.60971655252e-07
8.69620116533e-07
5.57879752747e-07
5.41656492483e-07
2.6050512528e-07
7.96243054136e-09
1.94643840478e-10
9.36892716752e-11
0.21473231486
0.331636113274
0.423001257889
0.42331218283
0.412467800522
0.340270272467
0.232547607074
0.128492498819
0.0541318599191
0.0161026502627
0.00292972384139
0.000241740428465
5.84715868225e-05
7.20886231006e-05
3.49062365563e-05
3.09426284951e-05
3.05951751968e-05
3.56022796675e-06
2.35535745786e-07
6.19647447502e-08
0.212594330201
0.293431257274
0.408417669413
0.423001257889
0.420386720803
0.376986602696
0.291152448727
0.188082657169
0.0962880870613
0.0370731579272
0.0102294808697
0.00230949456807
0.00165288152013
0.00192421136451
0.00075418502612
0.000516524230481
0.000703775425911
0.000452029520283
6.03316673071e-05
8.59151610916e-06
0.212835889188
0.262720407556
0.370382455496
0.418975343719
0.433950646238
0.423765166563
0.372920391916
0.282873139732
0.181908052432
0.0987487655342
0.0469306545199
0.0240007185172
0.0160796572534
0.0189355175109
0.0141745383044
0.00719337046829
0.00668729015425
0.0140780055622
0.00422162913795
0.000589181472667
0.212498140992
0.240496380798
0.322222930626
0.397460698213
0.447627879053
0.456053382739
0.441685954929
0.38919016096
0.30882620434
0.224346648172
0.157186667046
0.10877331812
0.0597109826793
0.0598119735117
0.152972958044
0.2341228991
0.191578301665
0.139173665629
0.0545619361691
0.0077972293111
0.212792930837
0.224368808459
0.279637974481
0.36207239959
0.440842120467
0.456186573156
0.456053382739
0.444479698664
0.407316622615
0.354404225443
0.292585245806
0.216317257921
0.151608009288
0.211672993447
0.494300528197
0.695587251863
0.695913941332
0.666925302107
0.278629691583
0.0255993919224
0.212417364231
0.212752043447
0.245707664923
0.32192547559
0.415834877337
0.455420677594
0.456099591407
0.453620833814
0.443336429747
0.417339191407
0.358567173277
0.281784550296
0.387212763364
0.679312016578
0.704650790434
0.708245670054
0.704997718452
0.708407614428
0.469388218621
0.0373224160564
0.212752043447
0.212292342045
0.221845724176
0.283337179259
0.383305540597
0.445929808531
0.454931008642
0.453739313331
0.450276395416
0.425281891777
0.37299443447
0.474390883364
0.704861583465
0.704357270637
0.708176705115
0.704650790434
0.70813748039
0.704997718452
0.498644199631
0.0407253335737
)
;

boundaryField
{
    emptyPatch
    {
        type            empty;
    }
    minY
    {
        type            fixedValue;
        value           nonuniform List<scalar> 0();
    }
    maxY
    {
        type            inletOutlet;
        phi             phi.gas;
        inletValue      nonuniform List<scalar> 0();
        value           nonuniform List<scalar> 0();
    }
    water_to_cooler
    {
        type            zeroGradient;
    }
    water_to_heater
    {
        type            zeroGradient;
    }
    procBoundary3to1
    {
        type            processor;
        value           nonuniform List<scalar> 
41
(
0.575699567031
0.46362737084
0.341491410747
0.238914293733
0.212919156027
0.212570183922
0.212878522967
0.212150969768
0.212835889188
0.212094470625
0.212792930837
0.212199335305
0.212752043447
0.766067413908
0.702085342081
0.683974533671
0.690740426176
0.693473415685
0.676894451444
0.575699567031
0.624372807538
0.212230417673
0.212712410853
0.212168228608
0.252682322788
0.351977080155
0.430984237838
0.452197566049
0.453758502133
0.446847405426
0.425083052721
0.504657056991
0.705893688385
0.704100594555
0.707981463632
0.704357270637
0.707952884519
0.704650790434
0.708121778307
0.446476853579
0.0273988718313
)
;
    }
    procBoundary3to2
    {
        type            processor;
        value           nonuniform List<scalar> 
41
(
0.689183147014
0.509563544325
0.439341080526
0.379671825712
0.334684669713
0.306706613519
0.300309310497
0.299090276672
0.300309310497
0.303521477566
0.303416270591
0.308391256094
0.330254427835
0.340770868182
0.350604024294
0.36438881554
0.354452201983
0.271041230002
0.118391011737
0.0174801806206
1e-15
1.00675516113e-15
1.02804821189e-15
1.02766774597e-15
1.02780542392e-15
1.02683966625e-15
1.01543842993e-15
1.00793704988e-15
1.00617682104e-15
1.00574368915e-15
1.00589883707e-15
1.0066410174e-15
1.00833096511e-15
1.01231537173e-15
1.03443748189e-15
1.04623540229e-15
1.72397132531e-15
0.000373542269036
1e-15
1e-15
1e-15
)
;
    }
}


// ************************************************************************* //
