/*--------------------------------*- C++ -*----------------------------------*\
| =========                 |                                                 |
| \\      /  F ield         | OpenFOAM: The Open Source CFD Toolbox           |
|  \\    /   O peration     | Version:  2312                                  |
|   \\  /    A nd           | Website:  www.openfoam.com                      |
|    \\/     M anipulation  |                                                 |
\*---------------------------------------------------------------------------*/
FoamFile
{
    version     2.0;
    format      ascii;
    arch        "LSB;label=32;scalar=64";
    class       volScalarField;
    location    "0.35/water";
    object      T.gas;
}
// * * * * * * * * * * * * * * * * * * * * * * * * * * * * * * * * * * * * * //

dimensions      [0 0 0 1 0 0 0];

internalField   nonuniform List<scalar> 
750
(
744.460552837
715.309881431
686.379926066
657.480307676
628.858481514
600.818958255
573.646967669
547.563572118
522.739278434
499.314328697
477.408782593
457.087559604
438.322797133
421.030188333
405.143360028
390.707258643
377.879560503
366.726136799
357.163678947
349.173248474
710.05631703
677.251644225
647.753963344
619.0185649
592.129004666
566.81399165
543.137696845
520.95888098
499.826741219
479.070262272
458.708740567
439.933368279
423.971722272
410.041301721
397.53615173
386.071791169
374.674598495
363.050880441
352.683861127
345.002263092
705.191052827
671.495974911
641.240235964
611.530069694
583.698863108
557.433156156
532.852956261
509.914808678
488.32577089
467.484125337
447.259517011
428.685109546
412.735505377
398.852445638
386.172874178
373.91450581
361.816470187
351.672885964
343.754176382
337.34597514
705.629873746
672.577584505
642.780839709
613.372178117
585.76338211
559.611802145
534.927116078
511.711760126
489.96836789
469.466722319
449.663885288
430.013060928
411.221726749
395.126288281
381.459189436
369.281866527
358.447205548
349.069021061
341.103772975
334.726746929
700.937688592
674.448117123
649.467206987
624.679418588
601.077746936
578.412631233
556.758254502
536.05515357
516.27785709
497.430969085
479.585968111
462.699977711
446.531167488
430.965786016
416.400169369
402.864816654
390.358827782
378.8878288
368.526415218
359.404428565
700.18795317
672.349882264
647.003700723
622.016982183
598.230473441
575.421488609
553.670502986
532.934455013
513.22520149
494.581872961
476.969813611
460.148274716
444.064291303
428.914426923
414.761557058
401.594033553
389.484308756
378.393703846
368.409160919
359.585428734
733.118686506
699.149743806
667.011900263
635.742954575
605.314802992
575.668200384
547.054471364
519.981869988
495.080089966
472.713775928
452.857807925
435.146113653
418.894247557
402.946239065
386.131800085
370.048939646
357.734844655
349.100364057
342.049677009
336.360954677
759.801138846
725.593526107
691.118210909
656.60813995
622.382820567
588.847090185
556.4307118
525.521698696
496.449139495
469.482539234
444.823097172
422.624831161
403.042567735
386.180813335
371.376036268
357.046983518
342.7692462
331.255342952
323.439282374
318.45792548
776.925424437
738.891416831
701.131744331
664.084296765
628.120634451
593.525224115
560.525325751
529.317149068
500.091490664
473.052130085
448.421990196
426.458047514
407.580994099
391.819563325
376.520996361
356.837341073
334.819571351
321.241657223
313.385661264
309.005119703
777.447004333
739.410124427
701.618255628
664.530130425
628.523442658
593.912878666
560.94861445
529.832606078
500.72819275
473.763295129
449.045043472
426.692935114
406.847708174
389.377334613
374.197948328
360.034809142
345.839202441
330.490023089
318.596965043
311.564466057
775.143137018
738.366527761
701.741733484
665.675876343
630.517962009
596.597333596
564.204578515
533.571888869
504.854917382
478.104112511
453.262644519
430.392123171
409.871665466
392.016588153
376.722710285
363.523249814
351.818511568
341.394382821
332.380763905
325.285128156
777.318643468
740.648983451
704.31099639
668.753474854
634.31351652
601.214773616
569.626139711
539.691572754
511.513274658
485.129772876
460.509571763
437.619035165
416.549654856
397.654591545
381.240197552
367.23129258
355.276183968
344.983045331
336.246500312
329.412222162
779.52872161
743.618750129
708.266366638
673.978986169
641.025790999
609.418176283
579.139159545
550.265733718
522.901121787
497.126040959
472.980042429
450.456310942
429.544780514
410.279257721
392.829059955
377.340560084
363.757346332
351.961648762
341.979311871
334.239758601
760.506518209
730.562104343
701.573404665
674.155116536
648.045897206
622.563356673
597.247990137
572.14894329
547.493051241
523.49978823
500.355870988
478.199085232
457.102366336
437.104802948
418.273719323
400.775240951
384.872390569
370.833555692
358.835642483
349.20983196
716.831314054
677.781002206
640.757203093
611.436903582
590.631816564
573.340526608
556.697750081
539.907861018
522.856000792
505.546296897
488.03240182
470.439686337
452.974680991
435.899619701
419.502058997
404.122587257
390.008632251
377.276422582
366.011153935
356.485803594
718.22274138
682.679809117
646.544081238
608.712451004
573.936447915
550.510863968
533.956475263
518.676375857
503.355852369
487.752759262
471.85238192
455.826982653
440.026801338
424.794435189
410.389939041
396.937007572
384.514132609
373.186500088
363.023221831
354.298186564
750.281916338
717.836326536
685.61425008
654.209089362
624.716078423
598.058125825
574.214868072
551.957358733
530.542884404
509.779046392
489.567718826
469.862708165
450.733722799
432.372037919
415.061525389
399.04803731
384.518073033
371.62073989
360.433359266
351.200556952
776.743853234
743.651511614
710.964230386
679.156006332
648.505646337
619.169052343
591.150653076
564.468961643
539.151440058
515.226445488
492.668203837
471.42442082
451.488244476
432.950853184
415.785487618
399.844250957
385.045627296
371.509690048
359.383216377
348.698191988
749.277701221
716.022198982
683.462921091
652.124996124
622.451771601
594.615358156
568.554878196
544.129488183
521.21185072
499.759950681
479.91389563
462.086683482
446.440189968
432.519758923
419.241370412
406.394838341
394.113624335
382.546752493
371.682458018
361.556353896
694.441689867
667.586605343
642.79145355
617.603184775
593.317648165
569.740784839
547.224787923
526.128040387
506.018832329
484.374156893
459.210676957
440.170952218
429.233486682
420.140821821
411.077729447
401.90481751
392.736490693
383.706206905
374.59179854
365.564629532
690.878651201
666.423476515
643.372866872
620.047496377
597.58640727
575.627695198
554.332648016
533.882236733
514.527775618
496.294640044
478.813118947
460.593170322
439.457310369
415.404749058
399.124198625
390.511748087
383.223264164
375.734245754
367.878401406
360.036714516
692.642938246
653.544727414
612.880157279
567.73414271
532.975370308
509.658986127
490.664364539
473.00385926
456.172409051
439.721357236
423.563440799
407.769172368
391.803188582
375.57785151
362.246559413
352.863956674
346.453845419
341.630651455
337.168661006
332.820368647
752.290741373
718.329625603
685.315855713
654.024511552
624.455013276
595.742220609
568.623620488
543.683876123
521.187756795
500.537944567
481.185694433
462.851799143
445.217507822
427.692001816
407.569998927
376.11032389
351.295095663
336.777790506
328.898749355
323.719333515
751.106389129
719.320120479
688.585318307
659.433062189
632.339079331
607.645737859
585.325834625
564.901738915
545.560687998
527.10210832
509.548118019
492.928196305
477.092182599
461.222678347
444.831543272
427.908531148
411.067956436
394.944452589
379.481901636
361.9649826
707.320623484
678.120725067
649.96880891
622.254342759
595.02777989
567.264665426
538.242779821
513.602831703
496.571058579
481.811941739
467.043890299
451.992020386
436.767902184
421.951605215
408.204939514
395.664483269
384.37011932
374.237682097
364.890135776
355.722607389
706.653216907
676.033787497
646.576193527
617.38299273
588.877871074
561.021501597
533.071766355
506.542944127
485.811430327
469.492294649
454.547820786
440.389722431
426.955175373
414.362193287
402.399273569
390.652639259
379.996603994
370.57426974
361.414451785
352.034810165
759.781131456
727.019082862
694.088128605
661.497943027
629.812336891
599.473658451
570.730371152
543.683347635
518.327180531
494.538059129
472.037619369
450.649152994
429.697444807
408.253499562
390.60013448
376.297496477
364.471671775
354.737722807
346.48769528
339.729911522
782.772978048
742.802774034
702.816721286
663.236246799
624.948438492
588.760048736
555.123820217
524.371177569
496.850369511
472.631284536
450.746156325
429.51998906
405.302840968
382.132657525
364.406117552
351.130449201
341.219585529
333.643020136
327.957088932
323.656833559
752.473933773
718.237294679
684.159363025
650.804954381
618.65644528
588.010029748
559.024103575
531.812081748
506.449867661
482.918710196
461.079351277
440.671296153
421.645388475
404.379842281
389.063704206
375.740441553
364.265802422
354.454587226
346.169255374
339.328028507
664.547575659
643.958108384
625.249662557
605.733175983
586.415885361
567.03372504
547.698571731
528.609729528
510.226113787
492.762352917
475.034066919
454.057312452
433.017732783
418.170426515
405.807205695
394.192402262
383.213927689
372.872727325
363.404198616
355.10325036
657.971199504
639.289552545
621.844192874
603.621430707
585.654527917
567.931669382
550.661438343
533.765753674
517.457676143
501.561661477
486.133591889
470.756961212
454.885292362
438.949814021
424.547102125
411.552092675
400.032946192
389.488529601
377.969424989
366.669558937
683.162542628
656.384337852
629.681246932
597.118905713
550.940684387
506.102690644
483.98649007
469.581914942
456.222716992
443.26487023
430.19964993
416.794952065
402.178793276
386.573634234
372.752262949
361.900544354
353.433516277
346.89149094
341.873625331
338.499890031
622.761504367
592.577438458
554.600864931
521.067125527
504.508444619
492.288194055
480.075391678
468.05531921
456.552863018
445.89382324
436.350084252
426.994084818
419.018956851
404.00809683
369.361205822
349.593539863
338.135089445
331.244633209
326.624624328
322.650054821
614.574172468
596.828283246
576.335015013
541.19198595
503.416291673
483.390741853
470.099502942
457.682222304
445.667885071
434.159178886
423.117670982
412.171814677
400.819887422
389.418398741
378.482229877
368.014826143
358.430664622
350.088320934
342.914563799
335.903709243
591.191355357
580.287429146
568.361068344
555.801236026
541.552441322
524.507537572
507.565160279
492.329058289
478.343586628
465.44511917
453.427100045
442.250712556
432.319262735
420.698298632
406.22021999
396.14421227
387.447048574
378.776554234
370.062417538
361.7614031
592.888733558
579.666601043
567.483966339
555.366000515
543.486748461
531.293861891
519.447850801
507.252222107
495.59566264
483.686751926
472.386791724
460.925173545
449.985436021
438.396208016
425.562258917
411.723324108
397.869219389
379.805546818
369.990051136
362.468331884
593.550960428
569.378663309
538.41555058
502.168125008
483.43240845
472.234924793
461.810188285
451.327294603
440.112774958
425.782175533
407.79542933
390.317577468
381.087616257
373.614032106
364.582853163
354.367020114
344.157409144
335.512390622
328.78937202
322.682984377
318.376567985
317.254118929
312.476586857
311.045251361
320.224795514
321.631900054
313.167673654
304.238725313
301.725470374
301.530211675
)
;

boundaryField
{
    emptyPatch
    {
        type            empty;
    }
    minY
    {
        type            fixedValue;
        value           uniform 300;
    }
    maxY
    {
        type            inletOutlet;
        inletValue      nonuniform List<scalar> 0();
        value           nonuniform List<scalar> 0();
    }
    maxX
    {
        type            fixedValue;
        value           nonuniform List<scalar> 0();
    }
    water_to_heater
    {
        type            copiedFixedValue;
        sourceFieldName T.liquid;
        value           nonuniform List<scalar> 
59
(
794.323562198
794.377896576
794.485609661
794.494186765
794.54141838
794.544690621
794.615013292
794.651750153
794.624028126
794.519950754
794.554621039
794.653978292
795.545156018
795.992319287
796.667006301
796.677916248
796.715155862
796.790558534
796.946370433
797.031339044
796.58962646
796.073094231
795.494872925
795.445656726
795.497416674
795.441556039
795.845965246
796.335289421
796.37289102
795.873363733
795.568106223
795.699176765
795.675810462
795.635645528
795.860545838
795.771528782
795.818654463
795.816162954
795.762756728
795.860211815
795.865388794
795.857831927
795.810310084
796.534714814
796.437336257
795.627944597
795.652161633
795.820001521
795.935659641
795.888976464
795.966296728
796.036307528
796.103721095
796.122722652
796.172939934
796.201067516
796.22773654
796.22325853
796.154636136
)
;
    }
    procBoundary0to1
    {
        type            processor;
        value           nonuniform List<scalar> 
38
(
304.603895725
307.612720901
309.086509617
315.50717707
320.540459982
320.990769271
318.523084609
311.830494497
322.093233475
326.70036467
324.460400883
312.571507558
306.038411857
306.115026286
312.323100924
319.547685244
315.802066036
309.016561267
312.886341778
321.785934997
326.708678494
314.327845251
305.790505839
304.539185644
323.046038103
321.533143075
307.235911389
306.695657919
305.478157151
303.843166116
303.310837743
307.174794411
306.874273685
303.871968579
301.370508709
300.543056141
300.395713154
304.603895725
)
;
    }
    procBoundary0to3
    {
        type            processor;
        value           nonuniform List<scalar> 
20
(
746.668350549
710.767960825
676.36894922
643.639095104
612.683468721
584.045776729
556.853938761
530.538566911
505.16451861
481.118469113
458.656331707
437.390451323
417.203560928
398.603465749
381.630010905
366.60330879
354.178954854
344.539391857
337.200630101
331.552076341
)
;
    }
}


// ************************************************************************* //
