/*--------------------------------*- C++ -*----------------------------------*\
| =========                 |                                                 |
| \\      /  F ield         | OpenFOAM: The Open Source CFD Toolbox           |
|  \\    /   O peration     | Version:  2312                                  |
|   \\  /    A nd           | Website:  www.openfoam.com                      |
|    \\/     M anipulation  |                                                 |
\*---------------------------------------------------------------------------*/
FoamFile
{
    version     2.0;
    format      ascii;
    arch        "LSB;label=32;scalar=64";
    class       volScalarField;
    location    "0.055/water";
    object      p_rgh;
}
// * * * * * * * * * * * * * * * * * * * * * * * * * * * * * * * * * * * * * //

dimensions      [1 -1 -2 0 0 0 0];

internalField   nonuniform List<scalar> 
6000
(
101685.122867
101681.64782
101680.796788
101679.868719
101678.936825
101678.053663
101677.220366
101676.446228
101675.741116
101675.104429
101674.534301
101674.02858
101673.583534
101673.195042
101672.859355
101672.573237
101672.333876
101672.138804
101671.985799
101671.872852
101668.982156
101673.134552
101675.661974
101676.614138
101676.473269
101676.098501
101675.631457
101675.135066
101674.642654
101674.179987
101673.761117
101673.387177
101673.053789
101672.757527
101672.496976
101672.271883
101672.082323
101671.928217
101671.809217
101671.724792
101653.603945
101660.363529
101666.582338
101670.017315
101671.498091
101672.226492
101672.529907
101672.557929
101672.450672
101672.301191
101672.146763
101672.002257
101671.872692
101671.757542
101671.655777
101671.567736
101671.494821
101671.43876
101671.401176
101671.383408
101642.281534
101648.545882
101657.162776
101663.08874
101666.502187
101668.440861
101669.493199
101669.984671
101670.188292
101670.295147
101670.37327
101670.439871
101670.502664
101670.563794
101670.622819
101670.679808
101670.735878
101670.792702
101670.852156
101670.915968
101631.578546
101636.147902
101645.172636
101653.694455
101660.169648
101664.290414
101666.581608
101667.73443
101668.275321
101668.588226
101668.836202
101669.0558
101669.260177
101669.455099
101669.639853
101669.813776
101669.977234
101670.131214
101670.277108
101670.416096
101623.475302
101625.792189
101633.384768
101642.969664
101652.279002
101659.205266
101663.338173
101665.541013
101666.620881
101667.200396
101667.614653
101667.957023
101668.261348
101668.549718
101668.823774
101669.082263
101669.324849
101669.551934
101669.76443
101669.962935
101615.66438
101616.487321
101622.798772
101632.321122
101643.287551
101652.729615
101659.068844
101662.798788
101664.849408
101665.98377
101666.691346
101667.17458
101667.553796
101667.904055
101668.23633
101668.549637
101668.843622
101669.118652
101669.375492
101669.614598
101607.92492
101608.706905
101614.758809
101623.86565
101635.091469
101645.703046
101653.602782
101658.798938
101662.235857
101664.584083
101666.028133
101666.75223
101667.18456
101667.563671
101667.921419
101668.258214
101668.574412
101668.87077
101669.148241
101669.407468
101599.756849
101602.104893
101608.771418
101617.886832
101628.948075
101639.49261
101647.469274
101653.072016
101657.80077
101662.337705
101665.521109
101666.738114
101667.196211
101667.559066
101667.900281
101668.223145
101668.528971
101668.818818
101669.093449
101669.353202
101591.869956
101596.921171
101604.405802
101614.015103
101624.798002
101634.314334
101640.840393
101645.542254
101651.254674
101659.015135
101665.138651
101667.141445
101667.581772
101667.867192
101668.141195
101668.410582
101668.675592
101668.935739
101669.19005
101669.437025
101586.371789
101594.214564
101602.411592
101611.754472
101621.407272
101628.672384
101632.660679
101636.333088
101643.853267
101655.611737
101664.824937
101667.682614
101668.126247
101668.313496
101668.50115
101668.706098
101668.925146
101669.153965
101669.388214
101669.623518
101578.90294
101589.157196
101599.01446
101607.786
101615.116218
101618.945196
101620.664656
101625.189326
101636.490869
101652.036204
101663.595355
101667.584546
101668.367187
101668.585739
101668.755555
101668.949182
101669.164742
101669.395498
101669.63513
101669.877754
101571.402768
101583.304076
101593.552929
101600.601657
101603.775568
101603.67326
101604.847825
101612.595147
101628.192555
101646.297282
101659.659448
101665.740631
101667.896677
101668.527989
101668.810246
101669.081739
101669.361066
101669.643454
101669.924118
101670.198699
101561.558906
101573.838809
101583.543216
101587.751031
101587.202732
101586.363953
101589.331466
101600.526379
101618.568777
101637.228649
101650.968877
101660.05019
101666.070182
101668.284218
101668.840411
101669.246402
101669.627665
101669.986495
101670.322892
101670.636726
101554.992205
101567.913294
101573.142524
101573.985884
101573.43061
101574.418218
101580.267012
101593.361257
101610.949894
101627.074323
101637.062532
101647.265216
101660.811321
101667.994922
101669.210938
101669.730784
101670.182075
101670.584745
101670.946042
101671.271271
101550.109071
101562.184995
101564.032736
101565.116267
101566.060079
101569.033973
101576.799627
101590.994805
101608.498201
101619.01857
101620.983082
101628.396994
101650.656169
101667.508137
101670.290345
101670.817041
101671.222384
101671.572
101671.879811
101672.154566
101546.717908
101560.479421
101561.015268
101561.820309
101562.895121
101566.388399
101575.340878
101591.263681
101608.473846
101612.30068
101607.844985
101613.447063
101641.992684
101667.442528
101672.116884
101672.514344
101672.730993
101672.915201
101673.083875
101673.244532
101542.78209
101557.442405
101557.630863
101558.599671
101560.313161
101565.588077
101577.131714
101594.681422
101609.108215
101607.427007
101597.94072
101605.765862
101640.454344
101668.641076
101674.005779
101674.288867
101674.315594
101674.323565
101674.341604
101674.379311
101536.955111
101554.941792
101554.976567
101556.82323
101560.407393
101568.507198
101582.566631
101599.759539
101607.41417
101602.536565
101588.8014
101600.885005
101640.970661
101670.004751
101675.182186
101675.501784
101675.487908
101675.429023
101675.379122
101675.357804
101530.477655
101550.198191
101550.779085
101554.330797
101560.906374
101572.063643
101587.37744
101601.294546
101604.034807
101593.557957
101577.964732
101595.392882
101641.244179
101670.25703
101675.173785
101675.771248
101675.934791
101675.983849
101676.008251
101676.042006
101521.755134
101543.44674
101544.975114
101549.250405
101557.077965
101569.729166
101585.41615
101596.430446
101596.16994
101577.581183
101563.616766
101587.044477
101638.647153
101668.358438
101673.597459
101674.874268
101675.497701
101675.879661
101676.159975
101676.393067
101512.795813
101536.08944
101538.427453
101541.918494
101549.032763
101561.882809
101577.712316
101587.716137
101578.692478
101552.210998
101543.405485
101572.52227
101630.182108
101662.676675
101669.999727
101672.649725
101674.135029
101675.138421
101675.885252
101676.472901
101504.971917
101528.152709
101530.788186
101532.869134
101538.387972
101550.333336
101564.474593
101567.805581
101549.984533
101518.501566
101515.810268
101549.599721
101611.437748
101652.193574
101664.269047
101669.192128
101672.031938
101673.964225
101675.372257
101676.438983
101499.084628
101519.837141
101520.626698
101520.689544
101523.846145
101534.36289
101545.974255
101542.895994
101520.067966
101493.604253
101494.07322
101524.670816
101587.035957
101638.772985
101657.402288
101665.083542
101669.627317
101672.705965
101674.893231
101676.48979
101494.227517
101511.217293
101508.278419
101504.907598
101507.864817
101519.142434
101530.481551
101524.925877
101500.160853
101487.826262
101489.176101
101507.031979
101566.216839
101626.252989
101651.266635
101661.224044
101667.354337
101671.627655
101674.639898
101676.761082
101488.8378
101502.98062
101496.504244
101490.229579
101494.439666
101508.642271
101522.133442
101516.550947
101491.968069
101483.649377
101484.097496
101496.575596
101552.562938
101617.351902
101647.505407
101658.802107
101665.786671
101670.969449
101674.729219
101677.330961
101484.964028
101496.830327
101488.110384
101479.889147
101484.783941
101501.350683
101517.25065
101512.450756
101487.874933
101478.917513
101480.166166
101489.439941
101543.621447
101611.571105
101645.958278
101658.249488
101665.413803
101671.01708
101675.296944
101678.284279
101481.285884
101491.953008
101481.946894
101472.555693
101477.814984
101495.874595
101513.372857
101508.976882
101483.733002
101474.974306
101475.337025
101483.912524
101537.307354
101607.664157
101645.627621
101658.941215
101666.125488
101671.837261
101676.412114
101679.674991
101477.0853
101486.138471
101474.576117
101465.072733
101471.522682
101491.518964
101510.024158
101505.380112
101479.13537
101470.223521
101471.543137
101479.100991
101532.472302
101604.80098
101645.849693
101660.224976
101667.483825
101673.23329
101677.998456
101681.478948
101475.217884
101478.954688
101464.865658
101456.402869
101465.280606
101487.879442
101507.047605
101501.433021
101473.503089
101466.465524
101466.758114
101474.840557
101528.411773
101602.457517
101646.353173
101661.854002
101669.226452
101675.003117
101679.932857
101683.628648
101472.015084
101469.103139
101452.153089
101447.127832
101459.795565
101485.277552
101504.611234
101497.478918
101467.77082
101461.909646
101463.296389
101470.596315
101524.239871
101599.924417
101646.890906
101663.767134
101671.281328
101677.057071
101682.13731
101686.063565
101468.025008
101455.326192
101438.15031
101438.734863
101455.966074
101484.373208
101503.295794
101494.62578
101462.623684
101458.867525
101458.996196
101466.352995
101519.285441
101596.547876
101647.242971
101665.968752
101673.69638
101679.420457
101684.60427
101688.761061
101457.437285
101438.495433
101426.406349
101432.246026
101454.043452
101485.152648
101503.610633
101493.122919
101458.852621
101455.166323
101456.51226
101461.910207
101513.33398
101592.031555
101647.217819
101668.484656
101676.585524
101682.19048
101687.387455
101691.74211
101441.174837
101423.626243
101418.179135
101427.65443
101453.772228
101487.872821
101506.571523
101494.271036
101456.737014
101453.595636
101453.527514
101458.358165
101508.268287
101587.807028
101647.163789
101671.449622
101680.097895
101685.507091
101690.599047
101695.074918
101429.915553
101415.899811
101416.141435
101425.609973
101455.475796
101493.407768
101513.347732
101499.504203
101457.308563
101451.488835
101452.678748
101456.503659
101506.948161
101587.093095
101648.416783
101675.153074
101684.318028
101689.517519
101694.391811
101698.867578
101423.587195
101413.582646
101414.804558
101426.751689
101461.487494
101503.529713
101525.244909
101510.37655
101462.400187
101451.347859
101451.254789
101456.843616
101509.811773
101590.792251
101652.36955
101679.894343
101689.197044
101694.159375
101698.796734
101703.130331
101417.774481
101412.881103
101416.000928
101434.673195
101474.447798
101520.069
101543.203238
101528.118462
101475.119051
101450.640949
101451.437658
101462.643948
101522.067675
101601.262191
101659.284098
101685.915779
101694.925747
101699.4312
101703.682952
101707.730881
101410.611392
101414.067191
101424.624737
101450.819393
101495.273935
101543.856816
101567.110295
101552.073161
101496.561898
101456.940348
101454.907977
101480.694333
101547.420129
101621.011999
101671.219817
101693.901818
101701.565452
101705.472493
101709.263844
101712.794077
101403.922297
101418.704118
101437.946664
101472.060528
101521.519143
101572.696211
101595.037501
101580.46004
101527.672996
101483.496249
101483.350107
101516.73903
101582.638855
101646.748613
101686.757835
101703.193307
101708.747414
101712.019263
101715.271667
101717.951583
101398.348477
101427.037432
101453.552906
101495.520642
101549.297512
101599.973777
101619.64126
101609.154816
101570.378243
101533.640978
101535.204313
101565.099546
101621.099987
101673.334968
101702.158958
101712.166827
101715.783725
101718.425693
101720.836427
101722.363025
101396.256262
101440.167466
101473.880144
101522.19989
101577.223405
101620.492523
101627.778094
101626.25746
101611.850041
101589.543198
101589.63092
101611.086801
101655.730485
101695.764011
101713.860339
101719.243454
101721.626959
101723.466888
101724.687841
101725.142582
101394.426639
101460.951053
101503.442099
101554.652392
101604.305652
101629.51063
101629.158825
101628.219224
101627.01656
101623.037095
101621.794384
101641.043312
101680.947851
101709.954949
101720.055525
101723.12874
101724.65936
101725.496735
101725.757888
101725.687014
101398.594537
101491.977535
101541.680816
101589.27511
101624.427812
101629.309289
101627.708317
101626.312112
101625.022836
101623.414151
101622.188132
101651.868105
101692.673347
101713.951805
101720.217627
101722.251637
101723.133664
101723.475932
101723.592543
101723.639025
101427.562494
101521.573566
101562.278528
101594.607899
101619.085763
101622.127128
101619.768108
101617.642666
101608.573547
101593.963598
101602.713129
101642.808687
101686.527006
101707.106251
101713.165426
101715.279299
101716.486496
101717.385639
101718.19244
101718.964397
101455.243409
101508.71488
101526.576247
101544.96593
101563.668799
101573.940575
101572.761479
101556.780291
101524.035559
101505.927777
101532.197295
101588.031736
101648.900507
101684.195669
101696.565145
101701.282479
101704.377209
101707.109736
101709.633674
101711.950029
101416.84174
101419.756373
101395.931769
101376.336047
101391.25747
101417.36056
101432.585393
101431.748042
101416.89725
101409.930523
101424.63192
101459.856482
101529.683991
101615.899759
101663.033868
101679.171346
101686.696746
101692.709091
101698.145567
101702.980187
101369.505849
101312.172195
101247.095511
101222.863836
101229.01385
101245.044082
101267.447716
101306.09504
101348.642293
101372.428933
101381.398775
101385.718611
101401.103559
101481.260658
101591.06722
101648.345732
101667.433971
101677.634061
101686.155594
101693.756915
101315.743764
101244.377457
101200.672125
101198.879173
101200.610685
101199.329118
101200.597965
101215.643961
101283.177169
101350.517726
101376.425076
101379.939151
101382.574389
101389.57083
101485.281089
101599.48779
101649.249593
101666.375308
101677.125516
101686.583872
101261.030549
101222.599664
101201.687986
101202.892287
101200.536161
101202.86532
101201.185003
101202.806197
101229.688611
101315.161061
101375.863717
101390.277944
101384.135791
101385.904143
101419.050084
101531.966547
101626.863938
101659.628775
101672.891021
101682.990216
101236.899433
101218.688665
101205.199653
101202.877237
101205.177048
101202.710707
101205.127796
101204.015677
101213.375537
101275.048786
101365.981154
101403.677698
101397.143273
101387.759557
101401.802246
101479.449906
101595.663832
101654.645181
101673.017657
101683.304744
101229.859619
101221.642808
101206.651908
101207.549065
101205.05315
101207.518824
101205.527831
101207.475279
101211.709041
101257.539732
101347.705391
101408.563271
101410.821842
101397.157169
101402.781702
101456.410175
101565.924153
101648.95081
101676.161995
101686.949648
101231.690898
101229.274767
101209.997793
101208.184853
101209.968538
101207.803188
101209.92474
101208.840906
101213.38957
101255.046422
101338.576646
101411.486404
101420.249602
101407.763718
101408.14539
101450.124113
101549.702344
101643.583501
101681.08697
101693.005539
101235.146501
101242.546401
101219.199067
101212.437029
101210.685769
101212.409887
101210.909879
101212.375141
101216.576659
101259.236524
101340.798384
101414.314922
101426.157822
101415.571702
101414.241793
101452.533512
101547.208253
101643.254754
101687.481499
101700.690209
101241.491172
101256.505406
101234.857936
101214.476484
101214.952755
101213.857911
101214.922553
101214.582683
101224.150901
101270.533242
101349.499792
101419.74763
101431.548366
101421.921369
101421.453046
101459.930813
101554.320246
101649.919802
101695.846835
101709.426188
101252.808727
101270.104093
101250.278036
101220.411268
101217.110706
101217.504434
101217.189221
101219.209129
101242.077134
101294.574527
101367.764549
101428.270191
101436.489445
101428.031467
101430.780745
101474.733358
101569.501218
101661.652433
101705.814087
101718.75771
101267.903258
101282.871481
101263.089494
101235.904803
101223.757857
101223.309202
101226.493863
101240.424503
101275.510609
101329.948505
101394.607857
101439.41463
101441.447175
101434.85739
101444.349759
101500.207844
101596.890142
101680.016227
101717.461645
101728.46586
101281.17989
101292.936791
101274.581569
101256.756309
101244.970751
101247.186236
101257.929117
101282.392899
101320.689597
101371.118378
101423.066324
101448.370935
101446.833666
101443.839576
101464.952198
101535.859729
101631.741459
101701.644477
101729.566413
101737.959207
101288.019729
101298.415577
101282.953564
101273.503147
101272.847803
101283.244476
101303.105243
101331.360468
101366.686265
101407.743331
101442.583884
101452.900717
101451.244983
101456.593663
101496.106515
101578.658354
101666.853159
101721.135003
101740.344057
101746.698552
101293.583334
101300.423283
101286.093358
101281.709978
101291.515572
101314.490443
101343.223336
101372.833331
101402.313038
101430.024162
101448.751873
101454.995541
101458.241745
101478.834873
101537.538333
101622.625156
101697.12254
101736.386826
101749.360957
101754.555586
101299.200969
101300.784916
101285.348233
101282.971653
101299.364563
101333.360179
101370.070801
101400.416353
101422.731847
101438.552324
101449.88442
101458.047291
101473.417698
101513.605965
101583.562058
101661.883799
101720.564313
101747.790589
101756.95423
101761.644686
101300.466175
101300.136364
101283.509358
101281.697456
101302.036441
101343.682752
101386.322954
101416.349057
101432.334648
101441.425197
101451.102075
101466.851818
101499.668368
101556.033364
101627.034266
101693.673641
101737.79841
101756.536653
101763.583734
101768.157758
101298.019281
101297.781438
101282.119089
101280.921413
101303.795203
101350.504742
101397.146894
101426.242792
101437.625684
101443.607148
101455.290674
101483.885333
101534.123281
101598.447203
101664.007457
101718.295054
101750.541012
101763.692514
101769.621911
101774.273152
101290.190478
101295.970071
101282.05909
101282.103622
101307.114326
101357.371241
101406.604824
101434.404152
101442.380322
101447.322859
101464.585025
101507.337639
101569.95027
101635.683698
101694.059957
101737.310442
101760.389764
101769.95982
101775.327847
101780.116122
101287.146973
101295.667271
101282.184931
101284.575967
101312.841995
101366.486324
101417.523177
101443.659603
101448.897723
101454.11827
101478.088559
101532.078525
101601.358171
101666.172825
101718.183763
101752.151826
101768.427013
101775.744113
101780.861151
101785.741673
101285.945425
101297.724876
101283.010529
101287.805672
101321.028464
101379.230986
101431.85954
101455.874043
101458.599677
101464.122316
101493.077157
101553.941813
101626.507478
101690.544699
101737.421365
101763.780217
101775.286431
101781.252658
101786.276651
101791.120808
101288.008364
101302.579518
101285.882516
101292.342848
101331.308333
101395.631304
101450.289808
101471.748391
101471.697666
101476.405742
101507.909489
101572.419345
101646.805094
101710.375672
101752.645144
101772.873392
101781.302123
101786.539766
101791.506533
101796.14237
101289.798207
101309.15634
101291.498185
101298.703183
101342.456358
101413.063696
101470.201051
101489.153397
101486.777215
101490.216843
101522.613988
101588.954549
101664.433953
101727.1629
101764.536205
101779.955942
101786.605342
101791.519927
101796.366707
101800.647476
101288.310307
101314.441535
101297.689152
101305.771546
101353.03687
101427.864774
101486.173593
101503.516218
101499.890126
101503.131262
101536.555253
101603.937385
101680.222989
101741.336057
101773.418467
101785.384268
101791.183946
101795.990487
101800.614059
101804.486431
101289.322062
101313.743936
101297.255691
101307.118074
101358.083788
101435.939995
101493.170903
101506.881608
101505.425682
101510.512643
101545.918371
101614.392468
101692.553215
101751.874459
101779.340209
101789.356734
101794.927588
101799.688146
101804.034573
101807.563438
101295.227503
101305.616468
101291.133683
101299.708865
101352.839484
101433.653751
101490.493713
101502.288106
101502.179637
101508.56065
101546.253113
101616.333799
101698.155094
101757.307703
101782.383615
101791.916285
101797.62904
101802.362565
101806.503139
101809.84575
101297.984728
101296.209099
101281.186001
101287.155918
101340.256821
101423.034528
101481.314701
101495.589286
101493.376487
101501.231306
101540.465855
101611.949629
101696.525577
101757.648466
101782.804848
101792.896545
101799.008963
101803.857213
101808.000939
101811.362568
101287.816135
101285.967418
101264.351901
101265.252494
101313.483311
101395.208362
101456.445431
101474.679416
101473.467449
101483.738628
101524.517054
101598.213298
101689.056778
101754.839577
101781.524328
101792.389477
101799.081742
101804.291171
101808.687556
101812.261294
101269.638385
101270.454128
101241.4568
101236.772963
101277.315245
101349.497192
101411.23814
101434.377279
101437.011841
101449.162335
101490.406836
101566.972674
101667.760831
101746.584087
101779.019637
101791.378387
101798.690326
101804.323678
101809.061213
101812.919329
101250.921237
101249.033696
101226.304604
101227.293166
101250.552124
101307.211758
101362.44647
101386.947528
101392.449971
101406.247123
101448.38366
101526.410272
101633.243391
101729.797531
101774.541196
101790.093799
101798.35977
101804.49715
101809.578641
101813.69919
101241.749137
101238.169564
101221.256433
101220.630857
101236.89931
101283.347216
101330.06498
101351.896503
101359.18605
101375.680672
101419.574543
101496.349194
101600.848547
101708.249697
101768.220529
101788.610458
101798.053146
101804.740908
101810.192448
101814.576096
101234.001666
101232.943217
101215.008782
101215.989346
101228.916448
101271.578929
101314.065001
101334.116364
101343.029863
101362.124763
101407.374088
101482.316597
101581.555961
101690.126698
101761.601123
101787.380254
101797.972137
101805.125346
101810.922008
101815.555363
101222.561225
101228.399875
101210.187908
101209.727882
101222.85117
101263.714692
101304.703113
101324.616067
101334.775389
101355.519167
101401.756017
101475.969602
101571.901584
101678.531414
101756.385533
101786.831201
101798.395998
101805.833859
101811.879308
101816.715912
101206.623996
101225.231881
101204.098682
101204.59392
101217.686779
101257.179968
101296.960107
101317.062716
101328.178347
101350.202101
101397.551403
101471.662846
101565.963227
101671.168093
101752.786774
101786.932227
101799.310214
101806.890752
101813.077487
101818.060257
101198.384901
101221.444662
101198.919987
101198.45732
101212.224601
101250.497056
101289.159256
101309.502599
101321.577277
101344.961189
101393.731763
101468.268077
101561.340578
101665.617213
101750.099294
101787.397729
101800.510008
101808.175575
101814.437021
101819.523737
101192.194694
101216.549948
101192.832121
101193.219764
101205.675261
101242.491159
101280.184696
101300.954514
101314.252631
101339.344381
101389.972096
101465.768183
101558.010824
101661.255569
101747.886446
101788.033321
101801.846878
101809.575634
101815.885419
101821.052643
101186.315517
101212.098126
101187.473139
101187.081772
101198.452596
101233.210556
101269.888941
101291.199615
101305.990491
101333.190403
101386.163185
101463.553827
101556.533356
101658.645256
101746.476169
101788.863864
101803.289699
101811.040937
101817.384422
101822.619955
101181.276219
101208.986222
101184.760261
101181.639616
101191.960548
101223.97903
101258.98544
101280.614714
101296.996187
101326.640157
101382.509364
101461.858028
101555.630747
101658.084947
101746.324964
101790.018298
101804.86381
101812.590843
101818.923187
101824.215024
101175.804393
101207.639945
101184.570702
101175.701392
101187.130711
101216.755677
101248.977458
101270.189847
101287.977578
101320.301354
101379.328757
101461.09187
101555.686359
101658.304299
101747.119662
101791.47459
101806.534054
101814.254173
101820.527027
101825.836824
101169.905054
101204.736412
101180.849469
101170.83267
101183.153718
101211.405198
101240.853182
101261.171528
101280.04802
101315.086825
101377.136387
101461.659737
101557.209526
101659.405065
101748.313262
101793.053914
101808.219566
101815.953517
101822.203763
101827.468877
101163.813082
101199.428404
101174.441478
101165.061431
101178.194535
101205.918529
101234.005305
101253.779979
101273.64925
101310.982395
101376.223609
101463.64341
101560.240149
101661.915942
101750.21211
101794.892319
101809.972711
101817.620152
101823.857757
101829.100547
101158.214572
101193.781286
101168.256157
101159.189002
101172.381952
101199.915409
101227.440475
101247.246617
101268.230595
101307.613667
101376.420937
101466.66942
101564.317287
101665.699768
101753.088262
101797.07386
101811.802299
101819.267763
101825.428846
101830.66155
101151.127306
101188.669973
101163.908951
101154.027597
101166.410383
101192.962731
101220.296151
101240.59428
101262.869601
101304.954226
101377.150795
101470.031868
101568.71614
101670.057556
101756.503206
101799.349742
101813.578638
101820.844413
101826.904477
101832.098367
101145.200607
101183.885576
101160.987842
101149.68862
101160.269292
101184.715034
101211.785423
101232.943835
101256.853368
101301.918763
101377.575749
101473.102201
101572.816145
101674.209335
101759.756182
101801.398989
101815.148693
101822.256044
101828.238124
101833.395205
101137.059831
101177.23373
101154.201685
101143.592523
101152.886672
101174.835042
101201.424315
101223.688675
101249.674449
101297.919474
101377.384926
101475.675304
101576.356299
101677.720925
101762.454037
101803.091198
101816.458385
101823.452547
101829.388066
101834.529161
101129.601581
101169.862368
101145.953323
101135.312167
101143.284236
101162.992127
101189.088637
101212.631992
101241.200437
101293.362207
101376.923114
101477.987716
101579.475279
101680.621879
101764.599255
101804.473886
101817.546465
101824.450289
101830.355379
101835.490821
101120.961826
101162.367982
101137.927236
101125.67173
101132.117903
101150.017898
101175.788422
101200.899378
101232.689518
101289.169689
101376.90125
101480.585142
101582.566835
101683.214218
101766.393719
101805.649291
101818.468294
101825.281495
101831.15748
101836.291236
101115.297607
101154.211866
101131.580088
101118.218664
101120.974641
101136.82128
101162.671573
101189.956564
101225.747547
101286.211767
101378.028364
101483.883764
101585.794106
101685.590639
101767.99855
101806.665432
101819.236502
101825.951366
101831.795123
101836.933265
101105.916553
101148.190856
101127.66192
101111.420965
101110.74374
101124.574859
101150.464045
101180.313645
101219.905594
101284.908845
101380.445226
101487.356534
101588.229953
101686.92309
101769.066443
101807.425966
101819.809331
101826.434743
101832.25406
101837.407125
101098.974838
101139.571406
101119.212689
101102.707833
101099.075691
101111.611622
101137.879611
101170.852542
101214.395486
101284.105271
101382.289429
101488.619659
101587.728205
101686.033463
101768.836211
101807.828592
101820.137671
101826.709757
101832.521219
101837.702477
101085.914706
101132.244994
101110.168336
101091.733762
101084.736463
101095.99009
101123.036521
101159.971653
101207.495527
101280.72361
101380.336996
101485.862687
101584.816593
101683.887796
101767.786087
101807.555369
101820.210326
101826.798188
101832.611094
101837.8571
101082.387836
101124.208326
101101.105392
101078.099482
101066.564297
101075.939885
101103.323336
101145.120247
101198.195977
101274.141426
101375.099866
101481.227419
101580.293263
101679.691718
101765.39883
101806.943182
101820.096917
101826.766399
101832.624008
101837.925028
101069.481532
101121.512403
101096.578013
101067.744328
101048.774188
101053.628873
101078.408514
101124.121959
101183.753609
101264.655168
101367.747143
101474.22675
101573.047707
101672.649067
101761.113971
101805.920658
101819.999449
101826.795699
101832.669506
101838.007398
101069.713915
101121.814731
101096.466361
101062.510725
101035.601963
101032.733526
101052.021088
101097.969903
101163.139916
101250.13889
101356.70175
101464.840188
101564.651075
101664.765935
101756.00504
101804.838316
101820.207378
101827.104121
101832.928738
101838.246012
101057.990495
101127.752292
101098.964209
101061.571844
101028.205643
101018.165369
101031.975012
101074.012133
101141.75298
101234.268855
101345.408213
101457.191286
101559.443345
101660.156345
101752.811201
101804.644759
101821.032561
101827.875429
101833.540657
101838.722226
101059.729319
101134.108991
101102.174067
101063.187054
101023.840196
101012.390434
101021.14037
101059.489438
101128.215022
101224.982724
101340.355101
101455.25368
101559.146931
101660.438503
101753.421708
101806.007191
101822.561807
101829.174484
101834.529258
101839.440246
101051.457472
101142.970622
101109.435782
101070.557086
101024.527667
101008.453738
101016.983355
101054.974265
101124.831957
101223.900918
101341.823202
101459.07179
101564.608112
101666.085831
101757.920966
101809.138053
101824.912369
101830.961382
101835.86355
101840.337387
101054.915848
101150.237287
101120.842532
101085.113534
101033.29023
101010.626819
101018.690409
101057.895569
101131.217033
101234.657574
101356.004079
101475.118795
101581.338842
101682.485826
101770.005899
101814.97069
101827.88241
101832.980237
101837.285297
101841.14178
101050.058026
101151.193379
101136.912114
101106.255096
101051.208063
101024.060537
101032.745862
101077.056249
101157.347839
101264.713781
101386.166157
101502.952818
101607.876364
101708.446346
101787.893112
101821.806146
101830.671259
101834.666384
101838.274048
101841.38541
101048.489668
101147.132261
101147.767694
101126.144871
101073.197984
101044.940719
101057.425371
101111.506639
101199.754137
101307.678385
101424.114204
101534.691433
101637.848519
101737.414491
101804.667942
101826.721603
101832.234139
101835.264752
101838.141526
101840.499957
101067.632741
101144.524087
101143.122683
101140.17101
101090.661342
101062.445235
101083.007312
101150.517487
101245.278782
101350.645506
101459.462024