/*--------------------------------*- C++ -*----------------------------------*\
| =========                 |                                                 |
| \\      /  F ield         | OpenFOAM: The Open Source CFD Toolbox           |
|  \\    /   O peration     | Version:  2312                                  |
|   \\  /    A nd           | Website:  www.openfoam.com                      |
|    \\/     M anipulation  |                                                 |
\*---------------------------------------------------------------------------*/
FoamFile
{
    version     2.0;
    format      ascii;
    arch        "LSB;label=32;scalar=64";
    class       volScalarField;
    location    "0.24/water";
    object      k.gas;
}
// * * * * * * * * * * * * * * * * * * * * * * * * * * * * * * * * * * * * * //

dimensions      [0 2 -2 0 0 0 0];

internalField   nonuniform List<scalar> 
1503
(
0.0356134335544
0.00842336325332
0.00231032498643
0.000914719997114
0.000995083781999
0.00118378647439
0.00124944058786
0.00126731221434
0.00127278341809
0.00127226776117
0.00126855067759
0.00126321496697
0.00125755829006
0.00125235737995
0.00124797007384
0.00124448496191
0.00124184052858
0.00123991077373
0.00123855878009
0.0012376661856
0.48391385131
0.150623952406
0.0416793238179
0.0137115739832
0.00387393807991
0.00177579252773
0.00120034964657
0.00123036384114
0.00127352117963
0.00128214770564
0.00128083872668
0.00127626917933
0.00127015295759
0.00126350467506
0.00125706386321
0.00125132257615
0.00124653530164
0.00124276719661
0.00123996321009
0.00123801476194
0.678381297369
0.255101723555
0.0917835041111
0.0311749000779
0.0112455094377
0.00374605864877
0.00167356982404
0.00120075973179
0.00125214272467
0.00128519444666
0.00129008712853
0.00128821869614
0.00128357970724
0.0012774099461
0.0012705249914
0.00126361357738
0.00125723091997
0.00125175058861
0.00124735818706
0.00124409259246
0.833309004329
0.332638673143
0.132353334043
0.0507613558514
0.0214003496833
0.00689075237657
0.00262362834433
0.00135646265439
0.00121919552517
0.00127804826211
0.00129371589961
0.00129521423629
0.00129281839078
0.00128820273716
0.00128216396313
0.00127534421422
0.00126838035356
0.00126185297291
0.00125620231874
0.00125169221186
0.909286115694
0.381885429266
0.161424663044
0.0677218040682
0.0265859062697
0.011913684589
0.0036373847726
0.00163996183684
0.00120433704635
0.00126002937439
0.00129342195726
0.00129872598193
0.00129874361618
0.00129604786517
0.001291453145
0.00128550407259
0.00127877066925
0.00127188514502
0.00126545180434
0.0012599475244
0.917251118995
0.404838938657
0.180661046934
0.0807551638744
0.0348186156059
0.0135177382282
0.00584490406101
0.0018407772481
0.0011796628179
0.00122379792532
0.00128998043971
0.00130040734966
0.00130244100627
0.00130160316842
0.00129855529286
0.00129375509551
0.00128766581987
0.00128087269289
0.00127404083678
0.0012677983964
0.912724939987
0.411471803767
0.190483445918
0.0893928527753
0.0411918115578
0.0177892663398
0.0066617671618
0.00264364941233
0.00104590750357
0.00111311587655
0.00127720234617
0.00130212888043
0.0013052349319
0.00130586839126
0.00130418637732
0.00130048234374
0.00129511713923
0.00128859711588
0.00128158085174
0.00127478064752
0.916815872989
0.415319143853
0.195807930707
0.0947455632107
0.0457650080247
0.0213249540068
0.00903995209754
0.00339466170822
0.00119813047611
0.000833323933785
0.001206311257
0.0013037739506
0.00130840263473
0.00130963903974
0.00130893818918
0.0013060818412
0.00130130616069
0.00129504018304
0.00128790663824
0.00128065037539
0.921104344212
0.418482609921
0.198830507277
0.098026563378
0.0490228399224
0.0242387857557
0.011307867693
0.00456452036427
0.00182312464615
0.000668166521292
0.000940204116025
0.00128806906281
0.00131322351643
0.00131357489779
0.00131319052318
0.00131078084669
0.00130632679154
0.00130017503866
0.00129290233037
0.00128526110387
0.92159790839
0.419331566569
0.199836169365
0.0997148408988
0.051273717827
0.026550479426
0.0132992932373
0.00602068132197
0.00223081569178
0.000931074110857
0.000582712180061
0.0011619554938
0.00131810163837
0.00131830595172
0.00131712342786
0.00131461605966
0.00131014440109
0.00130392434552
0.00129648078102
0.001288540975
0.917448078674
0.417433316942
0.19907824758
0.100302151665
0.052833453555
0.0283617363569
0.0149390145792
0.00731470765337
0.00309730982322
0.00107859235224
0.000539305309495
0.000812893795309
0.00130168115587
0.00132421166296
0.00132079394547
0.00131752998744
0.00131270104483
0.00130627111618
0.00129866558133
0.00129052857454
0.91320264502
0.414045283941
0.197524402656
0.100511996673
0.0540369922609
0.029752337995
0.0161413570119
0.00835267531047
0.00390973570671
0.00151482806224
0.000730488300363
0.00051292533516
0.00119402023842
0.0013303832795
0.00132438870435
0.0013196166873
0.00131414660669
0.00130741904407
0.00129968443611
0.00129146493602
0.915374360207
0.413113118993
0.197608222158
0.10155587536
0.0552864146795
0.0307808029814
0.0169611876608
0.00915764580078
0.0046414472462
0.00200845738584
0.000783614627225
0.000485330576155
0.000948639437697
0.00133278430047
0.00132875726469
0.0013214003121
0.00131500598644
0.00130791563504
0.00130007648635
0.00129184354403
0.929135944186
0.419026743718
0.201791805903
0.104413454826
0.0568513916483
0.0315538235643
0.0175465963564
0.00982902299752
0.00535032212424
0.00256675903319
0.00106715921209
0.000638525167574
0.000687266091595
0.00131606614497
0.00133615558241
0.00132409686436
0.0013162953945
0.00130869619359
0.00130067183926
0.00129235763274
0.945562534572
0.436549477445
0.213217116704
0.109674926768
0.0585320246068
0.0320439458084
0.0180444023292
0.010501557929
0.00613071279576
0.00324228199009
0.00143537600321
0.000717981189502
0.000554981035111
0.00121752323234
0.0013503840024
0.00132990988196
0.00131941440572
0.00131090396853
0.00130240851319
0.00129373672538
1.00982354437
0.47646026256
0.231322885885
0.115387761727
0.0597285282329
0.0324669648558
0.0186711912289
0.0112978117845
0.00699263205211
0.00401673089952
0.00188359543275
0.00089435363824
0.000654262064787
0.000886709315041
0.00135759545867
0.0013418232777
0.00132579829073
0.00131555598489
0.0013060660902
0.00129655061552
1.15283784505
0.529795569413
0.247970547003
0.120270496352
0.0614875773667
0.0335702035875
0.0196592698926
0.0122529167975
0.00788923788666
0.0048289012058
0.00240435236427
0.00116293410515
0.000701145405678
0.000571808100825
0.00120396428167
0.00136012498808
0.00133648709536
0.00132319486533
0.00131205311049
0.00130109210769
1.27314412638
0.565681509459
0.261743234117
0.126420351018
0.0645901042596
0.0353742062573
0.020878780473
0.0132157884027
0.00874534978098
0.0055980193313
0.00294679690711
0.00142581955602
0.000923688998208
0.000711466160472
0.000689205397687
0.00134681188278
0.0013516462556
0.00133380193171
0.00132038254641
0.00130740213016
1.31222859328
0.586539849866
0.27206774906
0.131740979952
0.0675389362735
0.0371145747138
0.0219981089142
0.0140471441583
0.00946959649618
0.00626448319436
0.00340928914108
0.00164248209693
0.00110007454189
0.000761602174984
0.000482678070602
0.00111301026628
0.00136722402239
0.00134702713108
0.00133079022097
0.00131537413308
1.3277466814
0.596116611029
0.277356461237
0.134815390959
0.0693867381152
0.0382718430281
0.0227633210522
0.0146491654917
0.0100597570905
0.00683048839971
0.00378086806701
0.0017756231074
0.00120853826368
0.000933514033897
0.000606864192668
0.000652151265441
0.00135740330638
0.00136209059743
0.00134286271505
0.00132482030863
1.33482596488
0.600660549779
0.280240963374
0.136468036373
0.0703578060966
0.038885114832
0.0232272780708
0.0151324867786
0.0106154179447
0.00732112845126
0.00407689390772
0.00187681320999
0.00127062807357
0.00103838223687
0.00061569420466
0.000426485787739
0.00126928837014
0.00137759293069
0.00135605362874
0.0013354096549
1.33915067389
0.604423253408
0.282486837333
0.137547720344
0.0709502362881
0.0393080346559
0.0236609704483
0.0156943642618
0.0111834013265
0.00774313298648
0.00434892579819
0.00198696662056
0.00133260954834
0.00111462228766
0.000729393262878
0.000419011909351
0.00110944988088
0.00139147765584
0.00136946015336
0.00134649886063
1.35429208659
0.609666265934
0.284770120006
0.138621114666
0.0716251406504
0.0398642453371
0.024267665165
0.0163578257818
0.0117005496743
0.00812389587618
0.00465285669527
0.00214935349739
0.0014251708246
0.0012023390149
0.000832367434754
0.000500243715756
0.000950986847343
0.00140267255136
0.00138183418493
0.00135705260882
1.38063719779
0.619688634513
0.288258069389
0.140237000231
0.0726912501258
0.0407207380374
0.0250815899709
0.0170120101611
0.0121437489213
0.0084982327716
0.00502896668993
0.00239595672348
0.00155801190355
0.00132297388364
0.000958101193432
0.000637107515377
0.000817873779139
0.00141221480582
0.0013922629397
0.0013658735017
1.41186879304
0.631478528712
0.292602381415
0.142285782629
0.074042294487
0.0417828714351
0.0259248148996
0.0175499305554
0.01252129835
0.00885989446228
0.00544854907474
0.00268670862715
0.00170041495125
0.00148794807623
0.00113243892185
0.0007615432173
0.000691512490635
0.00141636042648
0.00140099436278
0.00137214238381
1.43663212476
0.640920607114
0.296146632568
0.144163488205
0.075429901317
0.0428681516914
0.0266319344265
0.0179418940994
0.0128013845331
0.00915373078587
0.00580254179537
0.0029081279793
0.00182169174856
0.00163266010034
0.00135930550853
0.000835715769412
0.000605979366798
0.00138671655484
0.00141016782811
0.00137604689502
1.45114918636
0.64367409158
0.296921670626
0.145292556486
0.0767294313192
0.0438541487294
0.0271337049457
0.0181519221782
0.0129156890911
0.0092903413032
0.00594167371837
0.00306183026974
0.00191508169832
0.00173540924822
0.00157147133133
0.00108553499393
0.000687780300168
0.00123780690065
0.00142347223758
0.00137890515053
1.45245327119
0.638933867256
0.295679755503
0.146466887698
0.0782383751694
0.0447272402143
0.027352485345
0.0180719596497
0.0127682335882
0.00910822627224
0.00588943789432
0.00319716312391
0.00197197842144
0.00178986841159
0.0016683388621
0.00130105322599
0.000821067183362
0.000915294915731
0.00143893048664
0.00138241867792
1.42710826254
0.628322298063
0.295533936917
0.149257720847
0.0803522548473
0.0453785402472
0.0271243348088
0.0175931891932
0.012271794504
0.00871293542271
0.00579649259011
0.00328942858897
0.00199712871681
0.00179744207758
0.00170101388352
0.00143264196843
0.00087717556889
0.000652027822931
0.00142278253175
0.00138799557025
1.35760757323
0.619352334983
0.300746512507
0.154733812196
0.0825368735697
0.0451763554073
0.0263731578992
0.0169012361222
0.0116962067758
0.00834805432506
0.00570816109098
0.00334897979551
0.00199705876791
0.00176317324751
0.00168891276397
0.00147625596461
0.00103890940132
0.000663335770892
0.00127780186455
0.00139625979565
1.31018776959
0.626103067197
0.313413900308
0.161878105167
0.0836039363569
0.0449279778619
0.0259059598323
0.0164102124768
0.0113120797563
0.008136296167
0.00568649268978
0.00341724121221
0.00198333265714
0.00169321490529
0.00164286637844
0.00147808192231
0.00115562331225
0.000795216543034
0.000940452064312
0.00140372023065
1.33489354192
0.653471782226
0.331852564744
0.169234046112
0.0866147890521
0.0460116374015
0.0261653662872
0.0163788098052
0.0112258603654
0.00812475045046
0.00578512557657
0.00354134648771
0.00197721725411
0.00159991932664
0.00157520091405
0.00147709316156
0.00123951289935
0.000770766166844
0.000624278399299
0.00138519531032
1.41257701184
0.695967794028
0.35341721572
0.180135653562
0.0926474454601
0.0487631358478
0.0272992433379
0.0168193731433
0.01142564462
0.00830941765006
0.00600969485544
0.00374848784758
0.00201066742947
0.00150802249423
0.00150196595564
0.00147437865539
0.00129820392365
0.000905995706499
0.000572751031958
0.00125321101439
1.51966599959
0.743888921163
0.377246337866
0.197467463331
0.101952292788
0.0529567057463
0.0291095691394
0.0176290376539
0.0118632995621
0.00866168702031
0.00635728811513
0.00404748413525
0.0020987032963
0.00144450124504
0.00143635760734
0.00145229363528
0.00130641660192
0.0010091196983
0.00068797039462
0.000897363272138
1.61271993459
0.786303742786
0.401427363167
0.218546750063
0.113622156552
0.0578965686174
0.0312147497297
0.0186482032442
0.0124681448257
0.00913253800757
0.006783890403
0.0044086595408
0.00224523452165
0.00142011309475
0.00138786527581
0.00141806025476
0.00129751841986
0.00107559712257
0.00066320114835
0.000530055408853
1.68147561299
0.82263615231
0.423692870077
0.23640694563
0.125206648793
0.0625270244377
0.0331846780549
0.0196920977503
0.0131457248268
0.00965717101925
0.00722858372159
0.00477575336174
0.00243164801358
0.00143780206761
0.0013620351531
0.00138627295298
0.00128294184505
0.0010878889551
0.000765777846185
0.000451427528635
1.75629482915
0.861999014193
0.444148954383
0.24882664335
0.13026303035
0.0647899902494
0.0344951572662
0.020574818659
0.0137995197967
0.0101687688899
0.00763342731643
0.00510013512904
0.00262855820394
0.0014876714588
0.0013544338476
0.0013636662631
0.00126770735383
0.00107800354638
0.000825102730178
0.00054330432637
1.89459210742
0.920078072452
0.458666032916
0.251816528243
0.127436352104
0.0635633446323
0.034520905904
0.0209957981855
0.0142840570509
0.0105865689947
0.00794023516995
0.00532811145003
0.00280810542542
0.00155947971162
0.00135744050937
0.00134780825847
0.0012543836095
0.00106905027719
0.000854842141044
0.000524268211788
0.00123715164484
0.00123693732869
0.0012369507774
0.00123715331582
0.00123753292993
0.00123809407144
0.00123884898086
0.0012398092537
0.00124097392433
0.0012423131708
0.00124374591469
0.00124511481492
0.00124616647941
0.00124655488577
0.00124589425897
0.00124397781915
0.0012430360387
0.00129200690427
0.00262349029607
0.0232986304754
0.00123683007744
0.00123628567535
0.00123623448535
0.00123657802271
0.00123726372904
0.00123826290055
0.00123954904122
0.00124107857967
0.00124277238322
0.00124450132326
0.00124607872614
0.00124726247996
0.00124775567237
0.00124717093275
0.00124494354782
0.00124132473018
0.00126050312088
0.00171999405752
0.00713589929271
0.0433774290519
0.0012419538983
0.0012408344558
0.00124052225586
0.00124083688502
0.00124165067705
0.00124286056955
0.00124435836359
0.00124600929439
0.00124763988894
0.00124903722726
0.00124995383678
0.00125010226322
0.00124910136411
0.00124632418316
0.00124087627941
0.00123703821887
0.00133272655917
0.0026861881704
0.0129841167314
0.0557946029258
0.00124850766496
0.00124663984751
0.00124585690296
0.00124590264185
0.00124656358956
0.00124764709279
0.00124895533554
0.00125027216941
0.0012513621029
0.00125197562797
0.00125184274683
0.00125062648955
0.00124779281296
0.00124240462276
0.00123400629688
0.00124198742522
0.0015415165911
0.00444029598046
0.0194669452215
0.06257719787
0.00125577854966
0.00125309669379
0.00125170236185
0.00125128683774
0.00125156076185
0.00125224886156
0.00125307795288
0.00125377500868
0.00125407063686
0.00125369532382
0.00125234546589
0.00124959102399
0.00124469868847
0.00123659923305
0.00122775282725
0.00127647533866
0.00199078975314
0.00698646404336
0.0252959772593
0.0658290247174
0.00126275694159
0.0012592607148
0.00125717884146
0.00125617710852
0.00125590976607
0.00125603624729
0.00125622782734
0.00125617431378
0.00125558375312
0.00125416128043
0.00125154643438
0.00124718905339
0.00124019719827
0.00122997683451
0.00122727356011
0.0013710335768
0.00277956204347
0.0100439705222
0.0297431996508
0.0671207942176
0.00126897111701
0.00126469170705
0.00126189121144
0.00126023557701
0.00125934216413
0.00125882340294
0.0012583113642
0.00125746890102
0.0012559808876
0.00125351504839
0.00124963797751
0.00124368681586
0.00123478165752
0.00122411148722
0.00124058803055
0.00156609636687
0.00395141730251
0.013152668353
0.0327445245732
0.0673270953244
0.00127417009233
0.0012691593734
0.00126564873319
0.00126332044849
0.00126177121401
0.00126058195341
0.00125935697123
0.00125773616531
0.00125537690314
0.00125190069289
0.00124680044058
0.00123935453111
0.00122905887999
0.00122128865706
0.00127938190458
0.00190636459315
0.00545564298251
0.015915187886
0.0346008981596
0.0668997707112
0.00127821757286
0.00127255601693
0.00126838653691
0.00126541278052
0.00126322286016
0.00126137874074
0.00125946526784
0.00125710134353
0.00125391390874
0.00124947681001
0.00124322798999
0.00123450410605
0.00122383110257
0.00122481669275
0.00135950546051
0.00242841161105
0.00715532549813
0.0181348198214
0.0356531644376
0.0660851632056
0.00128105764691
0.0012748650872
0.00127013006698
0.00126657694118
0.00126379467158
0.00126133720313
0.00125877731465
0.00125571558568
0.00125174935913
0.00124641256588
0.00123913123514
0.0012295063601
0.0012201813902
0.00123938130238
0.00150052086601
0.00314525548049
0.0088792187181
0.0197989093313
0.0361620603062
0.0650308869651
0.00128275686792
0.00127618260021
0.00127100135806
0.00126695585965
0.00126364451502
0.00126062377712
0.00125746199554
0.00125374585219
0.00124904841456
0.00124288213145
0.00123473610878
0.00122480942955
0.0012195832085
0.00127138257127
0.00172348368286
0.0040366301023
0.0104814243498
0.0209905768334
0.0363047641643
0.0638299696168
0.00128355542753
0.0012767410583
0.00127122368457
0.00126676303529
0.00126297535446
0.00125942956318
0.00125569718221
0.00125135692722
0.00124596757576
0.00123905147477
0.00123027901815
0.00122096374767
0.00122403768007
0.00132911894004
0.00204664278325
0.00505144747305
0.0118751516826
0.0218145433073
0.0361994630618
0.0625427486082
0.00128387952205
0.00127689888899
0.00127109735084
0.00126625148786
0.00126200212449
0.00125793821395
0.00125364048141
0.00124868623109
0.00124263480216
0.0012350660511
0.00122600901902
0.00121866584301
0.00123623859246
0.00142264262884
0.00248015643005
0.00612165751712
0.0130329923051
0.0223623194281
0.0359256959852
0.061209397677
0.00128427662611
0.001277073771
0.00127093641145
0.00126565706558
0.00126090321986
0.00125628619515
0.00125139845739
0.00124582213652
0.00123913737039
0.00123105006211
0.00122220628219
0.00121882894914
0.00125975141704
0.00156311398338
0.00302205495578
0.00718042171527
0.0139675848802
0.0227045913306
0.035537513375
0.0598573783336
0.00128528047322
0.0012776363678
0.00127098818447
0.00126514006782
0.00125978058091
0.00125453822652
0.00124901494161
0.00124280323928
0.00123553092126
0.0012271261214
0.00121922208469
0.00122268384035
0.00129918242108
0.00176157921017
0.00365738885023
0.00817639938667
0.0147099726628
0.0228941221607
0.0350719798577
0.0585057266004
0.00128727503948
0.00127882342454
0.00127138476232
0.00126476496637
0.00125865929728
0.00125270052703
0.00124649331542
0.00123964623062
0.0012318708167
0.00122345165341
0.00121753500059
0.00123190608246
0.00136029934872
0.00202727664851
0.00436097626043
0.00907962069776
0.0152948446441
0.0229702410797
0.0345547493556
0.0571673266336
0.00129044307338
0.00128073207928
0.0012721673514
0.00126454199444
0.00125753727597
0.00125077242206
0.00124384590902
0.00123639047084
0.00122825134688
0.00122025763321
0.00121781292379
0.001248761853
0.0014500276491
0.00236575549126
0.00510254763981
0.00987947890251
0.0157535008888
0.0229623475199
0.0340037031008
0.0558499757142
0.00129482815578
0.00128340095434
0.0012733717588
0.00126450808322
0.00125645681707
0.00124880614549
0.00124114104986
0.00123313255275
0.0012248304103
0.00121787336567
0.00122097159198
0.00127625295645
0.00157616776403
0.00277720425964
0.00585229028082
0.01057846443
0.0161116974142
0.0228923232824
0.0334312911209
0.0545569251333
0.00130043679447
0.001286903328
0.00127510600709
0.0012647875436
0.00125554917793
0.00124693657659
0.00123851947841
0.00123003164122
0.00122182857171
0.00121673304437
0.0012282280749
0.00131821808073
0.00174663334353
0.00325545827858
0.0065850472173
0.011185478554
0.0163896289812
0.022776232192
0.0328460954574
0.0532874642584
0.00130727006002
0.00129135861633
0.0012775493901
0.00126558331784
0.00125502030833
0.00124536235825
0.00123617150459
0.00122728415021
0.00121950595628
0.0012173703726
0.00124114748819
0.00137930696737
0.00196812382033
0.00378813443767
0.00728233663738
0.0117109936031
0.0166025897053
0.0226255863129
0.0322539240883
0.0520378918558
0.0013152304066
0.00129683294279
0.00128086113035
0.00126709767848
0.00125508264984
0.00124428667529
0.00123428513299
0.00122507925281
0.00121812942863
0.00122041232348
0.00126167351038
0.00146471952301
0.00224446706578
0.00435810529933
0.00793238157263
0.0121645799386
0.0167618509668
0.0224483905279
0.0316586518883
0.0508029238193
0.00132395933962
0.00130318877149
0.00128504938317
0.00126942084432
0.00125586096504
0.00124383827548
0.00123298147007
0.00122354971685
0.00121794378107
0.00122658151635
0.00129212102663
0.00157964745588
0.00257521559121
0.00494605511542
0.00852896432893
0.0125542447803
0.0168756467067
0.022250076301
0.0310628879703
0.0495773042374
0.0013327409799
0.00130998635476
0.00128987520637
0.00127244036892
0.00125731064685
0.00124400258673
0.00123226240891
0.00122274004287
0.00121916543381
0.00123671523752
0.00133510851677
0.00172850174233
0.00295515022111
0.00553339851606
0.00906997639799
0.0128867297789
0.0169501751649
0.0220343633594
0.0304685133038
0.0483572179055
0.00134060539593
0.00131652665265
0.001294856978
0.0012758242841
0.00125919451917
0.00124460340233
0.00123200480909
0.00122261792705
0.00122201332947
0.00125179899852
0.00139342182945
0.00191416045806
0.00337497787751
0.0061046775916
0.00955615746372
0.0131680416952
0.0169904439726
0.0218039805055
0.0298770571033
0.0471411166333
0.00134667702193
0.0013220756117
0.00129941498185
0.00127911944715
0.00126115782077
0.00124536817391
0.00123202318731
0.0012231370446
0.00122676991987
0.0012729952722
0.00146982297654
0.00213747575266
0.00382291882085
0.00664880209813
0.00999009876531
0.0134037864991
0.0170008056066
0.021561156647
0.0292898945691
0.0459297858713
0.00135064693335
0.00132621320845
0.0013031328344
0.00128195394107
0.00126288971854
0.0012460584553
0.00123217363572
0.0012243160613
0.00123383288135
0.00130163306953
0.00156681684648
0.00239710216605
0.00428648397632
0.00715899715807
0.0103753857094
0.013599167638
0.0169851308611
0.0213078261851
0.0287082586421
0.0447257904635
0.00135299143896
0.0013290696647
0.00130597141862
0.00128421635737
0.00126426472929
0.00124657341913
0.00123242060452
0.00122627052328
0.00124371026076
0.00133912592888
0.00168636049747
0.00268952436417
0.00475381361606
0.00763181046335
0.0107158173156
0.0137587472849
0.0169467185289
0.0210455979658
0.0281331236883
0.0435326858705
0.0013546057999
0.00133116670253
0.0013082074329
0.00128603250439
0.00126532713268
0.00124692749605
0.00123280165909
0.00122916188256
0.0012569431113
0.00138680528127
0.00182949123678
0.00300916298234
0.0052143640635
0.0080657903341
0.0110147868832
0.0138861878701
0.0168881315561
0.020775620395
0.0275650523332
0.0423544133909
0.00135626653478
0.00133301484828
0.00131014297208
0.00128755058569
0.00126612528223
0.00124711732332
0.00123331634482
0.0012330970842
0.00127398697798
0.00144569020174
0.00199591962983
0.00334860737794
0.00565913650904
0.00846040402923
0.011274964969
0.0139841698125
0.0168111402307
0.0204984964486
0.0270041005015
0.0411950991863
0.00135833853283
0.0013347762225
0.00131181692851
0.00128871154849
0.00126653533689
0.00124698999804
0.0012338282402
0.00123804662765
0.00129510231493
0.00151625249182
0.00218374274728
0.00369913602465
0.00608076351895
0.00881548469377
0.0114983321024
0.014054549603
0.0167168499739
0.0202143430084
0.0264498311175
0.040059168993
0.00136081323029
0.00133614778125
0.00131288016621
0.00128915223737
0.00126619737472
0.00124620680999
0.00123404587172
0.00124382373028
0.00132029192552
0.0015982642317
0.00238946849052
0.00405158462751
0.00647362448726
0.00913116077169
0.0116864544052
0.0140986751922
0.0166059645436
0.0199229870697
0.0259014184181
0.0389514691226
0.00136358565376
0.00133647680439
0.00131267778698
0.00128828616818
0.00126459665581
0.00124431842067
0.00123358341279
0.00125012072899
0.00134930263106
0.00169080652111
0.00260843098701
0.0043973898035
0.00683395370367
0.00940801380476
0.0118408076963
0.0141177067132
0.0164790691656
0.0196242227769
0.0253577941766
0.0378770563942
0.00136609775319
0.00133494026332
0.00131044931557
0.00128549831618
0.00126123110806
0.00124089295736
0.00123204738802
0.00125656448481
0.00138168302489
0.00179244593972
0.00283546232154
0.0047294622756
0.00715978546816
0.00964717686394
0.0119629623093
0.0141128006663
0.0163368086259
0.0193180136333
0.0248177655621
0.036840493829
0.00136442065315
0.00133108098707
0.00130571117449
0.00128041644788
0.0012557855643
0.00123561070183
0.00122907655638
0.00126273957339
0.00141685431697
0.00190147080006
0.00306551318898
0.00504256443509
0.00745061016429
0.00985020389729
0.0120545463931
0.0140851050831
0.0161799029653
0.0190045609894
0.0242800746405
0.0358447737943
0.00133200191732
0.0013254252336
0.00129856730007
0.0012730276599
0.00124812692874
0.00122819500442
0.00122425381665
0.00126812320746
0.00145411020427
0.00201599310156
0.00329391544546
0.0053330752848
0.00770675724214
0.0100187241035
0.0121170397872
0.0140356175428
0.016009024596
0.0186842148698
0.0237433906452
0.0348902587543
0.00117843310723
0.00131825976442
0.00128912395373
0.00126320663967
0.00123791501962
0.00121810411097
0.00121687712319
0.00127192345316
0.00149248325909
0.00213379351359
0.00351623180472
0.00559836596722
0.00792874697811
0.0101541052243
0.0121516018969
0.013965073844
0.015824664618
0.0183572956616
0.0232062725922
0.0339741133244
0.000850004778109
0.00130538074237
0.0012764306463
0.0012499740548
0.00122409425516
0.00120419980028
0.0012057519938
0.00127292886153
0.00153055210552
0.00225206171764
0.00372803192698
0.00583629963588
0.00811699837832
0.0102574322671
0.0121591603048
0.0138740309308
0.0156271000885
0.0180238381081
0.0226667905284
0.03309021711
0.000529598657583
0.00127090404773
0.00125832939892
)
;

boundaryField
{
    emptyPatch
    {
        type            empty;
    }
    minY
    {
        type            fixedValue;
        value           uniform 0.000138;
    }
    maxY
    {
        type            inletOutlet;
        inletValue      nonuniform List<scalar> 0();
        value           nonuniform List<scalar> 0();
    }
    maxX
    {
        type            kqRWallFunction;
        value           nonuniform List<scalar> 
37
(
0.0232986304754
0.0433774290519
0.0557946029258
0.06257719787
0.0658290247174
0.0671207942176
0.0673270953244
0.0668997707112
0.0660851632056
0.0650308869651
0.0638299696168
0.0625427486082
0.061209397677
0.0598573783336
0.0585057266004
0.0571673266336
0.0558499757142
0.0545569251333
0.0532874642584
0.0520378918558
0.0508029238193
0.0495773042374
0.0483572179055
0.0471411166333
0.0459297858713
0.0447257904635
0.0435326858705
0.0423544133909
0.0411950991863
0.040059168993
0.0389514691226
0.0378770563942
0.036840493829
0.0358447737943
0.0348902587543
0.0339741133244
0.03309021711
)
;
    }
    water_to_heater
    {
        type            kqRWallFunction;
        value           nonuniform List<scalar> 
61
(
0.0356134335544
0.48391385131
0.48391385131
0.678381297369
0.678381297369
0.833309004329
0.833309004329
0.909286115694
0.917251118995
0.912724939987
0.912724939987
0.916815872989
0.916815872989
0.921104344212
0.921104344212
0.92159790839
0.917448078674
0.91320264502
0.91320264502
0.915374360207
0.915374360207
0.929135944186
0.929135944186
0.945562534572
1.00982354437
1.15283784505
1.15283784505
1.27314412638
1.27314412638
1.31222859328
1.31222859328
1.3277466814
1.33482596488
1.33915067389
1.33915067389
1.35429208659
1.35429208659
1.38063719779
1.38063719779
1.41186879304
1.43663212476
1.45114918636
1.45114918636
1.45245327119
1.45245327119
1.42710826254
1.42710826254
1.35760757323
1.31018776959
1.33489354192
1.33489354192
1.41257701184
1.41257701184
1.51966599959
1.51966599959
1.61271993459
1.68147561299
1.75629482915
1.75629482915
1.89459210742
1.89459210742
)
;
    }
    procBoundary2to3
    {
        type            processor;
        value           nonuniform List<scalar> 
41
(
2.2492441931
0.997772060597
0.46138081365
0.246026873173
0.120871402319
0.0610175167533
0.0340584793837
0.0212153056252
0.0146778500755
0.0109303783521
0.0081679639909
0.00548121877772
0.00295146189658
0.00164087771796
0.00136691959021
0.00133471315691
0.00124545474053
0.00106920519115
0.000875473544685
0.000574988816072
0.0012313297262
0.00120480177496
0.00118473092231
0.00118922164889
0.00126953406437
0.00156640757486
0.00236742968915
0.00392510188026
0.0060453225905
0.00827214767804
0.0103299654025
0.0121409038793
0.0137634151543
0.0154172289242
0.017685436612
0.0221271548274
0.0322356254756
0.000379405116323
0.0011810479392
0.0012313297262
0.00123207281709
)
;
    }
}


// ************************************************************************* //
