/*--------------------------------*- C++ -*----------------------------------*\
| =========                 |                                                 |
| \\      /  F ield         | OpenFOAM: The Open Source CFD Toolbox           |
|  \\    /   O peration     | Version:  2312                                  |
|   \\  /    A nd           | Website:  www.openfoam.com                      |
|    \\/     M anipulation  |                                                 |
\*---------------------------------------------------------------------------*/
FoamFile
{
    version     2.0;
    format      ascii;
    arch        "LSB;label=32;scalar=64";
    class       volScalarField;
    location    "0.85/water";
    object      epsilon.gas;
}
// * * * * * * * * * * * * * * * * * * * * * * * * * * * * * * * * * * * * * //

dimensions      [0 2 -3 0 0 0 0];

internalField   nonuniform List<scalar> 
1504
(
2794.6696658
749.080096757
225.341752934
73.8138853851
25.6895078097
9.56299417183
3.9697671714
1.94534158947
1.18666906616
0.883334713327
0.767912472728
0.751451553764
0.77404514149
0.780941401883
0.784916634914
0.811086872021
0.77628908638
0.60190130814
0.27460723859
0.0570871398668
2511.24936931
705.365474383
220.055775679
72.721136159
24.5903423644
8.82359141692
3.64288185959
1.84392507714
1.15192884323
0.848709415039
0.72179188986
0.69570307747
0.712054257682
0.72541189117
0.74207560892
0.805563685298
0.814362397491
0.671038186578
0.367677909957
0.0966108309352
2144.18830493
667.092813246
220.287243881
72.2650959093
24.0062157302
8.72703077187
3.68616860973
1.87654035612
1.13658653021
0.794511348375
0.646631386388
0.606959280371
0.615281211395
0.632663207604
0.655266252877
0.743010660752
0.79524910636
0.69503014913
0.438791692264
0.139408861866
2128.14847907
703.45989105
233.885664301
75.3567754853
25.6369062478
9.678185783
4.16616348783
2.05769627935
1.15815311019
0.745215444223
0.567279185421
0.506922336462
0.500055885203
0.515145313813
0.540545834646
0.629910164871
0.720964933428
0.672038837663
0.463437157565
0.202070375818
2473.48563983
798.215006063
252.401443765
80.7137301136
28.977124694
11.7918002128
5.25528142148
2.50119109192
1.28432879196
0.742917738567
0.514673402812
0.427334839942
0.400860327523
0.403001997474
0.42590885668
0.50037488643
0.609633072286
0.614331158936
0.469890492049
0.255184688195
3069.24786676
895.121837947
272.495043108
91.6897042409
35.2927339894
15.2768946026
7.09046987731
3.31075767726
1.56786261564
0.813549644574
0.506867794742
0.386639064533
0.338785272202
0.324335793974
0.334264140022
0.391409855098
0.494387558694
0.545071551847
0.46640391935
0.296014211234
3394.78836786
954.692066558
293.555905107
102.372371809
41.893062748
19.6626944384
9.64830909845
4.47898925818
2.00669928866
0.956757974952
0.54397027131
0.38347163348
0.314190555314
0.282565223525
0.278664456423
0.314514213402
0.402615398246
0.481879070575
0.459343896201
0.319306398706
3393.73173724
971.407835206
304.214672348
108.635340084
46.1957781663
23.0210159465
12.0796434319
5.83465254344
2.57283013299
1.16110249951
0.617401386514
0.408587708951
0.316932290842
0.269091507996
0.252137755412
0.269453365901
0.342556322701
0.433471831668
0.456377294904
0.345905711989
3328.18346478
960.935674815
304.85182441
110.62648987
48.2478991362
25.0962475275
13.8566664346
6.92920477441
3.10984167383
1.39290870832
0.714497712622
0.451740108932
0.33621629189
0.273671541715
0.244895446745
0.248471819537
0.305993440112
0.401693075907
0.458952258593
0.37665038863
3230.20884162
936.979508526
298.616805089
109.293225985
48.4196399837
25.9222710818
14.8702663941
7.6379126656
3.49896738674
1.5844924383
0.80716087719
0.499471289404
0.362625687154
0.287696804064
0.249346737259
0.243161805905
0.28543174563
0.383444142853
0.466332267186
0.410111309839
3158.95152675
915.622548151
292.152394445
107.203240601
47.7351088426
25.9105215143
15.1953403534
7.93849351242
3.70563985137
1.71114206223
0.881916700599
0.54475377175
0.391345265689
0.306448537513
0.260684975138
0.247423538086
0.277994759871
0.375013564793
0.478425262611
0.446000825664
3057.18557523
892.251834198
285.146490346
104.651988662
46.539934286
25.3117785033
14.9158099153
7.84732303545
3.73245771202
1.77131444688
0.936501672918
0.585440433393
0.420450014855
0.328100191214
0.276886036434
0.25797175728
0.279373639753
0.374998357465
0.495305131883
0.486488576217
2974.51426246
869.759006722
278.674727894
102.13383852
45.0924232231
24.3003491295
14.1387505509
7.44422990255
3.62069950466
1.7794024108
0.973825197328
0.621255329229
0.449365787217
0.35236114355
0.297415175818
0.273377260423
0.286991818753
0.380557661615
0.518482694399
0.534761500006
2880.91646572
848.59452079
273.416071923
99.9381360866
43.5277814869
22.971770315
13.0086785763
6.85075241161
3.4236354575
1.75092284107
0.996632597463
0.652317061652
0.478352730776
0.379752397965
0.322480825348
0.292887393378
0.299045230282
0.390498397793
0.549492219082
0.592872467172
2851.80642821
835.290937035
268.865113861
97.3099059601
41.5240685472
21.2473390221
11.6687568809
6.17336083291
3.17964213174
1.69600568044
1.0066193725
0.679014364512
0.50817542863
0.410984315773
0.35183997909
0.314927715344
0.313545428159
0.405995411246
0.588297370298
0.658417888582
2896.2706774
843.469306104
268.393823705
94.778245034
39.1232521875
19.2716732307
10.3228148299
5.50381488682
2.91892460769
1.6246709077
1.00655132824
0.702473624105
0.540058774393
0.446266782661
0.383126554767
0.335804990478
0.328137793034
0.426547467235
0.631681867796
0.725817670789
3041.54828631
873.06567342
272.545372183
92.9477789037
36.8370559308
17.4479346024
9.14751760837
4.8977308206
2.66359024078
1.54706494452
1.00134696514
0.72507989898
0.575531693625
0.483527309175
0.409765875174
0.350499155647
0.340820188496
0.44904866033
0.671883940279
0.786665061043
3238.45936824
917.343815545
281.352446311
93.2358568741
35.5407632922
16.1288839863
8.21781213079
4.37893586171
2.43270243716
1.47199601197
0.995641554883
0.751503279926
0.614335940501
0.512648678388
0.422433440643
0.355466119538
0.351166251617
0.467025103866
0.697538519986
0.831256093614
3418.06655469
959.982430498
292.505206998
95.8706005348
35.3602496463
15.2821163791
7.49486954594
3.95036811444
2.24038780747
1.40645029349
0.995254435821
0.786074138567
0.646004688497
0.514200066522
0.415489237784
0.352339318655
0.357472185597
0.472892174091
0.699824402302
0.854103957814
3469.75734207
985.168472836
303.398236123
99.4315771309
35.4427217978
14.5498011899
6.87218868509
3.59652723468
2.08191610276
1.35317242114
1.0043936013
0.815564937847
0.641155038113
0.489778687746
0.391592128481
0.345832820828
0.355082261853
0.461678086173
0.673210160724
0.852346089184
3371.93861688
1008.71533134
318.294005666
102.950407457
35.0474116309
13.7239702693
6.31373760013
3.30862961304
1.94896373761
1.30853433679
1.00277370181
0.798228141129
0.602679731333
0.455449395275
0.363091439083
0.335976414726
0.345721322291
0.434348057249
0.620699364384
0.826239230841
3471.05717619
1096.83968226
344.040232182
106.566462855
34.9918577275
13.2277459649
5.95137174952
3.11223576944
1.84833658181
1.25644544825
0.951160283972
0.742043508229
0.558748409329
0.42450844179
0.341647119054
0.323786029204
0.334480795582
0.398384368783
0.556684153938
0.786125968749
4179.61018549
1298.07223641
386.792869201
116.678108631
37.1828543194
13.6715802151
6.02790791516
3.10173003152
1.81340433381
1.20052031233
0.883004092458
0.686727445588
0.523456529097
0.403967394153
0.330632275069
0.316183963131
0.325045497876
0.36365364582
0.501262119755
0.74954252776
5700.00766821
1619.13518543
454.887108541
134.310122968
42.188423605
15.212491716
6.57756743953
3.32562022718
1.89300839746
1.19675841845
0.843735987379
0.645799857572
0.501124870774
0.397802817301
0.332517561694
0.317985477154
0.320725527581
0.34054852273
0.45933351421
0.731541385104
7312.73180421
1942.97454877
540.197835381
160.345766815
50.740898849
18.1240465129
7.66351065008
3.78718391312
2.09230100928
1.26104205969
0.84383186099
0.628594755781
0.497502617365
0.407823994163
0.348779285894
0.330007595872
0.325900667723
0.33528527885
0.440325043125
0.737535532087
7951.26723037
2128.70759283
626.438388813
193.444020235
62.6471111545
22.2523350444
9.15890788655
4.39620682054
2.35575457268
1.36790119261
0.877251075741
0.63889160358
0.514731942415
0.433155269535
0.377592672999
0.352752599121
0.341845971214
0.346991563305
0.450109207543
0.762644906383
8224.70433144
2216.70190368
676.817329201
218.042995227
72.9209133628
26.2004306163
10.6767376224
5.0202129657
2.6169494346
1.47371045611
0.924135424912
0.669902873406
0.548990642262
0.471203614907
0.416305923119
0.384653463943
0.36703962651
0.373305629878
0.479527701459
0.797083075223
8788.06162817
2286.07752733
710.351057337
234.73008666
80.9302167581
29.7150070746
12.1532862915
5.62333523835
2.83667809258
1.54835636838
0.96182065223
0.707396857903
0.590880671992
0.517574777567
0.461148453224
0.422123820008
0.399859196524
0.411324562652
0.5162243886
0.828673195596
9205.23851744
2386.49068103
730.614539688
244.609012147
86.7302347309
32.6833145364
13.4659254913
6.08489009241
2.95964881258
1.58335193653
0.9861020262
0.739407853612
0.63380494903
0.56616154995
0.508564019853
0.463013366601
0.438603850459
0.45094084861
0.549561701385
0.844118639156
9151.9516383
2343.87477443
720.812257235
245.502790438
89.2569329264
34.399972191
14.1125405766
6.18220496078
2.94026638655
1.5768058395
1.0031343304
0.768499651125
0.671449669622
0.612134256984
0.554513040951
0.50486866576
0.477940584411
0.484092532841
0.56813865651
0.834365948985
8903.435577
2257.26126962
697.424201234
239.436243381
88.1795953465
34.0890299158
13.736591909
5.91450775451
2.81384647262
1.54196471818
1.01311526312
0.793590341295
0.699617488651
0.648370635842
0.59412722379
0.542907396023
0.510367090561
0.505765735827
0.563270602646
0.797895202517
8423.98452001
2129.97771741
656.166584202
223.963716581
82.0104441633
31.3378258253
12.5822164434
5.46783203423
2.65558664909
1.50472724298
1.02009119646
0.809935722796
0.715612436047
0.666644126212
0.619749611958
0.569183060866
0.529756594503
0.5129921738
0.536223374471
0.711343851903
7526.24942723
1901.1211278
580.419868839
196.793649563
71.6389459387
27.5871039746
11.3540319573
5.08013444018
2.55094791829
1.49321129311
1.02837200278
0.812834862196
0.709700839361
0.65828929708
0.618962822173
0.572375249654
0.528596411639
0.501068862795
0.499153908844
0.591678228575
5981.90045073
1579.327755
488.145916326
167.844654972
62.3663149235
24.8454016988
10.6644657973
4.98465152209
2.59545289792
1.54148023606
1.04749543702
0.802495919409
0.678015106379
0.61571744804
0.578317878957
0.53951174693
0.497453927165
0.463660979254
0.448718021057
0.481350953756
4595.92540544
1331.65787648
432.604952044
153.399077457
58.6837582939
24.6742102744
11.2517494119
5.5059811532
2.91079349469
1.69313310883
1.09623870074
0.790601243166
0.629347630407
0.544553488157
0.498797599088
0.466018313841
0.431685136495
0.399572533346
0.380925721845
0.387797318929
4113.02851417
1302.17467479
442.955568455
159.323383269
63.3519865585
28.0339207424
13.5098718725
6.85156532333
3.62213526549
2.02703272608
1.22513771476
0.812078720895
0.593722909259
0.474716390351
0.409118881166
0.371970518183
0.344067159822
0.319909219215
0.304796792258
0.303711939888
4368.32216643
1414.42341815
487.902478942
178.450108907
71.568607643
32.907323828
16.8238073618
8.9789983093
4.82473338241
2.64009869831
1.50429804938
0.914710569628
0.608430583554
0.443012552098
0.348776728578
0.295517740649
0.265278159573
0.246721914336
0.236585805258
0.235380966561
4450.51284504
1430.5177562
484.221871878
179.364265439
75.6236378528
36.8948734946
20.1681417001
0.00134217200649
0.00177995845254
0.00279599759212
0.00503810357719
0.00992639770914
0.0199821746411
0.0380885824806
0.0648410617279
0.0973889466126
0.132340334971
0.168426032247
0.207399209714
0.25529180556
0.326699449597
0.460150629618
0.78060874404
1.75775298718
0.0117274418885
0.0025392489305
0.00145148616114
0.00149855005907
0.00202694137697
0.00327171249625
0.00600560937921
0.0118345643258
0.0233292303154
0.0428165495817
0.0698652067393
0.101278067681
0.13408367
0.167438525585
0.203243887463
0.247372473253
0.313750907709
0.438399092088
0.735359369066
1.62980694958
0.0179696717431
0.00366788737983
0.00168111653906
0.0016800488439
0.00231579977611
0.00383319250454
0.007135162518
0.0139910935521
0.0269058171916
0.04751301432
0.0745009307129
0.10457723061
0.135209582933
0.165905575159
0.1986605685
0.239171589817
0.300754697134
0.417225578453
0.692411307246
1.50448376501
0.0229847633089
0.00578121465056
0.00199811178583
0.00189520715849
0.00265711525386
0.00449786145026
0.00845006970977
0.0164091825477
0.0306843067644
0.0521315808209
0.0787529179567
0.107347135236
0.135805674008
0.163922573383
0.193745776731
0.230785335983
0.287805177835
0.396754737781
0.652354272432
1.38556691118
0.0350738868438
0.0092366963986
0.002464550161
0.00215627849806
0.00306544042346
0.00528907080734
0.00998065377264
0.0191065138643
0.0346435174816
0.0566469409675
0.0826451661266
0.109653637314
0.135955431863
0.161577425721
0.188588603881
0.222304555603
0.274988109955
0.377065631833
0.615558927084
1.27630583422
0.0636612465659
0.011923803356
0.00320123892364
0.00248059384047
0.00355996839659
0.00623691749715
0.0117641313445
0.0221028431917
0.0387660396189
0.0610476219504
0.0862093882315
0.111558744094
0.135732180338
0.158945758917
0.183266014677
0.213808680991
0.262376542149
0.358194636814
0.582212965488
1.17939735081
0.0894701468134
0.011458471556
0.0043539803008
0.00289293266616
0.00416645788814
0.00738030675193
0.0138451344159
0.0254182436404
0.0430370410819
0.0653308858476
0.0894782149177
0.113116398635
0.135196737633
0.156089380915
0.177841081729
0.205364246766
0.250030147513
0.340141251331
0.552305096897
1.09678834762
0.134592481368
0.0163962986425
0.00556741029411
0.00342792567865
0.00491914549819
0.00876845266129
0.0162742807024
0.029069447302
0.0474413300372
0.0694962299873
0.0924785955005
0.114368106517
0.13439463162
0.153054083709
0.172361098162
0.197023126551
0.237997881941
0.322880641594
0.525635945227
1.02953092409
0.180962372246
0.0294023958147
0.00552822253631
0.00412509652997
0.00586320307111
0.0104612143408
0.0191035895444
0.033063716336
0.0519577748301
0.07353708856
0.0952245469283
0.115337982122
0.133352650488
0.14986712094
0.166855364685
0.188821096964
0.22631860295
0.306379716118
0.501842812379
0.977696672425
0.226324394951
0.0429142336922
0.00487840348927
0.00497016890112
0.00705705764773
0.0125266196789
0.0223774595538
0.0373900129411
0.0565510534088
0.0774314709073
0.0977100742586
0.116028236246
0.132076156128
0.146535384316
0.161333347879
0.180773618657
0.215010659261
0.290589054669
0.480441451208
0.940379660911
0.266333232493
0.0695741682622
0.00582968881594
0.00576086618937
0.00857208061784
0.0150323034662
0.0261178013521
0.0420074191023
0.0611617396475
0.0811335657607
0.099904466405
0.116417702474
0.130549635906
0.143047117006
0.155786393609
0.172876230939
0.204073050114
0.275445595744
0.460891380398
0.915803212453
0.300092971266
0.102285522804
0.00922123082866
0.0061573011854
0.0104817749137
0.0180297054215
0.0303062656329
0.0468352504494
0.0657004329376
0.0845719198006
0.101754874978
0.116467296639
0.128743611279
0.139379137886
0.150194766066
0.165108314682
0.193482975483
0.260891139345
0.44267252609
0.901554883992
0.336769290923
0.139759840991
0.0154033650991
0.00615213799048
0.0128353706215
0.0215361315711
0.0348727351043
0.0517533676728
0.0700533677958
0.0876592251385
0.103198836851
0.116133353115
0.12662735566
0.135508237545
0.144537542525
0.15744703986
0.183212931257
0.246879262
0.425344580238
0.89490426263
0.380667968658
0.181737533047
0.0230971195231
0.00619487333852
0.0156263046412
0.0255239186342
0.0396985689108
0.0566169364146
0.0741005807899
0.0903118067621
0.104183216463
0.115384562656
0.124183365464
0.131423395527
0.138802724052
0.14987690855
0.173235694423
0.233323602005
0.408578162463
0.893266599729
0.43610666012
0.230421994881
0.0353697646503
0.00682249996419
0.0187517977529
0.0299309553809
0.0446415569655
0.0612870696211
0.0777450871783
0.0924756616213
0.104686065312
0.114219446984
0.121420969786
0.127137078912
0.132998539125
0.142395223039
0.163514864579
0.22018817726
0.392162706835
0.894520484572
0.505584102632
0.28966014226
0.0600812661192
0.00859461473577
0.0219301420784
0.0347115880775
0.0495887539588
0.0656759468605
0.0809476595862
0.0941517039856
0.104733592048
0.112676688583
0.118381933646
0.122687887769
0.127157839634
0.135014814654
0.154079433598
0.207497867072
0.376034188088
0.89704550122
0.586651909302
0.361186168396
0.0988755349364
0.0126220561828
0.0243984582611
0.0399027125334
0.0545051128851
0.0697712431126
0.0837339431054
0.0953912685163
0.104388288073
0.110819252239
0.115123152411
0.118123470296
0.121317208219
0.127773483132
0.144957099475
0.195287490246
0.360203012178
0.899735943271
0.670119840319
0.433378772598
0.150838473914
0.0214203690339
0.0245779884328
0.0456038596164
0.059432238797
0.0736059989026
0.0861533287719
0.096252933532
0.103708147904
0.108698042047
0.111685480677
0.113474714116
0.115501003058
0.120690368872
0.136164567284
0.183583050821
0.34468279927
0.901753112879
0.748182731974
0.496683559925
0.212267084299
0.0359315300054
0.0219152820044
0.0516549779024
0.0644723741456
0.0772207806227
0.0882414327553
0.0967722822945
0.102724644459
0.10633675069
0.108083055232
0.108746081816
0.109705387796
0.113750694451
0.127671564056
0.172333061937
0.329358358976
0.902302875959
0.813976364732
0.562209457865
0.279311604351
0.0508916910987
0.0199178726584
0.0565831201146
0.0698369557966
0.0806919461497
0.0900437366056
0.0969858265774
0.101466878516
0.103755163863
0.104324886757
0.103934885205
0.103914202625
0.106924464486
0.119418560338
0.161436183169
0.314031469494
0.900651849543
0.860734421707
0.631053131151
0.351352070738
0.0848546858803
0.0231981513811
0.0561003095748
0.0758667588344
0.0842102536636
0.0916701265561
0.0969715449986
0.0999926496991
0.100993884662
0.100436181076
0.0990531216485
0.0981285337757
0.100207333706
0.111390422361
0.150861703742
0.298611535622
0.896099007871
0.890426832131
0.702488704561
0.430154770095
0.13424314977
0.0349063652072
0.0468560464811
0.0825547969399
0.0881273780126
0.0933122550158
0.0968531941601
0.0983868227447
0.0981099471317
0.0964530713054
0.0941235435158
0.0923673066113
0.0936250345437
0.103655308387
0.140682352884
0.283135774881
0.887456244389
0.911855499689
0.779112260402
0.505435330951
0.19757672039
0.0517601572364
0.0358610108271
0.0876878459798
0.0929573704419
0.0952442512294
0.0968023804595
0.0967678288267
0.0951868763149
0.0924341189359
0.0891895204931
0.0866682581925
0.0872140751601
0.0962548046502
0.130921559762
0.267243691014
0.871931566435
0.935586561889
0.86415884956
0.589973850776
0.273319105396
0.0693181291471
0.0337671931414
0.0849475823513
0.0993088715223
0.0979072126476
0.097112829121
0.0953644756031
0.092422185776
0.0885625572526
0.08442488218
0.0811766713851
0.0810280626811
0.0890179556932
0.121065012869
0.249121376894
0.843208223601
0.96799556087
0.957229488809
0.691113272778
0.362098301765
0.109651073252
0.0432260023173
0.0710293979946
0.107198740838
0.101995433164
0.0982381444411
0.0945483758899
0.0901846968798
0.085247647763
0.0802827804865
0.076331399721
0.0753487849395
0.0818050441234
0.109990462978
0.225939500783
0.79150796653
1.01011377914
1.05434864697
0.806319255839
0.462886733887
0.166258671709
0.0640969411965
0.0556106490962
0.113747363785
0.108393344722
0.1007494169
0.0948016647617
0.0889995550527
0.083121606433
0.0775218048412
0.0730065978876
0.0711422615307
0.0756640693824
0.0988748174855
0.198724157226
0.711937000507
1.06092638131
1.15323724798
0.933797030212
0.569626038169
0.239037507114
0.0832940710257
0.0509308276
0.110608965989
0.117855741379
0.10558717388
0.0970386016135
0.0899425784299
0.0834926891968
0.0777114062852
0.0730722291456
0.0706694803155
0.0734627951095
0.0918557169523
0.174652734288
0.609019338344
1.11649367989
1.25422271556
1.07692170708
0.684578834981
0.329207751472
0.118566683164
0.0616309605167
0.0951577876995
0.130072276106
0.115008809525
0.103719901885
0.0960119602342
0.0900953127582
0.0854988487444
0.0823345733639
0.0812542605685
0.0845148923487
0.101089925688
0.171416121957
0.507869802916
1.16740710673
1.35189295312
1.22886628646
0.822141402866
0.442030191696
0.18497110568
0.093022533024
0.0797164714073
0.14097370746
0.133761324086
0.120373382018
0.113757805849
0.111040311746
0.111082712129
0.113787856711
0.119627558894
0.12986446757
0.150012695795
0.207487540006
0.413787944436
1.19864451029
1.43081566812
1.3717726178
0.984974745568
0.586887181534
0.281262371784
0.133285097366
0.0811170031061
0.140282482975
0.167206574383
0.15527653314
0.151769010885
0.156012340888
0.165922111897
0.181423098153
0.203069010909
0.229559164
0.254100477303
0.270438996877
0.288878816089
1.19106922361
1.471544785
1.48557186144
1.16147520722
0.755309229355
0.415977727408
0.197438723377
0.120616788456
0.121038158348
0.205058684837
0.215368874819
0.216684158801
0.232226197855
0.26065052409
0.303516293208
0.361692323551
0.432058017218
0.495857652245
0.487228531396
0.354984698759
1.12994085286
1.44656517195
1.53929438632
1.30791610781
0.932483498467
0.600659647348
0.334001884662
0.185876675641
0.128454949083
0.189049112362
0.292514813178
0.323211725495
0.357590973815
0.419013885972
0.499579103309
0.603189343307
0.741755389011
0.921951071214
1.11389988624
1.21911748317
1.01244319053
1.32824636731
1.48804656672
1.37540689439
1.08298767744
0.789686216411
0.533407063586
0.328760928301
0.228070724902
0.170567637084
0.247710724172
0.442075029691
0.574972325124
0.673152846179
0.777899159365
0.916359149315
1.12421709684
1.45469656487
1.96949158968
2.70014721544
0.8495591854
1.12048142637
1.31273797665
1.30878455953
1.13498134405
0.917245405261
0.732292415325
0.571947464626
0.432239487706
0.322202312457
0.318331460042
0.279268707765
0.349208470144
0.351618508216
0.382201957981
0.665194110094
1.35523323881
1.95184885839
2.89074766016
4.73550781236
0.636507973123
0.870281177837
1.0488536997
1.1167215718
1.0571121273
0.935397069558
0.825464177482
0.764432949282
0.749555429498
0.757605919721
0.755302309885
0.703563748399
0.57290252978
0.429772333627
0.310413932791
0.222454727227
0.284293388516
1.13962009567
3.50571227089
6.8747929927
0.451962292145
0.609145814556
0.770521810672
0.863879645777
0.882294476285
0.85638337745
0.849596686412
0.907398798026
1.00246305023
1.00843862577
0.898934316656
0.756535849443
0.622287921051
0.492339067094
0.366693537084
0.259685775779
0.201788974132
0.242813312989
3.05627229879
8.04903415926
0.327904575895
0.399745181496
0.521862569224
0.625950329096
0.684589841567
0.73547121099
0.834699261691
0.969838638203
0.96741577935
0.875824672592
0.778700523001
0.67634159858
0.566041250071
0.453615314597
0.354246132457
0.266688870392
0.195232593464
0.215655529026
1.27377938559
7.82151577788
0.246428454542
0.27951358761
0.344307146636
0.434748012875
0.520996581869
0.618046308801
0.76637374039
0.862606037222
0.832676286121
0.779255349617
0.714976901851
0.628515842111
0.524974958271
0.419465571223
0.329165393186
0.25979261351
0.197220264664
0.225661119498
2.30032398498
6.91161424272
)
;

boundaryField
{
    emptyPatch
    {
        type            empty;
    }
    minY
    {
        type            fixedValue;
        value           nonuniform List<scalar> 0();
    }
    maxY
    {
        type            inletOutlet;
        inletValue      nonuniform List<scalar> 0();
        value           nonuniform List<scalar> 0();
    }
    maxX
    {
        type            epsilonWallFunction;
        blending        stepwise;
        value           nonuniform List<scalar> 
38
(
17.1672498703
16.1522995666
15.1815185399
14.2675235335
13.4203191351
12.6469046646
11.9508316958
11.331796666
10.7858002352
10.3058365525
9.88241937261
9.50471848104
9.16181455629
8.84492309652
8.54757929513
8.26517470132
7.99517864918
7.73574660359
7.48273584704
7.23095075232
6.97802785588
6.72352772253
6.45603451046
6.12043297584
5.62489849307
5.00147296637
4.44762974038
4.44557497056
5.60274240931
8.26489084386
14.3475960512
27.1111623036
44.7751502449
63.6961416735
77.9584838923
82.676931172
78.8749856749
72.5077397863
)
;
    }
    water_to_heater
    {
        type            epsilonWallFunction;
        blending        stepwise;
        value           nonuniform List<scalar> 
60
(
7655.00204526
7655.00204526
6768.45250901
6083.05553255
6543.10370779
6543.10370779
8088.28090546
8088.28090546
9938.20986442
9938.20986442
10685.2575811
10721.570736
10496.872471
10496.872471
10202.9343779
10202.9343779
9910.8377075
9910.8377075
9629.30122918
9328.90279252
9070.30344766
9070.30344766
8905.14306827
8905.14306827
9015.53462293
9015.53462293
9377.82940353
9883.29928637
10248.5398443
10248.5398443
10253.5951313
10253.5951313
10212.9534085
10212.9534085
11277.6270198
14494.0524325
20055.565819
20055.565819
25450.6953782
25450.6953782
28103.5250398
28103.5250398
29704.2547453
31438.1655026
32013.4357674
32013.4357674
31020.6633202
31020.6633202
29214.0926966
29214.0926966
26677.3276374
22491.6579969
16747.0974102
16747.0974102
12788.2551527
12788.2551527
12286.8002715
12286.8002715
14162.1209488
15538.2048885
)
;
    }
    procBoundary3to1
    {
        type            processor;
        value           nonuniform List<scalar> 
41
(
11.4191219262
6.316052259
3.47497547507
1.92778394997
1.11239845656
0.688428875516
0.464730396701
0.336807729019
0.261048689154
0.219426876595
0.19855158554
0.189890498053
0.189662588857
3633.30915674
1092.28343991
378.49747094
149.236461308
68.3797896179
36.4812344695
11.4191219262
21.7289800564
0.197308123683
0.216989146313
0.254472849679
0.312300407622
0.39435104489
0.512640425264
0.65279245061
0.721456901554
0.721104738601
0.700469707315
0.653172009888
0.57618714928
0.481536338973
0.38709093969
0.30548649185
0.236758595492
0.214100517601
0.351743656202
2.91102107775
5.93807642866
)
;
    }
    procBoundary3to2
    {
        type            processor;
        value           nonuniform List<scalar> 
41
(
2798.43323692
758.078799846
227.082730957
74.18833919
26.3256176052
10.1732174867
4.35559653591
2.11929103381
1.24377260178
0.902467616775
0.781426446226
0.764785868254
0.78964879933
0.796985652855
0.787717554741
0.777486298645
0.695457330841
0.493068147102
0.188395263551
0.0278678952751
0.00120611993787
0.00156828320964
0.00239416486829
0.00421617668895
0.00825923783502
0.0169006884246
0.0334039381953
0.0594597098143
0.0928701907934
0.129900477015
0.168775335446
0.211032223382
0.262838810051
0.33951618527
0.482354592186
0.827593731693
1.88624422518
0.00714069540811
0.00191120015084
0.00127510237339
0.00127510237339
)
;
    }
}


// ************************************************************************* //
