/*--------------------------------*- C++ -*----------------------------------*\
| =========                 |                                                 |
| \\      /  F ield         | OpenFOAM: The Open Source CFD Toolbox           |
|  \\    /   O peration     | Version:  2312                                  |
|   \\  /    A nd           | Website:  www.openfoam.com                      |
|    \\/     M anipulation  |                                                 |
\*---------------------------------------------------------------------------*/
FoamFile
{
    version     2.0;
    format      ascii;
    arch        "LSB;label=32;scalar=64";
    class       volScalarField;
    location    "0.655/water";
    object      epsilon.gas;
}
// * * * * * * * * * * * * * * * * * * * * * * * * * * * * * * * * * * * * * //

dimensions      [0 2 -3 0 0 0 0];

internalField   nonuniform List<scalar> 
6000
(
17.0165161552
2.63576603295
0.485683948567
0.110873128309
0.0367336553584
0.00748373919125
0.00199377258541
0.000909560544929
0.000607285061722
0.000499736395131
0.000454870044478
0.000434058506093
0.000423545315162
0.000417766966682
0.000414321904193
0.000412128008217
0.000410671193068
0.000409687189416
0.00040902717278
0.000408601649597
552.849674503
105.319877106
17.6605525631
3.65162621744
0.666388254381
0.189743531915
0.0436652366454
0.00802728978891
0.00199681858703
0.000889069051199
0.000597742479832
0.000495146692055
0.000452276188415
0.000432371096324
0.000422266975147
0.000416639724339
0.000413216787418
0.000410997271188
0.000409519752396
0.000408555090239
770.705914876
180.00750054
40.2620121857
8.6453362154
2.04848450249
0.461845148461
0.130046266282
0.029367527647
0.00604915548459
0.00179708595059
0.00088294962712
0.00060975700726
0.0005052629982
0.000459244373857
0.000437153010262
0.000425714846824
0.000419267166868
0.000415308289822
0.000412726588216
0.000411020875904
983.683376362
244.072142309
60.8352984001
14.8860427138
4.1423927187
0.900016876897
0.237258737781
0.0667215329432
0.0147797690728
0.00356186775102
0.00135364323262
0.000781670960444
0.000581818088446
0.000497336036753
0.000457673648779
0.000437743732864
0.000427034887781
0.000420804257433
0.000416888595137
0.000414317693563
1066.51743578
280.778487927
75.2098261257
20.369824403
5.27201846741
1.60934413468
0.343970308247
0.104957999186
0.0296408170901
0.0067454745097
0.00208716883511
0.00101926196029
0.000681896638063
0.000546197817844
0.000483667832242
0.000452601084332
0.000436277614244
0.000427135095881
0.000421614570436
0.000418067399835
1048.31745493
292.046171301
83.4016882229
24.3452343319
7.00736983934
1.85533047901
0.562603756701
0.12892358691
0.0468916151475
0.0123844647974
0.00326128495158
0.00134525884587
0.000807782889866
0.000605566517926
0.000514844691015
0.000470136510392
0.000446832638203
0.000434041330052
0.000426554640339
0.000421872293724
1052.18188373
296.544770622
87.3709319933
26.7954013672
8.31125738975
2.47654455162
0.657394376805
0.190867636154
0.0546759733122
0.0209106994714
0.00526681023024
0.00181133382195
0.000966157348582
0.000676067940635
0.000551115538377
0.00049032186512
0.000458733101137
0.000441526512243
0.000431642848607
0.00042560766396
1067.21982227
301.288640635
90.1982257012
28.5320582796
9.3093307726
3.01174150913
0.910465894466
0.263025285087
0.0717157480868
0.027473745775
0.00875896132997
0.00253234281857
0.0011709887719
0.000759355252571
0.000592503674906
0.000513075349538
0.000471975318775
0.00044961789824
0.000436883898766
0.000429240321838
1081.92159524
305.874372774
92.3692998478
29.8359258298
10.0914324323
3.47953404877
1.17226069325
0.362226835962
0.125041067429
0.033479754177
0.0135640161463
0.00379312310754
0.00145632831824
0.000859537378313
0.000639391940905
0.000538305787234
0.000486477948081
0.000458283909007
0.000442264058684
0.000432760216319
1085.27620265
308.524148002
93.7961509303
30.7430959157
10.7029714701
3.87993073896
1.4243181754
0.50585148683
0.164675087919
0.0627267064239
0.0169297070637
0.00599297371319
0.00190245512734
0.000986024603085
0.000693096982062
0.000566113584381
0.000502151578717
0.000467443416943
0.000447745200534
0.000436171114905
1083.03652845
309.133393087
94.5230597153
31.3487127391
11.1848292205
4.22668726909
1.65789031575
0.649084910782
0.249268091789
0.0934431548547
0.0284694896756
0.0083716268291
0.00267476710411
0.00116247489905
0.000757984389937
0.000597481435036
0.000519185399868
0.000477114976052
0.000453348407561
0.000439480422581
1076.45500185
308.878505038
94.878051155
31.739062551
11.5512869111
4.51174222653
1.84590177286
0.773446163853
0.333684347273
0.152666244022
0.064165255743
0.0104802660554
0.00387464955663
0.00144358626453
0.000845908248162
0.000635645561708
0.000538509187617
0.000487611020063
0.000459161670387
0.000442743523006
1085.02649817
310.249825773
95.3903527643
32.0819982992
11.8270342164
4.71314273801
1.97565529574
0.865592220039
0.406684810171
0.217873670411
0.0976751299972
0.0213779457985
0.00524762181912
0.00195638006401
0.000983955518554
0.000687465307709
0.000562167093948
0.000499524762773
0.000465425385217
0.000446130835774
1108.69143323
315.498149616
96.5581173639
32.5102744697
12.0389706295
4.8290939584
2.04475626248
0.921724459507
0.467594588135
0.280046163946
0.156778386228
0.0534955041899
0.00747990458511
0.00304301805361
0.00123506299403
0.000765252282312
0.000593316110654
0.000513967777516
0.000472672254266
0.000449978275746
1145.69861663
324.308001784
98.9827950071
33.2657675887
12.2657609392
4.88550158783
2.07061762663
0.961215507455
0.524060639206
0.339328303032
0.219670544911
0.0878259422308
0.0169035385418
0.00554575464724
0.00173877347006
0.000891356130673
0.00063742115639
0.000532834073715
0.00048177652883
0.000454787558274
1166.66405962
333.760568631
103.187225591
34.7429121215
12.6027364408
4.90105081707
2.07484893044
0.999460434258
0.579909571171
0.398365521803
0.284389783261
0.142869634827
0.0434474328642
0.0108474131608
0.0028752029094
0.00111285766464
0.000703499665527
0.000558860416022
0.000493905631615
0.000461170642596
1193.01181492
353.282071108
110.966551797
36.8095456954
12.8889964769
4.88529819933
2.09226533624
1.04924786294
0.633183788339
0.45219987884
0.345720596139
0.218213627716
0.0936963323856
0.0201043258303
0.00554247747819
0.00153385414855
0.000806309637881
0.000595677750492
0.000510428765367
0.000469775701712
1348.63515422
398.097243681
122.013581726
38.9239451489
13.241731853
4.9993819962
2.18018657367
1.12012534075
0.680763096338
0.485807740289
0.395350708254
0.295994317335
0.148717292829
0.043603771251
0.00953666231072
0.00238422975867
0.000970845623016
0.000647897030083
0.000532820490324
0.000481230535498
1641.52753574
456.206864498
133.892079419
41.8450981663
14.2205569325
5.40969066971
2.3692506925
1.21254308373
0.728552039998
0.513860638736
0.420269021193
0.360623681665
0.235622309973
0.0817119402256
0.0121404884948
0.00388978917544
0.00123937426631
0.000721460302702
0.000562654721461
0.000496132098497
1767.94194417
489.219033544
143.710864273
45.2811957689
15.592727137
5.97949470016
2.60708037059
1.31485956408
0.777262380685
0.542997792504
0.439741566885
0.386527914019
0.309238740524
0.151981641081
0.0281096385811
0.004804773404
0.00166995853846
0.000824735851874
0.000601750120212
0.000515074544024
1798.22369344
503.015167149
149.412431849
47.9126706088
16.751494103
6.47726935069
2.81492434693
1.40194827775
0.822167936202
0.57549349073
0.461673872426
0.405644732185
0.3477900006
0.220495988698
0.0506393718966
0.00477997579389
0.00221970107172
0.000968325336691
0.000652347682077
0.000538689004738
1815.13008782
509.734768215
153.000160292
49.593443789
17.5260503134
6.82243584071
2.96117116448
1.47062390504
0.869737302413
0.612296500817
0.488505819321
0.429253394667
0.376479638554
0.273802001997
0.0938983533766
0.0082170183655
0.00267073138068
0.00117410894861
0.000718479634144
0.000567813307328
1825.84640781
514.483083709
155.182864827
50.5405692875
17.9783601448
7.03688890045
3.06597355034
1.5400061819
0.924932922169
0.651300611015
0.520734383926
0.459985516353
0.411887334262
0.321668487138
0.141406074575
0.0184282234064
0.00310025864327
0.00148197621176
0.00080693733106
0.000603618181121
1868.50824926
523.602365938
157.450301288
51.2603408337
18.3030839506
7.21099244599
3.17345052626
1.62404427373
0.98183466408
0.691260175392
0.561533458486
0.504830844801
0.463445771126
0.374901533128
0.19224305121
0.0360344970634
0.00409810854041
0.00197028055382
0.000929033887277
0.000647808474138
1916.71041758
536.575424538
160.59371705
52.1307423284
18.6530593177
7.40119854078
3.30172816481
1.71300417322
1.03298429885
0.733941099325
0.612989488283
0.569039647316
0.539044734445
0.447944628669
0.251805495222
0.0613089123866
0.00664311767466
0.00282611571692
0.0011072032135
0.000703358280031
1981.17473062
552.701371681
164.978771305
53.4328848149
19.1426679735
7.63542347797
3.44223771879
1.78959274573
1.07738278421
0.779750444044
0.673968727496
0.649748390029
0.629593232665
0.528963912587
0.330544826649
0.106400801516
0.0133333670354
0.00439908696897
0.00138489655966
0.000775498725062
2036.37746738
568.941657349
169.704681947
54.9643055953
19.7174865514
7.88574579625
3.565045859
1.84246797604
1.11436950081
0.82601276883
0.738304308722
0.73114150965
0.705505766969
0.607983481886
0.438340588884
0.178981248605
0.0311488826095
0.00685802905895
0.00183841609429
0.000872812901328
2104.00974677
583.968796089
173.887440827
56.343048618
20.2051585687
8.06892913985
3.62845299337
1.86291060178
1.13854116411
0.865395143481
0.793068765539
0.786265152651
0.753517788971
0.675445313115
0.529021438012
0.273402389565
0.0686868756966
0.0095837123337
0.00261755609152
0.00101031528128
2168.30204838
598.116126036
177.244946287
57.4174569074
20.5543800832
8.15920235987
3.62454845034
1.84983249591
1.14460136445
0.887022065091
0.81408151758
0.800103572456
0.780085717245
0.721645637971
0.591568087023
0.366859020681
0.104113675151
0.0133352730445
0.00400175128694
0.001215157851
2212.56194498
605.244815037
179.021367278
58.1418203009
20.7971606271
8.17496856449
3.56619367683
1.80526349809
1.12639273561
0.872747954584
0.783729740766
0.775781395099
0.78101098087
0.740633804374
0.631830440382
0.436092308904
0.168234331396
0.0242490627825
0.00621220936334
0.00153335388154
2182.19097814
596.712197927
178.534350723
58.6506683059
21.0139923306
8.1198145534
3.4459855957
1.72347033237
1.07287246607
0.813536972735
0.718183546366
0.721870982764
0.751904634892
0.734338079373
0.650234555232
0.470579479034
0.235031580827
0.0523913513768
0.00885550127878
0.00205011296897
2056.30056845
575.629739972
176.685999913
59.1207047914
21.0692393552
7.85222782435
3.24109344311
1.6218099919
0.99889596451
0.738256548095
0.643940417227
0.649120482455
0.69521814403
0.701501761588
0.645875053083
0.500080876061
0.299076389186
0.0831310410657
0.0115160140464
0.00294664748618
1960.95253879
564.806360343
177.753209028
60.0407052089
20.6570477175
7.5212332428
3.11593562546
1.54648233953
0.932268348158
0.670639712321
0.575036829238
0.571937402717
0.618805312848
0.643168046447
0.622228434011
0.531300882181
0.363359737251
0.125995520633
0.0164826003699
0.0045259716528
1921.10156894
571.332431881
182.952046689
61.1468823685
20.7444596594
7.58570700822
3.11534665488
1.51484776809
0.884299515932
0.617668554288
0.51630522448
0.499278322119
0.535473251282
0.568008723485
0.583266192922
0.556920617999
0.421792089578
0.184371784338
0.030489859875
0.0069314190701
1920.34880271
587.614653056
190.441728121
63.0920473178
21.9136138465
7.98809215162
3.21633954722
1.51466940132
0.853082969199
0.580004956941
0.469485503088
0.435591403058
0.455497825836
0.489210115743
0.531911534515
0.556308562118
0.450894799984
0.241365049272
0.0593286429387
0.00919522518103
1966.73791119
614.622615549
199.618706291
67.2891891829
23.9192021732
8.56509672984
3.34642174015
1.52396130821
0.834193235671
0.555391847327
0.437587993254
0.388425380488
0.386538102604
0.418544853449
0.475670780632
0.529433810621
0.458135454625
0.287104080486
0.0806522885719
0.0100312461987
2130.51041469
672.65583597
206.171123245
73.7673014481
26.2313716689
9.06801885014
3.43487761608
1.5284961665
0.824879624539
0.5433700921
0.419203446917
0.357550544258
0.336890168961
0.360621813702
0.42350132338
0.48806472617
0.446876706821
0.302473483
0.119506566927
0.0139296360758
3039.4410318
808.250914241
221.884073997
80.1781298319
27.8348528604
9.30486170343
3.46670134055
1.53355684623
0.82769979395
0.54335870319
0.412306674286
0.340247249313
0.304555411616
0.318147161156
0.3787126606
0.444145722917
0.424971773415
0.306569342159
0.153427572927
0.0269816339099
5843.41530698
1183.36911875
270.391964186
88.0295727866
29.0943510626
9.55646454687
3.5673452534
1.58628723237
0.858601998131
0.55968701204
0.417249116699
0.33491600605
0.287027139068
0.289889057035
0.34329098561
0.405179569755
0.402602864147
0.311195965209
0.182351193899
0.0391818100627
8801.63221747
1772.59219121
385.517757163
109.778257924
33.1779334259
10.6735124872
4.00048536356
1.77134660917
0.944481715667
0.601291985798
0.436823543025
0.341774777117
0.28327910808
0.275365439181
0.31885241504
0.375473138058
0.387483645987
0.32204224138
0.212248654592
0.0635953965344
9010.75190712
2127.93985137
562.2497216
158.036850227
44.9704716895
14.1438726799
5.18685336822
2.20853182248
1.11974472828
0.679077689258
0.474335323207
0.361365582346
0.292770369251
0.273983729181
0.305514804597
0.356711103872
0.383836352053
0.34289147647
0.24918600887
0.0965871026446
8274.93624992
2149.27342379
634.22996702
206.089877789
63.1291602078
20.3683864247
7.34424448186
2.97913593654
1.41074900986
0.800896478697
0.531691216026
0.393549891787
0.314475844547
0.284364030088
0.30198444034
0.349205548147
0.392486267191
0.375342863325
0.287395696856
0.136434094024
7483.19055532
2022.88190224
633.288187476
223.886972398
76.2794908381
26.4311384776
9.80313620379
3.93141950806
1.78218477094
0.956441162388
0.604696726997
0.435570085543
0.345240896884
0.304059789857
0.306865244864
0.351832532712
0.412346819586
0.420173074333
0.33353841753
0.18287468731
6797.90652477
1878.72352429
605.532600483
224.272226113
82.0196502709
30.5535754924
11.8984231526
4.86135341621
2.17645352049
1.12892523246
0.686907292703
0.484197703055
0.382386047866
0.330132811368
0.319120597247
0.364419821862
0.443871822174
0.476300597438
0.388537371951
0.235196915255
6339.49742524
1751.06357168
566.393767304
211.685690831
81.2974098298
32.3415885543
13.2744322682
5.60531034592
2.53628535214
1.29765980533
0.769050864357
0.535260308865
0.423642033277
0.361102820419
0.340013938493
0.388368443997
0.488492728646
0.541322263316
0.45383938262
0.293423059941
6118.42150761
1658.60977094
523.67514695
191.065519591
77.1673316409
32.4308695827
13.9267577163
6.09656401867
2.81991853531
1.43889941929
0.84071042416
0.584927234695
0.467425858672
0.397778255239
0.373066910691
0.427332836841
0.54718388347
0.617165197769
0.535866996287
0.359613186804
6238.77369236
1626.41791024
492.373475962
178.641349994
73.0795738602
31.5717229936
13.9862701572
6.33000861553
2.99569896274
1.52898286951
0.892265688711
0.63017800242
0.513570626126
0.443285990126
0.418558214573
0.484427670868
0.622198988196
0.708214474904
0.640725637693
0.437546856828
6660.31218202
1642.99092754
477.976587546
171.4155239
69.206198946
30.0525031199
13.5685522416
6.30677570003
3.02805031687
1.54581129961
0.916455148344
0.669783516778
0.563368289562
0.497805982858
0.479050196052
0.560435075287
0.714345175708
0.815903888079
0.767407940954
0.532896756262
7569.16607119
1700.45020367
496.459782441
169.211997632
65.9819540432
28.3337090526
12.9063427279
6.06568732635
2.90102200218
1.48621569931
0.91533769903
0.70580077608
0.618504830553
0.563512994099
0.555942418885
0.653294086314
0.819673279636
0.937640090943
0.912184052655
0.66069578931
8094.93573602
1856.50022572
518.306353004
168.711359371
63.4373652888
26.7819491752
12.1271659095
5.59888117585
2.62318384152
1.37112470855
0.900913672753
0.742027073954
0.678972610777
0.638909869287
0.643965694817
0.750875227991
0.932105003576
1.07327753858
1.07491172267
0.82650490296
7802.85200265
1827.88656949
515.505673778
166.028343534
61.2148164905
25.3300969437
11.079979173
4.88097071965
2.25457967722
1.23939922368
0.887264888607
0.778822023696
0.740234954595
0.715580402471
0.730993138202
0.83942955261
1.04644197291
1.21965079045
1.24104431297
1.00487908962
7097.98293118
1710.84641347
492.382548835
159.555218463
58.2536573684
23.2493649353
9.58524452042
4.0351607306
1.89008926728
1.12845075464
0.880349882339
0.809048432074
0.78918799363
0.775985490989
0.798209949083
0.908146536119
1.14707622839
1.35791092778
1.39081937344
1.17474187353
6143.04160166
1510.15234604
443.093251688
146.357893868
52.9223431724
20.2886387234
7.94310222878
3.26380299633
1.60682256935
1.05290034362
0.87174025448
0.818695554692
0.806812644879
0.800323000479
0.828150248093
0.946292404421
1.20290635893
1.45755515191
1.51298039258
1.32643279911
4935.39226882
1243.06957737
381.950382244
130.145792925
47.1371094084
17.5416505437
6.5983483573
2.73346990914
1.44351868
1.00416849126
0.845523577034
0.79164872739
0.777791236379
0.774536146743
0.803260008513
0.937022856442
1.18191745178
1.47096507744
1.58005125097
1.4312443667
3631.31730375
1029.58800915
343.557585879
121.740778366
44.2525836687
16.1700913396
5.98112719068
2.52416796988
1.3722335689
0.954654391623
0.786030711334
0.719404704421
0.698494470694
0.698550473908
0.721643779682
0.836020796831
1.0683877246
1.3463702646
1.53354641781
1.45473356938
2892.14806309
996.999985404
361.205810958
133.363561446
47.7388176368
16.5456490871
5.94771177694
2.51209250588
1.34621858709
0.894330944028
0.697233720211
0.610079935304
0.579179486567
0.580934533682
0.601083544651
0.667533961332
0.858180046084
1.09476955005
1.32643740384
1.3729494818
3511.80335521
1284.81277587
464.038044454
161.825641372
54.3873689502
18.3301390687
6.64300104709
2.79466793922
1.41904644135
0.861853845612
0.612044648967
0.495556236837
0.446697795383
0.439440347528
0.456691384195
0.491912800742
0.585728552199
0.786141672422
1.00579010652
1.18596507234
5319.29343951
1830.51997292
561.139458657
176.461330925
58.5395688885
21.0712156001
8.28609989652
3.52859596406
1.6846360052
0.914717889293
0.574088818165
0.415580979885
0.340691594479
0.313052147332
0.317462391191
0.338463585982
0.380402743481
0.486297368404
0.694028637297
0.94114214316
7294.73289636
2041.66238161
580.554050192
176.070345873
61.6945112501
24.6188988707
10.6206788319
4.53299008401
2.10268441088
1.06774635683
0.603899309747
0.390913291768
0.28692539962
0.235772838812
0.221099377378
0.229533646841
0.252793145669
0.307861007637
0.455456906736
0.71578181178
7607.46582602
1940.9324101
548.254324837
173.827693878
65.025860327
28.6510638709
13.4480660679
5.55403576249
2.51354885714
1.25646821118
0.685265952995
0.415620585569
0.282345347147
0.209684600817
0.177128458069
0.173348619291
0.186845435557
0.222444231674
0.314842131285
0.556217654174
7512.98922406
1891.08036548
520.965731096
167.746454188
65.9382961904
31.1403211816
15.5928772919
6.3754656915
2.87198490638
1.43815968293
0.784289516391
0.469202719681
0.308687742022
0.217422729823
0.170989923856
0.157197628021
0.163716704556
0.189544607017
0.259401781158
0.46577669986
7803.18181739
1872.37753092
498.274433561
159.336575072
64.0183855251
31.1146355807
15.127264384
6.69141664177
3.15511356221
1.611195345
0.888387942488
0.535270421238
0.349776425205
0.242983829514
0.186789934177
0.165826172562
0.166917471846
0.186226942243
0.243306663198
0.419279630976
8706.52758685
1957.56677391
498.873664279
156.35960993
62.5565782677
29.0865744371
13.762095185
6.57691019278
3.28579652538
1.73560033186
0.979532118017
0.599312218375
0.393754879019
0.276186456835
0.214757283463
0.189543769173
0.18661620135
0.20107844515
0.24921476078
0.405716901785
10210.0779066
2201.69508002
556.560740809
172.57785859
65.4841987021
28.3937786823
13.4835960278
6.66576306808
3.43193133805
1.8510342159
1.06325209157
0.656938302361
0.433926838156
0.311073831729
0.249141472833
0.222614135839
0.217103028337
0.228097907907
0.270363988482
0.413893196183
11445.3573039
2569.38179566
694.184866309
219.306564873
82.2307567949
34.3552341597
15.6592954144
7.57261066653
3.83365204095
2.04461773221
1.16532360548
0.712345918346
0.470526736153
0.34746526743
0.288566548985
0.26251258455
0.255303993344
0.263384458626
0.300998720539
0.436932234617
10702.693205
2817.02670555
876.70534241
306.914719333
116.508537988
47.4154839934
20.6984658585
9.56592497589
4.63587767496
2.37691762819
1.30107228492
0.767096528529
0.50692978498
0.387615745587
0.33356262837
0.308553287862
0.29969928801
0.30500051353
0.338200059446
0.467378608437
8205.40353165
2718.39865834
980.626019442
375.096234447
148.341571141
61.2211289458
26.6343030209
12.1090678713
5.71187509292
2.80496275489
1.44720313192
0.819125122023
0.546249799186
0.433503191712
0.384734370217
0.360350895516
0.349344346541
0.351314485865
0.380362088598
0.498569473464
5922.33370325
2222.41750933
886.47743803
367.441140327
155.420478931
67.5528207379
30.4579217092
14.1284577734
6.66883580788
3.1748487004
1.55760798472
0.863221801295
0.588916338388
0.48525073147
0.441450571374
0.417022915773
0.402990879604
0.400787788653
0.425337633302
0.52581607269
5099.1009252
1818.87464719
740.418095884
322.231663313
144.733117006
66.6256019781
31.4832984281
15.1122618301
7.22079406277
3.37098357032
1.61193061712
0.898085185288
0.634982099989
0.541851258356
0.502519165031
0.47735272317
0.459684488101
0.451995446675
0.467707385083
0.547382689187
4588.20183247
1553.18445068
619.516178414
274.803201053
128.574946479
61.9581849672
30.4849189524
15.1021974602
7.30317158346
3.37970069403
1.61629073787
0.927283995285
0.684237600922
0.601593889848
0.566233215457
0.540451050098
0.518567921724
0.503858181968
0.50310687144
0.560750993192
4111.01407911
1351.19464825
526.280089363
234.091408512
112.015261998
55.5929898386
28.1488302036
14.2703360084
6.95725322201
3.22498006024
1.58007998854
0.951386274626
0.733241184463
0.659931666393
0.628960885593
0.603578911385
0.578282464874
0.550181910032
0.53035544903
0.563967915983
3743.02938918
1194.68827391
455.089240845
200.302597139
96.3226030786
48.4772325668
24.977997837
12.8238613969
6.25807291786
2.93715412809
1.5079342593
0.964691436939
0.772817070316
0.707372107861
0.681935858445
0.659850873413
0.628445406588
0.581242102563
0.547553281108
0.5549350591
3503.56888084
1086.76525963
402.799022888
172.970760121
82.270455161
41.4054086392
21.4306543144
10.9624866917
5.31201944931
2.56568103673
1.40767443047
0.957994513435
0.789187638187
0.728924366512
0.710300962359
0.689349221779
0.644492705012
0.589708232609
0.546013033724
0.530099879809
3481.91367157
1039.71268119
370.34445223
153.653135899
71.3829435922
35.3408732429
17.9776328224
8.9833344236
4.35386625868
2.21380208913
1.3039717931
0.927018716612
0.770293889858
0.709570228649
0.686599211205
0.660516243433
0.620658294316
0.565573906264
0.5159147541
0.484112087849
3567.69520757
1034.17719082
359.084369324
145.693109236
65.4392187955
31.1534005997
15.2824174544
7.50533366217
3.74491493762
2.0139456654
1.23453453098
0.879215696433
0.713719992971
0.636809661096
0.600539867679
0.578146764258
0.548466000567
0.50237395769
0.455242407694
0.417054862437
3476.19889353
1060.13385932
381.886249166
153.072074269
66.1270550897
30.4557271799
14.674789101
7.3097742968
3.75853399527
2.04688767411
1.22920375861
0.834129692338
0.636633910652
0.535898323413
0.48393434568
0.457536538292
0.436022997932
0.405715149699
0.371913195395
0.339182458044
3511.44175663
1193.40871399
445.909526505
175.195284146
74.1284744383
33.5282811131
16.2145196643
8.28064106344
4.32427970228
2.32135674867
1.33370591569
0.839681983309
0.586317186349
0.452255695239
0.378917414766
0.339698868237
0.31822777156
0.300738051665
0.283300813128
0.264929163193
4081.49720975
1414.41893911
516.333688266
198.354324534
81.2455991024
36.4075810826
18.1049390037
9.78883042527
5.36716611751
2.89633562751
1.61565236565
0.951880212318
0.604097657068
0.421996251234
0.32194530619
0.264440512637
0.233687550089
0.219142826178
0.21220154099
0.206883888812
4568.79183714
1506.43033013
515.709768462
193.754725722
81.2146806127
37.9276215587
19.9531524575
11.539405949
6.76235729322
3.69184123698
2.04634311749
1.16533531846
0.695831226968
0.45011353466
0.318068959036
0.240431694889
0.196123898607
0.175613650498
0.170273991043
0.171925101297
4129.10500932
1223.67701829
414.263770451
161.334717464
71.8318888631
36.3785002148
20.8774703652
13.1077352057
8.27443357224
4.67180998758
2.53277474544
1.41658509377
0.826662358086
0.516194157947
0.350516839327
0.252869388653
0.194856355572
0.165553044831
0.155957335563
0.158385063588
3723.54285637
1034.18714881
341.674758551
133.332049861
61.5412181117
33.2800819946
20.5372499089
13.7043609718
9.10065496246
5.4037928185
2.93495992763
1.63289396447
0.949500886584
0.591260042844
0.398388936007
0.283813287548
0.213901250743
0.176702088448
0.162302342621
0.162386708291
3472.60473974
932.639905894
294.143800862
110.589284427
51.2023455964
28.9485141061
18.8927422871
13.1992023199
9.05609544761
5.52637909079
3.06143455086
1.72630882998
1.01830012246
0.646134006171
0.443004196981
0.319226288277
0.241779991012
0.199611503026
0.182002596458
0.179846262238
3644.27739832
905.623279264
259.646978311
88.9870932978
40.0941177298
23.5102721377
16.1664607389
11.738421903
8.21081152449
5.0306878761
2.89823997976
1.68730923849
1.02724964618
0.675639377741
0.479036279571
0.353862520349
0.273786566601
0.229970813386
0.211006431537
0.206910187262
4701.04811154
1014.7452398
253.381347427
76.8119738052
31.6164544068
18.2411015214
12.9755794684
9.65467297092
6.76142226838
4.23817690592
2.5605592327
1.56047827523
0.997579171858
0.69049932675
0.510306482535
0.388067674761
0.309030619222
0.26615946964
0.247184166815
0.241084587723
6982.19760138
1403.20220513
331.625785735
90.4896033907
30.9148389792
15.1877390001
10.1611971738
7.4919225938
5.24885440429
3.42806730813
2.18281794091
1.40886623131
0.961047779484
0.70606832307
0.542256899581
0.423313339717
0.347347237891
0.306762589018
0.288201979673
0.279785406318
8727.76370969
1951.89182548
489.40027371
134.843164625
41.5403895536
15.920699533
8.80332062654
5.94645709856
4.11756664114
2.78596281795
1.87176288757
1.29162253103
0.946964729444
0.73335459709
0.576557438034
0.45993688124
0.38738817141
0.348768663127
0.330206025357
0.319835342388
8576.58821703
2246.05857605
652.244852348
198.024281491
62.6302790283
21.7870078538
9.54360813821
5.4063510345
3.51549993818
2.40062117853
1.68891677765
1.24420661092
0.967124428967
0.770731954175
0.611900763754
0.496538050532
0.425671314382
0.387094824692
0.367756795583
0.356028981783
7701.38029777
2197.06641637
715.044743625
241.482551388
82.6794420219
29.1371162096
11.4750142574
5.59659397018
3.33793105817
2.24874322602
1.63205078319
1.25957354883
1.00999436621
0.810565937991
0.647014352093
0.529538415896
0.45674940125
0.415182281928
0.39256148116
0.378209862356
6345.97253907
1970.22874021
677.977833541
244.355419551
88.982988206
32.6487864915
12.7393015953
5.88213837794
3.34243895006
2.22828070516
1.64972949429
1.30532650868
1.06082725684
0.853670202396
0.678975985373
0.553457705496
0.474064496741
0.425081607631
0.397065385794
0.396411126826
4789.19428064
1556.73646332
561.276764667
212.327478389
80.4962189881
30.4418236061
12.2093506819
5.7446518775
3.29470888147
2.22411775225
1.68496349095
1.36600894097
1.12388851442
0.897895503697
0.700711173646
0.560621916571
0.469889257249
0.413568508939
0.391920691954
0.431371861627
3611.07098331
1200.04336626
442.991835465
170.747060291
64.9704713062
24.7978459512
10.3856297583
5.18634179008
3.12286325381
2.20231053899
1.7359759739
1.44577853602
1.1935805977
0.929035385078
0.698506677653
0.540475661108
0.442040507766
0.391884370889
0.38833622462
0.523909119391
2867.46410439
990.92569317
367.708177541
139.192141198
51.1047927714
19.5109787117
8.62527639388
4.63511051419
2.98368624174
2.22127046353
1.81343189474
1.52891449021
1.23706176238
0.914075148993
0.652488700999
0.490118673716
0.402530723589
0.365636973997
0.399876619055
0.735453322665
2581.10805325
943.624882552
352.38853486
130.250482654
46.7405686615
17.9694033893
8.24018542962
4.63993844881
3.10085497513
2.34534206612
1.90334833669
1.5534648448
1.18016846856
0.820856783416
0.571185696468
0.428259714112
0.358243865272
0.33860943091
0.45192170642
1.04234519247
2832.33540057
1089.5725878
418.432079728
154.098882436
55.3203245565
21.6569521019
10.0756582552
5.66721252889
3.68564461506
2.63495511907
1.97200498098
1.45972317273
1.03513775069
0.700045495904
0.484445947499
0.369242728885
0.315303122418
0.325596104979
0.545421427677
1.30123002833
3852.93295286
1485.2061149
547.276669759
199.795954899
74.3612704754
30.4768859272
14.6620135353
8.28431744355
5.1500477299
3.30926559839
2.15471285124
1.41955197553
0.932165075419
0.607007876447
0.420089754487
0.323712734625
0.284347233478
0.331751117513
0.614238724164
1.36415114561
5655.73986954
1922.08159706
658.678552345
245.156852349
96.2364753
41.2789804799
20.6568248838
12.0201656664
7.56595685837
4.71650885507
2.79613329556
1.62571857489
0.960242025632
0.589627685724
0.395764194251
0.298965663408
0.268101880478
0.321110319106
0.580556502179
1.14935943591
6003.76630056
1766.94880614
606.031732508
239.946467759
104.47542479
49.6021230436
26.5418717603
15.9897102573
10.4424594783
6.75883122444
3.9783328554
2.15715558377
1.16204248476
0.65645618263
0.411963961439
0.296364585314
0.254739049499
0.286622642385
0.456900824125
0.761946783472
5172.18514105
1475.57290923
506.29916243
205.793678447
95.6239424769
49.7953256999
29.1285901073
18.9264418143
13.1331935236
9.02165794676
5.49465626763
2.9087521727
1.45890189213
0.77583782123
0.455078671709
0.305573129592
0.242596813238
0.241795433861
0.316926667034
0.432052295146
4436.09239161
1235.75816253
411.931326059
166.961029269
80.8762126422
45.3640140189
28.7833451941
20.068753922
14.7090375673
10.6273320112
7.00313734755
3.84681180793
1.7655167546
0.896955998076
0.502637115728
0.318224564727