/*--------------------------------*- C++ -*----------------------------------*\
| =========                 |                                                 |
| \\      /  F ield         | OpenFOAM: The Open Source CFD Toolbox           |
|  \\    /   O peration     | Version:  2312                                  |
|   \\  /    A nd           | Website:  www.openfoam.com                      |
|    \\/     M anipulation  |                                                 |
\*---------------------------------------------------------------------------*/
FoamFile
{
    version     2.0;
    format      ascii;
    arch        "LSB;label=32;scalar=64";
    class       volScalarField;
    location    "0.655/water";
    object      Tf.gasAndLiquid;
}
// * * * * * * * * * * * * * * * * * * * * * * * * * * * * * * * * * * * * * //

dimensions      [0 0 0 1 0 0 0];

internalField   nonuniform List<scalar> 
6000
(
314.422436265
306.127345567
302.630588902
301.063198998
300.449489898
300.094469488
300.004129774
300.000023963
300.000000019
300
300
300
300
300
300
300
300
300
300
300
320.378937628
308.383188992
303.032288637
301.1071648
300.401360166
300.14691116
300.047713592
300.005370315
300.000079388
300.000000085
300
300
300
300
300
300
300
300
300
300
320.38475378
307.91813867
302.717613328
300.912219063
300.302459623
300.100381654
300.033116163
300.008301105
300.000587358
300.000006267
300.000000002
300
300
300
300
300
300
300
300
300
319.510920178
307.896078951
302.828030793
300.950843197
300.309707184
300.098299577
300.030055813
300.008814746
300.001438569
300.000054736
300.000000401
300
300
300
300
300
300
300
300
300
318.634118235
307.720851818
302.932481246
301.034729132
300.350414018
300.115530365
300.035846132
300.010232588
300.002762872
300.000249976
300.000005736
300.000000001
300
300
300
300
300
300
300
300
317.669812246
307.388811939
302.91480507
301.078844727
300.382875915
300.133797624
300.044689619
300.013257488
300.003577441
300.000671691
300.000030502
300.000000495
300
300
300
300
300
300
300
300
317.228873521
307.142738429
302.841272985
301.083310023
300.399642892
300.146985906
300.053092124
300.017066387
300.004645823
300.001226515
300.000125395
300.000003367
300
300
300
300
300
300
300
300
317.07843256
306.970818171
302.753996632
301.062320112
300.405268792
300.156244921
300.060508326
300.021283644
300.006021669
300.001515688
300.000333526
300.000014936
300.000000009
300
300
300
300
300
300
300
317.045487449
306.931641732
302.740740941
301.066280344
300.416985368
300.167598612
300.068613461
300.026109166
300.007853025
300.001889937
300.000486314
300.000058595
300.000000321
300
300
300
300
300
300
300
317.071598451
306.945784236
302.751330562
301.082684399
300.433401275
300.180902347
300.077693066
300.03144275
300.010074953
300.002380769
300.000552215
300.000149305
300.000005009
300.000000005
300
300
300
300
300
300
317.141158885
306.933752842
302.744052926
301.090040156
300.446525112
300.193050051
300.086515012
300.036865179
300.012552395
300.002950903
300.000620252
300.00016696
300.000022916
300.000000169
300
300
300
300
300
300
317.213026494
306.867078061
302.69213837
301.07533305
300.44985396
300.200603425
300.093299356
300.041605533
300.015161616
300.003667899
300.000693408
300.000166183
300.000051523
300.000001867
300.000000001
300
300
300
300
300
317.257624641
306.712038325
302.576585493
301.026387333
300.437353827
300.201085897
300.096810371
300.044996232
300.017485349
300.004548188
300.000800923
300.000164246
300.000050601
300.000005985
300.000000023
300
300
300
300
300
317.218783206
306.6420537
302.51089162
300.9867417
300.421478349
300.197935521
300.098264668
300.047433027
300.019519405
300.005507936
300.000957882
300.000165806
300.000044049
300.000010614
300.000000143
300
300
300
300
300
317.138881894
306.66357353
302.502463924
300.971254889
300.412274388
300.195831398
300.099645076
300.049810081
300.021585399
300.006607569
300.001178669
300.000172437
300.000037674
300.000013237
300.000000461
300
300
300
300
300
316.818692505
306.62199734
302.497404432
300.9657044
300.408179379
300.195770768
300.102274819
300.053011028
300.024156807
300.008015852
300.001505989
300.000189115
300.000032099
300.000009332
300.000000817
300.000000002
300
300
300
300
316.331893929
306.495304822
302.463226562
300.952191936
300.404421316
300.198240047
300.107323538
300.057930532
300.027765769
300.009960726
300.002009586
300.000227551
300.000029453
300.000006615
300.000001296
300.000000015
300
300
300
300
316.408113419
306.516347405
302.45886786
300.948197524
300.408621617
300.206918751
300.11638567
300.065252143
300.032724566
300.012560731
300.002745828
300.000304537
300.000033099
300.000006123
300.000001325
300.000000061
300
300
300
300
317.37665055
306.991578251
302.660967814
301.026978715
300.443688295
300.227321701
300.130284539
300.074787159
300.03872629
300.015631011
300.003658542
300.000424082
300.000045129
300.000007712
300.000001475
300.000000213
300
300
300
300
317.866953415
307.344059405
302.894866482
301.149989317
300.500159375
300.255432351
300.146776356
300.085248712
300.045025715
300.018739793
300.004634737
300.000567249
300.000063721
300.000010765
300.000001946
300.000000315
300
300
300
300
317.987082799
307.4705752
303.005862346
301.229995827
300.547420569
300.281196904
300.162211658
300.095217248
300.05120801
300.021665604
300.005554999
300.000712717
300.000082465
300.000014182
300.00000247
300.000000382
300
300
300
300
318.062551737
307.467322819
303.025287731
301.257347503
300.571623395
300.298394803
300.174317544
300.103983149
300.057201917
300.024477071
300.006391204
300.000859417
300.000102433
300.000017754
300.000002978
300.000000432
300
300
300
300
318.064555366
307.334074484
302.944693172
301.232070838
300.57234891
300.306425757
300.182763271
300.111160571
300.062307893
300.027177861
300.007199325
300.000999051
300.000120349
300.00002086
300.000003448
300.000000475
300
300
300
300
318.048351503
307.227368751
302.864947829
301.195872617
300.563333429
300.309112417
300.188598638
300.116782496
300.06608919
300.02948648
300.008038382
300.001145801
300.000135035
300.000022965
300.000003791
300.000000509
300
300
300
300
317.978042384
307.161318712
302.807547703
301.166865149
300.553977328
300.30979758
300.192550556
300.120465739
300.068465391
300.031228189
300.008954414
300.001319409
300.00014759
300.000024421
300.000004066
300.000000549
300
300
300
300
317.914095736
307.122005825
302.777303113
301.153328849
300.550358999
300.311023754
300.195030802
300.122040486
300.06953948
300.032364611
300.009840561
300.001519024
300.000161269
300.000026068
300.000004436
300.000000601
300
300
300
300
317.832963114
307.074384772
302.750599962
301.145762259
300.550472053
300.31264373
300.195760719
300.121753686
300.069394371
300.032811843
300.010521171
300.00174374
300.000183084
300.000028563
300.000004808
300.000000632
300
300
300
300
317.741306375
306.942680643
302.675386462
301.119152929
300.544522604
300.311213313
300.193802317
300.119704607
300.068157139
300.032646449
300.010979352
300.001984014
300.0002166
300.000029323
300.000004483
300.000000547
300
300
300
300
317.629628773
306.914310079
302.667462734
301.112027171
300.540428617
300.307912538
300.190019727
300.1165575
300.06639887
300.032357416
300.011445316
300.002379703
300.000258773
300.000030126
300.000004005
300.000000411
300
300
300
300
317.57347931
306.984711464
302.718780603
301.131465945
300.543619352
300.305308824
300.186127961
300.113719554
300.065326361
300.032614865
300.012648341
300.002903929
300.00031525
300.000030783
300.00000349
300.000000202
300
300
300
300
317.398161559
307.022914526
302.763750704
301.15545976
300.549112769
300.303151105
300.183556041
300.112781811
300.066153517
300.034766419
300.014547506
300.003642801
300.000403354
300.000031961
300.00000326
300.000000022
300
300
300
300
316.873759919
306.84718657
302.720266704
301.144553173
300.540382035
300.296913028
300.181648544
300.114370143
300.069795161
300.038751482
300.017270888
300.004660579
300.000531153
300.000034183
300.000003147
300
300
300
300
300
316.267982436
306.53128051
302.576322023
301.079607206
300.509362715
300.285390004
300.181759195
300.119654223
300.076316568
300.044363481
300.020809579
300.006001187
300.000708366
300.000038341
300.000003019
300
300
300
300
300
315.775509506
306.358322155
302.501686995
301.026566257
300.477085176
300.277495016
300.187155461
300.128815225
300.085165217
300.051285184
300.02506663
300.007678137
300.000954562
300.000046497
300.000003151
300
300
300
300
300
315.471467372
306.282741841
302.482664302
300.995903756
300.451018121
300.278404259
300.198132008
300.140876649
300.095533603
300.059015215
300.029824212
300.009626633
300.001267071
300.000060271
300.000003715
300
300
300
300
300
315.341524669
306.233187054
302.451808128
300.945892796
300.434943903
300.288347409
300.212133702
300.154133212
300.106487924
300.067035067
300.034705852
300.011675452
300.001618708
300.000078614
300.000004604
300.00000004
300
300
300
300
315.265086055
306.070803697
302.212241415
300.820111322
300.429210996
300.300644182
300.226431221
300.167141088
300.117047563
300.074714657
300.039448057
300.013678477
300.001986152
300.000101902
300.000006181
300.000000324
300
300
300
300
315.733093874
305.050771001
301.676952647
300.72134601
300.427426385
300.31328584
300.240357454
300.179602912
300.127089684
300.081986422
300.04394724
300.015667251
300.002385365
300.000134094
300.000009116
300.000000812
300
300
300
300
318.343124322
304.355994298
301.409390206
300.669964291
300.434509493
300.328902597
300.25569445
300.192825198
300.13754302
300.089502764
300.048658566
300.017929837
300.002912133
300.000186407
300.000014755
300.000001724
300
300
300
300
323.475747056
306.254109289
301.708444303
300.700655358
300.457226492
300.34971469
300.273674637
300.207724807
300.149115226
300.097842738
300.054143783
300.020836828
300.003738609
300.000281374
300.000025793
300.000003548
300.000000198
300
300
300
326.470169882
308.437765788
302.755503149
300.941605912
300.522576738
300.380353793
300.294514604
300.224046433
300.161796846
300.107173644
300.060486871
300.024551013
300.005041466
300.000459398
300.000046382
300.000007119
300.000000761
300
300
300
328.453187328
309.948517504
303.546182671
301.314719128
300.655922163
300.43210804
300.320388066
300.24150529
300.17481551
300.116659432
300.067147222
300.028926493
300.006912441
300.000775534
300.000081097
300.000013422
300.000001853
300
300
300
329.978094624
310.814798578
304.046518392
301.571506171
300.792986179
300.495471482
300.351121481
300.259515426
300.187106881
300.125146637
300.072881703
300.03287515
300.009064283
300.001268041
300.000135459
300.00002323
300.000003624
300.00000008
300
300
330.967238259
311.290030161
304.317593527
301.746414682
300.901705277
300.555726681
300.382486864
300.276956765
300.197950019
300.132007845
300.077191536
300.035807737
300.010797487
300.001812864
300.000214165
300.000035921
300.000005932
300.000000341
300
300
331.84233879
311.438748946
304.360541761
301.808865573
300.97439804
300.605027294
300.410281294
300.292198686
300.206604028
300.136624088
300.079687543
300.037525031
300.01192976
300.0022572
300.000308155
300.000049573
300.000008408
300.000000613
300
300
332.166856614
311.23382169
304.182629779
301.807969362
301.030248428
300.644333585
300.432494512
300.30393287
300.212186383
300.138347597
300.080066985
300.03790306
300.012432039
300.002575404
300.000396005
300.0000623
300.000010681
300.000000847
300
300
332.197855307
310.793835143
303.953003211
301.906411252
301.087836488
300.674796727
300.447925587
300.310855555
300.213388076
300.136607494
300.078203945
300.036994063
300.012389183
300.002766677
300.000469027
300.000074376
300.000012587
300.000001029
300
300
331.699793697
310.069522809
303.943326196
301.996267672
301.126249557
300.68906754
300.452934792
300.310360843
300.208434324
300.130959899
300.074194086
300.035008435
300.011956505
300.002854485
300.000519984
300.000081951
300.000013773
300.0000011
300
300
330.949567473
309.651496069
304.235709166
302.087718289
301.1420654
300.685837582
300.446310722
300.300335746
300.197082946
300.121906893
300.068653809
300.032457027
300.011366373
300.002877818
300.000547929
300.000083708
300.000013916
300.000001008
300
300
330.626161556
311.037599409
304.606087356
302.160844343
301.135623084
300.668033605
300.427461403
300.280655893
300.181062003
300.111165884
300.062768519
300.03001115
300.010880898
300.002898429
300.000564863
300.00008327
300.000013299
300.000000743
300
300
331.27409534
311.844587488
304.825208904
302.180326398
301.109345133
300.635298397
300.395158865
300.255578042
300.163695535
300.10110657
300.057833638
300.028318197
300.010748308
300.003008876
300.000598643
300.000086132
300.000011925
300.000000367
300
300
332.174302211
312.284697005
304.894274357
302.157548258
301.051874672
300.580760739
300.356772596
300.229652909
300.148560358
300.093757204
300.055020915
300.027808786
300.011196577
300.003338629
300.000684728
300.000093641
300.000009704
300.00000004
300
300
333.116086605
312.675041537
304.867198191
301.998088688
300.93382717
300.510332386
300.315164058
300.206942032
300.138128309
300.090529855
300.055110237
300.029077328
300.012412028
300.003890353
300.00081377
300.000105069
300.000006923
300
300
300
329.414040394
311.911495666
304.330802993
301.69226388
300.77674652
300.432072753
300.278836299
300.191812734
300.134676144
300.092145988
300.058427664
300.032159352
300.014374863
300.00468299
300.000995106
300.000123949
300.000004215
300
300
300
321.579303189
309.370584899
303.468530528
301.346449363
300.621381401
300.369588441
300.255429029
300.187596606
300.138425294
300.098807889
300.065003404
300.037309398
300.017364904
300.005866757
300.001273709
300.000159708
300.000004604
300
300
300
315.969079426
307.244662341
302.767993465
301.058392432
300.512155507
300.334987191
300.25226926
300.195804377
300.150727288
300.111305951
300.075863249
300.045339444
300.022042924
300.007807665
300.001768148
300.000232569
300.000010129
300.000000651
300.000000281
300
314.226478036
306.693645523
302.530950938
300.847987639
300.466736324
300.344754601
300.273664237
300.21958523
300.173455172
300.13135176
300.092273686
300.057302753
300.029183698
300.010884338
300.002593837
300.000360902
300.000020523
300.000001136
300.000000982
300.000000205
318.103968719
309.081371732
303.371802717
301.072897499
300.557818133
300.403806492
300.32094137
300.259165637
300.206556438
300.158678201
300.114123664
300.073362267
300.039007817
300.015263125
300.003820772
300.000564666
300.00003821
300.000001277
300.000001232
300.000000533
332.051904536
312.33695754
304.596334927
301.562246805
300.73701662
300.503083676
300.389349897
300.30982751
300.245635109
300.189464315
300.138356879
300.091565532
300.050584923
300.020674713
300.005429989
300.000855431
300.000067253
300.000001267
300.000000976
300.000000635
342.71159849
314.304595765
305.154761643
301.856782182
300.872822033
300.5834469
300.450414976
300.357601248
300.28184156
300.217376387
300.160218954
300.10838436
300.061861217
300.026288464
300.007251431
300.001226282
300.000111808
300.000001675
300.000000535
300.000000467
345.660762544
314.849463003
305.190277338
301.916644384
300.916545992
300.608456285
300.473450554
300.382522302
300.304900426
300.236824144
300.176067903
300.120976854
300.070822307
300.031144368
300.009057056
300.001667118
300.000179815
300.000004917
300.000000381
300.000000168
345.069281793
314.203725833
304.861117127
301.808645911
300.887104614
300.599209846
300.472780028
300.387917235
300.3132957
300.245975627
300.18460822
300.128348807
300.07647466
300.034719286
300.010747028
300.002194691
300.000283728
300.00001641
300.00000093
300
342.782244783
313.001446513
304.278306602
301.592984267
300.822157991
300.580427859
300.466368215
300.385732725
300.313751992
300.247692157
300.186770852
300.130413021
300.078205483
300.036368963
300.011972726
300.002703665
300.000406283
300.000034146
300.000002202
300
340.622588689
311.855061873
303.707162691
301.395831479
300.774196433
300.565597221
300.461262088
300.38217146
300.311580059
300.246178547
300.185421441
300.128677852
300.076555829
300.035879888
300.012291114
300.002993869
300.000503684
300.000052752
300.000003756
300
339.611405774
311.208869363
303.389575582
301.31689549
300.778066261
300.572327162
300.462448036
300.381363514
300.3101977
300.244244031
300.182572498
300.1245595
300.073017785
300.034220873
300.012016207
300.003074359
300.000555306
300.000065193
300.000005281
300.000000012
335.525822587
310.634425265
303.629599246
301.58270457
300.900295897
300.620950828
300.479758369
300.38748951
300.312060835
300.243440731
300.178943313
300.119433391
300.069080521
300.03239537
300.011594509
300.003068983
300.000577928
300.000072238
300.000006509
300.000000172
326.405041388
310.700394743
304.431601889
302.082709329
301.140084374
300.722737478
300.519775694
300.403124998
300.31792531
300.24345118
300.174690101
300.114471269
300.065737434
300.031009666
300.011307391
300.003065476
300.000591941
300.000075819
300.000007625
300.000000404
319.948834655
309.710549234
304.658333385
302.385287903
301.335638902
300.824037216
300.566276877
300.423212803
300.325168003
300.242501849
300.170134119
300.110268078
300.063400996
300.030282407
300.011256194
300.003108812
300.000608005
300.000078374
300.000008537
300.000000712
316.960042254
308.428343257
304.420181765
302.440661665
301.42420412
300.886300179
300.601196369
300.440024871
300.329936393
300.239967086
300.165820319
300.107281545
300.062287998
300.030295826
300.011493972
300.003224071
300.000637157
300.00008169
300.000009808
300.000000987
315.849822611
307.57294955
304.069473712
302.353391659
301.425016205
300.906312735
300.618281895
300.448904313
300.330183751
300.236134638
300.162327974
300.105835836
300.062501239
300.031107418
300.012074303
300.003449016
300.000689686
300.000089545
300.000011744
300.000001311
315.594749891
307.064135897
303.722458392
302.189177
301.363129153
300.889679207
300.616249075
300.447302554
300.325044002
300.230990667
300.159747381
300.105874279
300.063981803
300.032737869
300.013074384
300.003828539
300.000782252
300.000108195
300.000013947
300.000001685
315.789975033
306.617060323
303.345936366
301.967859481
301.252684952
300.840861788
300.594593732
300.433302483
300.313990194
300.224368548
300.157916868
300.107250104
300.06668866
300.035290059
300.014644666
300.004444311
300.000954026
300.00014817
300.000016421
300.000002085
316.021544525
306.046224247
302.88707835
301.693045488
301.103874387
300.765146964
300.554266686
300.406823859
300.297938419
300.217231669
300.15744167
300.110362649
300.071037539
300.039206488
300.017148825
300.005523129
300.001311414
300.000231655
300.000027163
300.000002595
316.140028991
305.794182237
302.521028119
301.443201217
300.955401658
300.681176578
300.50324173
300.375872832
300.2822195
300.213160205
300.160524699
300.116792528
300.078317916
300.045616146
300.021480577
300.007598104
300.002019686
300.00041375
300.000061101
300.00000473
315.910126525
305.813383891
302.367785394
301.286245647
300.844967976
300.611068951
300.460006789
300.353526736
300.275754541
300.217473437
300.170783943
300.129325069
300.090802301
300.056201944
300.028622171
300.011204988
300.003347268
300.000795341
300.000149955
300.000019765
314.966471492
306.06461894
302.454555481
301.26665239
300.805029334
300.578781027
300.441888707
300.35033461
300.28472208
300.234226785
300.190866423
300.149769763
300.109651234
300.071703398
300.039357708
300.016960058
300.005651573
300.001532611
300.000348014
300.000063918
314.370160783
306.558448902
302.942593289
301.51947949
300.911606259
300.618314365
300.460994105
300.372048391
300.312478206
300.26499128
300.221642293
300.178594521
300.135204436
300.092688666
300.054331353
300.025522981
300.009369038
300.002824459
300.000731317
300.000162096
316.404232778
308.781892048
304.553912949
302.35900953
301.290099113
300.780205416
300.538767984
300.42726436
300.360417408
300.308373038
300.26082284
300.213422586
300.165437598
300.117649546
300.072766684
300.036788801
300.01473162
300.004831326
300.001372151
300.000341107
325.743612058
313.425243359
306.674502001
303.300387529
301.741091449
301.017656334
300.67966042
300.517503471
300.424408429
300.358313644
300.301999846
300.248387808
300.195310763
300.142708489
300.092127311
300.04942649
300.021277831
300.007544333
300.002299906
300.000616671
342.306884291
316.284916992
307.325724366
303.600741803
301.953140185
301.177251833
300.798014132
300.602572229
300.485702213
300.403717566
300.336554655
300.276439508
300.21898395
300.162973661
300.108732455
300.061282104
300.028170321
300.010693944
300.003468149
300.000987082
350.083385897
317.338386327
307.246389122
303.514444944
301.958444947
301.223615735
300.848811447
300.64440163
300.517463758
300.427899247
300.355822138
300.292386189
300.232882144
300.175588578
300.120059975
300.070242285
300.034012972
300.013693996
300.00469118
300.001404934
351.755869369
316.569268916
306.422769421
303.085316416
301.790330553
301.175378445
300.843559962
300.650441268
300.52465981
300.433634092
300.360896757
300.296735534
300.237076502
300.18008331
300.124890331
300.074751539
300.037575222
300.015892179
300.005734173
300.001813194
349.066295403
313.731768828
304.942101735
302.39444257
301.48953798
301.054798358
300.797386494
300.632683722
300.517038636
300.429194162
300.357263516
300.293348426
300.234284524
300.178291216
300.124272492
300.075324482
300.038987598
300.017253315
300.006556158
300.002201408
339.637650678
309.658867471
303.347028765
301.754496939
301.203553568
300.924070076
300.735987281
300.60420962
300.503045608
300.42054812
300.349303553
300.285782041
300.227474448
300.172660534
300.120100234
300.073374443
300.039104926
300.018153089
300.007293266
300.002618475
334.074409663
307.765175377
302.580830677
301.36493692
301.002761817
300.823642131
300.687139549
300.579038186
300.489253891
300.410227922
300.339923138
300.276814114
300.219171585
300.165281016
300.114125089
300.07043634
300.038945785
300.019109566
300.008168447
300.003154771
332.2584485
308.514848433
302.780307538
301.305357036
300.916060885
300.76472278
300.653220939
300.560028841
300.476960872
300.400858453
300.331542375
300.268675288
300.211206206
300.157373268
300.107943319
300.067985659
300.039465318
300.020629446
300.009437676
300.003921991
329.010133521
309.463321045
303.783161097
301.698063396
300.968193565
300.747527489
300.636442479
300.548025275
300.468368661
300.394301079
300.325574901
300.262350481
300.203827548
300.149673987
300.103141302
300.067292039
300.041429442
300.023171178
300.011378026
300.005072802
324.84798982
309.697688303
304.598184304
302.273004634
301.206734717
300.798749661
300.63880802
300.542576074
300.46300461
300.389861675
300.321014255
300.256294944
300.196313223
300.143610665
300.101116884
300.069268594
300.045410978
300.0271774
300.014379091
300.006838361
321.166499967
309.798349567
305.028925189
302.676794624
301.458785779
300.896465172
300.660231581
300.542326792
300.458683856
300.384653646
300.314727535
300.249040285
300.189954517
300.140749293
300.102883644
300.074511536
300.051887185
300.033200752
300.018965235
300.009422707
318.515830751
308.979977151
304.815527774
302.689256493
301.535173615
300.949321259
300.677114837
300.54045828
300.450755979
300.375532955
300.306024494
300.242000716
300.186406795
300.142209161
300.109071339
300.083387124
300.061375598
300.041816686
300.025457773
300.013049915
316.602477056
307.791404444
304.152627192
302.375081555
301.414867617
300.910981808
300.660295881
300.52497575
300.436368731
300.363338171
300.297049521
300.237407643
300.187378193
300.149018003
300.120142236
300.096341601
300.074196036
300.053003162
300.033838327
300.017850949
315.021771094
306.603707655
303.40566573
301.946754421
301.204971279
300.819213146
300.616042453
300.500341403
300.420226792
300.352749663
300.292116742
300.238722729
300.195174382
300.162596428
300.136794427
300.113310594
300.089546666
300.065999328
300.043435543
300.023411002
313.619212377
305.690766627
302.794931928
301.568068622
301.003290128
300.72446805
300.575670269
300.483292974
300.412150155
300.35088398
300.296546266
300.250105721
300.213046653
300.183355212
300.15728774
300.131808647
300.105604206
300.079185239
300.052583582
300.028822624
312.885537009
305.591800791
302.623852684
301.385414829
300.897399082
300.687437493
300.571662311
300.488869374
300.421268208
300.363844796
300.314626337
300.273103452
300.23784404
300.206824079
300.177536466
300.148816274
300.12022203
300.090644604
300.059876158
300.034658739
314.427153979
306.943254421
303.247536482
301.701658677
301.063770363
300.779303055
300.627280655
300.528725787
300.454409721
300.394985977
300.345298318
300.302189405
300.263749569
300.228213538
300.194822871
300.162797144
300.131522404
300.099454229
300.067003143
300.041435208
323.368703198
311.184668374
305.325240478
302.864671019
301.737250067
301.121945686
300.794470985
300.624369314
300.518892355
300.443225764
300.383270124
300.332407397
300.287269451
300.246178111
300.208472566
300.1731847
300.139805702
300.106585609
300.073780296
300.047198195
340.78164313
315.79200398
307.514395011
304.118920208
302.499109281
301.608168286
301.100366534
300.810866016
300.632427134
300.512258287
300.426871348
300.362047571
300.308179836
300.261085646
300.219101531
300.180922068
300.145551648
300.11151281
300.078552574
300.051334759
349.755836874
318.781997083
308.916941652
304.882276043
302.955011221
301.914665242
301.324240159
300.979447862
300.759235565
300.599321004
300.479269573
300.392749638
300.327292191
300.27370169
300.22775492
300.186860825
300.149453953
300.114269604
300.081056238
300.053677228
352.792291089
320.055752926
309.44090643
305.090158677
303.052126764
301.984701231
301.387395381
301.037211726
300.812551328
300.64848623
300.520670316
300.421184522
300.344777691
300.284424379
300.234452679
300.190995057
300.151736835
300.115190424
300.081529676
300.054379813
353.807010101
320.254240337
309.292583745
304.880179357
302.900482089
301.90499893
301.355633479
301.02930409
300.815141903
300.656030614
300.530551348
300.431452173
300.353425349
300.290146217
300.237457529
300.191994682
300.151285348
300.11390063
300.080405549
300.053107232
353.986762951
319.807894116
308.688106421
304.394659345
302.593503127
301.737088585
301.271670848
300.988202035
300.794034553
300.644654355
300.524047213
300.427485972
300.35060708
300.287337917
300.234195466
300.18826994
300.147268121
300.109908841
300.076736611
300.049229415
353.50921524
318.814253077
307.895541297
303.831568533
302.239950112
301.535157822
301.161790541
300.92819197
300.759353071
300.6231007
300.509344697
300.416103589
300.340661919
300.278370188
300.225709018
300.180144461
300.139542428
300.102847028
300.070137014
300.042808033
352.198011717
317.720695875
307.075249707
303.291543712
301.912486406
301.344795528
301.05271336
300.864061781
300.719431899
300.596790241
300.49066139
300.400877862
300.327779698
300.266309604
300.214317718
300.169482751
300.129763075
300.093842653
300.061392768
300.035431862
350.769309618
316.666937601
306.338431774
302.844723412
301.652483332
301.191671446
300.958821171
300.803690568
300.679245835
300.570096734
300.473009165
300.386830739
300.314837567
300.253921429
300.202647227
300.158700848
300.119766577
300.083994263
300.052111549
300.028987166
349.765460435
315.876056351
305.831627836
302.552655876
301.481194438
301.086100579
300.888849696
300.754472286
300.64483234
300.548596397
300.457059564
300.374883995
300.30360915
300.24324995
300.192649461
300.149295639
300.110363711
300.074191248
300.044146085
300.024608188
347.95982084
315.635279641
305.798323752
302.530756018
301.428978588
301.026938659
300.841802351
300.717952046
300.618406077
300.528974683
300.444054899
300.365313712
300.295077794
300.235284838
300.185072409
300.141550513
300.101672921
300.065958009
300.03884336
300.02267074
344.451865697
315.606539936
306.065210119
302.709339766
301.490091206
301.024639361
300.817774327
300.691949066
300.596096087
300.512702801
300.433591702
300.357992505
300.289204341
300.230040779
300.179654883
300.134968631
300.094585349
300.060757317
300.036828548
300.022905915
340.563871932
315.28901963
306.305876073
302.936433667
301.610162588
301.062343995
300.815414724
300.677329324
300.580416767
300.499766271
300.42448786
300.352090049
300.285334716
300.226767269
300.175413293
300.129840006
300.090488823
300.059403997
300.038137329
300.025342601
337.657471473
314.695767084
306.312393849
303.059346446
301.708657483
301.107987678
300.824577182
300.670722557
300.569716925
300.489189725
300.41625542
300.346922539
300.282498384
300.2241887
300.17220667
300.12727641
300.090132229
300.062014933
300.042531041
300.030536125
335.203109547
313.900045381
306.033667949
302.9880553
301.715379246
301.123301931
300.828826866
300.666007182
300.56130377
300.480120257
300.408633522
300.341935732
300.279678042
300.221927438
300.170766631
300.127763865
300.093478641
300.068183717
300.049974253
300.038195592
332.160828801
312.577611458
305.355383692
302.665336091
301.592737655
301.083618163
300.814605336
300.657125729
300.552872902
300.471698985
300.401355403
300.336793206
300.276618148
300.220443972
300.171333543
300.131113088
300.099983647
300.077207856
300.060137047
300.047987835
327.82265287
310.386794253
304.200166775
302.123205251
301.368295138
300.996341234
300.780980899
300.642456576
300.543879614
300.463743751
300.39433245
300.331581608
300.273634585
300.219883811
300.17371341
300.136851387
300.108945035
300.088347961
300.072324292
300.059705077
323.319874734
309.031278448
303.39544876
301.671140001
301.17147409
300.910218252
300.746375844
300.628313839
300.535064703
300.456250818
300.387728447
300.326662018
300.271044356
300.220272469
300.177725905
300.144587244
300.119748234
300.100938033
300.08583444
300.072579244
319.912411576
308.213819599
303.182828217
301.536939639
301.063013048
300.854314315
300.719916304
300.614876841
300.526299735
300.449481811
300.382212578