/*--------------------------------*- C++ -*----------------------------------*\
| =========                 |                                                 |
| \\      /  F ield         | OpenFOAM: The Open Source CFD Toolbox           |
|  \\    /   O peration     | Version:  2312                                  |
|   \\  /    A nd           | Website:  www.openfoam.com                      |
|    \\/     M anipulation  |                                                 |
\*---------------------------------------------------------------------------*/
FoamFile
{
    version     2.0;
    format      ascii;
    arch        "LSB;label=32;scalar=64";
    class       volScalarField;
    location    "0.51/water";
    object      alphat.gas;
}
// * * * * * * * * * * * * * * * * * * * * * * * * * * * * * * * * * * * * * //

dimensions      [1 -1 -1 0 0 0 0];

internalField   nonuniform List<scalar> 
1496
(
2.18766563878e-06
2.64683851359e-06
2.21737858019e-06
2.04078005661e-06
2.14599830405e-06
2.22511247378e-06
2.17349523672e-06
1.9789499936e-06
1.67208876494e-06
1.32094588319e-06
1.00750319219e-06
8.12805996845e-07
7.36617078127e-07
6.65309612226e-07
4.8739315471e-07
2.35881453117e-07
9.86731529076e-08
4.74768497653e-08
2.27252222153e-08
9.4927520291e-09
2.62353806218e-06
2.87733362725e-06
2.07574373113e-06
1.79668516535e-06
1.99420478274e-06
2.11193682912e-06
2.05854867364e-06
1.86577952472e-06
1.57820327723e-06
1.26266339168e-06
9.84327946827e-07
8.13622119464e-07
7.37573054945e-07
6.5293888276e-07
4.71868946652e-07
2.25914457749e-07
1.01676145402e-07
5.24737672504e-08
2.88968247777e-08
1.48561641873e-08
3.04470091423e-06
3.23156595273e-06
2.17749063915e-06
1.61673446771e-06
1.78845947899e-06
1.95214764841e-06
1.91045922664e-06
1.72937793664e-06
1.47494878592e-06
1.20204638146e-06
9.67598947577e-07
8.25453337331e-07
7.4851320614e-07
6.48225889421e-07
4.64824322603e-07
2.31503980374e-07
1.10104748051e-07
6.05992078416e-08
3.79951842024e-08
2.33831725263e-08
3.44420104845e-06
3.45793651859e-06
2.4734702717e-06
1.61519610092e-06
1.604282123e-06
1.77560879248e-06
1.76047086916e-06
1.60126578164e-06
1.38184125329e-06
1.15391211934e-06
9.66728771718e-07
8.52510082559e-07
7.72119790809e-07
6.53804344622e-07
4.63065361442e-07
2.47457047667e-07
1.23266515524e-07
7.1942318235e-08
4.97905933743e-08
3.50409074998e-08
3.73823870788e-06
3.61183334758e-06
2.69423125345e-06
1.7325084067e-06
1.52916939591e-06
1.64377888345e-06
1.64696261451e-06
1.51439420681e-06
1.32589853253e-06
1.1383915771e-06
9.93016968211e-07
8.99308802165e-07
8.11316355494e-07
6.72131333236e-07
4.70915458228e-07
2.68390157446e-07
1.41490223062e-07
8.68647611455e-08
6.40936050492e-08
4.92759645689e-08
3.79912384032e-06
3.61826192226e-06
2.76876472234e-06
1.85642775422e-06
1.55243939244e-06
1.59578237355e-06
1.59269209614e-06
1.4815644708e-06
1.31991554202e-06
1.16541371854e-06
1.05045261866e-06
9.67424060489e-07
8.67332149115e-07
7.06775235694e-07
4.9439453749e-07
2.95374200602e-07
1.65854400046e-07
1.06480320437e-07
8.1256727563e-08
6.57803912804e-08
3.76930563184e-06
3.59884019041e-06
2.82496385875e-06
1.98307532161e-06
1.6300598705e-06
1.6105052697e-06
1.5884526914e-06
1.49090566769e-06
1.35425668435e-06
1.22633041827e-06
1.13106001716e-06
1.05127732111e-06
9.3944894725e-07
7.64708786295e-07
5.41373786758e-07
3.32205448928e-07
1.98521565097e-07
1.33467167767e-07
1.03144299581e-07
8.50560129953e-08
3.78582217347e-06
3.68073722975e-06
2.94738164552e-06
2.13513359459e-06
1.73121202415e-06
1.64241193945e-06
1.59919203313e-06
1.51374892918e-06
1.40134338531e-06
1.29676081999e-06
1.21655668188e-06
1.14099853511e-06
1.02789766345e-06
8.50483201441e-07
6.11505562401e-07
3.81377593732e-07
2.42776100572e-07
1.71256539063e-07
1.32886946488e-07
1.08653907982e-07
3.86317756623e-06
3.79518739422e-06
3.05772535357e-06
2.26723111253e-06
1.82176546234e-06
1.66449593732e-06
1.59875761226e-06
1.52516706388e-06
1.43649371765e-06
1.35481018658e-06
1.29144870327e-06
1.22739016953e-06
1.12362074383e-06
9.45492191248e-07
6.88400168725e-07
4.42639992679e-07
3.00672275222e-07
2.20468138921e-07
1.72042809096e-07
1.38415341603e-07
3.64561432094e-06
3.72559459599e-06
3.03414191544e-06
2.30290303135e-06
1.85548155817e-06
1.66159134101e-06
1.57789505524e-06
1.51194289101e-06
1.44352196289e-06
1.38443438703e-06
1.34016286453e-06
1.29023293758e-06
1.19453976731e-06
1.01282402554e-06
7.55159830264e-07
5.15168484228e-07
3.68087401358e-07
2.76159702245e-07
2.16863173604e-07
1.73399906458e-07
3.53840675042e-06
3.68447950269e-06
2.95219880167e-06
2.2372722697e-06
1.80328675667e-06
1.61287636594e-06
1.53079008525e-06
1.47185347426e-06
1.41699321919e-06
1.3744491183e-06
1.34416024637e-06
1.30352478366e-06
1.21325845159e-06
1.04139602985e-06
8.05834874882e-07
5.85088672589e-07
4.33941547947e-07
3.29776653496e-07
2.60044337058e-07
2.08977766486e-07
3.51248958691e-06
3.53729477326e-06
2.85156976122e-06
2.13687084519e-06
1.70582484794e-06
1.5297438569e-06
1.45934994899e-06
1.40860158377e-06
1.36257466716e-06
1.32845788534e-06
1.30353082252e-06
1.26642703986e-06
1.18472690613e-06
1.03485612455e-06
8.33900129427e-07
6.36362703697e-07
4.83704107624e-07
3.71898096765e-07
2.95595884628e-07
2.39509342795e-07
3.59893662062e-06
3.58147464487e-06
2.88915447788e-06
2.11206994113e-06
1.63742991168e-06
1.45459056788e-06
1.38681380866e-06
1.33795510755e-06
1.29512991549e-06
1.26384994912e-06
1.23845154551e-06
1.2001456904e-06
1.12648936093e-06
9.98533363139e-07
8.28235744793e-07
6.55310862508e-07
5.09770490616e-07
3.98397759424e-07
3.21408906359e-07
2.62707722473e-07
3.65348684107e-06
3.65700533835e-06
2.96680158442e-06
2.13126187199e-06
1.60749265143e-06
1.40776831782e-06
1.33364577943e-06
1.28137159001e-06
1.2372361095e-06
1.20254656194e-06
1.16952062107e-06
1.12326809529e-06
1.04881705343e-06
9.35323237407e-07
7.91171488905e-07
6.42518445654e-07
5.11896274743e-07
4.10226784414e-07
3.37934230354e-07
2.77672272958e-07
3.67410102694e-06
3.70789661418e-06
3.02213925857e-06
2.15438071523e-06
1.60388665251e-06
1.39288152791e-06
1.31141303403e-06
1.25425434491e-06
1.20444717151e-06
1.15899088077e-06
1.11074828515e-06
1.04999362006e-06
9.67310187924e-07
8.6002844625e-07
7.34832846974e-07
6.08400146252e-07
4.98045824171e-07
4.11683735323e-07
3.45302355677e-07
2.8299040829e-07
3.72420444957e-06
3.77345726735e-06
3.07271326716e-06
2.18037448627e-06
1.61796101881e-06
1.40102256252e-06
1.31550372317e-06
1.25612329972e-06
1.1993461706e-06
1.13914848959e-06
1.0714276004e-06
9.91835953173e-07
8.96934124245e-07
7.89904760451e-07
6.77114372974e-07
5.70316096582e-07
4.79928885655e-07
4.06414143132e-07
3.41962793991e-07
2.79978009445e-07
3.85734530154e-06
3.91377519537e-06
3.15069667385e-06
2.21828429031e-06
1.63717897954e-06
1.4133188433e-06
1.32864314152e-06
1.27133751874e-06
1.2107351395e-06
1.13887890552e-06
1.05427512161e-06
9.56581371847e-07
8.47971000687e-07
7.36692383154e-07
6.31366545294e-07
5.39283579808e-07
4.61855801168e-07
3.93191717466e-07
3.2930632648e-07
2.75844510901e-07
4.06479488045e-06
4.07705164877e-06
3.2491607115e-06
2.27719317861e-06
1.66661195102e-06
1.42454397296e-06
1.33962444354e-06
1.28626642985e-06
1.22557304461e-06
1.1484043265e-06
1.05434357919e-06
9.44105115435e-07
8.22769780492e-07
7.04029443574e-07
6.00227592571e-07
5.14345025457e-07
4.40292130907e-07
3.7277688365e-07
3.17356533363e-07
2.77279640316e-07
3.80637459763e-06
3.93730386264e-06
3.18943011417e-06
2.30997757614e-06
1.70740866246e-06
1.44431691344e-06
1.35248380156e-06
1.2999915572e-06
1.23950058207e-06
1.16110040807e-06
1.06443607537e-06
9.48688546333e-07
8.1755756908e-07
6.88788348194e-07
5.8007538358e-07
4.91429370957e-07
4.16001128632e-07
3.56531018567e-07
3.15398221346e-07
2.86158932469e-07
3.41133659568e-06
3.63379756064e-06
3.04788156748e-06
2.29917828625e-06
1.74964127291e-06
1.48285879621e-06
1.37831841094e-06
1.31839815137e-06
1.2545645978e-06
1.17582156036e-06
1.08069089815e-06
9.64979005146e-07
8.28214355401e-07
6.89669245572e-07
5.70354108035e-07
4.72666959157e-07
4.00861080907e-07
3.54799991338e-07
3.25044112321e-07
3.01920706613e-07
3.20605284769e-06
3.42832156587e-06
2.88812900964e-06
2.23621012158e-06
1.76483696618e-06
1.51918554054e-06
1.407986172e-06
1.33867335959e-06
1.27081647986e-06
1.19422939994e-06
1.10464471908e-06
9.93384462193e-07
8.5562457548e-07
7.08329595689e-07
5.7391377729e-07
4.68731713414e-07
4.04508866261e-07
3.68302493476e-07
3.44178823545e-07
3.21246460002e-07
3.09123793841e-06
3.30275942787e-06
2.70263624332e-06
2.11972805625e-06
1.73009490027e-06
1.52610870442e-06
1.42300673348e-06
1.35201949372e-06
1.28633445728e-06
1.21859510637e-06
1.14035085957e-06
1.03713680586e-06
9.00709850591e-07
7.45482402884e-07
5.9718088271e-07
4.87011122228e-07
4.26521171211e-07
3.93340412251e-07
3.68425832082e-07
3.40531485208e-07
3.09603150074e-06
3.12231063314e-06
2.49085612404e-06
1.96200619146e-06
1.64893647387e-06
1.49401301741e-06
1.41201759087e-06
1.35252881127e-06
1.30108984637e-06
1.25239999236e-06
1.1919996644e-06
1.09860878022e-06
9.62802983593e-07
8.00266090906e-07
6.41352726166e-07
5.25969768865e-07
4.62722713362e-07
4.25493567145e-07
3.94421663401e-07
3.59097398887e-07
3.20262073293e-06
3.04872628078e-06
2.41323304444e-06
1.8738578749e-06
1.57406244588e-06
1.44158052641e-06
1.38102413012e-06
1.34462233223e-06
1.32098514475e-06
1.30179680481e-06
1.26376301669e-06
1.17943483172e-06
1.04063753014e-06
8.69596652013e-07
7.03185899418e-07
5.8149177395e-07
5.09505628601e-07
4.62851523793e-07
4.22421529134e-07
3.79070246232e-07
3.28826833259e-06
3.047379451e-06
2.41959212877e-06
1.85561550464e-06
1.53026263546e-06
1.39455608828e-06
1.35088371433e-06
1.34521548379e-06
1.35953613015e-06
1.37532271338e-06
1.35906080243e-06
1.28066194388e-06
1.13580655664e-06
9.54803587085e-07
7.81056606909e-07
6.50113594966e-07
5.6508797207e-07
5.05620771067e-07
4.5370850578e-07
4.00984106999e-07
3.26894204295e-06
2.99193725552e-06
2.39947568945e-06
1.85099079189e-06
1.51453603361e-06
1.37547521049e-06
1.34951355413e-06
1.37863185936e-06
1.43297079597e-06
1.47957686995e-06
1.47879036274e-06
1.40246868048e-06
1.25192719205e-06
1.0621334008e-06
8.77747970736e-07
7.31175548081e-07
6.28137396996e-07
5.5284679981e-07
4.84836706939e-07
4.15474006391e-07
3.13133500974e-06
2.88956585982e-06
2.36714577544e-06
1.87403042785e-06
1.55832913611e-06
1.42619498304e-06
1.41485692596e-06
1.47018773915e-06
1.55036385168e-06
1.61328734804e-06
1.61949285794e-06
1.54425796717e-06
1.39295418673e-06
1.19825243097e-06
1.0002413308e-06
8.30136417383e-07
7.01320413519e-07
6.00624679908e-07
5.04015171966e-07
4.20059699792e-07
2.9912892555e-06
2.84560599719e-06
2.41505232014e-06
1.98249532957e-06
1.69367185106e-06
1.56600226092e-06
1.55548564156e-06
1.61438990317e-06
1.69758215693e-06
1.76237237419e-06
1.77201015552e-06
1.70515640783e-06
1.56450899858e-06
1.37261902717e-06
1.16058715985e-06
9.57844399124e-07
7.85191712119e-07
6.37586211917e-07
5.17490610343e-07
4.34914913533e-07
3.03859311897e-06
2.99843161056e-06
2.61932944536e-06
2.20677639924e-06
1.91119430222e-06
1.76122067652e-06
1.72623863974e-06
1.76627755793e-06
1.8387907111e-06
1.90281119544e-06
1.92437217139e-06
1.88154487118e-06
1.766425436e-06
1.58532011251e-06
1.35454959325e-06
1.09730320817e-06
8.57856116412e-07
6.75939523472e-07
5.53517660992e-07
4.72181117642e-07
3.24134755735e-06
3.28506006845e-06
2.90696476681e-06
2.45246951296e-06
2.1079013941e-06
1.91276194806e-06
1.84245974733e-06
1.86231354457e-06
1.93177256462e-06
2.00825635902e-06
2.0574851478e-06
2.05112099093e-06
1.96289081522e-06
1.77838750121e-06
1.50227044406e-06
1.18563078296e-06
9.2202327293e-07
7.39746850628e-07
6.19692976729e-07
5.34317944682e-07
3.35462553779e-06
3.43597820277e-06
3.05428697042e-06
2.57021283138e-06
2.18873228128e-06
1.95320015886e-06
1.85186168783e-06
1.86051597732e-06
1.94055965514e-06
2.04187623338e-06
2.12200355058e-06
2.14036305274e-06
2.06137524477e-06
1.8687810043e-06
1.57052388589e-06
1.26037249481e-06
1.01060390464e-06
8.27436864519e-07
7.0070158423e-07
6.13694549535e-07
2.87631760349e-06
3.36666121489e-06
3.09883841342e-06
2.60689278275e-06
2.18163735399e-06
1.90140198059e-06
1.76839763901e-06
1.76602992127e-06
1.85646156337e-06
1.97764489382e-06
2.07397645598e-06
2.10690615168e-06
2.05032097989e-06
1.89064895559e-06
1.64404540076e-06
1.37547856494e-06
1.1347147022e-06
9.34214399182e-07
7.80776347848e-07
6.87812148608e-07
2.38891643789e-06
3.30125342336e-06
3.13191675401e-06
2.60202749979e-06
2.12191545105e-06
1.7958410374e-06
1.63474254042e-06
1.62445371861e-06
1.72215006096e-06
1.85241643095e-06
1.95629843703e-06
2.00708110492e-06
1.98765504806e-06
1.88593193368e-06
1.71034076451e-06
1.49402163044e-06
1.26992696291e-06
1.05487217333e-06
8.68848285829e-07
7.48437543342e-07
2.2531305278e-06
3.30278361358e-06
3.15821854428e-06
2.5606356995e-06
2.02271067421e-06
1.66283474007e-06
1.49162554722e-06
1.48824454578e-06
1.59357566909e-06
1.723232854e-06
1.83042812243e-06
1.89805174233e-06
1.91286749704e-06
1.86342280905e-06
1.7489674969e-06
1.58270947203e-06
1.38373153942e-06
1.16829087348e-06
9.63102354439e-07
8.17066377115e-07
2.2044581604e-06
3.28561889741e-06
3.09407267601e-06
2.42629868616e-06
1.85729799878e-06
1.50438564112e-06
1.36121747096e-06
1.38740152111e-06
1.49668552964e-06
1.60693225649e-06
1.70843781081e-06
1.78532795114e-06
1.82526966076e-06
1.81625465082e-06
1.75127513466e-06
1.63056469628e-06
1.46213187001e-06
1.25964157725e-06
1.05092892742e-06
8.86103574996e-07
2.34355330016e-06
3.33176115128e-06
2.99192882751e-06
2.24203169451e-06
1.64164276261e-06
1.33328654197e-06
1.25838862432e-06
1.3309736453e-06
1.43645747427e-06
1.50935984872e-06
1.58556178863e-06
1.6629878828e-06
1.71896705712e-06
1.74022692872e-06
1.71457287544e-06
1.63354489139e-06
1.49715636885e-06
1.31655354767e-06
1.11728143972e-06
9.46099994861e-07
2.64229798096e-06
3.27689102723e-06
2.84797588981e-06
2.03983782596e-06
1.42063221911e-06
1.17979703025e-06
1.19237100966e-06
1.31459516132e-06
1.41822985631e-06
1.45784856061e-06
1.49584220585e-06
1.55518349514e-06
1.61689032141e-06
1.65236210727e-06
1.64795695829e-06
1.59331624141e-06
1.48452941903e-06
1.32981735137e-06
1.14997346352e-06
9.84178730312e-07
8.59375890303e-09
8.97851091472e-09
8.69484437572e-09
9.37560178083e-09
1.55401909117e-08
4.15261879005e-08
9.98473124252e-08
1.4686653869e-07
1.77090143689e-07
2.1677379181e-07
2.5240971268e-07
4.18946853781e-07
5.59798256413e-07
7.54327131864e-07
1.32544044373e-06
5.03956031064e-06
4.1547179539e-09
3.60020945955e-09
4.42129477593e-09
5.53628881823e-09
6.40991588114e-09
6.73956648714e-09
6.93855624206e-09
8.69800385366e-09
1.79137351632e-08
5.25052865316e-08
1.16037733799e-07
1.54465408399e-07
1.80442281697e-07
2.21108468573e-07
3.29461705149e-07
4.90212551435e-07
6.79772580126e-07
8.93089704159e-07
1.89550383547e-06
5.1075051981e-06
6.48509646448e-09
4.18273134329e-09
4.14260428436e-09
4.66906899606e-09
5.19693232405e-09
5.56377064114e-09
6.15831313336e-09
8.51933219403e-09
1.89145773764e-08
5.60949775931e-08
1.18186844042e-07
1.51808555351e-07
1.78291579034e-07
2.17970565507e-07
3.77368740745e-07
6.57253420251e-07
8.4084488779e-07
1.02258687842e-06
2.56937388441e-06
5.38061727314e-06
1.13268421439e-08
5.83262141605e-09
4.57855920818e-09
4.57095884502e-09
4.85373435362e-09
5.27235876736e-09
6.04874768123e-09
8.13398829176e-09
1.65745113092e-08
4.89433960807e-08
1.0989655526e-07
1.44511918601e-07
1.69711961921e-07
2.11771149555e-07
3.7862033431e-07
6.5643929596e-07
8.30629178191e-07
1.110189959e-06
3.04804597798e-06
5.64403512942e-06
2.02280315527e-08
9.60969712234e-09
6.00682454873e-09
5.28430023371e-09
5.34776479732e-09
5.80842254708e-09
6.53842438663e-09
7.57033024882e-09
1.2247134734e-08
3.47842561786e-08
9.4802860086e-08
1.41981323842e-07
1.62706461412e-07
2.06433200063e-07
3.12814660683e-07
6.55502681102e-07
8.05301631413e-07
1.04152638368e-06
3.03345403098e-06
5.88836051692e-06
3.33611893973e-08
1.74689508583e-08
9.23919960138e-09
7.15671691363e-09
6.92071361433e-09
7.32810538624e-09
7.76821193789e-09
7.40052792553e-09
8.81139422148e-09
2.31843576191e-08
8.06141284889e-08
1.50556644317e-07
1.73735501249e-07
2.06842009037e-07
2.53350741008e-07
3.36457865074e-07
5.10460802825e-07
6.71319676482e-07
1.73767596946e-06
6.54772148473e-06
4.9242279083e-08
3.04422207745e-08
1.57541686e-08
1.11195631585e-08
1.032096984e-08
1.03108008464e-08
9.91865019155e-09
8.20267213077e-09
7.83330143271e-09
1.90726968967e-08
8.11732208517e-08
1.68051317794e-07
2.02152546987e-07
2.21533667177e-07
2.50092049758e-07
2.96567906465e-07
3.40906522141e-07
4.39931299033e-07
7.08033932386e-07
4.74041331373e-06
6.6691372742e-08
4.6827666678e-08
2.61724278143e-08
1.74164344029e-08
1.54374262493e-08
1.46098162886e-08
1.31435888337e-08
1.01742007509e-08
9.25201782733e-09
2.21625262579e-08
9.47518702534e-08
1.83878570915e-07
2.22530995935e-07
2.36664908038e-07
2.49734343016e-07
2.83155873066e-07
3.24307634068e-07
4.33032563006e-07
6.25640828675e-07
4.08581622315e-06
8.58564249755e-08
6.43135752101e-08
3.97123974742e-08
2.57661569901e-08
2.15960415972e-08
1.98115523093e-08
1.75237889399e-08
1.35918160725e-08
1.31367685033e-08
3.12862569316e-08
1.13873387566e-07
1.8974808323e-07
2.22720218308e-07
2.37628856231e-07
2.5032812522e-07
2.78233963372e-07
3.31470894608e-07
4.59331830681e-07
6.47824025624e-07
1.68597765836e-06
1.07343555212e-07
8.19384029955e-08
5.44139139783e-08
3.543486883e-08
2.81595275887e-08
2.60623306775e-08
2.34568533968e-08
1.90977533366e-08
1.98783885327e-08
4.43899479505e-08
1.26735338015e-07
1.86238509923e-07
2.15702691047e-07
2.34642798214e-07
2.53248885295e-07
2.89105067541e-07
3.6322544119e-07
5.06885501772e-07
7.228222523e-07
2.03795548405e-06
1.31563878007e-07
9.97446541938e-08
6.91471847577e-08
4.59532767749e-08
3.51019953819e-08
3.38371353269e-08
3.14970855233e-08
2.75249229583e-08
3.00616934962e-08
5.71220040105e-08
1.28257682278e-07
1.7755287275e-07
2.09055500393e-07
2.33958764551e-07
2.61834685418e-07
3.10969293564e-07
3.95553071231e-07
5.40099865466e-07
8.22117026517e-07
4.87479315981e-06
1.57643326104e-07
1.17563541879e-07
8.3607518533e-08
5.75295029147e-08
4.28049077367e-08
4.32560957346e-08
4.21481043667e-08
3.96045818909e-08
4.38425890474e-08
6.55715670442e-08
1.19861737828e-07
1.67513263945e-07
2.05761611169e-07
2.37253209403e-07
2.71223255661e-07
3.21768969952e-07
3.93629900636e-07
5.1777944851e-07
1.14139068255e-06
5.77484341447e-06
1.82206260855e-07
1.34818332945e-07
9.77080621034e-08
6.97394309717e-08
5.17227144598e-08
5.39774561745e-08
5.59253842605e-08
5.57346659154e-08
6.09644258117e-08
7.31942413043e-08
1.05897253412e-07
1.60030404985e-07
2.06428122276e-07
2.35412609497e-07
2.61826830679e-07
2.91030980678e-07
3.20047437615e-07
5.02937301683e-07
1.97852836825e-06
3.33086275935e-06
2.01942504796e-07
1.50456055987e-07
1.11850219105e-07
8.24632294298e-08
6.1950184236e-08
6.51857218627e-08
7.35229226735e-08
7.62518418905e-08
8.11298695368e-08
8.52077790417e-08
9.56681051495e-08
1.39861978239e-07
2.58554075147e-07
2.86846159895e-07
2.25465882667e-07
2.28268692429e-07
2.26228828608e-07
3.38079515386e-07
3.57243036679e-07
1.87149182609e-32
2.15223641093e-07
1.64052090757e-07
1.26382617489e-07
9.62231336037e-08
7.37356217386e-08
7.64024021544e-08
9.490765783e-08
1.02152379319e-07
1.04171268605e-07
1.01880563568e-07
9.68397030571e-08
1.14729489773e-07
2.17126537885e-07
3.63184533407e-07
1.83746853126e-07
1.69257759691e-07
1.6531188032e-07
2.8552581538e-07
3.5684676383e-07
2.2267903262e-32
2.22686264725e-07
1.76523433347e-07
1.41767160973e-07
1.1127598612e-07
8.74740446217e-08
8.9561163722e-08
1.17278021011e-07
1.34101145302e-07
1.29718798218e-07
1.20063965535e-07
1.0556244783e-07
1.00925943657e-07
1.5447623892e-07
2.99434144677e-07
1.90578461972e-07
1.3186853423e-07
1.26170686278e-07
1.71770898794e-07
3.37252760342e-07
2.37161526469e-32
2.28077844756e-07
1.89530439724e-07
1.58185599053e-07
1.27413273806e-07
1.03267889054e-07
1.06307777345e-07
1.41158317196e-07
1.66402367594e-07
1.54435365513e-07
1.35810598453e-07
1.13862573902e-07
9.43385573557e-08
1.0255269665e-07
1.90344390283e-07
3.41324544787e-07
1.14350180126e-07
1.04084348932e-07
1.03252651321e-07
2.12649840099e-07
2.51501493622e-32
2.3541592584e-07
2.04197086198e-07
1.7516797134e-07
1.43921490973e-07
1.2067291765e-07
1.26448034231e-07
1.66286053192e-07
1.94086957389e-07
1.73455789418e-07
1.47187576175e-07
1.19348953026e-07
9.20679558477e-08
8.77095204985e-08
1.50557599124e-07
4.21026327973e-07
1.0625680227e-07
9.2844821064e-08
9.18589616331e-08
9.83886571803e-08
2.86929199803e-32
2.46645210617e-07
2.20387188154e-07
1.91573852535e-07
1.59915110627e-07
1.39231662572e-07
1.49726030567e-07
1.92678766018e-07
2.14777667326e-07
1.84630945507e-07
1.54379563975e-07
1.22204725178e-07
9.05747453251e-08
7.78929952719e-08
1.32075340784e-07
3.80186109938e-07
1.00539660096e-07
8.68981018034e-08
8.55218235372e-08
7.87217547682e-08
3.21284367607e-32
2.61706381252e-07
2.36524272788e-07
2.06030566016e-07
1.75050896899e-07
1.59292461084e-07
1.7633442104e-07
2.19769898548e-07
2.27220869364e-07
1.87950917602e-07
1.57820286881e-07
1.22801394396e-07
8.82600554035e-08
6.99999299955e-08
1.18407226446e-07
3.5386478016e-07
9.51879900343e-08
8.29320954846e-08
8.04911246646e-08
5.59542334278e-08
3.32560774801e-32
2.78302094632e-07
2.50542683151e-07
2.18058607788e-07
1.9020050078e-07
1.82144539509e-07
2.06570377447e-07
2.45323796802e-07
2.30113510856e-07
1.85998000779e-07
1.58777404473e-07
1.22613646638e-07
8.51201133402e-08
6.26262064572e-08
1.08940038509e-07
4.17316426098e-07
9.39257085913e-08
8.0167516693e-08
7.53020608996e-08
5.28589398214e-08
3.21335491445e-32
2.93615961363e-07
2.6157588412e-07
2.28909898491e-07
2.07324186974e-07
2.09251388065e-07
2.39996206893e-07
2.63697656436e-07
2.25773117544e-07
1.84090452973e-07
1.59817988731e-07
1.23789419702e-07
8.21632973035e-08
7.06959543278e-08
1.32308705581e-07
6.02097302612e-07
1.23172719781e-07
7.84296672065e-08
6.98155878846e-08
4.94149801841e-08
2.18056833919e-32
3.06687192109e-07
2.71122755273e-07
2.41172777297e-07
2.28511276739e-07
2.41131695685e-07
2.73223597824e-07
2.70218358286e-07
2.22350807773e-07
1.86100310828e-07
1.63764138767e-07
1.27729985258e-07
8.04177290195e-08
7.21476962649e-08
3.12208033925e-07
6.51596917199e-07
1.50153795187e-07
7.76723512331e-08
6.53598510018e-08
4.51577205026e-08
1.09305450002e-32
3.19369855681e-07
2.82588108059e-07
2.57445558669e-07
2.54789968443e-07
2.76008505575e-07
2.95844905244e-07
2.72841059566e-07
2.27536344511e-07
1.93161855234e-07
1.72320035274e-07
1.34504243225e-07
1.08692097174e-07
1.51135747025e-07
3.92034592142e-07
6.41279456902e-07
1.83510690595e-07
8.8970349517e-08
7.27788080483e-08
1.3776551442e-07
5.00219086683e-07
3.34907420069e-07
2.98054111765e-07
2.77897671721e-07
2.83820177555e-07
3.05128011159e-07
3.09394065012e-07
2.84303678377e-07
2.40672193553e-07
2.04703308174e-07
1.84480026245e-07
1.41097681137e-07
1.33822532171e-07
2.71545794458e-07
3.5878075031e-07
7.20224300547e-07
2.31387842865e-07
1.21463666801e-07
1.0213101821e-07
2.40993909906e-07
6.25243020979e-07
3.50556343641e-07
3.13245286816e-07
2.98079568278e-07
3.09456968981e-07
3.27512938793e-07
3.28372028897e-07
3.05593082247e-07
2.58148153764e-07
2.18777474097e-07
1.98071358036e-07
1.81499851138e-07
3.20239379109e-07
2.58969954343e-07
3.70368386684e-07
8.85794155442e-07
2.45827063543e-07
1.7365374447e-07
1.56613390009e-07
3.17857183445e-07
6.45015791846e-07
3.58060424001e-07
3.24172317393e-07
3.15628012322e-07
3.32210182935e-07
3.52541266541e-07
3.54543203629e-07
3.2978669648e-07
2.77007948909e-07
2.35272146999e-07
2.09945895775e-07
2.20900702808e-07
5.26913818914e-07
2.24785401472e-07
4.40932407919e-07
1.05671147497e-06
2.20758682936e-07
2.32495194267e-07
2.29543205332e-07
3.78041740077e-07
6.52248561516e-07
3.64829678752e-07
3.37557894439e-07
3.34884632564e-07
3.56274872222e-07
3.80398967211e-07
3.8139030306e-07
3.51333423314e-07
2.95440696308e-07
2.54779937381e-07
2.21112133809e-07
6.14239742761e-07
4.78919615914e-07
2.0745572519e-07
5.71646802256e-07
9.90158778416e-07
2.4980159833e-07
2.82116345648e-07
3.04347753478e-07
4.30721829338e-07
6.58611486549e-07
3.82763891145e-07
3.5795553878e-07
3.5792396976e-07
3.80825375195e-07
4.05882338223e-07
4.0394169729e-07
3.68070519679e-07
3.13047334612e-07
2.75210475856e-07
3.23645030935e-07
9.98412444688e-07
3.82349301079e-07
2.13621453654e-07
7.52307807681e-07
6.56979973895e-07
2.87386897853e-07
3.25567242669e-07
3.70692966068e-07
4.73512622021e-07
6.68197797022e-07
4.14097245997e-07
3.84176036559e-07
3.82659605684e-07
4.03329540914e-07
4.25142706716e-07
4.2023544938e-07
3.81240009748e-07
3.30914006819e-07
2.92171606193e-07
6.40581684654e-07
8.94023596334e-07
2.90603333802e-07
2.45684310278e-07
9.78838199393e-07
4.44868351255e-07
3.28167571161e-07
3.66102138256e-07
4.32559445539e-07
4.96180768394e-07
6.50917369907e-07
4.62644915109e-07
4.18383363462e-07
4.08526534838e-07
4.2403672847e-07
4.39535576133e-07
4.31396409248e-07
3.92979452482e-07
3.49734611507e-07
3.00621219933e-07
9.72364310893e-07
7.46811431074e-07
2.13716565287e-07
2.93372189519e-07
1.13208018294e-06
3.79518692411e-07
3.47252215944e-07
3.87268449747e-07
4.20050106636e-07
3.36019364983e-07
2.2330602188e-07
5.31772720263e-07
4.67715231559e-07
4.40684799583e-07
4.45256708223e-07
4.5283300444e-07
4.40158184292e-07
4.04070177079e-07
3.66033214926e-07
3.56771721477e-07
1.12734222157e-06
6.07651532678e-07
1.57268261579e-07
3.22962350306e-07
1.07002193457e-06
2.55950513612e-07
2.96902836482e-07
2.96548759831e-07
2.1077826442e-07
3.03056929499e-08
9.58204690406e-34
6.11316659678e-07
5.35529986605e-07
4.87167969264e-07
4.72175317692e-07
4.67747384525e-07
4.48457694726e-07
4.14328028151e-07
3.74017280661e-07
3.94929527211e-07
1.08687179404e-06
4.9137485833e-07
1.22691420977e-07
3.15255413241e-07
9.22404647508e-07
2.08825417419e-07
2.37578434085e-07
2.18497454172e-07
1.41277288434e-07
7.2378847809e-09
4.10973624882e-34
6.79551747941e-07
6.10064350085e-07
5.48750404175e-07
5.10383759386e-07
4.87265529574e-07
4.58595913093e-07
4.23841692927e-07
3.71769330614e-07
3.72715276821e-07
9.3023106888e-07
3.90570116216e-07
1.09463552908e-07
2.97932849937e-07
9.03473410855e-07
1.76508734401e-07
1.89520234101e-07
1.69045701963e-07
1.12354054416e-07
3.45742368275e-09
2.9537367326e-34
7.29115741072e-07
6.67744483168e-07
6.09719918141e-07
5.55591398478e-07
5.11953566398e-07
4.7079190674e-07
4.27395255835e-07
3.5597364606e-07
3.4290768432e-07
7.55619321243e-07
2.92972822699e-07
1.02998221115e-07
2.91327403879e-07
4.07404598356e-07
1.50931576463e-07
1.54272795879e-07
1.38966089618e-07
9.66834958838e-08
2.61708521244e-09
2.64797052722e-34
7.7245176562e-07
6.99166601701e-07
6.48150060455e-07
5.91487867307e-07
5.34004089336e-07
4.77410971832e-07
4.16147626387e-07
3.25035408963e-07
3.12137612952e-07
5.54163033799e-07
2.05695742532e-07
9.87864872426e-08
2.88328675455e-07
1.17433573081e-07
1.23459070441e-07
1.29946104975e-07
1.19654491236e-07
8.75505689775e-08
2.84551348229e-09
2.82830535142e-34
8.1531331634e-07
7.17716214973e-07
6.60189857943e-07
6.05163038334e-07
5.39398813748e-07
4.67587083778e-07
3.86721586347e-07
2.82640304073e-07
2.82352132451e-07
3.52250110728e-07
1.38228551904e-07
9.80652127512e-08
2.10099234648e-07
8.00405955049e-08
1.03399396007e-07
1.13071390741e-07
1.06051091132e-07
8.22044163356e-08
5.52750609387e-09
4.84864171548e-34
8.45226585378e-07
7.30313363285e-07
6.55475792046e-07
5.9755946809e-07
5.24711761889e-07
4.40535937674e-07
3.45548269767e-07
2.36433575554e-07
2.08921909436e-07
1.5286609034e-07
5.49371701099e-08
5.08313832935e-08
4.1966841532e-08
6.89977598381e-08
8.80571245467e-08
9.94025310802e-08
1.00301775578e-07
8.49411293036e-08
1.65965695105e-08
1.42659181159e-33
)
;

boundaryField
{
    emptyPatch
    {
        type            empty;
    }
    minY
    {
        type            zeroGradient;
    }
    maxY
    {
        type            calculated;
        value           nonuniform List<scalar> 
40
(
2.64224369438e-06
3.27682257888e-06
2.84780091915e-06
2.03971771579e-06
1.4205649463e-06
1.17975465253e-06
1.19234070741e-06
1.31457675893e-06
1.41822787666e-06
1.45786094918e-06
1.49585320527e-06
1.55517973876e-06
1.61687916783e-06
1.65235085925e-06
1.64794592672e-06
1.59330574496e-06
1.48451980299e-06
1.32980888129e-06
1.14996625286e-06
9.84172617371e-07
8.45221343931e-07
7.30308802769e-07
6.55471654769e-07
5.97555688514e-07
5.24709184778e-07
4.40535477518e-07
3.45549500065e-07
2.36427967268e-07
2.08909728415e-07
1.52855842327e-07
5.49333980073e-08
5.08277145608e-08
4.19660959773e-08
6.89992722942e-08
8.80545456049e-08
9.93983180602e-08
1.00297210904e-07
8.4937296479e-08
1.65958849495e-08
1.42637006323e-33
)
;
    }
    maxX
    {
        type            compressible::alphatPhaseChangeJayatillekeWallFunction;
        Prt             0.85;
        Cmu             0.09;
        kappa           0.41;
        E               9.8;
        dmdt            uniform 0;
        value           nonuniform List<scalar> 
38
(
1.97588753576e-08
2.12766241506e-08
2.17488997378e-08
2.24920707971e-08
2.40460767558e-08
2.26392361462e-08
1.52015623864e-08
8.42087913178e-09
6.84376964527e-09
7.63885264299e-09
9.00270826086e-09
1.15869986513e-08
1.67277353944e-08
3.7765193726e-08
4.79638545158e-08
4.99638068408e-08
4.56726063496e-08
3.77859278176e-08
3.4391622558e-08
3.41796417848e-08
3.25081669746e-08
2.93301404587e-08
3.09021066763e-08
3.20281183322e-08
3.03205104374e-08
2.43474648231e-08
1.76078525789e-08
1.21824921203e-08
8.46461787052e-09
5.94369042194e-09
3.85920553265e-09
2.24785358215e-09
1.19942915955e-09
7.18253712696e-10
5.21195564586e-10
4.81971791932e-10
5.62962168377e-10
1.02610616768e-09
)
;
    }
    water_to_heater
    {
        type            compressible::alphatWallBoilingWallFunction;
        phaseType       vapor;
        relax           constant 1;
        partitioningModel
        {
            type            Lavieville;
            alphaCrit       0.2;
        }
        otherPhase      liquid;