/*--------------------------------*- C++ -*----------------------------------*\
| =========                 |                                                 |
| \\      /  F ield         | OpenFOAM: The Open Source CFD Toolbox           |
|  \\    /   O peration     | Version:  2312                                  |
|   \\  /    A nd           | Website:  www.openfoam.com                      |
|    \\/     M anipulation  |                                                 |
\*---------------------------------------------------------------------------*/
FoamFile
{
    version     2.0;
    format      ascii;
    arch        "LSB;label=32;scalar=64";
    class       volScalarField;
    location    "0.65/water";
    object      alpha.gas;
}
// * * * * * * * * * * * * * * * * * * * * * * * * * * * * * * * * * * * * * //

dimensions      [0 0 0 0 0 0 0];

internalField   nonuniform List<scalar> 
1503
(
0.169222330941
0.102581826739
0.0291765094263
0.00733128679911
0.00138191952829
0.000214305907155
2.72398768029e-05
2.05405636751e-06
4.56485990297e-08
4.13062405552e-10
2.11625468567e-12
8.69799777942e-15
1e-15
1e-15
1e-15
1e-15
1e-15
1e-15
1e-15
1e-15
0.609178641762
0.254849167963
0.105735066402
0.0359676125483
0.0113620915016
0.00303646625624
0.000688518936781
0.000122797321728
1.24063079845e-05
2.74935112733e-07
9.31792953053e-10
1.53891465437e-12
2.80515297303e-15
1e-15
1e-15
1e-15
1e-15
1e-15
1e-15
1e-15
0.613294019074
0.338700112623
0.165945410056
0.0704597902314
0.0270444589458
0.00902831402303
0.0025401591252
0.000576624266842
8.67752363276e-05
4.60820921146e-06
2.15706263261e-08
2.62144225872e-11
2.6475043232e-14
1.00028922831e-15
1e-15
1e-15
1e-15
1e-15
1e-15
1e-15
0.613295062351
0.418224216971
0.242324914199
0.122864221252
0.0549435214345
0.0210959759033
0.00676275193613
0.00175661787264
0.000329085356684
3.05683694932e-05
4.22286233178e-07
4.61738748532e-10
3.17938017447e-13
1.15382657747e-15
1e-15
1e-15
1e-15
1e-15
1e-15
1e-15
0.597702962521
0.466428260031
0.322253891412
0.195688527056
0.103368197705
0.0459238028514
0.0165927341075
0.00472560776097
0.000994706450056
0.000123098040554
4.39098942417e-06
6.80871431171e-09
3.89061099813e-12
3.13205453361e-15
1.00002910755e-15
1e-15
1e-15
1e-15
1e-15
1e-15
0.569615468831
0.484740448312
0.384461777331
0.274296525896
0.171592729087
0.0906312859433
0.0385860599423
0.0125488861592
0.00292655167234
0.000425079808172
2.56192268656e-05
1.49361857417e-07
8.40713909737e-11
3.94534058018e-14
1.01085999484e-15
1e-15
1e-15
1e-15
1e-15
1e-15
0.549824688531
0.488795955553
0.422407069506
0.339388300056
0.244766181128
0.152659079554
0.0786551992188
0.0312397411605
0.00871263536098
0.00149704870742
0.000122302005398
2.30761068249e-06
1.58299312271e-09
6.39930838885e-13
1.25318993593e-15
1.00000768481e-15
1e-15
1e-15
1e-15
1e-15
0.554583081276
0.49329457639
0.440936923447
0.380714043485
0.303820174934
0.216996672512
0.13342242318
0.0661591579262
0.0236891247647
0.00522455364293
0.000566354131608
2.02164995767e-05
5.13054321142e-08
1.71748388171e-11
6.57075133207e-15
1.00220874207e-15
1.00041677154e-15
1.00018374492e-15
1.00000722644e-15
1e-15
0.557008727592
0.492786397824
0.452678599723
0.405729245174
0.344446001449
0.270580907067
0.191234309274
0.115312437633
0.0533081281845
0.0158614734901
0.00239565517898
0.000133746621154
1.43591983215e-06
5.33145566181e-10
1.2580100596e-13
1.03344479467e-15
1.00290616244e-15
1.00222205173e-15
1.00168342202e-15
1.00076001731e-15
0.556279291644
0.487837800082
0.454339821925
0.417429135439
0.369505841378
0.309876324589
0.241964750098
0.168656530458
0.0961659647115
0.0380548946381
0.00815856410902
0.000693686998379
1.54318447217e-05
2.08861655365e-08
4.74209318427e-12
1.63265538911e-15
1.00639276477e-15
1.00497109712e-15
1.00383736557e-15
1.00255917509e-15
0.556683725632
0.475808358723
0.448623078777
0.418923560652
0.383764055923
0.338028036108
0.281523430567
0.214878364538
0.141753499349
0.0707119748648
0.0209834508721
0.00266295204446
9.81051283658e-05
5.03210898485e-07
1.65131140949e-10
2.28294634697e-14
1.00964948572e-15
1.00628859797e-15
1.00472860569e-15
1.00334856624e-15
0.556230991669
0.457269391303
0.434529352807
0.416167869613
0.393601550581
0.359185096079
0.310330381228
0.249219517712
0.180151892716
0.106548472688
0.0414759059494
0.00754353841615
0.000434801203848
5.11612345607e-06
2.73592818836e-09
4.14241508591e-13
1.0371489937e-15
1.00617773103e-15
1.00462957306e-15
1.00330817299e-15
0.553390232034
0.442446364613
0.423903262324
0.415956186348
0.403227230708
0.375882663228
0.330733163532
0.273798417726
0.210784802302
0.14124283979
0.0680685612614
0.0170528126802
0.00152278050644
3.40690494032e-05
5.84333878612e-08
8.0769801336e-12
1.33647098836e-15
1.00443827648e-15
1.003379472e-15
1.00247263821e-15
0.537496138482
0.44351393713
0.431813940878
0.42757742889
0.418560113991
0.391453317646
0.347342291621
0.295321274277
0.240171880257
0.177679538945
0.102344015001
0.0344943861164
0.00478302073167
0.000199547912495
1.56580645055e-06
3.45977324182e-12
1.55558913191e-15
1.00054358786e-15
1.00044571331e-15
1.00029655347e-15
0.536112907939
0.469416832062
0.463606791784
0.458029078532
0.441803780959
0.408877556958
0.366050340249
0.320510008784
0.273548289078
0.219751384225
0.148857555594
0.0672815719903
0.0146981608995
0.00114442454027
2.30306077233e-05
1.16333402772e-08
5.84277945786e-14
1.01043263029e-15
1e-15
1e-15
0.577814851442
0.525084820288
0.511866034751
0.497765784514
0.469904188861
0.430108721549
0.388405217003
0.348559135921
0.308591503032
0.264294046783
0.205539928591
0.122621643922
0.0418188251481
0.00581982831938
0.000241134503282
1.70547114813e-06
2.85215885929e-11
5.1411484382e-15
1e-15
1e-15
0.617625410737
0.562683795851
0.546209307809
0.528648345251
0.49527428579
0.449889925737
0.404876487189
0.364907877277
0.330406841251
0.297219429044
0.257265211939
0.191457932082
0.0960005579097
0.0225850243193
0.00175358383761
3.1942483226e-05
1.81193470024e-08
1.14038700587e-12
1.4362216502e-15
1e-15
0.615215026579
0.570090068417
0.556640259258
0.539691259303
0.50585772123
0.457533827047
0.408200068382
0.36540055826
0.331105081706
0.30941144086
0.290345125005
0.250825733774
0.16544862032
0.0603398472616
0.00815813973774
0.00029044102366
1.73859610101e-06
5.65821693173e-11
2.86121356009e-14
1.00557699728e-15
0.619599483685
0.569004887979
0.562158490359
0.543442056446
0.506990173219
0.457158454407
0.406369433673
0.361250300413
0.324951438758
0.306094582303
0.304632796142
0.288995486053
0.224185816899
0.111083375287
0.0239497974841
0.00151364081171
2.02272414162e-05
7.20415416086e-09
7.3674360807e-13
1.35326132861e-15
0.615478115772
0.5636499274
0.563320758484
0.544236471686
0.504749316694
0.451576721792
0.397077203028
0.346744412614
0.307948232615
0.298332146941
0.303693297394
0.303408172444
0.258580464189
0.153744340829
0.046620296999
0.00464424711934
0.000103099864788
2.74658517976e-07
7.65185078471e-11
1.94103073362e-14
0.619719168775
0.553989073997
0.558882904159
0.539001259359
0.494290854363
0.435258598844
0.374759435573
0.319587421337
0.297766106082
0.297556426552
0.298096788834
0.30306166977
0.272877195389
0.179715408637
0.0670563881219
0.00922182898537
0.000298487367193
1.56966528017e-06
1.11712999057e-09
4.74272605667e-13
0.615478115772
0.541567615181
0.544989146583
0.522084087437
0.471925082536
0.406563869008
0.341342238627
0.298122474396
0.297482934942
0.297766106082
0.2973373388
0.299212118735
0.279840834294
0.195426542961
0.0817992558637
0.0139597720215
0.000595855886926
4.50342230994e-06
5.11495194329e-09
3.02268103209e-12
0.619028159755
0.529283644091
0.521629578086
0.491947487981
0.438597051359
0.370804299066
0.308076603014
0.29750826562
0.297766106082
0.296761071113
0.297766106082
0.298457575687
0.289440403704
0.210908346719
0.0955997959999
0.0192316378102
0.0010292129817
9.94713809227e-06
1.4334651173e-08
9.82771656011e-12
0.615215026579
0.517656058885
0.498677116405
0.458881766543
0.403026933471
0.340070073664
0.297708984627
0.297766106082
0.296655790496
0.297766106082
0.296475747038
0.318743665518
0.314157582593
0.235713917121
0.117086112482
0.0281101606946
0.00193206350335
2.40700209907e-05
3.83319693232e-08
2.43670900574e-11
0.616418130695
0.505235381042
0.479425164792
0.434028378912
0.378937463051
0.324226418958
0.297766106082
0.296871290191
0.297766106082
0.296439722309
0.307215955241
0.357590685534
0.355748547348
0.281315673481
0.159416067905
0.0475946030227
0.00446089100746
7.82525525976e-05
1.68199472633e-07
8.659673892e-11
0.615215026579
0.488605762184
0.462540480922
0.421908908284
0.372836936385
0.322714054251
0.297351145526
0.297766106082
0.296439722309
0.302098233035
0.35662123025
0.359580662088
0.358838317291
0.339066269621
0.229945391217
0.0876564406983
0.0117093138324
0.000325270488557
1.32637367154e-06
3.57946726172e-10
0.603932415003
0.466944866645
0.450285413856
0.420419978504
0.37546802395
0.328382322394
0.299602590286
0.298544472842
0.311833648723
0.35170186645
0.359471149552
0.358838317291
0.359502733591
0.358838317291
0.297950463749
0.150990667016
0.0297807237715
0.0013974116548
1.14025918849e-05
2.16702575078e-09
0.573873656021
0.456610179018
0.451399430343
0.430763162096
0.393093251972
0.352435165955
0.330350704904
0.33611454136
0.352452391529
0.356549783458
0.358135405863
0.359286273275
0.358838317291
0.359182882845
0.340382632244
0.219229408994
0.0640549936433
0.005208078199
8.34100802746e-05
1.04891694471e-07
0.543584236529
0.472324456463
0.482481334722
0.474752105426
0.437813519412
0.395507989655
0.376383708862
0.372396212444
0.361062932723
0.347424467212
0.337415537798
0.345542307917
0.358926191155
0.358838317291
0.351769764798
0.268208649215
0.112174768533
0.0155504974764
0.000478461851544
2.2580026297e-06
0.544841657453
0.534939383925
0.558999328903
0.553745919371
0.501964878506
0.443923669514
0.409800519859
0.384996074497
0.355442852663
0.324461100892
0.306009044477
0.315920756993
0.342104033152
0.355891296886
0.349782918883
0.297232219733
0.164227260104
0.0365157077291
0.00201754269115
2.03113770902e-05
0.586039375918
0.619755704794
0.63593902194
0.628853777934
0.571421712605
0.495577495358
0.437919858906
0.393674088658
0.348791901009
0.305237107158
0.285544026201
0.291796903246
0.314259904316
0.337127611828
0.340993235138
0.312955354294
0.212642220145
0.0698567995468
0.00651363806
0.000118587734386
0.65803587224
0.667408772085
0.670980395359
0.669062554247
0.629226016703
0.552266320704
0.473569983045
0.409565600751
0.350750128014
0.298141790359
0.278689931064
0.280826273185
0.29193362017
0.311276757397
0.326907863998
0.321774463071
0.256901986597
0.114425227714
0.0168912769511
0.000536707926204
0.685520871914
0.678874331799
0.681468630426
0.681845458052
0.660651094081
0.598570376302
0.512350600134
0.432003696221
0.358321737086
0.29747882972
0.277211151654
0.27740579365
0.28102306696
0.291703519113
0.31296570361
0.331132830676
0.294626044705
0.165468308944
0.0362761664887
0.00193520654946
0.684970873623
0.682418624382
0.683654808184
0.683716227956
0.67292235107
0.622651954127
0.538334583614
0.449452082527
0.365237448864
0.297231277074
0.277292660183
0.277050969427
0.277292660183
0.281223309664
0.303025696185
0.340611223909
0.325745596632
0.215947130752
0.0652641529505
0.00554412929312
0.690034738481
0.683873961102
0.683820270757
0.683603069241
0.676966982938
0.630061704689
0.547077491141
0.454870275752
0.365778581442
0.295030342039
0.277064555912
0.27720284568
0.276768577119
0.277292660183
0.296579916777
0.347524885254
0.348277765878
0.257797178046
0.0991438506873
0.0125735262712
0.68510366964
0.68382203978
0.683603069241
0.683441402926
0.676727107992
0.628639384807
0.54540955938
0.451755081557
0.359301198334
0.289269150056
0.27720284568
0.276608943967
0.27720284568
0.27653118575
0.291265347181
0.350310501199
0.361145689627
0.283364780277
0.129570793891
0.0227793103607
0.690946589774
0.680792746821
0.683441402926
0.683164509838
0.67001612902
0.615138071276
0.53031944025
0.434799180527
0.341066032126
0.281356724889
0.276881271269
0.277018611672
0.276344338267
0.27720284568
0.288610409515
0.352475413617
0.364072710085
0.294865860862
0.151543112187
0.0343503343255
0.685309224634
0.672309346942
0.680048874837
0.676924628711
0.647854502962
0.582645284027
0.496068239294
0.401123340276
0.313592634082
0.277137096256
0.277018611672
0.276369639375
0.277018611672
0.276115747272
0.289992130701
0.355830514232
0.364226461126
0.300288552436
0.167394690471
0.0460133767757
1e-15
1e-15
1e-15
1e-15
1e-15
1e-15
1e-15
1e-15
1e-15
1e-15
1e-15
1e-15
1e-15
1e-15
1e-15
1e-15
1e-15
1e-15
1e-15
1e-15
1e-15
1e-15
1e-15
1e-15
1e-15
1e-15
1e-15
1e-15
1e-15
1e-15
1e-15
1e-15
1e-15
1e-15
1e-15
1e-15
1e-15
1e-15
1e-15
1e-15
1e-15
1e-15
1e-15
1e-15
1e-15
1e-15
1e-15
1e-15
1e-15
1e-15
1e-15
1e-15
1e-15
1e-15
1e-15
1e-15
1e-15
1e-15
1e-15
1e-15
1e-15
1e-15
1e-15
1e-15
1e-15
1e-15
1e-15
1e-15
1e-15
1e-15
1e-15
1e-15
1e-15
1e-15
1e-15
1e-15
1e-15
1e-15
1e-15
1e-15
1e-15
1e-15
1e-15
1e-15
1e-15
1e-15
1e-15
1e-15
1e-15
1e-15
1e-15
1e-15
1e-15
1e-15
1e-15
1.00000664512e-15
1.00212754222e-15
1e-15
1e-15
1e-15
1e-15
1e-15
1e-15
1e-15
1e-15
1e-15
1e-15
1e-15
1e-15
1e-15
1e-15
1e-15
1e-15
1e-15
1e-15
1e-15
1.00349891321e-15
1e-15
1e-15
1.03023269067e-15
1e-15
1e-15
1e-15
1.00000102136e-15
1.0000032554e-15
1.00001147488e-15
1.00004803193e-15
1.00024114911e-15
1.00044503827e-15
1.00057667266e-15
1.00052874184e-15
1.00017423966e-15
1e-15
1e-15
1e-15
1.00272275512e-15
1.00349880817e-15
1e-15
1e-15
1.07660019532e-15
1e-15
1.00013143489e-15
1.00025493429e-15
1.00030719023e-15
1.00043149562e-15
1.00062809413e-15
1.00095410451e-15
1.00134744924e-15
1.00175320831e-15
1.00196184369e-15
1.00178175255e-15
1.00094665777e-15
1e-15
1e-15
1.00312926344e-15
1.00651526336e-15
1.00116225223e-15
1e-15
1e-15
1.11729096397e-15
1.0007719563e-15
1.00150249911e-15
1.00164085176e-15
1.00171607748e-15
1.0018192336e-15
1.00208913588e-15
1.00250489701e-15
1.00299029511e-15
1.00345470826e-15
1.00362060768e-15
1.00314978159e-15
1.00173027637e-15
1e-15
1e-15
1.01154092178e-15
1.0096640266e-15
1e-15
1e-15
1e-15
1.1535150141e-15
1.00229964681e-15
1.00252282382e-15
1.00248514157e-15
1.00248774282e-15
1.00263821499e-15
1.00287128008e-15
1.00333043205e-15
1.00388932642e-15
1.00436095454e-15
1.00452615721e-15
1.00370995229e-15
1.00173754784e-15
1.00028317785e-15
1.00191169998e-15
1.01154048719e-15
1.00909958199e-15
1e-15
1e-15
1e-15
1.18522340368e-15
1.0027912249e-15
1.00268953357e-15
1.00255386472e-15
1.0025111555e-15
1.00268129689e-15
1.00305739298e-15
1.00363411812e-15
1.00427606089e-15
1.00483315856e-15
1.00487482511e-15
1.00371735915e-15
1.00150028324e-15
1.00100766434e-15
1.00608971891e-15
1.01154092178e-15
1.00688386812e-15
1e-15
1e-15
1e-15
1.21282669793e-15
1.00269802687e-15
1.00252613298e-15
1.00235672252e-15
1.00228482034e-15
1.00250864759e-15
1.0029721119e-15
1.00369432665e-15
1.00460201573e-15
1.00544588563e-15
1.00496197525e-15
1.00357879005e-15
1.00148694099e-15
1.00171826755e-15
1.01154579641e-15
1.01152573164e-15
1.00309246891e-15
1e-15
1e-15
1e-15
1.23666233557e-15
1.00193366525e-15
1.0017698039e-15
1.00165289653e-15
1.00159007303e-15
1.00193173783e-15
1.00263336768e-15
1.003615715e-15
1.0050704039e-15
1.00637519486e-15
1.00498074245e-15
1.00322794894e-15
1.00148733859e-15
1.00274854007e-15
1.01154569707e-15
1.01031824749e-15
1e-15
1e-15
1e-15
1e-15
1.25778068246e-15
1.00016404219e-15
1.000126277e-15
1.00011478031e-15
1.00030887135e-15
1.00105329587e-15
1.00214264017e-15
1.00358240264e-15
1.00572580622e-15
1.00712513233e-15
1.00510581801e-15
1.00291340384e-15
1.00148694099e-15
1.00545673631e-15
1.01154579641e-15
1.00816985003e-15
1e-15
1e-15
1.00089919446e-15
1e-15
1.27675207745e-15
1e-15
1e-15
1e-15
1e-15
1.00063839072e-15
1.00206719083e-15
1.0038799964e-15
1.00640891259e-15
1.00734863439e-15
1.00551543495e-15
1.00297144982e-15
1.00151587041e-15
1.00941558098e-15
1.01146144806e-15
1.00556536194e-15
1e-15
1e-15
1.00261901873e-15
1e-15
1.29415953062e-15
1e-15
1e-15
1e-15
1e-15
1.00099196818e-15
1.00270838826e-15
1.00490952968e-15
1.00707403208e-15
1.00752994929e-15
1.00621837372e-15
1.00368963485e-15
1.00344891814e-15
1.01149220538e-15
1.0106769223e-15
1.00274774685e-15
1e-15
1e-15
1.0044588226e-15
1e-15
1.31080373549e-15
1e-15
1e-15
1e-15
1.0002711168e-15
1.002900485e-15
1.00477077174e-15
1.00670977477e-15
1.00797440188e-15
1.00804517526e-15
1.00725721474e-15
1.00531585125e-15
1.00785352855e-15
1.0120918571e-15
1.00936886418e-15
1e-15
1e-15
1e-15
1.00622522981e-15
1e-15
1.32735163453e-15
1e-15
1e-15
1.00110210687e-15
1.00484357606e-15
1.00666891315e-15
1.0080424972e-15
1.00908689234e-15
1.00943902909e-15
1.00922990534e-15
1.00870638233e-15
1.00750412357e-15
1.01105300726e-15
1.01209953609e-15
1.00812094016e-15
1e-15
1e-15
1e-15
1.01341939478e-15
1e-15
1.34407901091e-15
1.00135120721e-15
1.0063825605e-15
1.0094724022e-15
1.01076939258e-15
1.01118854114e-15
1.01159967998e-15
1.01175615997e-15
1.01153283866e-15
1.01111131192e-15
1.01055055553e-15
1.00978394886e-15
1.01307362103e-15
1.01210721508e-15
1.00699242013e-15
1e-15
1e-15
1e-15
1.02083228514e-15
1e-15
1.36101455976e-15
1.01586841453e-15
1.01807436197e-15
1.01692924299e-15
1.01568399934e-15
1.01486954665e-15
1.01437285299e-15
1.01412118377e-15
1.01372702547e-15
1.0131464109e-15
1.01249567476e-15
1.01323490702e-15
1.0138699417e-15
1.01193950001e-15
1.00550075593e-15
1e-15
1e-15
1.00070442334e-15
1.02072495677e-15
1e-15
1.37807724531e-15
1.02951035774e-15
1.02346761232e-15
1.0204757241e-15
1.01818097213e-15
1.0165135729e-15
1.0154673446e-15
1.01522546703e-15
1.01502655584e-15
1.01449893786e-15
1.01384691282e-15
1.01407906648e-15
1.01399479266e-15
1.01136368816e-15
1.00251789967e-15
1e-15
1e-15
1.00160220661e-15
1.02082876405e-15
1e-15
1.39500182917e-15
1.05896855828e-15
1.0239786457e-15
1.0207762781e-15
1.01827604365e-15
1.01637167567e-15
1.01512827707e-15
1.01468764329e-15
1.0146607355e-15
1.0145653176e-15
1.01413837016e-15
1.01410872706e-15
1.01403083599e-15
1.01024216008e-15
1e-15
1e-15
1e-15
1.00152263813e-15
1.02072495677e-15
1e-15
1.41129449303e-15
1.14133061249e-15
1.02187143567e-15
1.01887769774e-15
1.0163542188e-15
1.01427072769e-15
1.01258919292e-15
1.01406131058e-15
1.01375648056e-15
1.01346692624e-15
1.01361569151e-15
1.01407906648e-15
1.01388039431e-15
1.00832181329e-15
1e-15
1e-15
1e-15
1.00100660175e-15
1.02077171859e-15
1e-15
1.4265184402e-15
1.2353689502e-15
1.01572935096e-15
1.01366513227e-15
1.01162421764e-15
1.00958276841e-15
1.00947245807e-15
1.01724926547e-15
1.01618938913e-15
1.01122796651e-15
1.0113856527e-15
1.0137069134e-15
1.01282656402e-15
1.00418761443e-15
1e-15
1e-15
1e-15
1.00006486407e-15
1.02072495677e-15
1e-15
1.44072124305e-15
1.47596826867e-15
1.00829960392e-15
1.00765000817e-15
1.00659439079e-15
1.00528201876e-15
1.01023335063e-15
1.02403241825e-15
1.023108267e-15
1.01115890674e-15
1.00984278795e-15
1.01225353988e-15
1.010214687e-15
1e-15
1e-15
1e-15
1e-15
1e-15
1.02062447366e-15
1e-15
1.45449174186e-15
1.80326827256e-15
1.00205802779e-15
1.00219176588e-15
1.00195751606e-15
1.00438778442e-15
1.0174943975e-15
1.02449766467e-15
1.02449870611e-15
1.01683974261e-15
1.00979828144e-15
1.0107509888e-15
1.00648199315e-15
1e-15
1e-15
1e-15
1e-15
1e-15
1.02006519726e-15
1e-15
1.4685597027e-15
2.54237309789e-15
1.00004613793e-15
1.00009063653e-15
1.00010153313e-15
1.00479421528e-15
1.02230723069e-15
1.02416391765e-15
1.02443587786e-15
1.02326126894e-15
1.01169434294e-15
1.00928380549e-15
1.00213878149e-15
1e-15
1e-15
1e-15
1e-15
1e-15
1.01928212998e-15
1e-15
1.48329423852e-15
2.42943550734e-14
1e-15
1e-15
1e-15
1.00821065728e-15
1.02177910541e-15
1.02286762044e-15
1.02355582792e-15
1.02348199634e-15
1.01891926249e-15
1.00795545675e-15
1e-15
1e-15
1e-15
1e-15
1e-15
1e-15
1.01866187385e-15
1e-15
1.49857297026e-15
1.1384347287e-12
1e-15
1e-15
1e-15
1.01443317858e-15
1.02005677993e-15
1.02129623044e-15
1.02228191146e-15
1.02287015647e-15
1.02103971428e-15
1.00721861979e-15
1e-15
1e-15
1e-15
1e-15
1e-15
1e-15
1.01848389416e-15
1e-15
1.51417173674e-15
5.03487925466e-10
1e-15
1e-15
1e-15
1.01538092463e-15
1.0182757492e-15
1.02016264259e-15
1.02128181337e-15
1.02165280858e-15
1.02037361695e-15
1.00675047053e-15
1e-15
1e-15
1e-15
1e-15
1e-15
1e-15
1.01897129553e-15
1e-15
1.53005981581e-15
6.7042710038e-08
1e-15
1e-15
1e-15
1.01443581978e-15
1.01737208095e-15
1.02045210026e-15
1.02174542409e-15
1.02084101518e-15
1.01926405807e-15
1.00660754413e-15
1e-15
1e-15
1e-15
1e-15
1e-15
1e-15
1.02045724492e-15
1e-15
1.54635176926e-15
1.53049922699e-06
1e-15
1e-15
1e-15
1.0134685545e-15
1.0175783221e-15
1.02370744574e-15
1.02448496186e-15
1.02143359596e-15
1.018658861e-15
1.0070091881e-15
1e-15
1e-15
1e-15
1e-15
1e-15
1.003770997e-15
1.02298664604e-15
1e-15
1.56335433736e-15
1.34468740687e-05
1.02007491805e-15
1e-15
1e-15
1.01391631488e-15
1.0201213644e-15
1.02493706293e-15
1.02511814989e-15
1.0244388729e-15
1.01887365846e-15
1.00817327805e-15
1e-15
1e-15
1e-15
1e-15
1e-15
1.00906453977e-15
1.02580304129e-15
1.00920205322e-15
1.58201553549e-15
7.42294642472e-05
1.02026957632e-15
1e-15
1e-15
1.0157467991e-15
1.02417131337e-15
1.02535346721e-15
1.02493706293e-15
1.02508447946e-15
1.02015351434e-15
1.01004844191e-15
1e-15
1e-15
1e-15
1e-15
1e-15
1.01259022356e-15
1.02834401393e-15
1.02123976346e-15
1.6022121021e-15
0.000294462492721
2.9833554885e-09
1e-15
1e-15
1.01893867717e-15
1.02514671236e-15
1.02493706293e-15
1.02545979503e-15
1.02493706293e-15
1.0218008984e-15
1.01196222523e-15
1e-15
1e-15
1e-15
1e-15
1e-15
1.01570992252e-15
1.03088347736e-15
1.02551268169e-15
1.62295199683e-15
0.000860955796286
1.06366348029e-06
1e-15
1e-15
1.02321845307e-15
1.02493231842e-15
1.02569472262e-15
1.02493706293e-15
1.02520856672e-15
1.02393601231e-15
1.01312531511e-15
1e-15
1e-15
1e-15
1e-15
1.0081296652e-15
1.01825109387e-15
1.03360298438e-15
1.02812851499e-15
1.64240316928e-15
0.00192432166001
7.14814371908e-06
1e-15
1e-15
1.02068568319e-15
1.0253437868e-15
1.02493706293e-15
1.02548008138e-15
1.02493706293e-15
1.02497590294e-15
1.01347524268e-15
1.00599843058e-15
1.00144786109e-15
1.00306723765e-15
1.00725590529e-15
1.01233825242e-15
1.01979663093e-15
1.03616075925e-15
1.02915313791e-15
1.69182939822e-15
0.00349771127355
2.42986251678e-05
1e-15
)
;

boundaryField
{
    emptyPatch
    {
        type            empty;
    }
    minY
    {
        type            fixedValue;
        value           uniform 1e-15;
    }
    maxY
    {
        type            inletOutlet;
        phi             phi.gas;
        inletValue      nonuniform List<scalar> 0();
        value           nonuniform List<scalar> 0();
    }
    maxX
    {
        type            zeroGradient;
    }
    water_to_heater
    {
        type            zeroGradient;
    }
    procBoundary2to3
    {
        type            processor;
        value           nonuniform List<scalar> 
41
(
0.691442892916
0.658078100984
0.665237763172
0.652057038853
0.607396767419
0.534550205291
0.447435796486
0.356219446818
0.286737891179
0.277018611672
0.276527962218
0.276797125979
0.276071657227
0.277018611672
0.296774965183
0.36200740339
0.36434504747
0.305811233934
0.183102818231
0.0584859135633
1e-15
1.00108547204e-15
1.02493706293e-15
1.02571124086e-15
1.02493706293e-15
1.02521028802e-15
1.02493706293e-15
1.01333832517e-15
1.00937047804e-15
1.00856514971e-15
1.00953280394e-15
1.01126585132e-15
1.01386247198e-15
1.02027714032e-15
1.03813989396e-15
1.02928375463e-15
1.72611446831e-15
0.00558515120274
5.6973970636e-05
1e-15
1e-15
)
;
    }
}


// ************************************************************************* //
