/*--------------------------------*- C++ -*----------------------------------*\
| =========                 |                                                 |
| \\      /  F ield         | OpenFOAM: The Open Source CFD Toolbox           |
|  \\    /   O peration     | Version:  2312                                  |
|   \\  /    A nd           | Website:  www.openfoam.com                      |
|    \\/     M anipulation  |                                                 |
\*---------------------------------------------------------------------------*/
FoamFile
{
    version     2.0;
    format      ascii;
    arch        "LSB;label=32;scalar=64";
    class       volScalarField;
    location    "0.085/water";
    object      Tf.gasAndLiquid;
}
// * * * * * * * * * * * * * * * * * * * * * * * * * * * * * * * * * * * * * //

dimensions      [0 0 0 1 0 0 0];

internalField   nonuniform List<scalar> 
1503
(
315.361376268
306.489304895
302.78070561
301.109185076
300.472994367
300.115730288
300.005741718
300.000036359
300.000000051
300
300
300
300
300
300
300
300
300
300
300
320.917139907
308.607864359
303.125395426
301.145636
300.42140687
300.157018377
300.054235697
300.007415026
300.000173243
300.000000348
300
300
300
300
300
300
300
300
300
300
320.787780184
308.065032004
302.767322785
300.931942229
300.311608337
300.103563414
300.033764418
300.009634939
300.000971859
300.000015544
300.000000011
300
300
300
300
300
300
300
300
300
319.829487347
308.04284359
302.879331002
300.967246656
300.314340594
300.0983693
300.029181691
300.008446503
300.001756113
300.000090465
300.000000498
300
300
300
300
300
300
300
300
300
318.933601551
307.891683997
303.009358437
301.062050938
300.357579557
300.115654757
300.034597255
300.009587447
300.002634531
300.000298062
300.000006496
300.000000001
300
300
300
300
300
300
300
300
317.952909223
307.58021691
303.023589448
301.127233054
300.399794761
300.137864925
300.044783674
300.012964959
300.003505618
300.000748629
300.000034533
300.00000028
300
300
300
300
300
300
300
300
317.229525543
307.210454696
302.921425206
301.135955651
300.42428599
300.155723295
300.055366424
300.017618071
300.004845861
300.001304107
300.000139663
300.000002986
300
300
300
300
300
300
300
300
316.996181375
306.946274424
302.789008343
301.102939613
300.430633455
300.167690654
300.064495044
300.022666529
300.00656435
300.001674213
300.000366786
300.00001621
300.000000021
300
300
300
300
300
300
300
316.911001585
306.83476084
302.729158818
301.087390799
300.436951967
300.178950152
300.073410479
300.028013372
300.008685317
300.002120712
300.000500984
300.000059721
300.000000592
300
300
300
300
300
300
300
316.803976795
306.763813777
302.688328709
301.077975463
300.442795484
300.188864307
300.082107131
300.033535661
300.011114623
300.002653343
300.00055231
300.000127381
300.000006024
300.000000014
300
300
300
300
300
300
316.719278446
306.69847049
302.64187891
301.062292375
300.444389413
300.196403678
300.089885625
300.039218571
300.013848684
300.003302144
300.000603177
300.000123516
300.000019566
300.000000261
300
300
300
300
300
300
316.800753079
306.648285371
302.580736116
301.032847381
300.439689213
300.201472778
300.096760135
300.04472392
300.016943791
300.004185957
300.000693255
300.000122526
300.000034604
300.000001889
300.000000002
300
300
300
300
300
317.00689029
306.626265776
302.50931042
300.99249075
300.42866459
300.203822636
300.102476413
300.049769308
300.020096967
300.005389595
300.000876666
300.000132714
300.000035347
300.000005798
300.00000003
300
300
300
300
300
317.130659818
306.687218209
302.505676242
300.978473108
300.424613549
300.207325882
300.107980595
300.054436921
300.023162571
300.006809256
300.001161652
300.000155487
300.00003757
300.000011852
300.000000201
300
300
300
300
300
317.12013142
306.722162732
302.529398768
300.988141615
300.430740652
300.213844704
300.114060786
300.05893513
300.026076853
300.008347446
300.001556275
300.000193692
300.000041227
300.000015077
300.000000682
300
300
300
300
300
317.058478705
306.710275904
302.544914021
301.00548553
300.443354302
300.223083085
300.120770603
300.063323216
300.028881069
300.009983076
300.002076826
300.000252031
300.000045575
300.000013806
300.000001525
300.000000004
300
300
300
300
317.053579704
306.689719007
302.548637675
301.02005474
300.456916488
300.233353463
300.127644694
300.067657258
300.031718479
300.011782001
300.002736416
300.000333458
300.000050124
300.000011973
300.000002758
300.000000047
300
300
300
300
317.245834525
306.727386558
302.558609349
301.030614311
300.468132067
300.242466736
300.133886689
300.071788103
300.034653205
300.0138193
300.003544355
300.000442654
300.000056283
300.000011016
300.000002345
300.000000186
300
300
300
300
317.402343935
306.867050618
302.643443042
301.069576588
300.486183857
300.252315182
300.139770387
300.075805819
300.037853644
300.016060935
300.004459608
300.000578833
300.000065221
300.000011294
300.000002186
300.000000491
300.000000005
300
300
300
317.403304294
306.958961825
302.724080927
301.115397813
300.507140675
300.262005586
300.145132522
300.079916522
300.041148061
300.018312716
300.005408358
300.000741051
300.000079025
300.000012646
300.000002347
300.000000567
300.000000032
300
300
300
317.367387706
306.990260835
302.769368401
301.14488932
300.522228927
300.26899857
300.149663417
300.083833485
300.044437426
300.020506827
300.006353363
300.000923759
300.000097925
300.000014803
300.00000268
300.000000638
300.000000066
300
300
300
317.320353721
306.951260824
302.758333771
301.14640031
300.525882887
300.272334948
300.153401108
300.08768859
300.047795561
300.022740777
300.007342694
300.001147634
300.000121776
300.000017339
300.000003043
300.000000671
300.000000078
300
300
300
317.217839847
306.828595966
302.682754574
301.115416403
300.516458187
300.271856724
300.156454235
300.091777566
300.051473366
300.025115126
300.008500781
300.001437967
300.000153942
300.000020276
300.000003392
300.000000657
300.000000079
300
300
300
316.977520869
306.76762214
302.655163557
301.097799502
300.508701738
300.271738752
300.160194417
300.096549842
300.055539034
300.027681909
300.009877858
300.001873614
300.000208274
300.000024991
300.000003898
300.000000617
300.000000054
300
300
300
316.749886915
306.783532692
302.689332136
301.109248258
300.511703782
300.275676312
300.165792519
300.102113159
300.059746333
300.030421449
300.011429459
300.002489556
300.000296772
300.000035265
300.000004815
300.000000661
300.000000059
300
300
300
317.1069039
307.055824317
302.823664669
301.170107699
300.536945853
300.288274904
300.174401804
300.10853505
300.064118877
300.033167272
300.013206362
300.003286079
300.000416387
300.000051809
300.000006411
300.000000873
300.000000088
300
300
300
317.276915367
307.239156176
302.97266554
301.26325327
300.58445839
300.311108625
300.186666294
300.116007329
300.068765087
300.036089075
300.015380612
300.004246431
300.000562223
300.000069699
300.000007921
300.000001121
300.000000106
300
300
300
317.365050559
307.266705891
303.028539234
301.326434583
300.631437099
300.337764147
300.20104989
300.124212015
300.073821265
300.039682292
300.017915302
300.005427804
300.000762517
300.000096229
300.000011636
300.000001398
300.000000127
300
300
300
317.467996784
307.295202285
303.060689571
301.359651228
300.662755147
300.359603188
300.214355871
300.132455918
300.079538187
300.044158942
300.021118275
300.006869972
300.001029877
300.000132624
300.000020543
300.000002039
300.000000178
300
300
300
317.555507341
307.311325249
303.062892499
301.362644071
300.671646979
300.370544513
300.223896784
300.140233569
300.086050488
300.049526916
300.024959782
300.008648248
300.001374842
300.000175011
300.000032175
300.000002968
300.000000277
300
300
300
317.65688701
307.291644526
303.036825522
301.341570408
300.664027131
300.372484835
300.230089504
300.147523839
300.093024628
300.055562321
300.029496316
300.010851773
300.001871336
300.000228777
300.000046287
300.000005815
300.00000048
300
300
300
317.705280904
307.236131247
302.980051195
301.307641885
300.648878064
300.370571572
300.234713759
300.154483479
300.100268376
300.062216145
300.034735332
300.013711499
300.002641781
300.000316561
300.000063287
300.000011915
300.000000793
300
300
300
317.706314651
307.103736058
302.884878122
301.257551713
300.6294385
300.367162587
300.238879758
300.161348277
300.107743164
300.069331568
300.040622894
300.017470565
300.00389876
300.000475386
300.000086199
300.000020168
300.000001259
300.000000056
300
300
317.628895338
307.04267011
302.832737443
301.228029274
300.618064334
300.366661819
300.243831292
300.168584093
300.115427166
300.076677833
300.047077818
300.022252091
300.005933084
300.000793174
300.000121291
300.000030937
300.000003782
300.000000327
300
300
317.553906492
307.046176797
302.838321119
301.226929532
300.620105893
300.371574307
300.250615971
300.176336235
300.123240347
300.083962811
300.05348853
300.027792621
300.008975647
300.001444885
300.000181335
300.000044737
300.000009863
300.000000811
300
300
317.484028604
307.094318886
302.878703093
301.252190422
300.634894412
300.382405402
300.259380481
300.184429088
300.13080119
300.090772313
300.059534294
300.033203215
300.012739957
300.002586523
300.000306126
300.000062539
300.000018784
300.000001454
300
300
317.46114111
307.148557694
302.937368612
301.289103716
300.656411405
300.396797898
300.26932539
300.192073975
300.137314035
300.096448592
300.064624774
300.037820125
300.016204383
300.003988065
300.000510814
300.00008752
300.000030729
300.00000332
300
300
317.454862424
307.152251387
302.959969105
301.317553622
300.676171619
300.410094283
300.278208032
300.198110403
300.141887475
300.100227173
300.068022628
300.040899058
300.018501794
300.00493442
300.000633541
300.000113515
300.000044818
300.000008379
300
300
300
300
300
300
300
300
300
300
300
300
300
300
300
300
300
300
300
300
300
300
300
300
300
300
300
300
300
300
300
300
300
300
300
300
300
300
300
300
300
300
300
300
300
300
300
300
300
300
300
300
300
300
300
300
300
300
300
300
300
300
300
300
300
300
300
300
300
300
300
300
300
300
300
300
300
300
300
300
300
300
300
300
300
300
300
300
300
300
300
300
300
300
300
300
300
300
300
300
300
300
300
300
300
300
300
300
300
300
300
300
300
300
300
300
300
300
300
300
300
300
300
300
300
300
300
300
300
300
300
300
300
300
300
300
300
300
300
300
300
300
300
300
300
300
300
300
300
300
300
300
300
300
300
300
300
300
300
300
300
300
300
300
300
300
300
300
300
300
300
300
300
300
300
300
300
300
300
300
300
300
300
300
300
300
300
300
300
300
300
300
300
300
300
300
300
300
300
300
300
300
300
300
300
300
300
300
300
300
300
300
300
300
300
300
300
300
300
300
300
300
300
300
300
300
300
300
300
300
300
300
300
300
300
300
300
300
300
300
300
300
300
300
300
300
300
300
300
300
300
300
300
300
300
300
300
300
300
300
300
300
300
300
300
300
300
300
300
300
300
300
300
300
300
300
300
300
300
300
300
300
300
300
300
300
300
300
300
300
300
300
300
300
300
300
300
300
300
300
300
300
300
300
300
300
300
300
300
300
300
300
300
300
300
300
300
300
300
300
300
300
300
300
300
300
300
300
300
300
300
300
300
300
300
300
300
300
300
300
300
300
300
300
300
300
300
300
300
300
300
300
300
300
300
300
300
300
300
300
300
300
300
300
300
300
300
300
300
300
300
300
300
300
300
300
300
300
300
300
300
300
300
300
300
300
300
300
300
300
300
300
300
300
300
300
300
300
300
300
300
300
300
300
300
300
300
300
300
300
300
300
300
300
300
300
300
300
300
300
300
300
300
300
300
300
300
300
300
300
300
300
300
300
300
300
300
300
300
300
300
300
300
300
300
300
300
300
300
300
300
300
300
300
300
300
300
300
300
300
300
300
300
300
300
300
300
300
300
300
300
300
300
300
300
300
300
300
300
300
300
300
300
300
300
300
300
300
300
300
300
300
300
300
300
300
300
300
300
300
300
300
300
300
300
300
300
300
300
300
300
300
300
300
300
300
300
300
300
300
300
300
300
300
300
300
300
300
300
300
300
300
300
300
300
300
300
300
300
300
300
300
300
300
300
300
300
300
300
300
300
300
300
300
300
300
300
300
300
300
300
300
300
300
300
300
300
300
300
300
300
300
300
300
300
300
300
300
300
300
300
300
300
300
300
300
300
300
300
300
300
300
300
300
300
300
300
300
300
300
300
300
300
300
300
300
300
300
300
300
300
300
300
300
300
300
300
300
300
300
300
300
300
300
300
300
300
300
300
300
300
300
300
300
300
300
300
300
300
300
300
300
300
300
300
300
300
300
300
300
300
300
300
300
300
300
300
300
300
300
300
300
300
300
300
300
300
300
300
300
300
300
300
300
300
300
300
300
300
300
300
300
300
300
300
300
300
300
300
300
300
300
300
300
300
300
300
300
300
300
300
300
300
300
300
300
300
300
300
300
300
300
300
300
300
300
300
300
300
300
300
300
300
300
300
300
300
300
300
300
300
300
300
300
300
300
300
300
300
300
300
300
300
300
300
)
;

boundaryField
{
    emptyPatch
    {
        type            empty;
    }
    minY
    {
        type            calculated;
        value           nonuniform List<scalar> 
40
(
300
300
300
300
300
300
300
300
300
300
300
300
300
300
300
300
300
300
300
300
300
300
300
300
300
300
300
300
300
300
300
300
300
300
300
300
300
300
300
300
)
;
    }
    maxY
    {
        type            calculated;
        value           nonuniform List<scalar> 0();
    }
    water_to_cooler
    {
        type            calculated;
        value           nonuniform List<scalar> 
37
(
300
300
300
300
300
300
300
300
300
300
300
300
300
300
300
300
300
300
300
300
300
300
300
300
300
300
300
300
300
300
300
300
300
300
300
300
300
)
;
    }
    water_to_heater
    {
        type            calculated;
        value           nonuniform List<scalar> 
61
(
797.848415111
797.801973251
797.657381478
797.657936048
797.636482647
797.636215057
797.636481372
797.637114649
797.64821381
797.649938001
797.656860391
797.656925384
797.659976208
797.660168797
797.66234019
797.662930835
797.662464425
797.662008897
797.65851068
797.657434434
797.654348387
797.653759256
797.652596653
797.652543159
797.651568133
797.651127531
797.648965404
797.647583621
797.646323114
797.645765334
797.647042702
797.647021324
797.64946772
797.649379291
797.651484589
797.651504738
797.653615246
797.653864106
797.656234048
797.656575401
797.657730581
797.657353404
797.661193045
797.661556931
797.663886283
797.663486209
797.664054921
797.664545189
797.665227399
797.66567748
797.66739459
797.667030149
797.668587165
797.668902765
797.669931237
797.66969951
797.669404318
797.669257033
797.666650908
797.666808497
797.660086113
)
;
    }
    procBoundary2to3
    {
        type            processor;
        value           nonuniform List<scalar> 
41
(
317.4856413
307.212461124
303.014031201
301.348658459
300.693812039
300.419744215
300.283847228
300.201383054
300.143935784
300.101723335
300.069345712
300.042011937
300.019114291
300.004857236
300.000492872
300.000134126
300.000059457
300.000016008
300.000000121
300
300
300
300
300
300
300
300
300
300
300
300
300
300
300
300
300
300
300
300
300
300
)
;
    }
}


// ************************************************************************* //
