/*--------------------------------*- C++ -*----------------------------------*\
| =========                 |                                                 |
| \\      /  F ield         | OpenFOAM: The Open Source CFD Toolbox           |
|  \\    /   O peration     | Version:  2312                                  |
|   \\  /    A nd           | Website:  www.openfoam.com                      |
|    \\/     M anipulation  |                                                 |
\*---------------------------------------------------------------------------*/
FoamFile
{
    version     2.0;
    format      ascii;
    arch        "LSB;label=32;scalar=64";
    class       volVectorField;
    location    "0.215/water";
    object      U.gas;
}
// * * * * * * * * * * * * * * * * * * * * * * * * * * * * * * * * * * * * * //

dimensions      [0 1 -1 0 0 0 0];

internalField   nonuniform List<vector> 
1497
(
(-0.187824550608 1.27426991373 0)
(-0.189304041872 1.14616709248 0)
(-0.180764772602 1.06233278329 0)
(-0.166756204714 1.00933451118 0)
(-0.149759205628 0.970813215756 0)
(-0.13111375643 0.935435349054 0)
(-0.112050814711 0.900268432392 0)
(-0.0934960102907 0.865202953853 0)
(-0.0752338945369 0.831235261023 0)
(-0.0560616251746 0.800015157157 0)
(-0.0340646236243 0.772638660124 0)
(-0.00573261640699 0.756473502224 0)
(0.0243996483171 0.765188811465 0)
(0.0558869726269 1.9812893574 0)
(0.0848818665021 2.19563946926 0)
(0.0327364082439 2.06484425218 0)
(-0.021243087687 1.88229891775 0)
(-0.0763160991612 1.75467629422 0)
(-0.123764611372 1.6218675942 0)
(-0.159442164924 1.43444601454 0)
(-0.180429586519 1.2213261177 0)
(-0.187504819176 1.07186089477 0)
(-0.18335495942 0.976974565051 0)
(-0.170960412609 0.921484040199 0)
(-0.153799132762 0.889617742567 0)
(-0.133059307739 0.863520872458 0)
(-0.110808346999 0.836748023153 0)
(-0.0893822479865 0.808753543139 0)
(-0.0690449353808 0.780153600377 0)
(-0.0484938423341 0.752793500878 0)
(-0.0260226137334 0.726549952798 0)
(0.000540964027939 0.704898837919 0)
(0.0311577032683 0.702808830458 0)
(0.0145908108001 1.67636669435 0)
(0.031222447124 2.17779193597 0)
(0.0310206330134 2.11324358655 0)
(0.0235344779588 1.95296495364 0)
(0.010136609937 1.81738539085 0)
(-0.0118533345899 1.68385719727 0)
(-0.0492612654477 1.50480051098 0)
(-0.0824037538908 1.20072115182 0)
(-0.0997801404622 1.03437579437 0)
(-0.10952181213 0.922034848822 0)
(-0.109503008868 0.856666352614 0)
(-0.102745422516 0.822752198009 0)
(-0.0897107684995 0.801503358287 0)
(-0.0722557434171 0.780191596172 0)
(-0.0543422420315 0.757040439588 0)
(-0.0373283381015 0.732167862657 0)
(-0.0202239459373 0.707449341736 0)
(-0.00153006594099 0.682750045773 0)
(0.0192551900544 0.659057424829 0)
(0.0446906277042 0.647443882736 0)
(0.0115055127565 1.54448846954 0)
(0.0313158734495 2.10182377009 0)
(0.045706631898 2.08187644699 0)
(0.0557118783052 1.94588246606 0)
(0.0615122065874 1.82493626144 0)
(0.0630203774641 1.71872355776 0)
(0.0588652311608 1.58384928046 0)
(0.0312740515783 1.29073873849 0)
(-0.00397694196921 1.06030274567 0)
(-0.0223057540177 0.920091674096 0)
(-0.0317677684004 0.836029175121 0)
(-0.0342072012728 0.789568204455 0)
(-0.0300442562692 0.764727648964 0)
(-0.0197391437745 0.743336961701 0)
(-0.00728696534494 0.721057540528 0)
(0.00473555350675 0.697106416283 0)
(0.0166920578704 0.67292898712 0)
(0.0298529113757 0.648786279713 0)
(0.0453633126568 0.624193205088 0)
(0.0642518609105 0.604697732984 0)
(0.0111157500644 1.42755903313 0)
(0.0340371285182 1.98848191955 0)
(0.0559876020846 2.00061632275 0)
(0.0736006303603 1.89428979817 0)
(0.0859169199799 1.79214443453 0)
(0.0930354040385 1.70327950265 0)
(0.0938841977331 1.5951007801 0)
(0.0832607353535 1.40640669213 0)
(0.0640520913651 1.12092472294 0)
(0.0465305158668 0.955462408001 0)
(0.0347776454074 0.850672412232 0)
(0.0284025850957 0.787391690936 0)
(0.0266754792248 0.752566101526 0)
(0.0304265610366 0.726544242696 0)
(0.0376496097066 0.701984490408 0)
(0.0453121618131 0.676667497065 0)
(0.0529813131899 0.651244910482 0)
(0.0615122062267 0.626187440534 0)
(0.0721380538124 0.600565935267 0)
(0.0854302809262 0.575851848549 0)
(0.012564685716 1.30157482676 0)
(0.0386138769005 1.8417538739 0)
(0.0635495709127 1.886478915 0)
(0.0834352152872 1.81550433163 0)
(0.0976088527428 1.73835729125 0)
(0.107134383391 1.668851208 0)
(0.112883555543 1.58466976654 0)
(0.112661059654 1.44407461146 0)
(0.103935296035 1.17718172782 0)
(0.0914413220975 1.00048482146 0)
(0.0815516675179 0.880883125593 0)
(0.0753460102613 0.8029915031 0)
(0.0718372321244 0.756396431085 0)
(0.0718298822715 0.723855137096 0)
(0.075269265665 0.695599434485 0)
(0.0798035930006 0.667790429587 0)
(0.0844679356909 0.640311319065 0)
(0.0896076429728 0.613648104711 0)
(0.0962966429393 0.586920947897 0)
(0.10569757208 0.559591882741 0)
(0.0167636200465 1.16313904391 0)
(0.0454850095503 1.68075651279 0)
(0.0675921813183 1.76030185842 0)
(0.0855836245199 1.7254745637 0)
(0.0991967146476 1.67391954791 0)
(0.109447715473 1.62160499787 0)
(0.117448580252 1.55334478118 0)
(0.122946997965 1.44099661257 0)
(0.122064538779 1.2134880069 0)
(0.115953441981 1.03810944838 0)
(0.110173325156 0.911836571161 0)
(0.106270733858 0.824344046649 0)
(0.104112443662 0.767540039204 0)
(0.103699546908 0.728994443817 0)
(0.105210678829 0.697172410039 0)
(0.107740654967 0.666947627985 0)
(0.110464800588 0.637543808776 0)
(0.113352117243 0.609345671622 0)
(0.117254136539 0.581635819055 0)
(0.123377155827 0.553114343249 0)
(0.0222155640867 1.04034479949 0)
(0.0514681979171 1.53239727377 0)
(0.0659180044597 1.63982540999 0)
(0.0797064241725 1.63536387248 0)
(0.091350467033 1.60622135031 0)
(0.101259148093 1.56864637387 0)
(0.110270082345 1.51242392338 0)
(0.118512503518 1.41664178852 0)
(0.123656581745 1.22531025623 0)
(0.1248901279 1.06059760907 0)
(0.124482277779 0.936047969865 0)
(0.124333275422 0.844722406732 0)
(0.125358659862 0.781302949992 0)
(0.126983408085 0.738432175925 0)
(0.128567979102 0.703912268072 0)
(0.130114709476 0.671809393584 0)
(0.131584614761 0.640945152607 0)
(0.132961933329 0.611563154808 0)
(0.134882161173 0.583078011854 0)
(0.138517733659 0.554046390423 0)
(0.0211672108744 0.957664970294 0)
(0.045661452543 1.41709349483 0)
(0.0545207679331 1.53429707778 0)
(0.0658312239238 1.54994247482 0)
(0.0770020092763 1.53841401004 0)
(0.0874837997654 1.51308755937 0)
(0.0977633894812 1.46575894311 0)
(0.108351574296 1.38086645693 0)
(0.118593301991 1.2115895631 0)
(0.126114732798 1.06669000022 0)
(0.130645208255 0.950741437503 0)
(0.134546291984 0.860919936576 0)
(0.139036925577 0.79521536761 0)
(0.143322888209 0.750217169152 0)
(0.146018951496 0.71417998213 0)
(0.147386418749 0.680881369029 0)
(0.148199432211 0.649121058564 0)
(0.148624804514 0.618985272742 0)
(0.149162725844 0.589949288844 0)
(0.150926638376 0.560675448545 0)
(0.0153676555381 0.914943490784 0)
(0.0303131478606 1.3437233919 0)
(0.0346993614282 1.44677272949 0)
(0.0457563628501 1.4695798333 0)
(0.0581599917447 1.47080396686 0)
(0.0703161105284 1.4553506785 0)
(0.0828216670743 1.41368693501 0)
(0.0976965530959 1.33097379174 0)
(0.113269760191 1.17906168787 0)
(0.125123672405 1.05975730888 0)
(0.133401867654 0.956477466595 0)
(0.14069324274 0.87203923098 0)
(0.148287612536 0.807882148918 0)
(0.155090091713 0.763182165004 0)
(0.159003544847 0.726862366049 0)
(0.160429211497 0.693137662399 0)
(0.160836124535 0.661092523863 0)
(0.160510561818 0.630635612058 0)
(0.159884177378 0.601254007177 0)
(0.15994546576 0.57181728766 0)
(0.0036312765207 0.955006964048 0)
(0.00192718226899 1.34059714958 0)
(0.00294990666811 1.37425606904 0)
(0.0175921379278 1.39226160512 0)
(0.0329101094772 1.4066349341 0)
(0.046883710989 1.39849784254 0)
(0.0624099594311 1.35504730975 0)
(0.0860533862959 1.24998652792 0)
(0.109092147125 1.1408922487 0)
(0.123191708911 1.04573589688 0)
(0.134511658077 0.956268030523 0)
(0.144961522177 0.879650650472 0)
(0.155638327136 0.820196426696 0)
(0.164654473451 0.777822550796 0)
(0.169139425858 0.741966495103 0)
(0.170184472003 0.708369603476 0)
(0.169926441224 0.676481180281 0)
(0.168647908665 0.645995526318 0)
(0.166765928264 0.616379249574 0)
(0.165143311792 0.586725109036 0)
(-0.0255736336431 1.23589120219 0)
(-0.0668174499793 1.46104813418 0)
(-0.0638767837905 1.25937591519 0)
(-0.0283311479014 1.28572122546 0)
(0.00371371335643 1.31720220423 0)
(0.0341248502259 1.3143242266 0)
(0.0651109624471 1.27043337309 0)
(0.0894726340893 1.17824307072 0)
(0.106245306898 1.10881296869 0)
(0.121527735572 1.03130181873 0)
(0.135503390754 0.954574958941 0)
(0.149380865329 0.887192896795 0)
(0.16311809685 0.834850613353 0)
(0.172866299542 0.795291906207 0)
(0.176221412868 0.759858298843 0)
(0.176119726639 0.726676793531 0)
(0.174786669446 0.695146851067 0)
(0.172265455044 0.664731145223 0)
(0.168917987672 0.634880448116 0)
(0.16545162137 0.604852960668 0)
(-0.061746533828 1.87588371632 0)
(-0.0813409581096 1.37755433545 0)
(-0.0299287753077 1.14628908339 0)
(-0.00872981545363 1.1843707733 0)
(0.0155432776464 1.22130597733 0)
(0.0401210315505 1.2226074339 0)
(0.0632656885595 1.19096305857 0)
(0.0839255943475 1.14074931431 0)
(0.10283168987 1.08455392682 0)
(0.120686807284 1.0201971471 0)
(0.138130074528 0.955316196309 0)
(0.15569003354 0.898273338534 0)
(0.170429840147 0.853112666069 0)
(0.177533878288 0.815161944948 0)
(0.178310561878 0.780196569162 0)
(0.176898666231 0.747660823885 0)
(0.174238168154 0.716578158992 0)
(0.170348243061 0.686233904777 0)
(0.165428583574 0.655924461682 0)
(0.158225075182 0.624303458599 0)
(-0.0311332520098 2.52448178612 0)
(-0.0506168601776 1.14904396986 0)
(-0.030580649179 1.09111581651 0)
(-0.00958274895846 1.12699429758 0)
(0.0153716510093 1.1599453714 0)
(0.0393200230964 1.16563904174 0)
(0.062038568393 1.14805406656 0)
(0.083724885131 1.1130793042 0)
(0.104723585561 1.06839485623 0)
(0.125477505243 1.01573284522 0)
(0.146070529602 0.962288350169 0)
(0.164137347977 0.914565816659 0)
(0.174332773627 0.873382440625 0)
(0.176216618457 0.836080936236 0)
(0.174501413896 0.801953942625 0)
(0.171488070871 0.770049061778 0)
(0.167268699111 0.739118060727 0)
(0.161485131803 0.708089347623 0)
(0.152775751577 0.675917436161 0)
(0.139942590003 0.641537817927 0)
(-0.00316082991336 2.87517189771 0)
(-0.0145926512323 1.13159917819 0)
(-0.0198274838967 1.06294859581 0)
(-0.00589830175753 1.09537407761 0)
(0.018134955788 1.12618479719 0)
(0.0435226119515 1.13545843061 0)
(0.0677200205269 1.12605741945 0)
(0.0915078055774 1.10144399857 0)
(0.115085493003 1.06551526868 0)
(0.137967658632 1.02199426441 0)
(0.157306735693 0.976735064421 0)
(0.168366712226 0.933402547608 0)
(0.170498553902 0.892954817911 0)
(0.16775901276 0.855893133934 0)
(0.163083490669 0.822078930728 0)
(0.157342244892 0.79019103872 0)
(0.150260854543 0.758664714705 0)
(0.140789122907 0.726276294516 0)
(0.128882408288 0.692463026179 0)
(0.116147533213 0.657043256275 0)
(0.0211417670106 2.97276121632 0)
(0.028483232083 1.22941421047 0)
(0.00906337609327 1.07378487474 0)
(0.010162349458 1.09304984906 0)
(0.0299817339395 1.11914958595 0)
(0.0563899557619 1.12970765161 0)
(0.0825520271982 1.12479393846 0)
(0.107813992381 1.10590597654 0)
(0.131275650751 1.07526794882 0)
(0.150044186968 1.0359309749 0)
(0.160391462261 0.992816557478 0)
(0.161508387264 0.949276153443 0)
(0.156012007115 0.907801423314 0)
(0.14760492867 0.87053187539 0)
(0.139260546418 0.837237417725 0)
(0.131375499322 0.805841385042 0)
(0.122755712302 0.774349472458 0)
(0.112866732769 0.74181563921 0)
(0.102333643367 0.70818824549 0)
(0.0923465584285 0.672798751588 0)
(0.0298238269559 2.86442175756 0)
(0.05913145689 1.343045564 0)
(0.0471619801075 1.12252671352 0)
(0.0388188226051 1.11503221257 0)
(0.0529168389638 1.13296273929 0)
(0.0768298935663 1.14218221162 0)
(0.101545239854 1.13826514318 0)
(0.123328093308 1.12121350038 0)
(0.140541951287 1.09161930358 0)
(0.151134184634 1.05170389341 0)
(0.152545650218 1.00635794082 0)
(0.14348139958 0.959836150002 0)
(0.129136510587 0.917104924732 0)
(0.116970821512 0.881418705674 0)
(0.108225390262 0.850337674554 0)
(0.100539420483 0.820501511607 0)
(0.0922991987495 0.789858503876 0)
(0.0831897986433 0.75781403229 0)
(0.0738184403092 0.724138841244 0)
(0.0659502956788 0.687649236796 0)
(0.031625601044 2.62557048834 0)
(0.0754957448963 1.43422498289 0)
(0.0736309567976 1.20395090527 0)
(0.0621463166601 1.16299903635 0)
(0.0737838672881 1.16843217654 0)
(0.0938292468727 1.17375584899 0)
(0.114784759858 1.16887894159 0)
(0.13222501236 1.15147320136 0)
(0.144152336373 1.11966389136 0)
(0.147872093723 1.07452311728 0)
(0.137628465069 1.02197927704 0)
(0.116023088476 0.970080356902 0)
(0.0962498844782 0.928046129702 0)
(0.0834276125829 0.895154479009 0)
(0.0742403599107 0.865889685743 0)
(0.0660618559478 0.836626982541 0)
(0.0576626021994 0.80581167895 0)
(0.048908988602 0.773197416518 0)
(0.0406678603595 0.738477468526 0)
(0.035653275354 0.700278782248 0)
(0.038997431502 2.44840482625 0)
(0.0987058750482 1.55670096406 0)
(0.102545100759 1.32454775977 0)
(0.08569629166 1.25012433266 0)
(0.0918753493805 1.23951897251 0)
(0.107014355783 1.23890716453 0)
(0.123763331627 1.23216500963 0)
(0.136443885474 1.21245321053 0)
(0.141441696017 1.17283382211 0)
(0.132570574227 1.11270973373 0)
(0.106067314301 1.04439868996 0)
(0.074848637774 0.98680968658 0)
(0.053364120929 0.945680137537 0)
(0.040184719826 0.912939187362 0)
(0.0305818840528 0.882616833963 0)
(0.0224762167798 0.851676060653 0)
(0.0148727051392 0.819172409401 0)
(0.00766251279481 0.785019991011 0)
(0.00210416482887 0.748838783848 0)
(0.00139778876141 0.708834654177 0)
(0.0521750779141 2.47465092909 0)
(0.126916896263 1.74668807167 0)
(0.130219634417 1.49450398272 0)
(0.103364837477 1.39086764305 0)
(0.0970075610143 1.36219356445 0)
(0.103365233473 1.3546322683 0)
(0.113023498512 1.34593764574 0)
(0.117228632898 1.32013945225 0)
(0.107238005162 1.25864213692 0)
(0.0757072344208 1.16490561754 0)
(0.0343896822545 1.07299699036 0)
(0.00460231078379 1.0085038801 0)
(-0.012156100319 0.963928910873 0)
(-0.0226951532976 0.927337207882 0)
(-0.0296981608739 0.893191834808 0)
(-0.0346570919399 0.859025461082 0)
(-0.0383678193193 0.824151052728 0)
(-0.0409345162844 0.78846584527 0)
(-0.0411208624569 0.751302006287 0)
(-0.0361693023699 0.710020367817 0)
(0.0671611884916 2.58538880611 0)
(0.139487946621 1.9757229126 0)
(0.12131950635 1.69012318268 0)
(0.0824031234304 1.56022885276 0)
(0.0617515835664 1.51216531225 0)
(0.0568089868103 1.50171750909 0)
(0.0525654521481 1.49725475044 0)
(0.0312730823222 1.46249737884 0)
(-0.0106658935223 1.36461083258 0)
(-0.056488580837 1.21836786962 0)
(-0.0875508159473 1.09318177958 0)
(-0.102458916618 1.01502162539 0)
(-0.108681041989 0.963075486666 0)
(-0.109921391995 0.921558331766 0)
(-0.108049874416 0.884082323426 0)
(-0.104195298277 0.848012162322 0)
(-0.0991226765688 0.812531268962 0)
(-0.0930383371728 0.777310651727 0)
(-0.0853168167804 0.741094523514 0)
(-0.0741208347183 0.700225465109 0)
(0.0756056260374 2.55743802969 0)
(0.130058564707 2.09366341257 0)
(0.0843241913151 1.81802849059 0)
(0.0392646576449 1.66968847202 0)
(0.00390681769806 1.60567039149 0)
(-0.0259139878995 1.59890911126 0)
(-0.0626288095375 1.60792013398 0)
(-0.113168958095 1.5773123985 0)
(-0.168454448858 1.45385324719 0)
(-0.209063095683 1.24895678822 0)
(-0.226509838625 1.07907779776 0)
(-0.226625561836 0.978375057936 0)
(-0.216703260136 0.919960340937 0)
(-0.202135213184 0.878393577523 0)
(-0.186071443775 0.84315150694 0)
(-0.169752201479 0.810314542909 0)
(-0.153451956122 0.77873507985 0)
(-0.137329265174 0.74780710396 0)
(-0.121548894278 0.715746142555 0)
(-0.105251431088 0.67813253961 0)
(0.0859315963514 2.18195147643 0)
(0.126807065335 2.10533709781 0)
(0.0506006636731 1.89595843203 0)
(-0.00914840000455 1.73403063264 0)
(-0.0640997433727 1.6550595767 0)
(-0.115342036675 1.64468648668 0)
(-0.163575877737 1.65942437302 0)
(-0.210469059464 1.64108577773 0)
(-0.250333321498 1.4867666118 0)
(-0.278707864216 1.23134307371 0)
(-0.293989566928 1.01548500738 0)
(-0.292198038876 0.897213799837 0)
(-0.276813405828 0.83703000903 0)
(-0.2541241466 0.800294797492 0)
(-0.229470826666 0.77380122102 0)
(-0.205360580591 0.749986253116 0)
(-0.182157648842 0.726834130161 0)
(-0.159931334546 0.703815158143 0)
(-0.139478006081 0.678858571572 0)
(-0.120916518636 0.647224951682 0)
(0.0124637679294 1.85405162663 0)
(-0.00663704514292 2.20185604849 0)
(-0.0643955496212 2.03052804234 0)
(-0.117351780379 1.8552475382 0)
(-0.168587912217 1.75343969377 0)
(-0.211071397835 1.71265074428 0)
(-0.237070926651 1.69132502086 0)
(-0.243190645137 1.64061698211 0)
(-0.245183837824 1.47704471772 0)
(-0.254541260121 1.19025635717 0)
(-0.258887041336 0.920913407381 0)
(-0.256117096807 0.800326530801 0)
(-0.249981483096 0.745127176144 0)
(-0.237595315309 0.714118887937 0)
(-0.219817296783 0.696540907291 0)
(-0.199174038518 0.683614818656 0)
(-0.177383376596 0.670272567957 0)
(-0.155571664208 0.656198379743 0)
(-0.135327909422 0.639236787973 0)
(-0.11743362888 0.614590755508 0)
(-0.0246475017802 1.98742146075 0)
(-0.0781042405225 2.45068977026 0)
(-0.134410615253 2.2535048954 0)
(-0.188239934982 2.05353114549 0)
(-0.237042026028 1.9155147898 0)
(-0.270504603884 1.80504002912 0)
(-0.285155729928 1.72670114134 0)
(-0.285899844146 1.61623597179 0)
(-0.256191960098 1.37234566134 0)
(-0.211214953529 1.10149257921 0)
(-0.188686373393 0.84259383296 0)
(-0.182061520838 0.725746546275 0)
(-0.178631671333 0.676216130825 0)
(-0.175777630523 0.64843890409 0)
(-0.170556652755 0.634255968983 0)
(-0.161109548978 0.628648494094 0)
(-0.147249841339 0.622792939289 0)
(-0.130710602544 0.615845308255 0)
(-0.114148509114 0.605478104674 0)
(-0.0986621905122 0.5867396042 0)
(-0.034430416976 2.3941949874 0)
(-0.103699139403 2.83521804819 0)
(-0.173320187097 2.5739206912 0)
(-0.243190562395 2.33251599079 0)
(-0.312232745238 2.15750110696 0)
(-0.371312395534 1.96309720255 0)
(-0.360985442277 1.61410744658 0)
(-0.272398398945 1.42706588775 0)
(-0.188754586057 1.1789231051 0)
(-0.143530137058 0.986468266572 0)
(-0.123566038893 0.796035460232 0)
(-0.116304842517 0.686611628241 0)
(-0.113624884807 0.639629668589 0)
(-0.113181556613 0.611897054126 0)
(-0.113836862414 0.597039245047 0)
(-0.112824554457 0.593408711497 0)
(-0.107069241609 0.591088977872 0)
(-0.0968862558853 0.588185060316 0)
(-0.0848959691632 0.581925666626 0)
(-0.0719793108599 0.566867139636 0)
(-0.0213799580632 2.79646601302 0)
(-0.0663351674759 3.22813628506 0)
(-0.113195685443 2.89039637886 0)
(-0.156831593224 2.59692630853 0)
(-0.19499703614 2.38939936337 0)
(-0.222915215415 2.12239912517 0)
(-0.213309145783 1.39737628966 0)
(-0.173409878831 1.17742664142 0)
(-0.133161874712 1.03322008007 0)
(-0.0977539576252 0.906957990071 0)
(-0.0756659971017 0.764327041893 0)
(-0.0666391067837 0.669156514798 0)
(-0.0638528111883 0.625120960871 0)
(-0.0642776117393 0.597185862093 0)
(-0.0671366602224 0.581101264772 0)
(-0.0699426694772 0.57635547747 0)
(-0.0690275643002 0.574491979195 0)
(-0.0635747270651 0.573038574968 0)
(-0.0550928012882 0.568654466953 0)
(-0.0432242931231 0.554988318389 0)
(-0.00826564142165 3.03123197986 0)
(-0.0259589911169 3.49234811216 0)
(-0.0462057927363 3.0969065687 0)
(-0.0656493735626 2.74991427119 0)
(-0.0828200818498 2.51771365809 0)
(-0.103826767388 2.22671456474 0)
(-0.117285973325 1.30590263811 0)
(-0.10968442822 1.08114859306 0)
(-0.0882233651004 0.953028357546 0)
(-0.0629600215063 0.848139906317 0)
(-0.043476449367 0.740616240397 0)
(-0.0336603795051 0.662381689645 0)
(-0.0301587035989 0.622348108813 0)
(-0.0303699215756 0.595531735988 0)
(-0.0335970423092 0.578968760334 0)
(-0.0374467112004 0.572035792684 0)
(-0.0385074721745 0.569044997548 0)
(-0.0355546454895 0.567527897082 0)
(-0.0287696875526 0.563559859001 0)
(-0.0158344686572 0.549575993577 0)
(0.00249980485168 3.10214734536 0)
(0.00769101746864 3.61009451716 0)
(0.0097983316971 3.19362631385 0)
(0.00889905232741 2.81041004043 0)
(0.00846088565183 2.56518914658 0)
(0.00380743230088 2.30050405575 0)
(-0.0183040854373 1.35386780851 0)
(-0.0413264833633 1.0548800902 0)
(-0.0438940593103 0.912094155796 0)
(-0.0343232963534 0.812307650431 0)
(-0.0221469045575 0.724024975921 0)
(-0.0139884037501 0.660433996953 0)
(-0.010469104799 0.625055667846 0)
(-0.0103848536409 0.600443295218 0)
(-0.0128819968503 0.58389706249 0)
(-0.0159464964858 0.574860178955 0)
(-0.0169235301717 0.570334696627 0)
(-0.0143408114687 0.568174145148 0)
(-0.00706259988904 0.56390779448 0)
(0.00859941085938 0.54885258576 0)
(0.00976791912763 3.04372161983 0)
(0.0302275519081 3.60200758899 0)
(0.0478158029824 3.19912016858 0)
(0.0598422955371 2.8017690059 0)
(0.0699989457914 2.54585246004 0)
(0.078329951132 2.30427051082 0)
(0.0628561212815 1.48602894804 0)
(0.030387013334 1.11009948322 0)
(0.0102931658676 0.920893664385 0)
(0.00303199419897 0.804160635451 0)
(0.00309683558908 0.718504765004 0)
(0.0042374976762 0.661580728097 0)
(0.00403221473272 0.629130057348 0)
(0.00257747954544 0.606275922676 0)
(5.34457855096e-05 0.58996375204 0)
(-0.00234920178888 0.579738435439 0)
(-0.00255009820965 0.574226216274 0)
(0.00111358814226 0.571723609029 0)
(0.0109454089578 0.567251957494 0)
(0.0302295752007 0.550919834383 0)
(0.0156550769474 2.89219143451 0)
(0.0473695473159 3.49955822247 0)
(0.0751649603315 3.13604970314 0)
(0.095818641185 2.74566289008 0)
(0.112813891016 2.4852644041 0)
(0.126583845473 2.26081808835 0)
(0.119259192478 1.60876301738 0)
(0.0905341004107 1.21041521122 0)
(0.0635334722577 0.975160185455 0)
(0.0458308311412 0.828972870374 0)
(0.0358776694861 0.730597227134 0)
(0.0293758131547 0.66872459853 0)
(0.0232058125117 0.634116088257 0)
(0.0171624922127 0.61079964164 0)
(0.0121356191883 0.594367497779 0)
(0.00886107079583 0.583799809703 0)
(0.00877024995758 0.578251185175 0)
(0.0138716844479 0.576260371528 0)
(0.0270439612903 0.572159693971 0)
(0.0497192500551 0.554273319974 0)
(0.0211396586423 2.66627576303 0)
(0.0626261567371 3.32022265601 0)
(0.0985903753524 3.01369822 0)
(0.127299085307 2.64355945369 0)
(0.153234764195 2.38339706225 0)
(0.177990345667 2.17342403092 0)
(0.169753227371 1.73480026983 0)
(0.135184766946 1.31321313833 0)
(0.107667673689 1.05164844502 0)
(0.0850725386556 0.877633958645 0)
(0.0691820556321 0.75982790599 0)
(0.0576354303038 0.684722248435 0)
(0.046715294806 0.642618727574 0)
(0.0358695817978 0.616026150279 0)
(0.0272470994671 0.598337123027 0)
(0.021838087785 0.587446704319 0)
(0.0208688715783 0.582405378204 0)
(0.0270081321038 0.581611023712 0)
(0.0427285879978 0.57802025483 0)
(0.0683688556299 0.55851593251 0)
(0.0219768632647 2.40058748823 0)
(0.0643982857031 3.09276039423 0)
(0.100336146778 2.85147460989 0)
(0.128653207286 2.51071061308 0)
(0.152994096096 2.25838349543 0)
(0.173624200214 2.06451124701 0)
(0.182035335498 1.80261665247 0)
(0.166404926994 1.41075225621 0)
(0.138890061132 1.13175732875 0)
(0.115978656288 0.936758348234 0)
(0.0979923633347 0.799722301069 0)
(0.0840748080221 0.708723722735 0)
(0.0707505171217 0.655599730781 0)
(0.0566284680321 0.62390380626 0)
(0.0445272092336 0.6039215674 0)
(0.0367038029776 0.592301900154 0)
(0.0346370308448 0.587824520619 0)
(0.0412704670709 0.58832335049 0)
(0.0587391742417 0.584930703245 0)
(0.0873016033302 0.564154439956 0)
(0.0200863878725 2.14247803722 0)
(0.0591788377627 2.85535069038 0)
(0.0932911298063 2.67557987265 0)
(0.12168224803 2.36840186298 0)
(0.147264935871 2.13189790754 0)
(0.170426702049 1.95767479141 0)
(0.185735850204 1.76639400087 0)
(0.17767662501 1.50104665915 0)
(0.154858728387 1.20323950173 0)
(0.135286801643 0.995515497705 0)
(0.118604357034 0.8426754944 0)
(0.10498211875 0.73727151159 0)
(0.0920344453438 0.671811568429 0)
(0.0771672731661 0.634284776741 0)
(0.0625705654541 0.611734295334 0)
(0.0524536969008 0.599367872882 0)
(0.0494017882712 0.595572600887 0)
(0.0564313371517 0.597201969596 0)
(0.075807922236 0.593878776748 0)
(0.107916161041 0.572208662802 0)
(0.0162307883125 1.92012725167 0)
(0.0484382555406 2.6335561599 0)
(0.0779660963991 2.5014746494 0)
(0.104039692146 2.2250621782 0)
(0.128063420864 2.00688197419 0)
(0.149495834616 1.85075258109 0)
(0.1657407431 1.70561329809 0)
(0.172724296589 1.53400336824 0)
(0.161081112926 1.27808691238 0)
(0.142173979726 1.04457906748 0)
(0.12987652995 0.88094516711 0)
(0.119033952736 0.765736063292 0)
(0.108302743551 0.690137247822 0)
(0.0951174968775 0.646603321801 0)
(0.0802420757089 0.621944061911 0)
(0.0686791914747 0.609336607355 0)
(0.0650150331365 0.606629814061 0)
(0.0728685389161 0.609409831494 0)
(0.0946114664171 0.606193189189 0)
(0.130976691542 0.584252069532 0)
(0.011676787243 1.74937253024 0)
(0.0351300363994 2.44702287973 0)
(0.0580395958155 2.34330462682 0)
(0.080207596311 2.09155245053 0)
(0.101426214314 1.89327136301 0)
(0.120451429299 1.75626554171 0)
(0.135854985004 1.64075176075 0)
(0.145255700216 1.51128836139 0)
(0.144901228753 1.3306184285 0)
(0.139244020406 1.07383148479 0)
(0.133883434054 0.907761996388 0)
(0.127666369545 0.789679665974 0)
(0.120260850164 0.708822125125 0)
(0.110046402338 0.660501519295 0)
(0.0968008619026 0.634785357871 0)
(0.0852551905431 0.622800282417 0)
(0.0818455427342 0.621743720672 0)
(0.0912740371215 0.625808870557 0)
(0.116411077252 0.622784926157 0)
(0.159314116063 0.601893957274 0)
(0.00601071483758 1.63831962651 0)
(0.0190967910877 2.30657533301 0)
(0.0350041274412 2.20791790512 0)
(0.0535908181224 1.97148840909 0)
(0.0722980013916 1.79279576996 0)
(0.0889595725691 1.67386640221 0)
(0.1030596169 1.57824733321 0)
(0.114514199168 1.47335807011 0)
(0.124957076863 1.31886996814 0)
(0.132794636654 1.07351716828 0)
(0.135289395242 0.918973959733 0)
(0.134032304673 0.806046124064 0)
(0.130208046313 0.72556539877 0)
(0.123045472693 0.675629953779 0)
(0.112154883556 0.650391570845 0)
(0.101979040035 0.640179020783 0)
(0.100001237385 0.641462125935 0)
(0.112098663886 0.647036703468 0)
(0.142424325919 0.64460811397 0)
(0.195982398445 0.627675838017 0)
(-0.00335854580598 1.61481491012 0)
(-0.00537090569357 2.22666782703 0)
(0.00239665480748 2.10392860446 0)
(0.0170108904877 1.87269999195 0)
(0.0325692389848 1.71167528864 0)
(0.0464177306003 1.6069496897 0)
(0.0595412182491 1.51919614045 0)
(0.0748863602458 1.41448444949 0)
(0.102932844319 1.22421869605 0)
(0.128723889383 1.04313017408 0)
(0.137747992339 0.914267775908 0)
(0.140837685355 0.813656376814 0)
(0.140159082844 0.73892204931 0)
(0.135579696433 0.691449701463 0)
(0.127211290974 0.668781762619 0)
(0.119499957921 0.662046532613 0)
(0.120202056414 0.666781130668 0)
(0.13637494103 0.674758194959 0)
(0.174376005321 0.675107126192 0)
(0.241556786078 0.671217657347 0)
(0.0475244185553 0.732214437507 0)
(0.0637665465497 0.685215372536 0)
(0.0769189895816 0.635132729578 0)
(0.0890391493562 0.578445727047 0)
(0.0971508627753 0.499509538586 0)
(0.0970182003985 0.428742975694 0)
(0.085979187871 0.372958540217 0)
(0.0654671950969 0.325620014922 0)
(0.0476523807367 0.273978331072 0)
(0.047209770663 0.232542682596 0)
(0.0494556092376 0.208766696907 0)
(0.0180689968332 0.203270726161 0)
(-0.0447327793696 0.137575470041 0)
(-0.0972221252138 0.0854872705913 0)
(-0.111444083772 0.0757818632615 0)
(-0.0981491580524 0.106048666043 0)
(-0.0729414471418 0.129250563814 0)
(-0.0469969691798 0.141252659405 0)
(-0.0244312428226 0.148544758399 0)
(-0.00616879544921 0.172600281209 0)
(0.0582971452481 0.67951762761 0)
(0.0771904521226 0.637532288473 0)
(0.0910702576783 0.588956541109 0)
(0.102446035171 0.534947033644 0)
(0.111282705444 0.469302194069 0)
(0.115853828632 0.405857469547 0)
(0.112987259761 0.350538746264 0)
(0.103195575059 0.302912180783 0)
(0.100276744608 0.249887685561 0)
(0.119323148099 0.208613470157 0)
(0.118619049915 0.195883472261 0)
(0.0722702984469 0.226643888399 0)
(0.025389280734 0.152378841081 0)
(-0.00863051143286 0.0540564167779 0)
(-0.0413223641107 0.0148078372535 0)
(-0.0628109324787 0.00717562957043 0)
(-0.0704646706979 0.0283442404073 0)
(-0.0581830359471 0.0606310231715 0)
(-0.0300085136386 0.0825143036974 0)
(-0.00809480765975 0.108674654083 0)
(0.0704985405552 0.625718637656 0)
(0.088945942855 0.592232114989 0)
(0.101273472158 0.548163313331 0)
(0.110636159804 0.498958482443 0)
(0.118395940868 0.442725301372 0)
(0.123536954074 0.38548137764 0)
(0.122431024093 0.332866729276 0)
(0.11775791915 0.28687186464 0)
(0.126357119802 0.23824732332 0)
(0.14092356845 0.20813949184 0)
(0.116038331487 0.220391745856 0)
(0.073534212036 0.259782058815 0)
(0.0509996799755 0.189861120388 0)
(0.036216083771 0.060273632692 0)
(0.0271418027724 0.00273686719937 0)
(0.0201097987131 -0.0143473078556 0)
(0.00295699359091 -0.0224136657874 0)
(-0.0275635738642 -0.00706525998159 0)
(-0.0290185557339 0.033863398859 0)
(-0.00664992506241 0.0609521503459 0)
(0.0842590090668 0.580856475847 0)
(0.0999715570138 0.553076948784 0)
(0.109792318038 0.515755034194 0)
(0.116492241813 0.471612707644 0)
(0.122331471392 0.421935397957 0)
(0.125967647279 0.369978115147 0)
(0.123156797857 0.321137746804 0)
(0.120457451405 0.277447485372 0)
(0.132528732416 0.236587957936 0)
(0.13393950002 0.224979051847 0)
(0.101070172979 0.265429677723 0)
(0.0657104113579 0.287465896705 0)
(0.0490316621149 0.216356288672 0)
(0.0434090099636 0.0807785969757 0)
(0.0427440412479 0.0132013541308 0)
(0.0433062825204 -0.00960324306807 0)
(0.0372162253395 -0.0171835580669 0)
(0.010124258209 -0.0204378445373 0)
(-0.0184429199475 0.0126318268062 0)
(-0.0130322356572 0.0437500576834 0)
(0.100347752532 0.549433137481 0)
(0.112394682031 0.522510274596 0)
(0.118493735539 0.492485138697 0)
(0.121898638733 0.453641536241 0)
(0.125474743125 0.409041151394 0)
(0.126372252943 0.361433475239 0)
(0.1210321551 0.316681246293 0)
(0.120829485005 0.276012787005 0)
(0.131974048029 0.245719372217 0)
(0.12036284683 0.255956195284 0)
(0.0837565583358 0.30874032796 0)
(0.0544241923016 0.322646684205 0)
(0.0420470384135 0.223567585126 0)
(0.0423545930144 0.0912205375795 0)
(0.0461106909536 0.0303126864136 0)