/*--------------------------------*- C++ -*----------------------------------*\
| =========                 |                                                 |
| \\      /  F ield         | OpenFOAM: The Open Source CFD Toolbox           |
|  \\    /   O peration     | Version:  2312                                  |
|   \\  /    A nd           | Website:  www.openfoam.com                      |
|    \\/     M anipulation  |                                                 |
\*---------------------------------------------------------------------------*/
FoamFile
{
    version     2.0;
    format      ascii;
    arch        "LSB;label=32;scalar=64";
    class       surfaceScalarField;
    location    "0.41/water";
    object      phi.gas;
}
// * * * * * * * * * * * * * * * * * * * * * * * * * * * * * * * * * * * * * //

dimensions      [0 3 -1 0 0 0 0];

oriented        oriented;

internalField   nonuniform List<scalar> 
11810
(
3.4218449471e-07
3.17459564178e-07
2.37489786785e-07
2.11376967371e-07
3.13167255607e-07
1.93445237261e-07
2.90167971686e-07
1.82533211382e-07
3.03103348724e-07
1.84548519629e-07
2.94350342089e-07
1.88534590351e-07
2.44882129569e-07
1.94878513627e-07
1.99780656803e-07
2.14289885878e-07
2.14361427611e-07
3.50418356717e-07
1.82531162364e-07
4.23912036623e-07
1.63366709607e-07
4.49245707875e-07
1.4400957542e-07
4.73241538625e-07
1.25748346856e-07
4.9850905911e-07
1.08206371232e-07
5.25015272277e-07
9.12532694635e-08
5.52797566707e-07
7.47694596042e-08
5.81857236479e-07
5.87156306425e-08
6.12181323516e-07
4.31137278537e-08
6.43750284274e-07
2.81623225759e-08
6.76547963661e-07
7.1058302986e-07
1.41487727447e-08
1.43530843748e-07
3.36553264523e-07
2.42688519984e-07
2.64756058868e-07
2.40368407536e-07
2.4214191056e-07
2.73876773481e-07
2.34910687688e-07
2.7532090019e-07
2.35457238596e-07
2.793249339e-07
2.41419601097e-07
2.66282530292e-07
2.50410501238e-07
2.3363291646e-07
2.64426745366e-07
1.11469448362e-07
3.19849015705e-07
5.03870115533e-08
3.61555281826e-07
4.27043035997e-08
3.75921467681e-07
3.67541992462e-08
3.92657209566e-07
3.14939266369e-08
4.10384172538e-07
2.66853685822e-08
4.29095317865e-07
2.21982455205e-08
4.48845202775e-07
1.79896262258e-08
4.69711235345e-07
1.40495335027e-08
4.91772691448e-07
1.03648154256e-08
5.15105336426e-07
6.92127989972e-09
5.39781311812e-07
5.65872382362e-07
3.73047088094e-09
1.6387801044e-07
4.07912060154e-07
2.06062335284e-07
3.22943836686e-07
2.18006061641e-07
2.88047984607e-07
2.34926192675e-07
2.75760092913e-07
2.42239840651e-07
2.74140037887e-07
2.44782239908e-07
2.78030192188e-07
2.41842058635e-07
2.85629226607e-07
2.26118466214e-07
2.9754906281e-07
1.64494475693e-07
3.30227933984e-07
4.25884738797e-08
3.68969661655e-07
3.07457529329e-08
3.90768848184e-07
2.79339543844e-08
4.09020559797e-07
2.49694834345e-08
4.28235824967e-07
2.20699775704e-08
4.48437345029e-07
1.91375576143e-08
4.69632798051e-07
1.60911726871e-08
4.91876406236e-07
1.291943385e-08
5.15245622064e-07
9.64963083613e-09
5.39827394379e-07
6.3439656316e-09
5.65712320064e-07
5.9299565635e-07
3.14105353887e-09
2.22350897248e-07
4.40778048759e-07
2.37858447412e-07
3.70318615803e-07
2.4119610563e-07
3.2371303255e-07
2.44256652757e-07
3.05557683966e-07
2.40888700331e-07
3.00513113204e-07
2.34794280916e-07
3.02383593767e-07
2.26557437189e-07
3.08376665651e-07
2.1333173949e-07
3.18070154621e-07
1.85447904212e-07
3.38723296958e-07
7.97815047053e-08
3.66327755005e-07
1.86692316454e-08
3.88871206251e-07
1.7642128472e-08
4.07383592607e-07
1.60231153195e-08
4.26700587423e-07
1.42195192824e-08
4.47007514444e-07
1.23509100199e-08
4.68287388094e-07
1.03669761584e-08
4.90572929897e-07
8.22077922355e-09
5.13929534354e-07
5.90204319812e-09
5.38443700365e-07
3.45596843003e-09
5.64214831834e-07
5.91351549289e-07
1.03748228018e-09
2.60740129932e-07
4.58146210449e-07
2.7606414489e-07
4.04696277327e-07
2.70496383552e-07
3.56789487485e-07
2.67461345246e-07
3.30810937338e-07
2.58106313604e-07
3.21869856254e-07
2.44946933821e-07
3.21203796494e-07
2.28977352365e-07
3.25389780938e-07
2.11302954816e-07
3.33199690536e-07
1.87959465069e-07
3.47734006853e-07
1.33208977178e-07
3.68546232603e-07
1.98840831006e-08
3.8977395762e-07
1.27528789443e-08
4.08717134231e-07
1.11578212971e-08
4.28242387597e-07
9.33149773589e-09
4.4876868225e-07
7.52995942993e-09
4.70273252562e-07
5.76450287028e-09
4.92777769485e-07
3.98268814927e-09
5.16335755959e-07
2.14130377686e-09
5.41025558111e-07
2.49727402092e-10
5.66943533767e-07
5.94198760067e-07
-1.56031368846e-09
2.88756362112e-07
4.64345090083e-07
3.04087745529e-07
4.27562868139e-07
2.93308044342e-07
3.86723943653e-07
2.86225731216e-07
3.55052029838e-07
2.7684982572e-07
3.41128652785e-07
2.62760725418e-07
3.37484852187e-07
2.43125046532e-07
3.39565700406e-07
2.19882495149e-07
3.45459657739e-07
1.94159744502e-07
3.56217699245e-07
1.5931654232e-07
3.72229443404e-07
5.34043897003e-08
3.9126120687e-07
1.0520434601e-08
4.1032482259e-07
8.2086959492e-09
4.29891700223e-07
5.82435588987e-09
4.50345452211e-07
3.65889081514e-09
4.71817989527e-07
1.73777973406e-09
4.94319189142e-07
1.26631328554e-12
5.17892873438e-07
-1.62009158024e-09
5.42608316049e-07
-3.15376739076e-09
5.68554853047e-07
5.95837465609e-07
-4.50016250719e-09
2.98337226085e-07
4.68232955722e-07
3.10546259259e-07
4.42445918079e-07
3.00106622436e-07
4.09875325106e-07
2.89176434901e-07
3.79345958075e-07
2.81315410139e-07
3.59422233292e-07
2.71247128025e-07
3.524686053e-07
2.54382871036e-07
3.52218958007e-07
2.30381856523e-07
3.5605381556e-07
2.02603439585e-07
3.63975977489e-07
1.70625962863e-07
3.76535623036e-07
1.06343549488e-07
3.92962299706e-07
6.66388996158e-09
4.12540645934e-07
3.00695750485e-09
4.32044939187e-07
5.08991245731e-10
4.52224182126e-07
-1.62226754002e-09
4.73491792239e-07
-3.38230173207e-09
4.95851996948e-07
-4.83809502484e-09
5.19335511645e-07
-6.07301571134e-09
5.44000098068e-07
-7.13280745684e-09
5.69925483222e-07
5.97207725598e-07
-7.95992298856e-09
2.90741720449e-07
4.76253794506e-07
2.96529272389e-07
4.55310633508e-07
2.88673529431e-07
4.27959793666e-07
2.7760083047e-07
4.00480012363e-07
2.7120731924e-07
3.77574157296e-07
2.65598477414e-07
3.66183307375e-07
2.54522402777e-07
3.634580717e-07
2.34392858777e-07
3.65113303781e-07
2.07266875548e-07
3.70527809662e-07
1.76646598624e-07
3.80288524596e-07
1.35662565005e-07
3.94271655565e-07
1.68969437946e-08
4.12214989194e-07
-7.9746919013e-09
4.33565592131e-07
-9.1996783639e-09
4.53324342527e-07
-1.01575718893e-08
4.74413869933e-07
-1.08567874136e-08
4.96652643085e-07
-1.13421450563e-08
5.20070566933e-07
-1.16725313953e-08
5.44715412404e-07
-1.1888836269e-08
5.70655652635e-07
5.9797487777e-07
-1.19606775888e-08
2.93034845368e-07
4.86090152595e-07
2.93644972518e-07
4.66031800924e-07
2.79314318762e-07
4.42459348514e-07
2.66733703433e-07
4.18274568451e-07
2.57797226779e-07
3.96068378405e-07
2.53808528591e-07
3.79870714143e-07
2.4780228421e-07
3.7359838301e-07
2.32945659241e-07
3.72793065129e-07
2.08619359381e-07
3.75799401392e-07
1.79641650695e-07
3.83025108935e-07
1.4582277907e-07
3.94832730288e-07
7.23597857965e-08
4.10865443267e-07
-2.43884490628e-08
4.31646891115e-07
-2.28058259379e-08
4.52744369913e-07
-2.13789211834e-08
4.7381949523e-07
-2.0084663686e-08
4.96141006265e-07
-1.89028278583e-08
5.19677320598e-07
-1.78326286482e-08
5.44463442616e-07
-1.68768867678e-08
5.70557810174e-07
5.98037202948e-07
-1.59763711499e-08
2.89502800379e-07
4.93082156879e-07
2.87154513232e-07
4.71594482494e-07
2.71843540942e-07
4.51446611082e-07
2.58510628055e-07
4.31526276719e-07
2.48777458573e-07
4.11805786209e-07
2.4401951503e-07
3.9409894447e-07
2.40630618805e-07
3.83021557198e-07
2.31270598175e-07
3.79585848098e-07
2.11045794234e-07
3.80300495957e-07
1.83349720718e-07
3.85147867219e-07
1.53258564397e-07
3.94896070845e-07
1.10794150583e-07
4.09202670857e-07
-1.78609168304e-08
4.27778304428e-07
-3.61652756739e-08
4.49971643447e-07
-3.18652188844e-08
4.71387878461e-07
-2.82896051645e-08
4.94160730549e-07
-2.530215863e-08
5.18095350845e-07
-2.27995940699e-08
5.43249087081e-07
-2.07028418475e-08
5.6968300311e-07
5.97473196174e-07
-1.89031638522e-08
2.86051827298e-07
4.9565392581e-07
2.90929005861e-07
4.74053666744e-07
2.76343503149e-07
4.57494064852e-07
2.62364841894e-07
4.42217798787e-07
2.51928535411e-07
4.26115806225e-07
2.45463635996e-07
4.09355947998e-07
2.42087932858e-07
3.94730507794e-07
2.36321397154e-07
3.87574288635e-07
2.20428175707e-07
3.85850152405e-07
1.94207134055e-07
3.88259635604e-07
1.64487640395e-07
3.95702993785e-07
1.31189320484e-07
4.08332541253e-07
6.31608214763e-08
4.25403756633e-07
-4.20261356451e-08
4.44510089868e-07
-3.62586730617e-08
4.68213479452e-07
-3.14646940326e-08
4.91481403705e-07
-2.75373328634e-08
5.15959735229e-07
-2.43168264079e-08
5.41604030385e-07
-2.16805732743e-08
5.68478996793e-07
5.9666223994e-07
-1.94887972114e-08
2.85318551333e-07
4.94506416933e-07
2.92560522922e-07
4.746891234e-07
2.7985910959e-07
4.61450474472e-07
2.68533258899e-07
4.50614614566e-07
2.6081915574e-07
4.386416765e-07
2.56687466188e-07
4.24349568622e-07
2.53601496749e-07
4.0956218687e-07
2.49378506207e-07
3.98572701375e-07
2.37370700781e-07
3.94163638124e-07
2.13172701897e-07
3.93927420167e-07
1.82543911459e-07
3.98632518534e-07
1.53059503518e-07
4.09195877232e-07
1.13299399575e-07
4.24733011689e-07
-4.12326660194e-09
4.44367063263e-07
-3.13822078938e-08
4.65336116457e-07
-2.71704162912e-08
4.89297274029e-07
-2.37552885854e-08
5.14250667853e-07
-2.09958308717e-08
5.40333865757e-07
-1.87879503721e-08
5.67610006385e-07
5.9615252121e-07
-1.69975002479e-08
2.69470764004e-07
4.95303053622e-07
2.78980986475e-07
4.75265878887e-07
2.70375449883e-07
4.63735209581e-07
2.65539454218e-07
4.56073114039e-07
2.64456807568e-07
4.47809165679e-07
2.66401492125e-07
4.36843551085e-07
2.67282604622e-07
4.24196108354e-07
2.65073020082e-07
4.12301937767e-07
2.55772098824e-07
4.05342546327e-07
2.34314045645e-07
4.02527239935e-07
2.04299311671e-07
4.04223120748e-07
1.74298616758e-07
4.12297821638e-07
1.43492543424e-07
4.26372961091e-07
8.44942902358e-08
4.44973842848e-07
-1.76335162552e-08
4.62693775967e-07
-1.58920352842e-08
4.88419745428e-07
-1.42680157591e-08
5.13680689728e-07
-1.30692920983e-08
5.40078891327e-07
-1.22300681055e-08
5.67641061261e-07
5.96432294972e-07
-1.1636749437e-08
2.61743610341e-07
4.9450732253e-07
2.76496491752e-07
4.74453392435e-07
2.63203716516e-07
4.65401579846e-07
2.61241635418e-07
4.60027157676e-07
2.65857213943e-07
4.54664489657e-07
2.74546406555e-07
4.46989716429e-07
2.80581424028e-07
4.37572368698e-07
2.79918583417e-07
4.27613880948e-07
2.71049633206e-07
4.19161281786e-07
2.51717652604e-07
4.13962816046e-07
2.23793491192e-07
4.12762503556e-07
1.94644778855e-07
4.18103015602e-07
1.69923192203e-07
4.30366961e-07
1.33445075115e-07
4.47817601446e-07
2.3436782696e-08
4.67027706294e-07
5.06675989599e-10
4.88909772854e-07
-6.8633759969e-10
5.14660315617e-07
-1.94011015283e-09
5.4125090453e-07
-3.23952533607e-09
5.68953566032e-07
5.97835520511e-07
-4.49366770215e-09
2.5362571819e-07
4.96582853621e-07
2.73525450996e-07
4.74810474374e-07
2.57621144147e-07
4.67386967002e-07
2.58004075449e-07
4.63642097855e-07
2.66985270415e-07
4.60601634851e-07
2.81108218385e-07
4.56262786508e-07
2.91395926436e-07
4.50696577225e-07
2.91751176397e-07
4.43866351428e-07
2.81638470904e-07
4.35705779699e-07
2.62663176197e-07
4.28411047851e-07
2.37461843018e-07
4.24714731449e-07
2.10930591177e-07
4.2733258004e-07
1.87686231628e-07
4.37291262538e-07
1.60220531552e-07
4.53405184456e-07
8.99765174069e-08
4.73605226683e-07
1.97650743437e-08
4.91286182255e-07
1.46230319184e-08
5.17725378727e-07
1.0117332904e-08
5.44237190654e-07
6.10670216241e-09
5.71819025568e-07
6.00540656852e-07
2.59151979574e-09
2.42654839107e-07
5.0293234468e-07
2.65958134034e-07
4.78005407674e-07
2.51521489406e-07
4.70897537337e-07
2.55806953955e-07
4.68468253916e-07
2.68947611396e-07
4.67709047824e-07
2.86717922728e-07
4.66714840193e-07
2.98656655243e-07
4.65120405334e-07
2.98230384903e-07
4.616047895e-07
2.85961249751e-07
4.54670782297e-07
2.66514639787e-07
4.45823607453e-07
2.43457602064e-07
4.40052186571e-07
2.19550622072e-07
4.40018752296e-07
1.97194188503e-07
4.47193159524e-07
1.73818286829e-07
4.61232452046e-07
1.28978541065e-07
4.80344114636e-07
3.76857743448e-08
4.96536881637e-07
2.71564279143e-08
5.23131077851e-07
1.93175756517e-08
5.49123519835e-07
1.26521602863e-08
5.76188573897e-07
6.04410417925e-07
7.01511228643e-09
2.30845829518e-07
5.15497400416e-07
2.58059430757e-07
4.85759955845e-07
2.47568708693e-07
4.77354635775e-07
2.55729829101e-07
4.75927659286e-07
2.7124489708e-07
4.77495919359e-07
2.89196806128e-07
4.79635087759e-07
2.99228874637e-07
4.81344688339e-07
2.96468020388e-07
4.80559980431e-07
2.82570816859e-07
4.75082724096e-07
2.62808977323e-07
4.6540793721e-07
2.40639395455e-07
4.57611217121e-07
2.17944424687e-07
4.54979261609e-07
1.96020243506e-07
4.59061370227e-07
1.7414352522e-07
4.70265109875e-07
1.38690174934e-07
4.87358796046e-07
4.8454275815e-08
5.06182418175e-07
3.05757938816e-08
5.30180745826e-07
2.07663174272e-08
5.55214307637e-07
1.26218221318e-08
5.81373827012e-07
6.08783004719e-07
5.87049373517e-09
2.19158677509e-07
5.34278749187e-07
2.48407292963e-07
4.98117087495e-07
2.4194618255e-07
4.87140478413e-07
2.51670758577e-07
4.86056855877e-07
2.66727247191e-07
4.89620756451e-07
2.82377462159e-07
4.94288475685e-07
2.90037869965e-07
4.98374786368e-07
2.8599660831e-07
4.99491034203e-07
2.71793363881e-07
4.95169402282e-07
2.51614029983e-07
4.8536013092e-07
2.28652593386e-07
4.75123648535e-07
2.05705262034e-07
4.70002314895e-07
1.83337405723e-07
4.70981600257e-07
1.5973739433e-07
4.78672923048e-07
1.26879475467e-07
4.92793594265e-07
4.94853870831e-08
5.13271452908e-07
1.95982780037e-08
5.36956939145e-07
1.04895012548e-08
5.60951060117e-07
3.08548295029e-09
5.86011914351e-07
6.12477040367e-07
-2.9727304716e-09
2.29433599466e-07
5.50330653103e-07
2.63117643035e-07
5.13254906665e-07
2.47306291466e-07
5.02032635426e-07
2.49982105075e-07
5.01246854238e-07
2.59704228506e-07
5.05705678861e-07
2.71511541777e-07
5.11189350703e-07
2.76078860054e-07
5.1572583448e-07
2.70230946152e-07
5.16956620161e-07
2.5591804719e-07
5.12692996072e-07
2.34694206418e-07
5.02974525915e-07
2.10183277722e-07
4.90855641073e-07
1.86100421294e-07
4.82188152959e-07
1.6165715966e-07
4.80176579487e-07
1.34493369412e-07
4.84059321215e-07
1.01179526523e-07
4.94448178413e-07
4.669347281e-08
5.12358703494e-07
-7.21920832292e-09
5.40945097772e-07
-1.26525894482e-08
5.64210161782e-07
-1.66526162855e-08
5.88374077636e-07
6.14057751911e-07
-1.98402604172e-08
2.53223160073e-07
5.63654194123e-07
2.86066599013e-07
5.31303329791e-07
2.59155951989e-07
5.22722591246e-07
2.48577406035e-07
5.22968640606e-07
2.47737772887e-07
5.26285961555e-07
2.51537283251e-07
5.29316431117e-07
2.51231020513e-07
5.31208042924e-07
2.44506698433e-07
5.30048491163e-07
2.32022412752e-07
5.24006129051e-07
2.14428314382e-07
5.13540741888e-07
1.91863141037e-07
5.01528332459e-07
1.66771911082e-07
4.90720731922e-07
1.39077184918e-07
4.83815787631e-07
1.06629532899e-07
4.84068090312e-07
7.25923116604e-08
4.90911312748e-07
3.19532711772e-08
5.05894484746e-07
-4.7141089487e-08
5.33409334982e-07
-4.63050080167e-08
5.63145932457e-07
-4.44408549828e-08
5.86786665156e-07
6.12230434272e-07
-4.27483892623e-08
2.79917367448e-07
5.72329407481e-07
2.93288461716e-07
5.48593209004e-07
2.52087625981e-07
5.45226900313e-07
2.23925020139e-07
5.47595755062e-07
2.10206491459e-07
5.47548963309e-07
2.0727640751e-07
5.44623145711e-07
2.06337688893e-07
5.41159828026e-07
2.03748128707e-07
5.35884672787e-07
1.995422262e-07
5.26865635187e-07
1.91928814315e-07
5.15076812809e-07
1.77350172214e-07
5.03845246694e-07
1.55152423753e-07
4.94335793692e-07
1.26810332109e-07
4.85176311922e-07
9.0623064469e-08
4.79367846051e-07
5.28135691455e-08
4.83254420367e-07
1.71849682487e-08
4.96189346287e-07
-4.69974897001e-08
5.18886681153e-07
-8.37875246484e-08
5.55877985365e-07
-7.48658268494e-08
5.80379756864e-07
6.06561503074e-07
-6.72842736916e-08
2.85564881952e-07
5.7797368128e-07
2.60995620876e-07
5.63219999057e-07
2.10439702632e-07
5.64920348345e-07
1.73525366004e-07
5.69540179202e-07
1.55974344949e-07
5.65022960322e-07
1.53994643935e-07
5.54626837422e-07
1.58142343986e-07
5.44770728127e-07
1.64153656026e-07
5.3499553556e-07
1.70532934146e-07
5.23127404806e-07
1.73701449549e-07
5.10350356328e-07
1.68444414287e-07
5.0020845807e-07
1.5196953445e-07
4.92646867316e-07
1.27854393059e-07
4.85808873981e-07
9.57809981041e-08
4.75968657684e-07
5.5477757672e-08
4.75542904655e-07
2.20064403597e-08
4.86437158519e-07
-1.493785071e-08
5.06728281956e-07
-1.14353809179e-07
5.37820593405e-07
-1.00251352636e-07
5.7115015776e-07
5.98112289291e-07
-8.75910900522e-08
2.58127004726e-07
5.91032692622e-07
2.0622378776e-07
5.78528797555e-07
1.63222282469e-07
5.80503687758e-07
1.34306108338e-07
5.85244542553e-07
1.22085730288e-07
5.77312988025e-07
1.24339723381e-07
5.60779866903e-07
1.33908075402e-07
5.4514087845e-07
1.46567417993e-07
5.31314251811e-07
1.59575908397e-07
5.17331362293e-07
1.69473463123e-07
5.04241497383e-07
1.70788387777e-07
4.95732103327e-07
1.60217623971e-07
4.90297642888e-07
1.40595619454e-07
4.85750534865e-07
1.13896199477e-07
4.76856347231e-07
7.84854434976e-08
4.71424201843e-07
4.46331231722e-08
4.79674917591e-07
1.60644319125e-08
4.98546285792e-07
-6.38838889992e-08
5.25609289883e-07
-1.14354280087e-07
5.61155786361e-07
5.88814854063e-07
-9.86970389064e-08
2.37918129511e-07
6.07086356695e-07
1.90318167658e-07
5.91433310807e-07
1.57239004585e-07
5.92197911047e-07
1.35938066837e-07
5.97077944657e-07
1.26254446357e-07
5.87874587212e-07
1.29668449955e-07
5.67097846752e-07
1.41065107942e-07
5.4683282827e-07
1.55942305468e-07
5.29723124996e-07
1.72262587404e-07
5.1427465306e-07
1.85789244777e-07
5.01979828682e-07
1.89029989089e-07
4.94978246853e-07
1.80092118859e-07
4.90372072657e-07
1.59654665339e-07
4.87810436941e-07
1.35542028244e-07
4.81236129197e-07
1.08519471411e-07
4.72958990106e-07
7.75790148992e-08
4.78081733082e-07
5.35440885466e-08
4.94963029472e-07
1.49182029728e-08
5.19575613616e-07
-1.11018508658e-07
5.47435884915e-07
5.8106626741e-07
-9.79329135695e-08
2.37482911224e-07
6.21729486641e-07
2.05365544036e-07
6.01235046191e-07
1.7869270006e-07
6.00638199981e-07
1.59419024358e-07
6.07300076258e-07
1.50068716989e-07
5.98132185802e-07
1.53833429133e-07
5.74557313635e-07
1.65875581879e-07
5.50969289251e-07
1.81787436267e-07
5.31455078601e-07
2.00471084166e-07
5.15464664986e-07
2.14207920973e-07
5.05260289437e-07
2.15582947205e-07
4.99549667574e-07
2.04974002974e-07
4.94888915736e-07
1.83757310635e-07
4.92981260414e-07
1.59785387572e-07
4.88700779346e-07
1.36914319581e-07
4.79984770449e-07
1.11081060976e-07
4.8199127278e-07
9.17124608397e-08
4.95980080165e-07
6.66190456264e-08
5.18716581877e-07
-6.26359454775e-08
5.43960153578e-07
5.75949431991e-07
-8.59586975354e-08
2.48021551167e-07
6.29129617818e-07
2.23878320507e-07
6.07040790148e-07
1.9800071527e-07
6.06848140961e-07
1.7996495854e-07
6.15124332812e-07
1.73115784174e-07
6.06275362589e-07
1.79106409323e-07
5.81254752647e-07
1.92924577143e-07
5.55778002828e-07
2.12018636185e-07
5.35034661255e-07
2.31810531779e-07
5.20067036508e-07
2.42899881938e-07
5.12794362189e-07
2.44107560854e-07
5.08789282775e-07
2.32933372356e-07
5.0438330557e-07
2.11524213565e-07
5.02018033963e-07
1.858131384e-07
4.99895800116e-07
1.62437297564e-07
4.91924521146e-07
1.39902870569e-07
4.90776774558e-07
1.2124849007e-07
5.01038504434e-07
1.01222456047e-07
5.21653476966e-07
1.57543768176e-08
5.46983475074e-07
5.72939206642e-07
-6.56172853046e-08
2.47468767813e-07
6.32441167942e-07
2.27941058849e-07
6.09121569537e-07
2.03272233381e-07
6.10114644328e-07
1.89637363565e-07
6.18698585901e-07
1.88301811845e-07
6.09890864201e-07
1.98561744365e-07
5.84987054305e-07
2.17014666058e-07
5.59496950733e-07
2.41266720283e-07
5.39406107691e-07
2.60270729504e-07
5.27351845287e-07
2.69370973773e-07
5.23032603119e-07
2.71696824976e-07
5.21000665605e-07
2.62527215091e-07
5.178472627e-07
2.42151076275e-07
5.15452795192e-07
2.13641285343e-07
5.15050432254e-07
1.85788350204e-07
5.08529538375e-07
1.62941225157e-07
5.03417878864e-07
1.43814893037e-07
5.09106654246e-07
1.25029269464e-07
5.26886409116e-07
7.47156789541e-08
5.51069260259e-07
5.71486258566e-07
-3.98084482991e-08
2.31776540282e-07
6.40984045966e-07
2.14502249374e-07
6.11336882835e-07
1.94732075475e-07
6.10169090198e-07
1.89505300727e-07
6.16732647636e-07
1.96884905057e-07
6.07862156129e-07
2.14938612363e-07
5.84984969867e-07
2.40865525871e-07
5.61663660958e-07
2.68559981152e-07
5.4427264224e-07
2.85111932138e-07
5.36404269309e-07
2.93786549103e-07
5.3479958658e-07
2.97866008132e-07
5.34679707054e-07
2.9146620396e-07
5.33342150284e-07
2.73579875642e-07
5.32077395981e-07
2.43049995686e-07
5.34171346665e-07
2.06969667754e-07
5.29862432635e-07
1.80828697724e-07
5.18923137147e-07
1.60770657095e-07
5.19147938305e-07
1.41616815714e-07
5.33310810888e-07
1.07411571909e-07
5.56084811642e-07
5.70191049011e-07
-9.63098594016e-09
2.30212990394e-07
6.50959899845e-07
2.17568578594e-07
6.14113423284e-07
1.96528113467e-07
6.10262465081e-07
1.95440311648e-07
6.13089123811e-07
2.09196090444e-07
6.03488371041e-07
2.34549507523e-07
5.83336605996e-07
2.66255670633e-07
5.63550845199e-07
2.93137670384e-07
5.50297165195e-07
3.07117073412e-07
5.46739132199e-07
3.16508193059e-07
5.4760948517e-07
3.22435883881e-07
5.49265582023e-07
3.19271284696e-07
5.49764085939e-07
3.05459676256e-07
5.50429993393e-07
2.70492582135e-07
5.55745922736e-07
2.22612118381e-07
5.53964098804e-07
1.93560452899e-07
5.35514924849e-07
1.72884202318e-07
5.29975490864e-07
1.53562977801e-07
5.39987742249e-07
1.24762856892e-07
5.61184537818e-07
5.72351469905e-07
2.54575583211e-08
2.28201625221e-07
6.60103269743e-07
2.20398446722e-07
6.16155345591e-07
2.01314992597e-07
6.08521683324e-07
2.04793472436e-07
6.07417947633e-07
2.23948752581e-07
5.97584512938e-07
2.54914592528e-07
5.80915817528e-07
2.89584379748e-07
5.65669495154e-07
3.13340503757e-07
5.57624018417e-07
3.25556152872e-07
5.57740129358e-07
3.36403510598e-07
5.60866282594e-07
3.43674119078e-07
5.64154690313e-07
3.43894082195e-07
5.66287878805e-07
3.31584159957e-07
5.69487629906e-07
2.84269796334e-07
5.77649281991e-07
2.31465512779e-07
5.77506385647e-07
2.03270233662e-07
5.55756075742e-07
1.82443110175e-07
5.42764517939e-07
1.62090315907e-07
5.47703555822e-07
1.34621638613e-07
5.66994876619e-07
5.83055723634e-07
6.41875344066e-08
2.27133119978e-07
6.6883157124e-07
2.26407485562e-07
6.17686997066e-07
2.10402044733e-07
6.05422056507e-07
2.18491589049e-07
6.00898291099e-07
2.41718383973e-07
5.91938740858e-07
2.76028761758e-07
5.79412605511e-07
3.0953311675e-07
5.69169123056e-07
3.29046031682e-07
5.66532069592e-07
3.41036280277e-07
5.69674038223e-07
3.52052460179e-07
5.74772741943e-07
3.60083274255e-07
5.79663182433e-07
3.6173573887e-07
5.83587694258e-07
3.41702202865e-07
5.90011839428e-07
2.86426241932e-07
6.00271129114e-07
2.40092284005e-07
6.00359184684e-07
2.0928348169e-07
5.79678976813e-07
1.88289737107e-07
5.58074469382e-07
1.68006191053e-07
5.57573730997e-07
1.40847009301e-07
5.7434406865e-07
5.977596966e-07
9.59951890364e-08
2.20800353002e-07
6.7600376961e-07
2.27874399727e-07
6.17747598394e-07
2.18896080624e-07
6.0061760002e-07
2.33918116421e-07
5.94292557561e-07
2.61635288392e-07
5.88032355346e-07
2.97946410433e-07
5.80522730502e-07
3.26822401688e-07
5.75548298227e-07
3.42873868014e-07
5.77528145136e-07
3.54701240666e-07
5.83159405193e-07
3.65127004724e-07
5.89939170819e-07
3.71951024879e-07
5.96199853053e-07
3.73135691541e-07
6.02285126166e-07
3.37559224025e-07
6.11897317614e-07
2.81990358405e-07
6.21423159039e-07
2.41836376146e-07
6.22714909971e-07
2.09048633124e-07
6.04679422361e-07
1.89020147511e-07
5.7599676188e-07
1.70413756713e-07
5.70178791326e-07
1.43764350342e-07
5.83589718416e-07
6.08171925674e-07
1.08724443855e-07
2.05904889491e-07
6.89436748915e-07
2.2458089288e-07
6.18012555458e-07
2.25102491763e-07
5.9558346431e-07
2.48557437284e-07
5.89059588812e-07
2.81366036534e-07
5.87031167151e-07
3.18270094365e-07
5.85125196985e-07
3.41718276367e-07
5.85302991375e-07
3.55162029784e-07
5.90585612081e-07
3.66628196771e-07
5.98196763139e-07
3.74844299808e-07
6.06076773586e-07
3.79925386e-07
6.13248593411e-07
3.70373885273e-07
6.21682447321e-07
3.20104594645e-07
6.33471233761e-07
2.74968464017e-07
6.41826518547e-07
2.36848422511e-07
6.44437760223e-07
2.03541645817e-07
6.2995431447e-07
1.84789737115e-07
5.96213755546e-07
1.68087707816e-07
5.85635629477e-07
1.41859279277e-07
5.94569667291e-07
6.17798806655e-07
1.03401791381e-07
2.04045697798e-07
6.96823297407e-07
2.44229705364e-07
6.16391427105e-07
2.44315975073e-07
5.93927137039e-07
2.7033087646e-07
5.89388085368e-07
3.0324878745e-07
5.91881282448e-07
3.35439039849e-07
5.94762288524e-07
3.53638538211e-07
5.98884947632e-07
3.65934251223e-07
6.0643476659e-07
3.74307566782e-07
6.15155637973e-07
3.78802862737e-07
6.23325521326e-07
3.79832778903e-07
6.30937749754e-07
3.48026102403e-07
6.40548763432e-07
2.97450466553e-07
6.52200885899e-07
2.62914585161e-07
6.61066123118e-07
2.27128891036e-07
6.65290410304e-07
1.95082091316e-07
6.55126390433e-07
1.76665360692e-07
6.19675269153e-07
1.5998921906e-07
6.03976397585e-07
1.33219906577e-07
6.06653573632e-07
6.26658054681e-07
9.03085201863e-08
2.05728853218e-07
6.94787417651e-07
2.74010690254e-07
6.14054273043e-07
2.72483098456e-07
5.97659760486e-07
2.95771389808e-07
5.97891863088e-07
3.22206747022e-07
6.04460629559e-07
3.46673596657e-07
6.10274169251e-07
3.61609549684e-07
6.16590407881e-07
3.70410131847e-07
6.2531916994e-07
3.73867427406e-07
6.33964589772e-07
3.71860491171e-07
6.41041594837e-07
3.54289840792e-07
6.47242917093e-07
3.11565422114e-07
6.56451398437e-07
2.75203739318e-07
6.67335176368e-07
2.46098140415e-07
6.77276649571e-07
2.15094367606e-07
6.83966752439e-07
1.8657592365e-07
6.79669719734e-07
1.65313287613e-07
6.48706037416e-07
1.43892802294e-07
6.23679084676e-07
1.14148184342e-07
6.18405913438e-07
6.33756928924e-07
6.76294950355e-08
2.12944534117e-07
6.82078714061e-07
3.10083889233e-07
6.17736243047e-07
3.03484330486e-07
6.11434523036e-07
3.17712790457e-07
6.18222249828e-07
3.33633181874e-07
6.26806818238e-07
3.51214312376e-07
6.32656839109e-07
3.60284975109e-07
6.39163634853e-07
3.60112576132e-07
6.47143014767e-07
3.51885131066e-07
6.53351653946e-07
3.33273645697e-07
6.5697372997e-07
3.02115222396e-07
6.60984337731e-07
2.69624425746e-07
6.68293157464e-07
2.47220691412e-07
6.78196647816e-07
2.25795736805e-07
6.89000620034e-07
2.03029836443e-07
6.98857616916e-07
1.79029406258e-07
7.027362254e-07
1.48315295898e-07
6.8187557669e-07
1.18001232869e-07
6.41738408252e-07
8.37916707612e-08
6.27862942387e-07
6.3732369843e-07
3.5025689954e-08
2.24409892885e-07
6.84267918366e-07
3.38449044083e-07
6.3945241072e-07
3.18991321764e-07
6.43718423989e-07
3.18368663234e-07
6.55885480307e-07
3.23109320557e-07
6.60178155273e-07
3.29491850419e-07
6.61569453921e-07
3.23531083087e-07
6.6579417822e-07
3.06259666322e-07
6.70680299457e-07
2.83700187532e-07
6.72862974695e-07
2.59899941719e-07
6.73237296289e-07
2.36965683146e-07
6.75793477908e-07
2.20050053879e-07
6.8058460351e-07
2.0680877897e-07
6.8692625185e-07
1.95177631125e-07
6.95370424421e-07
1.83038650663e-07
7.07266099619e-07
1.60503372706e-07
7.20826199757e-07
1.21175413502e-07
7.10872043405e-07
8.50806010414e-08
6.5922764746e-07
4.49258097032e-08
6.32642581317e-07
6.36010903418e-07
-4.27442254633e-09
2.37413739522e-07
7.24954398811e-07
3.2384653605e-07
6.97820217007e-07
2.79745344798e-07
7.10537000575e-07
2.50650176659e-07
7.18801226771e-07
2.39143062549e-07
7.06055966953e-07
2.2942421932e-07
6.97056965533e-07
2.11664732762e-07
6.95315994372e-07
1.91620516572e-07
6.94614814551e-07
1.73906158148e-07
6.912075984e-07
1.60033171716e-07
6.8863749476e-07
1.50465230849e-07
6.89998935774e-07
1.43916490915e-07
6.91489873776e-07
1.38721880455e-07
6.92057363634e-07
1.37930837919e-07
6.94208104265e-07
1.35750735974e-07
7.04493801408e-07
1.17323477109e-07
7.27434738565e-07
8.78484355967e-08
7.2604782027e-07
5.1542152083e-08
6.7584315728e-07
4.86854978869e-09
6.29779250901e-07
6.28355056289e-07
-4.42742036135e-08
3.0076015176e-07
7.90733866057e-07
2.68383438823e-07
7.96777635772e-07
1.45478510966e-07
8.17844752159e-07
6.52571336929e-08
8.07656763748e-07
3.52444143729e-08
7.60656022957e-07
2.48403002376e-08
7.29793660379e-07
1.97012722491e-08
7.14312773354e-07
1.69899273768e-08
7.04615999334e-07
1.73553928387e-08
6.9536556734e-07
1.97704654163e-08
6.90815790036e-07
2.4339732214e-08
6.90723462492e-07
3.01896077228e-08
6.89416265581e-07
3.79676124247e-08
6.85585892975e-07
4.93106152959e-08
6.81861141858e-07
5.9966952795e-08
6.86985110028e-07
5.93686460133e-08
7.15455797542e-07
5.12578726817e-08
7.21195453936e-07
1.97207550401e-08
6.82242552541e-07
-2.5031688752e-08
6.18046606051e-07
6.12890710765e-07
-7.69990978319e-08
3.29440390139e-07
8.4102470772e-07
9.97969368187e-08
9.2879828737e-07
-6.84154236741e-08
9.34666401188e-07
-1.81605022794e-07
8.89997083634e-07
-2.36968187217e-07
8.0750055672e-07
-2.44396753379e-07
7.46667166515e-07
-2.23566478392e-07
7.08479015126e-07
-1.97079551541e-07
6.86986515821e-07
-1.72532531555e-07
6.72918682355e-07
-1.500256371e-07
6.66838877042e-07
-1.25976008062e-07
6.66718022334e-07
-9.99790940514e-08
6.65624966654e-07
-7.37544260066e-08
6.61310970704e-07
-4.68891734375e-08
6.56025513453e-07
-1.86566898624e-08
6.57153473179e-07
5.00581432892e-09
6.83112450718e-07
1.19324422247e-08
6.98487229833e-07
-1.2923557376e-09
6.728911304e-07
-3.45523045029e-08
6.04099494213e-07
5.92106667385e-07
-9.01341307992e-08
2.43965081935e-07
8.4037996987e-07
-8.03204286065e-08
1.13012613347e-06
-1.87219164779e-07
1.0025824656e-06
-2.88413933249e-07
9.40141171486e-07
-3.77269637214e-07
8.41323807729e-07
-4.21208742485e-07
7.52731920991e-07
-4.03452213076e-07
6.83299126104e-07
-3.58301403738e-07
6.46846073851e-07
-3.13450419637e-07