/*--------------------------------*- C++ -*----------------------------------*\
| =========                 |                                                 |
| \\      /  F ield         | OpenFOAM: The Open Source CFD Toolbox           |
|  \\    /   O peration     | Version:  2312                                  |
|   \\  /    A nd           | Website:  www.openfoam.com                      |
|    \\/     M anipulation  |                                                 |
\*---------------------------------------------------------------------------*/
FoamFile
{
    version     2.0;
    format      ascii;
    arch        "LSB;label=32;scalar=64";
    class       volVectorField;
    location    "2/water";
    object      U.gas;
}
// * * * * * * * * * * * * * * * * * * * * * * * * * * * * * * * * * * * * * //

dimensions      [0 1 -1 0 0 0 0];

internalField   nonuniform List<vector> 
23300
(
(0.000408673466442 0.135901039212 0)
(0.00112199422944 0.135944656027 0)
(0.00171874354377 0.136011459974 0)
(0.00222622635876 0.136107733769 0)
(0.00257008330442 0.136216160646 0)
(0.00274367915431 0.136322993847 0)
(0.0027642994182 0.13641776736 0)
(0.00266512066048 0.13649390723 0)
(0.00248477329373 0.13654796811 0)
(0.00225320173994 0.136594102211 0)
(0.00206349758747 0.136729426993 0)
(0.00205638378632 0.137060676228 0)
(0.00197379020348 0.137258031625 0)
(0.00119833162454 0.137172029712 0)
(-0.000244618349932 0.13707518358 0)
(-0.00177282725156 0.137040526168 0)
(-0.00312686624235 0.137029547946 0)
(-0.00435656951211 0.137019158521 0)
(-0.00556199240752 0.137000351874 0)
(-0.00679554008228 0.136974914019 0)
(-0.00805839414055 0.136945339838 0)
(-0.00933977507882 0.136913862041 0)
(-0.0106279399818 0.136881803662 0)
(-0.0119122947752 0.136850440745 0)
(-0.0131837094349 0.136820381416 0)
(-0.0144342540869 0.136792441175 0)
(-0.0156570279172 0.13676686914 0)
(-0.0168458897979 0.136744244299 0)
(-0.0179953734175 0.136724601119 0)
(-0.0191005171574 0.136708374719 0)
(-0.020156851789 0.136695455754 0)
(-0.0211602846779 0.136686192439 0)
(-0.022107125728 0.136680384689 0)
(-0.0229939957507 0.13667834117 0)
(-0.0238178739266 0.136679813715 0)
(-0.0245760149687 0.136685106675 0)
(-0.0252660099731 0.136693951334 0)
(-0.0258857025611 0.136706667707 0)
(-0.0264332572627 0.136722978249 0)
(-0.0269070694425 0.136743224663 0)
(-0.0273058378396 0.136767120227 0)
(-0.0276284593567 0.13679502581 0)
(-0.02787405715 0.1368266374 0)
(-0.0280410949882 0.136862308203 0)
(-0.0281278378122 0.136901726008 0)
(-0.0281342681479 0.136945214397 0)
(-0.0280617071815 0.136992326062 0)
(-0.0279108598151 0.137043415228 0)
(-0.0276820469785 0.137098034169 0)
(-0.0273757676243 0.137156468391 0)
(-0.0269928285712 0.137218138289 0)
(-0.0265342637922 0.137283230607 0)
(-0.0260014304516 0.137351019219 0)
(-0.0253959363624 0.137421571995 0)
(-0.0247197329668 0.137493990139 0)
(-0.0239750527368 0.137568191248 0)
(-0.0231644941144 0.137643069212 0)
(-0.0222909652102 0.137718352747 0)
(-0.0213577575234 0.137792688565 0)
(-0.0203684943864 0.137865573639 0)
(-0.0193271960001 0.137935367317 0)
(-0.018238233876 0.138001296078 0)
(-0.0171063967596 0.138061403757 0)
(-0.0159368599716 0.138114629816 0)
(-0.0147352756598 0.138158714536 0)
(-0.0135077776077 0.138192358029 0)
(-0.0122611336904 0.138213108877 0)
(-0.011002815319 0.138219622234 0)
(-0.00974125065054 0.138209579953 0)
(-0.00848595943985 0.138182086551 0)
(-0.00724787505497 0.138135701065 0)
(-0.00603939238462 0.138071055701 0)
(-0.00487438008636 0.13798915737 0)
(-0.00376705684552 0.137894423062 0)
(-0.00272840526455 0.137793488277 0)
(-0.00175416576832 0.137698490817 0)
(-0.000809870475732 0.137624097148 0)
(0.000126275750928 0.137585222485 0)
(0.00102990933882 0.137588833748 0)
(0.00189054135308 0.137637969296 0)
(0.00274763319574 0.137727107833 0)
(0.0036640344071 0.137841539265 0)
(0.00467833127101 0.137963456316 0)
(0.00579152641921 0.1380794775 0)
(0.00699039027039 0.138179467152 0)
(0.00825759333407 0.138257892579 0)
(0.00957589440993 0.138311252417 0)
(0.0109293144408 0.138339142389 0)
(0.0123036626448 0.1383419485 0)
(0.0136861479752 0.138321983808 0)
(0.0150653125047 0.138281511612 0)
(0.0164304967691 0.138223950366 0)
(0.0177718096485 0.138152177514 0)
(0.01907973335 0.138069755737 0)
(0.0203452176036 0.137979458071 0)
(0.0215594374055 0.137884478997 0)
(0.0227139767428 0.137787133331 0)
(0.0238006924755 0.137690028744 0)
(0.0248119334317 0.137594900951 0)
(0.0257404559899 0.137503731952 0)
(0.0265796320262 0.137417692146 0)
(0.027323376331 0.137338194336 0)
(0.0279663194654 0.137265920719 0)
(0.0285037303833 0.1372018074 0)
(0.0289316545956 0.137146140641 0)
(0.0292468389415 0.137099468841 0)
(0.0294468590227 0.137061754802 0)
(0.0295300802419 0.137033208875 0)
(0.0294958200273 0.137013477112 0)
(0.0293441390509 0.137002381616 0)
(0.0290755569168 0.13699924466 0)
(0.0286914554026 0.137004335292 0)
(0.0281939810037 0.13701774168 0)
(0.0275848134147 0.137039205142 0)
(0.0268656084568 0.137068194217 0)
(0.0260386629679 0.137104479813 0)
(0.0251069465863 0.137147563636 0)
(0.024073996229 0.137197219632 0)
(0.0229439270636 0.137252952229 0)
(0.0217213716743 0.137314469409 0)
(0.0204115543693 0.137381166519 0)
(0.0190203319452 0.137452511595 0)
(0.0175544164991 0.137527527216 0)
(0.0160216591932 0.137605050851 0)
(0.0144316542892 0.137683153422 0)
(0.0127966710116 0.137759161284 0)
(0.0111333540201 0.137828781855 0)
(0.00946538346633 0.137885431055 0)
(0.00782680112046 0.13791831306 0)
(0.00626242540267 0.137910655326 0)
(0.00481956423376 0.13784039548 0)
(0.00353506828579 0.137692125218 0)
(0.00243526315495 0.13747874351 0)
(0.00154397633037 0.137246007785 0)
(0.000871605903975 0.137042399511 0)
(0.000396673053153 0.136888504194 0)
(7.69229781349e-05 0.136774094618 0)
(-0.000115420755812 0.136670418887 0)
(-0.000167852750202 0.136553901097 0)
(-7.72949577193e-05 0.136459473905 0)
(0.000537445159219 0.245172505854 0)
(0.00155330891162 0.2452980447 0)
(0.00247174245001 0.245525404588 0)
(0.00326940846326 0.245833659844 0)
(0.00389287672851 0.246182526811 0)
(0.0043279263248 0.246537679833 0)
(0.00456665241556 0.246875026418 0)
(0.00459450995074 0.247187646422 0)
(0.00435268005112 0.24754350853 0)
(0.00376518449602 0.248074441646 0)
(0.00290024600113 0.248822163332 0)
(0.00204428015334 0.249629996241 0)
(0.00130166948388 0.250017277396 0)
(0.000384793228383 0.24992733623 0)
(-0.000866222433221 0.249774435538 0)
(-0.00228015047343 0.249717344878 0)
(-0.00366224718407 0.249729816227 0)
(-0.00495775966214 0.249760080525 0)
(-0.00620024049805 0.249777484153 0)
(-0.00742337322548 0.249774044101 0)
(-0.00864158957961 0.249749422128 0)
(-0.0098569934267 0.249706156901 0)
(-0.0110660905356 0.249646890353 0)
(-0.0122631465917 0.24957466357 0)
(-0.0134417792663 0.249491671094 0)
(-0.0145956632212 0.249400331183 0)
(-0.0157188650001 0.249302168969 0)
(-0.0168059356008 0.249199088128 0)
(-0.0178519419419 0.249092157549 0)
(-0.0188524187182 0.248982969505 0)
(-0.0198033446247 0.248872301888 0)
(-0.0207010837055 0.248761547215 0)
(-0.0215423739326 0.248651263518 0)
(-0.0223242859529 0.24854268094 0)
(-0.0230442308686 0.248436155798 0)
(-0.0236999301468 0.248332762457 0)
(-0.0242894323438 0.248232658508 0)
(-0.0248110827265 0.248136767314 0)
(-0.0252635400323 0.248045054343 0)
(-0.0256457404239 0.247958303455 0)
(-0.0259569120536 0.247876300447 0)
(-0.0261965349239 0.247799706351 0)
(-0.0263643811974 0.247728138573 0)
(-0.0264599275461 0.247662140621 0)
(-0.0264826708239 0.247601293012 0)
(-0.0264332480254 0.247546168635 0)
(-0.02631289592 0.247496142636 0)
(-0.0261226286832 0.247451646407 0)
(-0.0258635185859 0.247411924306 0)
(-0.0255368423596 0.247377336277 0)
(-0.0251441000709 0.247346976334 0)
(-0.0246870009561 0.247321111325 0)
(-0.0241675009955 0.24729867495 0)
(-0.0235877906392 0.247279830918 0)
(-0.0229503281358 0.247263339176 0)
(-0.0222578280589 0.247249242897 0)
(-0.021513288768 0.247236109802 0)
(-0.0207199789928 0.247223842061 0)
(-0.0198814557526 0.247210797775 0)
(-0.0190015446467 0.247196720974 0)
(-0.0180843444846 0.247179752764 0)
(-0.0171341954737 0.247159478796 0)
(-0.0161556651841 0.247133843902 0)
(-0.0151534968505 0.247102315034 0)
(-0.0141325706081 0.247062721782 0)
(-0.0130978212399 0.247014537419 0)
(-0.0120541642149 0.246955678951 0)
(-0.011006362238 0.246885915939 0)
(-0.00995888432396 0.24680367996 0)
(-0.00891565059507 0.246709620863 0)
(-0.00787968984181 0.24660348759 0)
(-0.00685249829438 0.246487852088 0)
(-0.00583302935907 0.246365111294 0)
(-0.00481591316795 0.24624133606 0)
(-0.00378886854912 0.246123225881 0)
(-0.00273025810112 0.246021243786 0)
(-0.00161347079784 0.245943808155 0)
(-0.000442354758762 0.245896073517 0)
(0.000738790643431 0.245879469847 0)
(0.00188903637197 0.245895961678 0)
(0.0029907973354 0.245946370371 0)
(0.00405268814983 0.246027913513 0)
(0.00509840915094 0.246127439506 0)
(0.00614597830287 0.246234056681 0)
(0.00720574846538 0.246337915496 0)
(0.00828279362137 0.246433313051 0)
(0.00937875874989 0.246515696322 0)
(0.0104928991897 0.246583857671 0)
(0.011622772011 0.246636910898 0)
(0.0127645854311 0.246676337369 0)
(0.0139135336051 0.246703257195 0)
(0.0150639467373 0.246720424888 0)
(0.0162095229811 0.24672979899 0)
(0.0173434256006 0.246734485081 0)
(0.0184584855113 0.24673656357 0)
(0.0195472875013 0.246738963586 0)
(0.0206023587505 0.246743507829 0)
(0.0216162463669 0.246752703095 0)
(0.02258168264 0.246767963229 0)
(0.0234916411623 0.246791304106 0)
(0.0243394656922 0.246823711328 0)
(0.0251188955896 0.246866731936 0)
(0.0258241544523 0.246920961271 0)
(0.026449945563 0.246987527847 0)
(0.0269915052847 0.247066680793 0)
(0.0274445746959 0.24715916627 0)
(0.0278054224194 0.24726490034 0)
(0.0280707864485 0.247384233885 0)
(0.028237850254 0.247516697306 0)
(0.0283042779422 0.247662156488 0)
(0.0282694608392 0.247819661417 0)
(0.0281336846458 0.247989034076 0)
(0.0278954690281 0.248170226681 0)
(0.027553243223 0.248363166143 0)
(0.027106974648 0.248566849955 0)
(0.0265572239469 0.24878058808 0)
(0.0259050516167 0.249003090525 0)
(0.0251519799686 0.249233301383 0)
(0.0242999990143 0.249469558811 0)
(0.0233515389607 0.249710341153 0)
(0.022309471186 0.249953489987 0)
(0.0211770996209 0.25019684948 0)
(0.0199582279405 0.250437509216 0)
(0.0186573161569 0.250672248104 0)
(0.0172798715114 0.250896612829 0)
(0.0158331802014 0.251104798877 0)
(0.0143275722299 0.251287861703 0)
(0.0127781400132 0.251431808964 0)
(0.0112061078071 0.251513287189 0)
(0.00963776446253 0.251495517368 0)
(0.00810002289797 0.251328932343 0)
(0.00661842370852 0.250971134225 0)
(0.00522630678793 0.250429132444 0)
(0.00397377719844 0.249789097881 0)
(0.00290832633781 0.249181585223 0)
(0.00203781770771 0.248699078219 0)
(0.0013267844434 0.248343449746 0)
(0.000739639918477 0.248034092208 0)
(0.00029290136079 0.247667101284 0)
(5.56694679849e-05 0.247289302435 0)
(0.000535816090411 0.222032742874 0)
(0.00152771873828 0.222256928806 0)
(0.00239364277632 0.222681142588 0)
(0.00311487749343 0.223236390068 0)
(0.00362627446294 0.22386548235 0)
(0.00390169702887 0.224526226181 0)
(0.00390446307931 0.225215103693 0)
(0.00357662948444 0.226020792443 0)
(0.00288197552498 0.22703436038 0)
(0.0019263952751 0.228221823601 0)
(0.00100499513331 0.229430512243 0)
(0.000307018282806 0.230321024665 0)
(-0.000359750920131 0.230700300439 0)
(-0.00128032979621 0.23072554343 0)
(-0.00250295111117 0.230644731391 0)
(-0.00389133789344 0.23060948386 0)
(-0.0052970141863 0.230645353707 0)
(-0.00665277244593 0.230713707328 0)
(-0.00795290727522 0.230778359496 0)
(-0.00921194191313 0.230819000347 0)
(-0.0104425650682 0.230827119348 0)
(-0.0116511557024 0.23080058177 0)
(-0.0128392024545 0.230740315729 0)
(-0.0140052210615 0.230648682907 0)
(-0.0151461446399 0.230528484746 0)
(-0.0162581493785 0.230382710906 0)
(-0.0173371801447 0.230214182963 0)
(-0.0183792119155 0.230025715488 0)
(-0.0193804170433 0.229819869536 0)
(-0.0203372079887 0.229599223266 0)
(-0.0212462777296 0.229366084898 0)
(-0.0221045759694 0.22912279749 0)
(-0.0229093222603 0.228871390874 0)
(-0.0236579748733 0.228613921758 0)
(-0.024348248929 0.228352077477 0)
(-0.0249780909143 0.22808756614 0)
(-0.025545703893 0.227821682693 0)
(-0.0260495235517 0.227555758865 0)
(-0.0264882447977 0.227290690971 0)
(-0.0268607951874 0.227027451606 0)
(-0.0271663612965 0.226766571855 0)
(-0.027404364755 0.226508714414 0)
(-0.0275745006916 0.226254099697 0)
(-0.0276759072382 0.226003158718 0)
(-0.0277075189024 0.225755925677 0)
(-0.0276697921424 0.225512873665 0)
(-0.0275642164619 0.225274072779 0)
(-0.0273918834008 0.225039725739 0)
(-0.0271536832208 0.224809608254 0)
(-0.0268507158527 0.22458391824 0)
(-0.0264843051083 0.224362409229 0)
(-0.0260559769648 0.224145307386 0)
(-0.0255674857865 0.22393236725 0)
(-0.0250207999686 0.223723869289 0)
(-0.0244181243739 0.223519595121 0)
(-0.0237618854405 0.223319903757 0)
(-0.023054745166 0.223124627882 0)
(-0.0222995810459 0.22293422841 0)
(-0.021499486775 0.222748615309 0)
(-0.0206577414779 0.222568377744 0)
(-0.0197777918909 0.222393535105 0)
(-0.0188632033969 0.222224839348 0)
(-0.0179176167706 0.222062462508 0)
(-0.0169446720959 0.221907364306 0)
(-0.0159479325629 0.221759923219 0)
(-0.0149307699323 0.221621359875 0)
(-0.0138962447188 0.221492316943 0)
(-0.0128469359228 0.221374321344 0)
(-0.0117847539416 0.221268311373 0)
(-0.0107106685383 0.221176103376 0)
(-0.00962437911985 0.221098830974 0)
(-0.00852381755731 0.221038313357 0)
(-0.00740451639382 0.220995246172 0)
(-0.00625878671422 0.220970147575 0)
(-0.00507518893444 0.220960796633 0)
(-0.00383960707583 0.220962049084 0)
(-0.00254087756152 0.220962450133 0)
(-0.00118821716269 0.220946266184 0)
(0.000176319932889 0.220905040704 0)
(0.00151534418915 0.22083976828 0)
(0.00282052942735 0.2207565402 0)
(0.00408751852403 0.220671122031 0)
(0.00531706784598 0.220595455324 0)
(0.00651885213417 0.220535658898 0)
(0.00770059837416 0.220494855942 0)
(0.00886755992823 0.220475177841 0)
(0.0100230252767 0.220477226055 0)
(0.011168614876 0.220501533221 0)
(0.0123046324562 0.2205477376 0)
(0.0134302431395 0.220615757155 0)
(0.0145436788909 0.2207048546 0)
(0.0156423317905 0.220814672327 0)
(0.016722910381 0.220944320137 0)
(0.0177815030452 0.221093308727 0)
(0.0188137276271 0.221260692464 0)
(0.0198147963569 0.221445931289 0)
(0.0207796698835 0.221648094818 0)
(0.0217031268074 0.221866664489 0)
(0.0225799129606 0.222100792596 0)
(0.0234048024382 0.222350045196 0)
(0.0241727271031 0.222613705902 0)
(0.0248788167661 0.222891459957 0)
(0.0255184991318 0.223182735298 0)
(0.0260875134877 0.223487329402 0)
(0.0265819790458 0.223804783035 0)
(0.0269983829375 0.224134952631 0)
(0.0273336181408 0.224477414545 0)
(0.0275849456366 0.224831988352 0)
(0.0277500044239 0.225198178754 0)
(0.0278267534367 0.225575666081 0)
(0.0278144393266 0.225963725546 0)
(0.027714117648 0.226361159935 0)
(0.0275254656012 0.226767357221 0)
(0.0272462158906 0.227182354829 0)
(0.026875497816 0.227605050925 0)
(0.0264137997922 0.228034241917 0)
(0.0258619143012 0.228468186847 0)
(0.0252209190086 0.228904941138 0)
(0.0244921814204 0.22934197462 0)
(0.0236773309434 0.229776487076 0)
(0.0227782778834 0.230205075396 0)
(0.0217972392669 0.230624020029 0)
(0.0207368685893 0.231028952802 0)
(0.0196004861254 0.231414989408 0)
(0.0183925239497 0.231776128782 0)
(0.0171191778335 0.232104719503 0)
(0.0157892302051 0.232389714559 0)
(0.0144146004335 0.232614196108 0)
(0.0130097106144 0.232751256221 0)
(0.0115884859081 0.232760248981 0)
(0.0101595191325 0.23258709885 0)
(0.00872485004576 0.232177225332 0)
(0.0072920491248 0.231507925536 0)
(0.00589686861332 0.230634443435 0)
(0.00460405852727 0.229709564462 0)
(0.00346106499624 0.228915498107 0)
(0.00245451611233 0.228327135475 0)
(0.00154300419788 0.227840364231 0)
(0.000742656842244 0.22723050978 0)
(0.000189330059427 0.226401130946 0)
(0.000468055991598 0.224015802301 0)
(0.00131972178518 0.224367434924 0)
(0.00202156646845 0.225016997657 0)
(0.002530063427 0.225864282914 0)
(0.00275529185847 0.226841578979 0)
(0.0026469664113 0.227930553305 0)
(0.00219060598687 0.22916339434 0)
(0.00142553023764 0.230578175415 0)
(0.000479928800986 0.232092262039 0)
(-0.000448099120471 0.233507869417 0)
(-0.0012379428882 0.234685037253 0)
(-0.00192319133258 0.235511150158 0)
(-0.00263741197833 0.235945669028 0)
(-0.00351942593708 0.236092303947 0)
(-0.0046176983582 0.236116124591 0)
(-0.00586914140448 0.236131083799 0)
(-0.00717905682709 0.23617130191 0)
(-0.00848536275291 0.236228011202 0)
(-0.00976255521451 0.236280391234 0)
(-0.0110061326377 0.236310820257 0)
(-0.0122186067001 0.236308618239 0)
(-0.0134026953495 0.236268416576 0)
(-0.0145594872295 0.236188740276 0)
(-0.0156884451347 0.236070151221 0)
(-0.0167879026679 0.235914705066 0)
(-0.0178554955662 0.235724961279 0)
(-0.0188885255166 0.23550402874 0)
(-0.0198841657997 0.235254977897 0)
(-0.0208396232029 0.234981106613 0)
(-0.0217521927686 0.23468549291 0)
(-0.0226193174751 0.234371316128 0)
(-0.0234385804093 0.234041452365 0)
(-0.0242077324583 0.233698800295 0)
(-0.0249246705761 0.233345899938 0)
(-0.0255874641718 0.232985256031 0)
(-0.0261943351679 0.232618984364 0)
(-0.0267436888237 0.232249133394 0)
(-0.0272340952923 0.231877364317 0)
(-0.0276643216722 0.231505266562 0)
(-0.0280333122497 0.231134072844 0)
(-0.0283402204577 0.230764959942 0)
(-0.0285843914378 0.230398799145 0)
(-0.0287653947179 0.230036433053 0)
(-0.0288823652898 0.229678462006 0)
(-0.0289338046598 0.229325285556 0)
(-0.0289193680012 0.228977476694 0)
(-0.0288405526881 0.228635838903 0)
(-0.0286986181078 0.228300717423 0)
(-0.0284941606921 0.227972513813 0)
(-0.0282279634621 0.227651583494 0)
(-0.02790101052 0.227338336632 0)
(-0.027514462588 0.227033183372 0)
(-0.0270696741295 0.22673658353 0)
(-0.0265681772844 0.226449037434 0)
(-0.0260116953861 0.226171080779 0)
(-0.0254021252847 0.225903321745 0)
(-0.0247415415913 0.225646381714 0)
(-0.0240321730012 0.225400978688 0)
(-0.0232763929564 0.225167814864 0)
(-0.0224766849112 0.224947703775 0)
(-0.0216356150162 0.224741406564 0)
(-0.0207557807224 0.224549799484 0)
(-0.0198397608567 0.224373659976 0)
(-0.0188900417956 0.224213867731 0)
(-0.0179089413544 0.224071141016 0)
(-0.0168985077101 0.223946262831 0)
(-0.0158604147513 0.22383976541 0)
(-0.0147958293392 0.223752167857 0)
(-0.0137052739958 0.223683601572 0)
(-0.0125884513527 0.22363403618 0)
(-0.0114440581615 0.223602819386 0)
(-0.0102695492802 0.223588834653 0)
(-0.00906092573114 0.223589879635 0)
(-0.00781262798409 0.223602637305 0)
(-0.00651797886894 0.223621790774 0)
(-0.00517091283145 0.223639871994 0)
(-0.00376998738067 0.223646877387 0)
(-0.00232313564234 0.223632120557 0)
(-0.000856769875597 0.223588948384 0)
(0.000594001701877 0.223521400464 0)
(0.00201676801737 0.223433205445 0)
(0.00341394326437 0.223326533513 0)
(0.00477963835521 0.223211844587 0)
(0.00610900377143 0.223099855722 0)
(0.00740340137322 0.222997369298 0)
(0.00866463311614 0.222910313468 0)
(0.00989415510072 0.222843171375 0)
(0.0110931084173 0.222799814231 0)
(0.0122621588729 0.222783133981 0)
(0.01340145334 0.22279536956 0)
(0.014510660245 0.222838030134 0)
(0.0155889345469 0.222912115894 0)
(0.0166349623383 0.223018040071 0)
(0.0176469541989 0.223155836227 0)
(0.0186227138863 0.223325096566 0)
(0.0195596562339 0.223525160322 0)
(0.0204549043629 0.223755070709 0)
(0.0213053285986 0.224013744481 0)
(0.0221076569663 0.224299937767 0)
(0.0228585199412 0.224612389545 0)
(0.0235545587589 0.224949784705 0)
(0.0241924623785 0.225310867136 0)
(0.0247690609269 0.225694393367 0)
(0.0252813458071 0.226099214854 0)
(0.0257265417333 0.226524220057 0)
(0.0261021068373 0.226968388389 0)
(0.02640578175 0.227430721098 0)
(0.0266355697341 0.227910270689 0)
(0.026789764041 0.228406062306 0)
(0.0268669090557 0.228917099099 0)
(0.0268659681354 0.229442273482 0)
(0.0267884048419 0.229979910258 0)
(0.0266356006756 0.23052876585 0)
(0.0264051665301 0.231088261623 0)
(0.0260954149156 0.231657013457 0)
(0.0257068236392 0.232233358188 0)
(0.0252400058754 0.232815277479 0)
(0.0246957060419 0.233400366761 0)
(0.0240748163116 0.233985759167 0)
(0.0233783573059 0.234568100939 0)
(0.022607513092 0.235143479401 0)
(0.0217636746384 0.235707375673 0)
(0.0208485841441 0.236254527595 0)
(0.0198645482873 0.23677871452 0)
(0.0188147914372 0.237272280185 0)
(0.0177038576603 0.237725289388 0)
(0.0165379401214 0.238124036485 0)
(0.0153247053057 0.238448806193 0)
(0.0140720455653 0.238671022281 0)
(0.0127853041969 0.238750936616 0)
(0.0114638819452 0.238638391259 0)
(0.0101007776591 0.23828056974 0)
(0.00869101741367 0.237640285041 0)
(0.00725098804015 0.236728991394 0)
(0.0058340174479 0.235656283712 0)
(0.00450662298337 0.234639998881 0)
(0.00328556010337 0.23385669255 0)
(0.0021401177112 0.233228863727 0)
(0.00109123063817 0.23240232614 0)
(0.000300294560394 0.231007399613 0)
(0.000295989427461 0.222059816604 0)
(0.00081024253946 0.222538989208 0)
(0.00115467786948 0.223473710115 0)
(0.00124526291222 0.224707198591 0)
(0.000999133116162 0.226152923107 0)
(0.000441572330389 0.227762894733 0)
(-0.000331229630783 0.229508265051 0)
(-0.00119173892342 0.231267635501 0)
(-0.00204100504413 0.232896733454 0)
(-0.00283667440503 0.234323381864 0)
(-0.00356018614071 0.235489259227 0)
(-0.00424134858192 0.236342496584 0)
(-0.00496813197203 0.236888253058 0)
(-0.0058237577994 0.237194409636 0)
(-0.00683515646917 0.237358580357 0)
(-0.00797260347606 0.237461627519 0)
(-0.00918075844753 0.237543750611 0)
(-0.0104110967882 0.237612737214 0)
(-0.0116345295539 0.237661690193 0)
(-0.0128376912671 0.237680321845 0)
(-0.014015710307 0.237660546098 0)
(-0.0151669599504 0.237597301536 0)
(-0.016290524806 0.237488582981 0)
(-0.017385263367 0.237334325515 0)
(-0.018449655572 0.237136127251 0)
(-0.0194818502415 0.236896345967 0)
(-0.0204798151543 0.236618133151 0)
(-0.0214414228163 0.236304788067 0)
(-0.0223645518377 0.235959988337 0)
(-0.0232471094807 0.235587266694 0)
(-0.0240870803298 0.235190328197 0)
(-0.0248825130586 0.234772574317 0)
(-0.0256315504232 0.234337459159 0)
(-0.0263324083623 0.233888037506 0)
(-0.0269834067226 0.233427346081 0)
(-0.0275829512001 0.232957972557 0)
(-0.0281295683597 0.232482457045 0)
(-0.0286218897777 0.232002882564 0)
(-0.0290586881782 0.231521290075 0)
(-0.0294388609659 0.231039288349 0)
(-0.0297614647492 0.230558473731 0)
(-0.0300256990152 0.230080057363 0)
(-0.0302309487816 0.229605282145 0)
(-0.0303766685968 0.229135059252 0)
(-0.0304608474841 0.228669886876 0)
(-0.0304816362076 0.228210676635 0)
(-0.0304405235208 0.227758734795 0)
(-0.0303391450711 0.22731465642 0)
(-0.0301777203825 0.226879233042 0)
(-0.0299566479845 0.226453094624 0)
(-0.0296764977344 0.226037048736 0)
(-0.0293379845281 0.225631788753 0)
(-0.0289419833666 0.2252381967 0)
(-0.0284895125736 0.22485706806 0)
(-0.0279817424599 0.22448938167 0)
(-0.0274199766218 0.22413604515 0)
(-0.0268056518455 0.2237981307 0)
(-0.0261403139757 0.223476641989 0)
(-0.0254256055822 0.22317271476 0)
(-0.0246632325959 0.222887404297 0)
(-0.0238549369551 0.222621849826 0)
(-0.0230024505821 0.222377080929 0)
(-0.0221074511162 0.222154143608 0)
(-0.0211715010767 0.221953921621 0)
(-0.0201959870897 0.221777221245 0)
(-0.0191820446704 0.221624602612 0)
(-0.018130484711 0.22149641891 0)
(-0.0170417079986 0.22139265084 0)
(-0.0159156261973 0.221312894784 0)
(-0.0147515732256 0.221256190936 0)
(-0.0135482339543 0.221220948747 0)
(-0.0123035826554 0.221204746986 0)
(-0.0110149093334 0.221204172111 0)
(-0.00967902691427 0.22121456516 0)
(-0.00829294597192 0.221229814604 0)
(-0.00685531572773 0.221242278673 0)
(-0.00536871334047 0.221243235337 0)
(-0.00384207673805 0.221224305405 0)
(-0.0022909755802 0.221179369851 0)
(-0.000739493567966 0.221109323914 0)
(0.000786857102881 0.22102111546 0)
(0.00228082550633 0.220919935647 0)
(0.0037466261998 0.220805873901 0)
(0.00517924328061 0.220687384359 0)
(0.00657038611391 0.220576452625 0)
(0.00791722725514 0.220479201482 0)
(0.009219493152 0.220402580878 0)
(0.0104771639973 0.22035191854 0)
(0.0116902520014 0.220331653383 0)
(0.0128589425398 0.220345358252 0)
(0.0139833473202 0.220395691262 0)
(0.0150634419878 0.220484433121 0)
(0.0160990190501 0.22061268228 0)
(0.0170896062579 0.220780822489 0)
(0.0180344694191 0.220988731415 0)
(0.0189325797481 0.221235755176 0)
(0.0197826593423 0.221520915566 0)
(0.0205831847681 0.22184288463 0)
(0.0213324590721 0.22220018288 0)
(0.0220286326439 0.222591139555 0)
(0.0226697870931 0.223014069363 0)
(0.0232539600258 0.223467212341 0)
(0.0237792269645 0.223948884041 0)
(0.0242437186637 0.224457393864 0)
(0.0246456911384 0.224991167543 0)
(0.0249835294652 0.225548645485 0)
(0.025255801775 0.226128378823 0)
(0.0254612475749 0.226728910746 0)
(0.0255988145029 0.227348848018 0)
(0.025667621755 0.227986727559 0)
(0.0256665518597 0.228641056951 0)
(0.0255974271696 0.229309812631 0)
(0.0254632347056 0.229991206838 0)
(0.0252618186578 0.230684193663 0)
(0.024990903802 0.231387121573 0)
(0.0246510767293 0.232098054779 0)
(0.0242429665394 0.232814767896 0)
(0.0237672372773 0.233534604739 0)
(0.0232246099603 0.234254485252 0)
(0.0226158415805 0.234970763168 0)
(0.0219417604719 0.235679207112 0)
(0.0212033001183 0.236374822895 0)
(0.0204016189016 0.237051738962 0)
(0.0195382487865 0.23770285999 0)
(0.0186153237994 0.238319428868 0)
(0.0176357657149 0.238890171035 0)
(0.0166033203638 0.239400102896 0)
(0.0155221169244 0.239828798862 0)
(0.0143954631374 0.24014853044 0)
(0.0132237511766 0.240322905569 0)
(0.0120022420603 0.240307594985 0)
(0.0107208372921 0.240054860555 0)
(0.0093695717867 0.23952369192 0)
(0.00795313926513 0.238698751272 0)
(0.00650850605495 0.237632065672 0)
(0.00509993423592 0.236507863066 0)
(0.00376460198742 0.235574426361 0)
(0.00249120448564 0.234819685671 0)
(0.00130533836446 0.233766596326 0)
(0.000371933473978 0.231749056217 0)
(-3.90179337373e-05 0.221345137738 0)
(-0.000130253958907 0.221921020191 0)
(-0.000319281355627 0.223186829931 0)
(-0.000704726699868 0.224841154847 0)
(-0.00128954868339 0.226726553182 0)
(-0.00199879337191 0.228723410345 0)
(-0.00275212525667 0.230713745088 0)
(-0.00351385045074 0.232576123174 0)
(-0.00425872675193 0.234252740624 0)
(-0.00497379119377 0.235699167922 0)
(-0.00566888702598 0.236890564091 0)
(-0.00636601497184 0.237808754459 0)
(-0.0071115557061 0.238464363924 0)
(-0.00795351702621 0.238904949727 0)
(-0.0089122201458 0.239195346926 0)
(-0.00997312013852 0.23939247158 0)
(-0.0111021984127 0.239532167947 0)
(-0.0122644439925 0.23962938116 0)
(-0.0134338389423 0.239686130461 0)
(-0.01459452285 0.239698938256 0)
(-0.0157378725072 0.239663620674 0)
(-0.0168592411349 0.239577130407 0)
(-0.0179558263555 0.239438268469 0)
(-0.0190255143976 0.23924736634 0)
(-0.0200664183051 0.239006145099 0)
(-0.0210766809533 0.238717169413 0)
(-0.0220544629538 0.238383753161 0)
(-0.0229979245224 0.23800951827 0)
(-0.0239052659709 0.237598426623 0)
(-0.0247747129879 0.237154427281 0)
(-0.0256045465863 0.236681570792 0)
(-0.0263930781584 0.23618370373 0)
(-0.0271386752354 0.235664633092 0)
(-0.0278397369209 0.235127848552 0)
(-0.0284947240709 0.23457672295 0)
(-0.0291021397191 0.234014255511 0)
(-0.0296605642176 0.233443301186 0)
(-0.0301686389616 0.232866331024 0)
(-0.0306251028696 0.232285682908 0)
(-0.0310287762833 0.231703334402 0)
(-0.0313785949156 0.231121166618 0)
(-0.031673588677 0.230540745228 0)
(-0.0319129102586 0.229963591415 0)
(-0.0320967488477 0.229390987128 0)
(-0.0322226833471 0.228823561857 0)
(-0.0322867619598 0.228262366512 0)
(-0.0322903423021 0.227708947619 0)
(-0.0322356009961 0.227164392164 0)
(-0.0321224429402 0.22662975947 0)
(-0.0319509066557 0.226105980962 0)
(-0.0317211437488 0.225594122156 0)
(-0.0314334187875 0.225095178802 0)
(-0.0310881260028 0.22461029426 0)
(-0.030685772819 0.224140561042 0)
(-0.0302269869607 0.223687217139 0)
(-0.0297124993671 0.223251453258 0)
(-0.0291431436467 0.222834585069 0)
(-0.0285198346352 0.222437868314 0)
(-0.0278435576422 0.222062644806 0)
(-0.0271153401388 0.22171016637 0)
(-0.0263362294949 0.221381712111 0)
(-0.0255072563351 0.221078421507 0)
(-0.0246294010282 0.220801379648 0)
(-0.023703549135 0.220551458543 0)
(-0.0227304496614 0.220329366702 0)
(-0.0217106662602 0.220135497587 0)
(-0.0206445343254 0.219969940238 0)
(-0.0195321163444 0.219832334079 0)
(-0.0183731704761 0.219721839347 0)
(-0.017167125996 0.219636998885 0)
(-0.0159130897187 0.219575669489 0)
(-0.0146098894239 0.219534891801 0)
(-0.0132562186844 0.219510793202 0)
(-0.0118509505691 0.219498492723 0)
(-0.0103937741389 0.219492075947 0)
(-0.00888623036565 0.2194847643 0)
(-0.0073330756933 0.219469429221 0)
(-0.00574335794873 0.219439595052 0)
(-0.00413037536102 0.21939094204 0)
(-0.00251059772113 0.219321926584 0)
(-0.000899714055947 0.219236562218 0)
(0.000679606893361 0.219143104554 0)
(0.0022172791144 0.219047204984 0)
(0.00372318494861 0.218950066692 0)
(0.00518968614257 0.218857333368 0)
(0.00660635967953 0.218778778886 0)
(0.00797233412758 0.218721154249 0)
(0.00928515447092 0.218690564851 0)
(0.010544331478 0.218692632021 0)
(0.0117494652174 0.218731238676 0)
(0.0129005292129 0.218809590154 0)
(0.0139977347755 0.218930075447 0)
(0.0150413027741 0.219094270397 0)
(0.0160314162172 0.219302953386 0)
(0.0169681681102 0.219556299429 0)
(0.017851476984 0.219853877058 0)
(0.0186810993276 0.220194831037 0)
(0.0194566050217 0.220577887687 0)
(0.0201774139051 0.22100153702 0)
(0.020842792809 0.221464021188 0)
(0.0214519141884 0.221963498875 0)
(0.0220038653847 0.222498014161 0)
(0.0224977152489 0.223065634163 0)
(0.0229325235654 0.223664396692 0)
(0.0233074033535 0.224292419618 0)
(0.023621522857 0.224947827388 0)
(0.0238741581574 0.225628833113 0)
(0.0240646836043 0.226333646221 0)
(0.0241926133743 0.227060528088 0)
(0.0242575787749 0.22780768161 0)
(0.0242584076148 0.228573293738 0)
(0.0241970647563 0.229355158841 0)
(0.0240779691131 0.230150895101 0)
(0.0238994463399 0.230958987043 0)
(0.0236587833713 0.231777693741 0)