/*--------------------------------*- C++ -*----------------------------------*\
| =========                 |                                                 |
| \\      /  F ield         | OpenFOAM: The Open Source CFD Toolbox           |
|  \\    /   O peration     | Version:  2312                                  |
|   \\  /    A nd           | Website:  www.openfoam.com                      |
|    \\/     M anipulation  |                                                 |
\*---------------------------------------------------------------------------*/
FoamFile
{
    version     2.0;
    format      ascii;
    arch        "LSB;label=32;scalar=64";
    class       volScalarField;
    location    "0.98/water";
    object      alpha.gas;
}
// * * * * * * * * * * * * * * * * * * * * * * * * * * * * * * * * * * * * * //

dimensions      [0 0 0 0 0 0 0];

internalField   nonuniform List<scalar> 
1503
(
0.167160597959
0.101898932615
0.029395687552
0.00769613607573
0.00153546303182
0.000252695814124
3.33251171592e-05
2.62123616272e-06
5.67364580164e-08
4.82209545078e-10
2.33948018216e-12
9.17436688057e-15
1e-15
1e-15
1e-15
1e-15
1e-15
1e-15
1e-15
1e-15
0.612732794719
0.253440958987
0.105950105496
0.0369307673541
0.012172776092
0.0034051418043
0.000797325771052
0.000143578669489
1.47660346023e-05
3.45767105403e-07
1.17453844608e-09
1.9364824643e-12
3.30028869691e-15
1e-15
1e-15
1e-15
1e-15
1e-15
1e-15
1e-15
0.613303650933
0.336946521399
0.165117866336
0.070916870043
0.0280662306258
0.00975347683044
0.00283651109203
0.000653183476464
9.93810729018e-05
5.63853175898e-06
2.95468991479e-08
3.68490369118e-11
3.70915857261e-14
1.00033046762e-15
1e-15
1e-15
1e-15
1e-15
1e-15
1e-15
0.613304089033
0.415884821714
0.239877122366
0.121546928465
0.0551168480937
0.0217813447271
0.00720865181626
0.00191200963847
0.000364692885968
3.55914464755e-05
5.84873740748e-07
6.42549834881e-10
4.29719829566e-13
1.20290603879e-15
1e-15
1e-15
1e-15
1e-15
1e-15
1e-15
0.598150107296
0.462438460112
0.31771976699
0.191994233826
0.101597528149
0.0457525254969
0.0169152797788
0.00492885973229
0.0010628074245
0.000137491814819
5.48129186801e-06
8.97585960052e-09
4.87660619973e-12
3.31746617915e-15
1.000012333e-15
1e-15
1e-15
1e-15
1e-15
1e-15
0.569186106432
0.478987105139
0.37680366253
0.267262555317
0.166696544321
0.0882711089214
0.0379359947918
0.0125010152239
0.00296749344336
0.000445668299974
2.84462043723e-05
1.7868212374e-07
8.55543938763e-11
3.1732596609e-14
1.00453702893e-15
1e-15
1e-15
1e-15
1e-15
1e-15
0.549821854876
0.486215130714
0.41398765994
0.328796964317
0.235728484659
0.146705022497
0.0754981182304
0.0298808783246
0.00828244741009
0.00142472492862
0.000117908658653
2.14762040011e-06
1.1000577332e-09
3.24721231517e-13
1.08097168167e-15
1e-15
1e-15
1e-15
1e-15
1e-15
0.555196873512
0.495321403719
0.43397332792
0.369164045966
0.292411046882
0.20805667266
0.126992336827
0.0618223345113
0.0214186755792
0.00454111628347
0.000476316644178
1.61300352901e-05
2.16928864815e-08
5.87373508946e-12
2.32887396638e-15
1e-15
1e-15
1e-15
1e-15
1e-15
0.569416116268
0.503444332625
0.451400720949
0.39973195231
0.337062845249
0.262963579
0.18322640125
0.107354377874
0.0473561171084
0.0132864251536
0.00190392935241
0.000102459131481
9.76871498398e-07
2.05851408631e-10
3.6685222774e-14
1.00460772032e-15
1e-15
1e-15
1e-15
1e-15
0.572725064621
0.507991803453
0.468370941452
0.427809948985
0.375587729286
0.310135236553
0.236450969424
0.159538078078
0.0873722888908
0.0331111373459
0.00689201646048
0.000593438286754
1.41023836565e-05
1.01225421256e-08
2.1288877904e-12
1.37372639186e-15
1e-15
1e-15
1e-15
1e-15
0.575737128611
0.509741156422
0.481989531508
0.452154187173
0.408978314782
0.350499189634
0.282560798266
0.210191788012
0.136787786996
0.0682303651372
0.0207984928754
0.00288597420037
0.000129325131784
1.01638814034e-06
1.63747244649e-10
3.58530553713e-14
1.00585809393e-15
1e-15
1e-15
1e-15
0.573252458974
0.508460797256
0.485481183441
0.462548292979
0.428120520704
0.378350772903
0.317673933122
0.253565912866
0.187392649463
0.116454920009
0.0496677141035
0.0107538873344
0.000840546016651
1.60057280585e-05
1.84736349057e-08
2.5439725736e-12
1.58708996041e-15
1.00107540595e-15
1.00079137995e-15
1e-15
0.576526837836
0.503455760132
0.48215431074
0.459635338435
0.426971043898
0.383888164473
0.336090563589
0.285004127437
0.230982305163
0.167616840149
0.0923087800514
0.0291522550169
0.00369708435742
0.00012837738196
6.95722456611e-07
2.60428023843e-10
7.28105304979e-14
1.02592053153e-15
1.00481074275e-15
1.00243998604e-15
0.573252458974
0.493349260616
0.475384599101
0.450597080764
0.418310722356
0.379246619809
0.341224581032
0.304037754822
0.263222155908
0.210191956578
0.137052965786
0.0577732658234
0.0110071055732
0.000624467745523
6.97014557427e-06
6.63380015485e-09
3.01703083628e-12
2.08951062904e-15
1.00969722015e-15
1.00633675366e-15
0.576020144386
0.478973694678
0.462615960789
0.434044465384
0.400570422173
0.367215399148
0.339414317123
0.31470626081
0.283973566839
0.238709545306
0.17211016184
0.0886448429987
0.0232026095929
0.00197541039014
3.60342066574e-05
7.65472662051e-08
4.58640691533e-11
1.84506772277e-14
1.01662967318e-15
1.0082928799e-15
0.572725064621
0.464155589425
0.444934768749
0.414270436367
0.382038867995
0.355758423816
0.338249852911
0.321621559345
0.29663193329
0.256583611332
0.196944922834
0.115703186534
0.0381702451332
0.00452009420189
0.000122561023863
4.87626810759e-07
3.6470043572e-10
1.58036658232e-13
1.05001617811e-15
1.00801665715e-15
0.573877565042
0.453623240043
0.429406070683
0.401952930359
0.375850323552
0.354702777274
0.340760598727
0.328449562113
0.306687162213
0.271498278798
0.219281065548
0.141860743869
0.0558714319204
0.00879583213955
0.000354950900885
2.62217896954e-06
1.47637628636e-09
3.22224911244e-13
1.04280644645e-15
1.00583994299e-15
0.572132496732
0.452301007349
0.424202127723
0.401632983964
0.379144088404
0.360917354011
0.350020949158
0.338613499187
0.319255119246
0.290825849836
0.247768589729
0.175733982411
0.082070202701
0.0174703358219
0.00113692790235
1.66210737818e-05
7.56681241842e-09
3.71455574125e-13
1.01342594634e-15
1.00158534215e-15
0.561361108782
0.458464606785
0.436977472483
0.419023155666
0.399981193753
0.381692259211
0.367621612005
0.353603131124
0.337233032265
0.317323382181
0.285368588129
0.225132995943
0.129160678161
0.0392173017874
0.00431731524429
0.000124725798736
5.20657683416e-07
2.79163786903e-12
1.15104897736e-15
1e-15
0.548359330938
0.48847156116
0.48385773033
0.470160348952
0.444155292738
0.414277695592
0.38970229926
0.369948589271
0.351862872668
0.333794425898
0.317763853128
0.285670472475
0.206669198498
0.0910314532969
0.016755006317
0.000914951376419
1.08203174946e-05
2.40762641323e-09
4.25970679104e-14
1.00637844071e-15
0.566334627927
0.544990766238
0.550619474859
0.53619608174
0.496921199154
0.449558485947
0.41090625071
0.381218259105
0.35354157694
0.332427036949
0.323767245405
0.322664168696
0.285289578789
0.176251983475
0.0531209482545
0.00528121140002
0.000130266013332
4.15353427998e-07
2.02426976476e-12
1.68360934475e-15
0.617037686777
0.59008612734
0.593004433505
0.579987507316
0.539040383025
0.480953746556
0.428516988751
0.386284126932
0.350681850912
0.323977675318
0.320847455832
0.322617095455
0.322570597779
0.256573436547
0.117102345062
0.0203177687065
0.000968060017666
9.50350696958e-06
9.76545452773e-10
1.17981332673e-13
0.637084728232
0.60176541306
0.602722053396
0.593565201535
0.559353027919
0.499866657527
0.438607406806
0.386331753675
0.34160451466
0.307296934296
0.308097880231
0.320946853511
0.322528142678
0.294818548242
0.179833985224
0.0495298344238
0.0041512360525
7.80444880945e-05
1.37449067947e-07
7.27225373313e-12
0.640382062779
0.603196176597
0.603018620922
0.597507295889
0.565653026456
0.505418968622
0.439665349569
0.380689169733
0.324819463546
0.2950760783
0.295487821841
0.30923586524
0.322117627287
0.305067248154
0.216398031704
0.0827276797168
0.0109396931697
0.000340518809411
1.77593632233e-06
1.52351475133e-10
0.637540541643
0.601829917402
0.602841669769
0.599004728342
0.566447445445
0.504604649396
0.434729400969
0.364630032683
0.303651662658
0.294787467987
0.294939203693
0.295614214378
0.312497186765
0.303151951193
0.234839206576
0.109379577327
0.0200168811682
0.000926211520448
8.07469786139e-06
4.38810271224e-09
0.642203852357
0.596426099344
0.602679981065
0.597679059346
0.562333133209
0.496010684941
0.417810638459
0.339280533008
0.294924156156
0.294939203693
0.294372406182
0.294939203693
0.296076137111
0.299124438472
0.249188512093
0.130842571917
0.0297668351263
0.00186155582941
2.28900846255e-05
3.35718777279e-08
0.637877457093
0.587339058795
0.598986288355
0.589461022642
0.547934491662
0.475151525757
0.389845237759
0.311408433787
0.294939203693
0.294300048106
0.294939203693
0.294034838909
0.294939203693
0.300802256748
0.267536526268
0.153636036674
0.0412744967932
0.00333536490155
5.45307164247e-05
1.41056541225e-07
0.642393481223
0.575348366831
0.58550156776
0.570820991137
0.522829027706
0.444593682757
0.357727303404
0.296019808122
0.294550768415
0.294939203693
0.293673194551
0.294939203693
0.293937791657
0.322604439021
0.297194852355
0.183536747088
0.0585374397745
0.00620579508971
0.000135638326447
5.21724301836e-07
0.637877457093
0.562008595603
0.568433643107
0.546490118449
0.491432254504
0.410217683557
0.327354280063
0.294795032987
0.294939203693
0.293745407627
0.294939203693
0.293162667893
0.29677447694
0.354974161689
0.330231265363
0.225656314885
0.0873820639694
0.0122588509991
0.000363139390825
1.86132587076e-06
0.642054129238
0.548707781601
0.550926565536
0.520154603398
0.457547228897
0.376680615578
0.303767936228
0.294939203693
0.293965561722
0.294939203693
0.293064568467
0.294939203693
0.327852255174
0.358231377112
0.358394353521
0.275654646817
0.127640063232
0.0234006919873
0.00096540891724
6.56367291982e-06
0.637275481039
0.535926754364
0.530570058466
0.491649395525
0.424412423328
0.347900336016
0.294980984801
0.294403977989
0.294939203693
0.293183374197
0.294939203693
0.293064049769
0.358049601197
0.358839204316
0.358231377112
0.308995673914
0.169744658963
0.0402878931571
0.00236586768863
2.22440752532e-05
0.641368309116
0.520070460016
0.504313548474
0.460506000548
0.395283659089
0.328081731163
0.294766591841
0.294939203693
0.293472320553
0.294939203693
0.293059407767
0.332679360302
0.358839204316
0.358231377112
0.358557177433
0.326333370619
0.204165553085
0.0615075157114
0.00516153915553
6.96461565539e-05
0.636973426577
0.497973912177
0.470333475372
0.426036714768
0.371455843027
0.31987883798
0.294939203693
0.293861904741
0.294939203693
0.293064568467
0.310163316037
0.358183823064
0.358231377112
0.358711207362
0.358231377112
0.334027030642
0.230596381717
0.0858022897876
0.0100564939512
0.000194538338542
0.637883649951
0.467717464406
0.438921969063
0.400245226953
0.361780771823
0.322399371436
0.298952784843
0.300240664054
0.306428220513
0.317884752105
0.335882859947
0.350750883732
0.356821040251
0.358231377112
0.358328735431
0.340041779462
0.255559150623
0.113734527219
0.0176975906831
0.000477659081369
0.630487118616
0.432839520075
0.420284457164
0.396501242277
0.366723416205
0.341407692117
0.333466345056
0.338386102049
0.339395642775
0.330668679927
0.324987422924
0.325601962927
0.33770754053
0.350215354393
0.354192017849
0.350627892167
0.289413320163
0.150606125991
0.0295651218435
0.00109187923045
0.577475064522
0.416670900719
0.416213071281
0.407645732868
0.391554084622
0.376379554454
0.368482915647
0.356001205508
0.339320252647
0.316497631369
0.294788971748
0.29255461532
0.307026845478
0.328211830751
0.347770815326
0.36401388375
0.333694747871
0.201595752851
0.0497982439066
0.00261639772871
0.49588917678
0.417137861074
0.434081537482
0.448015912802
0.425762148256
0.396043593037
0.370617362251
0.34922944405
0.320347234061
0.286568426603
0.266737704124
0.26706085041
0.280285792338
0.307485210414
0.346310783437
0.369204152184
0.364818209165
0.257172903909
0.085004575433
0.00690246597241
0.475884938916
0.461440397234
0.498785583163
0.500745031765
0.444161905291
0.394221399121
0.360890499991
0.328145710035
0.291088191861
0.261580979137
0.249929221562
0.250375929114
0.262578411812
0.295407833144
0.346266208957
0.370698871617
0.372555734849
0.304751786794
0.137381874083
0.0182018211939
1e-15
1e-15
1e-15
1e-15
1e-15
1e-15
1e-15
1e-15
1e-15
1e-15
1e-15
1e-15
1e-15
1e-15
1e-15
1e-15
1e-15
1e-15
1e-15
1e-15
1e-15
1e-15
1e-15
1e-15
1e-15
1e-15
1e-15
1e-15
1e-15
1e-15
1e-15
1e-15
1e-15
1e-15
1e-15
1e-15
1e-15
1e-15
1e-15
1e-15
1e-15
1e-15
1e-15
1e-15
1e-15
1e-15
1e-15
1e-15
1e-15
1e-15
1e-15
1e-15
1e-15
1e-15
1e-15
1e-15
1e-15
1e-15
1e-15
1e-15
1e-15
1e-15
1e-15
1e-15
1e-15
1e-15
1e-15
1e-15
1e-15
1e-15
1e-15
1e-15
1e-15
1e-15
1e-15
1e-15
1e-15
1e-15
1e-15
1e-15
1e-15
1e-15
1e-15
1e-15
1e-15
1e-15
1e-15
1e-15
1e-15
1e-15
1e-15
1e-15
1e-15
1e-15
1e-15
1e-15
1.00186893625e-15
1e-15
1e-15
1e-15
1e-15
1e-15
1e-15
1e-15
1e-15
1e-15
1e-15
1e-15
1e-15
1e-15
1e-15
1e-15
1e-15
1e-15
1e-15
1e-15
1.00229376114e-15
1e-15
1e-15
1.02991700589e-15
1e-15
1e-15
1e-15
1e-15
1e-15
1e-15
1.00000245517e-15
1.00017115423e-15
1.00040157002e-15
1.000543872e-15
1.00050781482e-15
1.0001686201e-15
1e-15
1e-15
1e-15
1.00660633191e-15
1.00229104087e-15
1e-15
1e-15
1.07343465901e-15
1e-15
1e-15
1e-15
1e-15
1e-15
1.00011939347e-15
1.00049512124e-15
1.00091995231e-15
1.00132879633e-15
1.00156913079e-15
1.00141307226e-15
1.00056086031e-15
1e-15
1e-15
1.00086702617e-15
1.00679759782e-15
1e-15
1e-15
1e-15
1.11223073526e-15
1e-15
1e-15
1e-15
1e-15
1.00029818148e-15
1.00068582296e-15
1.00109707061e-15
1.00156147027e-15
1.00210530923e-15
1.00234660345e-15
1.00189250318e-15
1.00057542095e-15
1e-15
1e-15
1.00323589724e-15
1.00679747278e-15
1e-15
1e-15
1e-15
1.14875615943e-15
1e-15
1e-15
1.00003922367e-15
1.00041044498e-15
1.00072398847e-15
1.0010438413e-15
1.00143915594e-15
1.00199937325e-15
1.00265031725e-15
1.00282302613e-15
1.00203721431e-15
1.00050500931e-15
1e-15
1.0001570491e-15
1.00659294003e-15
1.00621691446e-15
1e-15
1e-15
1e-15
1.18218905671e-15
1e-15
1.00011823163e-15
1.00064914913e-15
1.0008775144e-15
1.00111383784e-15
1.00144482007e-15
1.00192070702e-15
1.00261530679e-15
1.00321373876e-15
1.00337134921e-15
1.00226418337e-15
1.00053965328e-15
1e-15
1.00208948769e-15
1.01282196982e-15
1.00454494133e-15
1e-15
1e-15
1e-15
1.21215530353e-15
1.00012609119e-15
1.00135586943e-15
1.00149527203e-15
1.00161401056e-15
1.00185912568e-15
1.00227037599e-15
1.00288187006e-15
1.00360798122e-15
1.00564600318e-15
1.00417997576e-15
1.00282147185e-15
1.00071733062e-15
1.00061374476e-15
1.00519741692e-15
1.01282755239e-15
1.00124690655e-15
1e-15
1e-15
1e-15
1.23815997497e-15
1.00224528485e-15
1.003188931e-15
1.00307666378e-15
1.00304324201e-15
1.00330758922e-15
1.00378962173e-15
1.00435350947e-15
1.00634658177e-15
1.00788049744e-15
1.00516971824e-15
1.00353602891e-15
1.00104419727e-15
1.0021291431e-15
1.01300590355e-15
1.01274767306e-15
1e-15
1e-15
1.00587781894e-15
1e-15
1.26091394074e-15
1.00501242169e-15
1.00516713657e-15
1.00483352941e-15
1.00457044418e-15
1.00467298271e-15
1.00507225287e-15
1.00574011352e-15
1.00787757868e-15
1.00783324182e-15
1.00608081521e-15
1.00378734688e-15
1.00150310384e-15
1.00362751138e-15
1.0135859452e-15
1.01166183078e-15
1e-15
1e-15
1.02014099144e-15
1e-15
1.28109753739e-15
1.00636753102e-15
1.00569856304e-15
1.00516028695e-15
1.00480540828e-15
1.00484033182e-15
1.00520042605e-15
1.00638306078e-15
1.00783324182e-15
1.0078774061e-15
1.00690093508e-15
1.00375973499e-15
1.00205539666e-15
1.00539095931e-15
1.01359489625e-15
1.00897100088e-15
1e-15
1e-15
1.02074602756e-15
1e-15
1.29920129896e-15
1.00612152853e-15
1.00522392824e-15
1.00460656241e-15
1.00424824925e-15
1.00435033495e-15
1.00484235045e-15
1.00630684804e-15
1.00785169966e-15
1.00783324182e-15
1.00691097023e-15
1.00355821862e-15
1.00289264382e-15
1.00984563216e-15
1.01349996142e-15
1.00379266636e-15
1e-15
1e-15
1.02014099144e-15
1e-15
1.31574517979e-15
1.00447818036e-15
1.00350028633e-15
1.00293419207e-15
1.00262242169e-15
1.00278437032e-15
1.00365111032e-15
1.00570024681e-15
1.00770204109e-15
1.0078065647e-15
1.00654974991e-15
1.00348129978e-15
1.00414693252e-15
1.01372845677e-15
1.012383552e-15
1e-15
1e-15
1e-15
1.02075940169e-15
1e-15
1.33128161536e-15
1.00122923807e-15
1.00073970931e-15
1.00050577999e-15
1.00035893439e-15
1.00037695284e-15
1.00250145138e-15
1.01524705993e-15
1.02200570132e-15
1.00690654337e-15
1.00572496132e-15
1.00346615927e-15
1.00581041404e-15
1.01372839745e-15
1.00975395326e-15
1e-15
1e-15
1e-15
1.02014099144e-15
1e-15
1.34622375826e-15
1e-15
1e-15
1e-15
1e-15
1e-15
1.00272190574e-15
1.02629219716e-15
1.02540683942e-15
1.00686947619e-15
1.00514936471e-15
1.00382351931e-15
1.00805213924e-15
1.01354374702e-15
1.00569467801e-15
1e-15
1e-15
1e-15
1.02077077015e-15
1e-15
1.36087532859e-15
1e-15
1e-15
1e-15
1e-15
1e-15
1.01444451899e-15
1.02540683942e-15
1.02638834e-15
1.02502995913e-15
1.00524398046e-15
1.00543682517e-15
1.01069045426e-15
1.01273294804e-15
1.0013784906e-15
1e-15
1e-15
1e-15
1.02014099144e-15
1e-15
1.37559116298e-15
1e-15
1e-15
1e-15
1e-15
1e-15
1.02540156865e-15
1.02651969949e-15
1.02540683942e-15
1.02628383122e-15
1.00695624057e-15
1.00830978138e-15
1.01342494298e-15
1.01144748958e-15
1e-15
1e-15
1e-15
1e-15
1.02077299125e-15
1e-15
1.39079815327e-15
1e-15
1e-15
1e-15
1e-15
1.01304533524e-15
1.02653493971e-15
1.02540683942e-15
1.02650938618e-15
1.02540683942e-15
1.02079403607e-15
1.01198307282e-15
1.0159484728e-15
1.01000438049e-15
1e-15
1e-15
1e-15
1e-15
1.02014099144e-15
1e-15
1.40681356204e-15
1.05591457536e-15
1e-15
1.00204896641e-15
1.00526687778e-15
1.02627259886e-15
1.02540683942e-15
1.0266267972e-15
1.02540683942e-15
1.02633760698e-15
1.02540683942e-15
1.01651070748e-15
1.01807555045e-15
1.00884612954e-15
1e-15
1e-15
1e-15
1.00009265893e-15
1.0207525728e-15
1e-15
1.42364059089e-15
3.35733902564e-15
1.01339231756e-15
1.01836899759e-15
1.02198675766e-15
1.02540683942e-15
1.0266432281e-15
1.02540683942e-15
1.02653824099e-15
1.02540683942e-15
1.0260229637e-15
1.020486201e-15
1.01922628457e-15
1.00808114389e-15
1e-15
1e-15
1e-15
1.00164943223e-15
1.02014099144e-15
1e-15
1.44095321725e-15
6.14538981845e-14
1e-15
1.02253668898e-15
1.02540683942e-15
1.0264508478e-15
1.02540683942e-15
1.02667103356e-15
1.02540683942e-15
1.02635508921e-15
1.02540683942e-15
1.02512915928e-15
1.01942255899e-15
1.00716309121e-15
1e-15
1e-15
1e-15
1.00323820604e-15
1.02071298925e-15
1.00003820452e-15
1.45836754204e-15
1.21295566523e-12
1e-15
1e-15
1.02552020895e-15
1.02540683942e-15
1.02672249401e-15
1.02540683942e-15
1.02657375951e-15
1.02540683942e-15
1.02601062709e-15
1.02540683942e-15
1.01913247107e-15
1.00520797889e-15
1e-15
1e-15
1.00008631408e-15
1.00450548756e-15
1.02014099144e-15
1.00270848831e-15
1.47572742843e-15
1.14044859069e-11
1e-15
1e-15
1.02172584127e-15
1.02638396665e-15
1.02540683942e-15
1.0266471362e-15
1.02540683942e-15
1.02631422838e-15
1.02540683942e-15
1.02555439566e-15
1.01769129622e-15
1.00252621178e-15
1.0000272123e-15
1.0001247218e-15
1.00132995567e-15
1.005378113e-15
1.02057873318e-15
1.00472132528e-15
1.49314003774e-15
7.63980529142e-11
1e-15
1e-15
1.00344763908e-15
1.02540683942e-15
1.02664303888e-15
1.02540683942e-15
1.02648802863e-15
1.02540683942e-15
1.02592702796e-15
1.02540683942e-15
1.01444708075e-15
1.00133627401e-15
1.00021075043e-15
1.00085863609e-15
1.00233871929e-15
1.00584593905e-15
1.02014099144e-15
1.00541783883e-15
1.5107766522e-15
4.38286583787e-10
1e-15
1e-15
1e-15
1.02611949995e-15
1.02540683942e-15
1.02650428587e-15
1.02540683942e-15
1.02618896513e-15
1.02540683942e-15
1.02361791326e-15
1.00921242039e-15
1.00136962932e-15
1.00099858708e-15
1.0016691964e-15
1.00271273422e-15
1.0058787843e-15
1.02035829677e-15
1.00556378822e-15
1.52866835959e-15
2.54670036541e-09
1e-15
1e-15
1e-15
1.02540683942e-15
1.02639816503e-15
1.02540683942e-15
1.02625321976e-15
1.02540683942e-15
1.02575538307e-15
1.02023044125e-15
1.00467602599e-15
1.00145402094e-15
1.0014507058e-15
1.00184373343e-15
1.00278232571e-15
1.00556010545e-15
1.02014099144e-15
1.00530809173e-15
1.54653340142e-15
1.4294635539e-08
1e-15
1e-15
1e-15
1.02567517319e-15
1.02540683942e-15
1.02614587188e-15
1.02540683942e-15
1.0259160224e-15
1.02540683942e-15
1.01575577128e-15
1.00267459333e-15
1.00137600342e-15
1.00136404432e-15
1.00170933809e-15
1.00261213367e-15
1.00491128107e-15
1.01928702576e-15
1.0045877893e-15
1.56374740492e-15
6.40210978306e-08
1e-15
1e-15
1e-15
1.02497975894e-15
1.02590528346e-15
1.02540683942e-15
1.02583201822e-15
1.02540683942e-15
1.02549029742e-15
1.00948301833e-15
1.00164823832e-15
1.00105346044e-15
1.00102037539e-15
1.00129987289e-15
1.00208666339e-15
1.00416668686e-15
1.01569866612e-15
1.00346947084e-15
1.57993440692e-15
2.18031282693e-07
1e-15
1e-15
1e-15
1.01978449079e-15
1.02540683942e-15
1.02559591001e-15
1.02540683942e-15
1.02551873428e-15
1.01942785245e-15
1.00377303284e-15
1.00085971179e-15
1.000596341e-15
1.00057960215e-15
1.00074712053e-15
1.00135887011e-15
1.00316327922e-15
1.01206091967e-15
1.00219596842e-15
1.59432532387e-15
7.09987543154e-07
1e-15
1e-15
1e-15
1.01271173274e-15
1.02064301136e-15
1.0237407358e-15
1.02429682012e-15
1.02094284641e-15
1.00817259011e-15
1.0010630218e-15
1.00036587997e-15
1.00024928323e-15
1.00024410641e-15
1.00033195789e-15
1.00064500563e-15
1.00197534593e-15
1.00900046784e-15
1.00102485861e-15
1.60613095514e-15
2.64530598891e-06
1e-15
1e-15
1e-15
1.00714306658e-15
1.01231923941e-15
1.01635373689e-15
1.01618378486e-15
1.00963130713e-15
1.00173824628e-15
1.00023925736e-15
1.00003367566e-15
1.00000326469e-15
1.00000291553e-15
1.00002321348e-15
1.00016810059e-15
1.00083603153e-15
1.00694463793e-15
1.00031045575e-15
1.62772061604e-15
1.31991066601e-05
1e-15
1e-15
1e-15
1.00330625367e-15
1.00576713972e-15
1.0076536805e-15
1.00620307586e-15
1.00199359374e-15
1.00018902507e-15
1e-15
1e-15
1e-15
1e-15
1e-15
1e-15
1.00015436948e-15
1.00630730254e-15
1e-15
1.6979441252e-15
7.62868790313e-05
4.5970731597e-08
1e-15
1e-15
1.00114244712e-15
1.00191944213e-15
1.00205551987e-15
1.0010688526e-15
1.00008793842e-15
1e-15
1e-15
1e-15
1e-15
1e-15
1e-15
1e-15
1e-15
1.00691944892e-15
1e-15
1.76451559569e-15
0.000413861625029
1.00348758683e-06
1e-15
)
;

boundaryField
{
    emptyPatch
    {
        type            empty;
    }
    minY
    {
        type            fixedValue;
        value           uniform 1e-15;
    }
    maxY
    {
        type            inletOutlet;
        phi             phi.gas;
        inletValue      nonuniform List<scalar> 0();
        value           nonuniform List<scalar> 0();
    }
    water_to_cooler
    {
        type            zeroGradient;
    }
    water_to_heater
    {
        type            zeroGradient;
    }
    procBoundary2to3
    {
        type            processor;
        value           nonuniform List<scalar> 
41
(
0.504083795754
0.589559623315
0.578954287632
0.550579527186
0.465367702656
0.394181556122
0.349042548521
0.310790821368
0.273798226467
0.246857490126
0.237157916384
0.236752366452
0.249089256435
0.284976498573
0.344021147465
0.371036017986
0.372665304438
0.339375963844
0.19648996871
0.0423222699583
1e-15
1.00002952856e-15
1.0002140254e-15
1.00013716988e-15
1e-15
1e-15
1e-15
1e-15
1e-15
1e-15
1e-15
1e-15
1e-15
1e-15
1.00913586458e-15
1.00967963699e-15
1.76966699169e-15
0.00189977337697
1.26899428871e-05
1e-15
1e-15
)
;
    }
}


// ************************************************************************* //
