/*--------------------------------*- C++ -*----------------------------------*\
| =========                 |                                                 |
| \\      /  F ield         | OpenFOAM: The Open Source CFD Toolbox           |
|  \\    /   O peration     | Version:  2312                                  |
|   \\  /    A nd           | Website:  www.openfoam.com                      |
|    \\/     M anipulation  |                                                 |
\*---------------------------------------------------------------------------*/
FoamFile
{
    version     2.0;
    format      ascii;
    arch        "LSB;label=32;scalar=64";
    class       volScalarField;
    location    "0.455/heater";
    object      T;
}
// * * * * * * * * * * * * * * * * * * * * * * * * * * * * * * * * * * * * * //

dimensions      [0 0 0 1 0 0 0];

internalField   nonuniform List<scalar> 
150
(
795.042134215
794.934669733
794.717967369
794.382318008
793.906420654
795.095352179
794.990740813
794.781244101
794.457476717
793.988040582
795.140594887
795.0378396
794.834058541
794.522152748
794.061568539
795.174940926
795.07261012
794.872032241
794.57086853
794.126844049
795.196910752
795.0937104
794.893941571
794.602768795
794.182825838
795.208194667
795.1032153
794.90142499
794.615308431
794.220628967
795.211685452
795.104250548
794.898192629
794.61257389
794.252294583
795.209336902
795.098581705
794.885728474
794.593269118
794.258122606
795.202263099
795.087612544
794.866063564
794.560042558
794.216570826
795.198319108
795.082000526
794.855898643
794.541149731
794.183817037
795.20107318
795.085166344
794.858772239
794.542043193
794.17948556
795.214144536
795.100313182
794.876941235
794.563120709
794.204195968
795.244561751
795.136702162
794.923853933
794.621466734
794.27198674
795.282208174
795.181394241
794.982161441
794.696403535
794.362481565
795.309964303
795.21086991
795.014950987
794.732526923
794.403521607
795.329286028
795.229646269
795.032691866
794.747448257
794.414484406
795.343248604
795.242103787
795.042354984
794.751302242
794.408734683
795.358526982
795.256017494
795.05378989
794.7571507
794.402610624
795.37915958
795.275317957
795.070695097
794.767973247
794.395604556
795.409580249
795.304538807
795.097855503
794.789587148
794.392316186
795.449156398
795.343071724
795.134703918
794.823031844
794.392866857
795.485567221
795.378303087
795.167645022
794.854252496
794.408106674
795.509667315
795.400533234
795.18557413
794.867967024
794.421547916
795.519788761
795.40813458
795.186450055
794.859177533
794.409840593
795.519776639
795.405197319
795.174212316
794.828274539
794.361707917
795.513413594
795.397009319
795.159115615
794.794294109
794.299975756
795.499053869
795.381185777
795.138972383
794.762099585
794.242953827
795.477139256
795.357746222
795.112497271
794.730324407
794.200102843
795.455484878
795.335658321
795.089495588
794.70589667
794.173676567
795.439665724
795.320738441
795.076011887
794.693779571
794.162349591
)
;

boundaryField
{
    emptyPatch
    {
        type            empty;
    }
    minY
    {
        type            zeroGradient;
    }
    maxY
    {
        type            zeroGradient;
    }
    minX
    {
        type            zeroGradient;
    }
    heater_to_water
    {
        type            compressible::turbulentTemperatureTwoPhaseRadCoupledMixed;
        refValue        nonuniform List<scalar> 
60
(
374.905819846
373.067762809
373.066196796
357.066309886
357.065091704
337.022583562
337.02180851
326.039079792
321.030766125
321.212104587
321.211866126
329.195248925
329.194986078
371.77247108
371.772481542
497.596500293
537.129808298
534.012031884
534.01265318
512.729780626
512.729888268
493.912818085
493.912497236
493.665952281
505.86342194
512.216661843
512.215287171
529.823320362
529.822812712
546.883674035
546.883583062
550.510375309
557.129088589
558.066710251
558.066814402
564.847801896
564.847910425
568.440685147
568.440759467
572.642457418
541.68074102
405.284950568
405.284614318
340.080760771
340.080638354
325.121870537
325.122049376
319.505354971
320.5328261
330.605909362
330.606656801
346.271187896
346.272145885
345.036356374
345.037081349
334.958896892
327.284961912
323.816756297
323.816923772
322.952744038
)
;
        refGradient     uniform 0;
        valueFraction   nonuniform List<scalar> 
60
(
0.000714866543302
0.000714830414334
0.00071484587258
0.000733565288156
0.000733581132471
0.000747836613606
0.000747852567945
0.000732047313846
0.000716263236098
0.000721012730716
0.000721021165101
0.000742859408865
0.000742866313453
0.000723482384916
0.000723482277985
0.000617347714081
0.000602964664775
0.000603071572045
0.000603069964582
0.000602910921704
0.000602910615346
0.000603053831265
0.000603054833546
0.00060308156392
0.000602660232102
0.000602584028938
0.000602587946823
0.000596554269723
0.000596555591863
0.000591935229499
0.000591935448291
0.000592870741106
0.00059137552854
0.00059276896739
0.000592768727465
0.000591591533719
0.000591591290621
0.000592663536218
0.000592663371687
0.000592275853317
0.000597700155438
0.000685931971658
0.000685934178979
0.000748130897618
0.000748133231763
0.000728084537026
0.000728079165926
0.000707473909057
0.000713390760356
0.000741717724677
0.000741698942912
0.000746718871851
0.000746703032551
0.000747468438311
0.000747456113652
0.000746214697449
0.000734231275664
0.000724878500749
0.00072487319535
0.000723668877433
)
;
        source          uniform 0;
        value           nonuniform List<scalar> 
60
(
793.608174725
793.606875964
793.688692283
793.669075882
793.743145687
793.72192754
793.787510813
793.786695637
793.846628346
793.844511847
793.882611863
793.878212647
793.909779358
793.949598114
793.953324435
794.075842027
794.061211087
794.05930336
794.02655192
794.013761622
794.009680142
793.998292127
794.02311432
794.022957606
794.0981254
794.101975739
794.192454717
794.20466125
794.245422311
794.256743693
794.267524553
794.269443258
794.267767895
794.267993054
794.261708845
794.265998632
794.258731248
794.260614424
794.257010115
794.259586239
794.240961075
794.125105668
794.142715191
794.069731874
794.084107206
794.08232495
794.07052493
794.07622111
794.02589635
794.019945538
793.957988511
793.967357795
793.910019886
793.908753292
793.865949492
793.858986603
793.832452183
793.834304875
793.822970402
793.822911469
)
;
        kappaMethod     solidThermo;
        Tnbr            T.liquid;
        region          solid;
        otherPhase      gas;
    }
    procBoundary0to1
    {
        type            processor;
        value           nonuniform List<scalar> 5(795.427519156 795.309976783 795.067579553 794.687775652 794.1578159);
    }
    procBoundary0to3
    {
        type            processor;
        value           nonuniform List<scalar> 5(794.98476709 794.87557593 794.654615883 794.311762977 793.830136497);
    }
}


// ************************************************************************* //
