/*--------------------------------*- C++ -*----------------------------------*\
| =========                 |                                                 |
| \\      /  F ield         | OpenFOAM: The Open Source CFD Toolbox           |
|  \\    /   O peration     | Version:  2312                                  |
|   \\  /    A nd           | Website:  www.openfoam.com                      |
|    \\/     M anipulation  |                                                 |
\*---------------------------------------------------------------------------*/
FoamFile
{
    version     2.0;
    format      ascii;
    arch        "LSB;label=32;scalar=64";
    class       volScalarField;
    location    "0.915/water";
    object      alpha.gas;
}
// * * * * * * * * * * * * * * * * * * * * * * * * * * * * * * * * * * * * * //

dimensions      [0 0 0 0 0 0 0];

internalField   nonuniform List<scalar> 
6000
(
0.168092356579
0.101563316924
0.0289588555178
0.00746492658903
0.00147140829289
0.000242171450739
3.23712183528e-05
2.59821774802e-06
5.47492754485e-08
4.60427779116e-10
2.11746740228e-12
7.87762549755e-15
1e-15
1e-15
1e-15
1e-15
1e-15
1e-15
1e-15
1e-15
0.610751264242
0.254640107338
0.105783858315
0.0364667196741
0.0118996253191
0.00332000964755
0.000782611936667
0.000143078498821
1.50273087294e-05
3.5212824873e-07
1.10040130316e-09
1.73537711877e-12
2.97901451704e-15
1e-15
1e-15
1e-15
1e-15
1e-15
1e-15
1e-15
0.613294019074
0.339795099144
0.166496132298
0.0711087197234
0.0279065424232
0.00965900633306
0.0028217808501
0.000658439824155
0.000101726617716
5.84616821304e-06
2.74893296314e-08
3.64490709832e-11
3.8737624798e-14
1.00053532238e-15
1e-15
1e-15
1e-15
1e-15
1e-15
1e-15
0.613295062351
0.418976160852
0.242689815113
0.122956047013
0.0555055905531
0.0218604676038
0.00726041918502
0.00194795353956
0.0003758062528
3.67045725309e-05
5.99117560935e-07
7.19873311862e-10
5.76263619212e-13
1.33338559914e-15
1e-15
1e-15
1e-15
1e-15
1e-15
1e-15
0.600303355455
0.467213394636
0.321739859301
0.194461297811
0.102831620842
0.0463231249298
0.0172097745979
0.00506800662679
0.00110237338242
0.000141983279175
5.60950101905e-06
1.06287892734e-08
7.56434426801e-12
5.11954607118e-15
1.00006058416e-15
1e-15
1e-15
1e-15
1e-15
1e-15
0.574130755367
0.483145997533
0.380609591871
0.27031856891
0.169092455043
0.0899596613962
0.0389445503643
0.012966002563
0.00310175088708
0.000463975059229
2.92576777237e-05
2.02181007387e-07
1.2111095731e-10
5.73641265363e-14
1.01838423096e-15
1e-15
1e-15
1e-15
1e-15
1e-15
0.548003645421
0.480184534529
0.412778557071
0.331260481604
0.239193560155
0.149517471593
0.0773190868342
0.0308303973141
0.00860900942673
0.00148069556377
0.000121486132005
2.24033503273e-06
1.47858038608e-09
5.86058756943e-13
1.18046174259e-15
1.00088759455e-15
1.00052861826e-15
1.00027641296e-15
1.00003883758e-15
1e-15
0.53460466921
0.476666023274
0.427693115223
0.370123534922
0.295081076351
0.209774758364
0.127817052657
0.0622945092106
0.0216473769326
0.00458354548886
0.000474850200265
1.55841659463e-05
1.92722310518e-08
4.84545194381e-12
2.09701448266e-15
1.00181093203e-15
1.00134118424e-15
1.00106989683e-15
1.00080919522e-15
1.00034731816e-15
0.525712483017
0.477307084092
0.443052918667
0.398895603812
0.336544525286
0.26080752338
0.180531679538
0.105410632075
0.0463232644427
0.0128263354356
0.00177931900462
9.00113741839e-05
6.99505047349e-07
7.27934509559e-11
1.12109289614e-14
1.0026053157e-15
1.00088887234e-15
1.00075547531e-15
1.00059158461e-15
1.00050292684e-15
0.528653338943
0.487915702566
0.462156555726
0.424720785437
0.370285603577
0.303115885152
0.229789933595
0.154448443145
0.0837905326878
0.0308586060207
0.00605847557411
0.000478028277322
9.8450207519e-06
1.60679123902e-09
2.09537890931e-13
1.03355072429e-15
1.00055304149e-15
1.00053469107e-15
1.0005163388e-15
1.00050002265e-15
0.563735961056
0.512192114516
0.482552839322
0.44937695901
0.40214953002
0.342132368473
0.275291423944
0.204190548274
0.13099316453
0.0629106721561
0.0178876965848
0.00227247123585
9.29756107491e-05
5.5616273627e-07
2.78922559101e-11
5.72229132226e-15
1.0005711021e-15
1.00055279801e-15
1.00053459867e-15
1.0005163388e-15
0.593140248603
0.526824674982
0.496345369367
0.470326686768
0.432239654753
0.379336020004
0.317254376884
0.251205330546
0.181813210005
0.108890203952
0.0440318172391
0.00899730162266
0.000678295230155
1.26298239154e-05
4.80465172254e-09
8.23368506416e-13
1.21370040459e-15
1.00056814747e-15
1.00055025618e-15
1.00053358752e-15
0.590616000693
0.527459992525
0.498608057632
0.477493640264
0.447620972282
0.403938838855
0.349314870215
0.289843227912
0.228424395518
0.161640356072
0.0875550999393
0.0275561628641
0.00358529459946
0.000134852821952
8.06829729652e-07
1.25244531864e-10
3.81752058797e-14
1.00820408903e-15
1.00055679599e-15
1.0005408068e-15
0.594811057651
0.524832579916
0.501384978645
0.47861170068
0.448004415643
0.406638813243
0.361390022587
0.313400907836
0.26452692893
0.210957458253
0.141440614943
0.0628147369761
0.0130821948005
0.00088465190857
1.32576630454e-05
7.54982169383e-09
2.22037858857e-12
1.81150854282e-15
1.00289387754e-15
1.00163807288e-15
0.590843467307
0.51801622524
0.501607439348
0.477854546965
0.44484794733
0.402670950592
0.359353510499
0.32214103313
0.287500712783
0.249104405233
0.191619395786
0.108259588014
0.0328876703781
0.00363217987767
9.85081705165e-05
3.68056439542e-07
6.43184732417e-11
3.51549388011e-14
1.02306304825e-15
1.00837074087e-15
0.594694695897
0.506717332633
0.496316073373
0.471142091299
0.433934346061
0.390102474596
0.350346468193
0.320750491651
0.299534023686
0.273874716747
0.227470461476
0.149016825784
0.0596319224807
0.00978008146469
0.000421233168194
3.23324393867e-06
1.25915258512e-09
5.6585738357e-13
1.2547470516e-15
1.01414122531e-15
0.590616000693
0.492534423329
0.480052328576
0.452597766017
0.412654889849
0.368745954074
0.335263796731
0.317254773905
0.30597994434
0.288008396608
0.248570786701
0.177252063471
0.0850632135903
0.0186986008199
0.0011678672971
1.39332639033e-05
1.58822690518e-08
6.5438047304e-12
3.32045723703e-15
1.01704603679e-15
0.592721989931
0.478107698487
0.454215362225
0.423078202812
0.384454706744
0.346163886041
0.323108578693
0.315766055737
0.310667093497
0.297093866895
0.262648719576
0.197621620243
0.106251406297
0.0288005304114
0.00242418846541
4.09325085609e-05
8.58242426223e-08
3.31252232968e-11
1.00280264122e-14
1.01726025653e-15
0.590478176243
0.467475294906
0.436223131046
0.401385505013
0.366569075397
0.336775698378
0.321642741616
0.318208752306
0.317137018516
0.307341357002
0.278155735584
0.219389799832
0.128735134797
0.0413429998442
0.00458711960096
0.000112570499836
4.13436330919e-07
1.12408715217e-10
1.93815776885e-14
1.01319601506e-15
0.589105239723
0.461214865088
0.433681865609
0.400691556285
0.366950355315
0.339145244548
0.326957374148
0.327977178291
0.329491537793
0.323676582284
0.301718965693
0.251991750926
0.164114529378
0.0636670730995
0.00975047907998
0.000386279774274
2.84034189115e-06
1.77630280404e-10
1.46844809657e-14
1.00627644822e-15
0.567222524359
0.458157142795
0.440017999277
0.413521039201
0.381952204003
0.355718395025
0.3456475096
0.346577098689
0.347189469686
0.342528353467
0.329174843726
0.298292901436
0.224917458203
0.111356860764
0.0250092138891
0.00169626299279
2.51632393412e-05
1.65301921607e-08
1.08855176133e-13
1.04249196052e-15
0.542890293102
0.469050673235
0.470000433
0.456280970209
0.424561878969
0.392285695244
0.375164784632
0.367466536127
0.359245579006
0.346042873668
0.338359913788
0.335244013763
0.301322700199
0.195777647579
0.0662442974912
0.00772256153988
0.000227528145328
1.11360789719e-06
2.39265632117e-11
3.23389902878e-15
0.548475603831
0.513621046362
0.527287213829
0.520653794469
0.48347722476
0.437050318657
0.404665175049
0.382743232016
0.360257115404
0.342236282022
0.336638169112
0.3364986314
0.336110033352
0.279985631307
0.142004292579
0.0286042993771
0.00160644698366
1.9875389346e-05
7.08957583883e-09
2.57686869597e-13
0.57386413194
0.573267346775
0.587595073135
0.577605573618
0.535403428795
0.477468763098
0.429221298086
0.391983799911
0.357439721037
0.329687633336
0.324765916576
0.333917337861
0.336017959839
0.324482542289
0.22186818166
0.0724769546381
0.00747098359584
0.000183582987025
6.31756135605e-07
1.09199648223e-11
0.606054758368
0.610178919214
0.61997521619
0.609289140476
0.570445195394
0.508413443685
0.447962229162
0.396164002148
0.349868063563
0.310335225415
0.304517097653
0.319750711275
0.335041991604
0.33117785338
0.267282946075
0.125303471267
0.0219476489153
0.00099395883338
8.75957938554e-06
2.42473014209e-10
0.629120048182
0.622586114721
0.626019909391
0.621596605623
0.590106708542
0.527561125648
0.458712088966
0.395870196081
0.338051854327
0.296833389336
0.295761065059
0.30186068059
0.323434110057
0.327381405214
0.285627632211
0.167014147108
0.0435818568331
0.00323846621869
4.97738429759e-05
3.17205507977e-08
0.650161584914
0.626384391723
0.626188521851
0.624756339849
0.597040246913
0.534802622554
0.460726372483
0.389922445158
0.32192230923
0.295761065059
0.295506674985
0.295761065059
0.303239291499
0.31641972309
0.291684417532
0.196280412407
0.0670880416337
0.0072728238156
0.000169048651429
5.21596128553e-07
0.661664461081
0.625919430966
0.625995100098
0.624112434726
0.596328482718
0.533973840806
0.456638227324
0.375479549544
0.304949122465
0.295514437051
0.295761065059
0.295213892924
0.295770629801
0.30248047728
0.295786663441
0.222117360492
0.091292932959
0.0131804253279
0.000432728193008
2.53227183447e-06
0.663085928392
0.621942823129
0.6258089702
0.621000168845
0.590067415428
0.525120033494
0.441385321851
0.353623007375
0.296232735597
0.295761065059
0.295010448539
0.295761065059
0.295032891605
0.295761065059
0.305703039765
0.250888288266
0.119138342008
0.0220238659374
0.00101015197643
8.94303546065e-06
0.668557862627
0.614498104851
0.622638586778
0.612760177037
0.574854954282
0.504250238667
0.415350369274
0.327806557808
0.295761065059
0.295193368166
0.295761065059
0.294542828728
0.295761065059
0.295044071328
0.333571452289
0.287493886741
0.153987686598
0.0362694264821
0.00234159069019
2.94866140609e-05
0.66539353613
0.605082178611
0.612967299154
0.598394904317
0.552067056571
0.474751093895
0.384245206647
0.305613582151
0.295455670513
0.295761065059
0.294501413088
0.295761065059
0.294152391413
0.30265680743
0.356948460349
0.319384935704
0.19579009815
0.0586931141431
0.00526561170468
9.22595371236e-05
0.669992996921
0.593648776389
0.597479687386
0.577984473716
0.524150017529
0.441360920287
0.352424105111
0.296005976632
0.295761065059
0.294752871201
0.295761065059
0.293955790359
0.295761065059
0.321851459863
0.358080745451
0.339243869254
0.235693496844
0.0874134277006
0.0106701109199
0.000262191994971
0.666253426989
0.581155421012
0.575814473163
0.549405330458
0.490425359755
0.406133222018
0.322310233898
0.295761065059
0.295037662283
0.295761065059
0.294052514741
0.295761065059
0.293787837079
0.342330292434
0.358364705308
0.349380419922
0.264005271204
0.116033681871
0.0188677646918
0.000660316962461
0.671946429784
0.566814365265
0.55209852612
0.515123522576
0.451725150249
0.370822621637
0.300576615876
0.295342665672
0.295761065059
0.294226831225
0.295761065059
0.293765997621
0.299998721722
0.357868041424
0.358080745451
0.352931837137
0.280696078569
0.140691333474
0.0295611553725
0.00146061123332
0.666798501614
0.549688069859
0.526119418388
0.478566684896
0.411433733026
0.338237494473
0.295656242148
0.295761065059
0.294454306652
0.295761065059
0.293765997621
0.295761065059
0.331970390281
0.358080745451
0.358265176746
0.353993468256
0.292697755888
0.163716173006
0.0427066269109
0.00283998275518
0.671459669072
0.527870138894
0.495371144409
0.441342661177
0.375937599346
0.315973775305
0.295761065059
0.294691739833
0.295761065059
0.293770746741
0.295761065059
0.29975500576
0.352510073563
0.358259522188
0.358080745451
0.355089368619
0.307677600991
0.191397128614
0.0594171080002
0.0049857947636
0.666798501614
0.498680128528
0.45679555868
0.403622428074
0.351027079192
0.311218933946
0.295212451911
0.295761065059
0.294126054374
0.30064087825
0.304800455953
0.323422063164
0.343250886813
0.349631263971
0.354138977551
0.358112502017
0.330125938946
0.22762757798
0.0813018677253
0.00827652031258
0.669835786345
0.457950334517
0.410739301968
0.368066651478
0.340156580361
0.318863438098
0.313149925728
0.319389707819
0.328673107006
0.32435255189
0.312318801801
0.311251543734
0.314472726802
0.325369822425
0.344022799635
0.364198044761
0.356042091136
0.267956660644
0.109281086493
0.0136399980978
0.666057052131
0.409053206195
0.376888482704
0.354660714768
0.346190856381
0.347643679484
0.354465721676
0.353917409189
0.341449931614
0.320252755825
0.295746121505
0.280882192817
0.283323735393
0.302324551779
0.339198630186
0.371319095356
0.376322788948
0.303473175664
0.144172284158
0.0228292317619
0.633687761478
0.371442932881
0.369200494584
0.361713499565
0.372554884442
0.376312030825
0.3688750224
0.353654089479
0.329869792335
0.294879703486
0.264931577489
0.256147204977
0.264829360369
0.294819951395
0.341047687284
0.376450531632
0.385829669462
0.33257547645
0.185771344972
0.038361171942
0.524345860315
0.370148883982
0.369674483932
0.389244920855
0.393559365048
0.378930195373
0.359983818368
0.333503726697
0.296576991506
0.259982549594
0.241080299844
0.240950703088
0.256182010071
0.29485913487
0.345494696632
0.379018938063
0.385826719216
0.356281245999
0.230260011227
0.0634670789684
0.425063634611
0.371311830745
0.407319209308
0.424556305613
0.393691563518
0.358498057584
0.327317888393
0.293492815362
0.259780620095
0.237429502938
0.229575307472
0.231444081038
0.2491232508
0.292904705131
0.346324114824
0.378919101349
0.385834508392
0.375890760631
0.272519735006
0.101367729912
0.431159693778
0.477915557257
0.49047854201
0.450316733379
0.381250675563
0.325693477616
0.28801704405
0.259313302221
0.238118085475
0.228370133631
0.226593508209
0.227118855928
0.238041858627
0.28043633259
0.339565332557
0.376335821427
0.385850618818
0.385850086733
0.309307070246
0.152445018918
0.560544846228
0.663199097631
0.59802890865
0.518428251884
0.416416226074
0.334935833016
0.282247269214
0.249654426666
0.231398444441
0.226184476467
0.22621100736
0.226186088059
0.227835652118
0.252685730865
0.3166681185
0.367389109891
0.385935925797
0.388141563665
0.340636005277
0.211395871159
0.75731403419
0.774374238982
0.715328117608
0.658405715699
0.577086283019
0.456045418658
0.33275352693
0.262708547205
0.232167185227
0.22621100736
0.225998667816
0.22621100736
0.226171254005
0.22984017888
0.277467750202
0.34652209359
0.381284585055
0.388604754236
0.367502693385
0.269130819668
0.841962075144
0.805656926333
0.775616327535
0.752463774446
0.719228407415
0.642383033208
0.487019508215
0.335470604538
0.251243747739
0.225789313772
0.22621100736
0.225942367124
0.22621100736
0.226163889362
0.237014856558
0.309891293417
0.366620013565
0.389176617243
0.397526837963
0.318501821682
0.841764641876
0.811879793919
0.794609930331
0.781658433291
0.762217168574
0.719633920001
0.616460989878
0.448151861237
0.308607435445
0.2289821768
0.225689069708
0.22621100736
0.225935598262
0.22621100736
0.226096919108
0.2655259989
0.339583306974
0.391229287401
0.399868041842
0.352805559295
0.845035734362
0.813726164828
0.800784246167
0.789167998845
0.771292657092
0.735320522851
0.661486074871
0.523302187257
0.371711607249
0.252968409289
0.22621100736
0.225568931708
0.226139681022
0.225646602474
0.22621100736
0.226485429863
0.302923489236
0.384870741914
0.399635008112
0.372385721181
0.842229322407
0.814167099946
0.802965841541
0.791295124061
0.773457667255
0.738522986708
0.671518615571
0.553009243864
0.407782154117
0.277791588921
0.225573321553
0.226049158827
0.225174735397
0.226139681022
0.225262092541
0.22621100736
0.263092932045
0.364411439999
0.399866226147
0.382466855727
0.845612005549
0.813302993809
0.803128511443
0.790997280419
0.77273216929
0.737590849736
0.671506908209
0.559089227631
0.419738618904
0.288035324144
0.226049158827
0.225267728884
0.226013401713
0.224907964706
0.226094752219
0.224921538363
0.234092385713
0.33655835156
0.399635008112
0.388202992441
0.842988177748
0.809931024233
0.800892064588
0.787116418598
0.767060500745
0.730132910334
0.66339436823
0.554282307028
0.41805153708
0.287203777418
0.225910856743
0.22584630445
0.225121555453
0.225997172515
0.224722857046
0.226042079484
0.22515270851
0.310225017744
0.398612801331
0.392463951706
0.845237473969
0.803826241452
0.793000408445
0.776029400771
0.752560927093
0.711482892826
0.640398687595
0.532629273137
0.400476889695
0.274746566521
0.225948377094
0.225492378228
0.225832974114
0.225027098851
0.22591026779
0.224588044908
0.226042079484
0.29577860001
0.394948777453
0.398420375135
0.84262457492
0.796314541167
0.777675082067
0.756465146587
0.728593699426
0.681543573742
0.603266366102
0.492708013687
0.363226993353
0.251205771983
0.225712652734
0.225832974114
0.225154368873
0.225832974114
0.224904426302
0.22584630445
0.22458728841
0.291723906629
0.3936158201
0.406077636911
0.845361954129
0.784943727187
0.754300004363
0.728449097423
0.695409447725
0.64015236081
0.553378457141
0.438541088404
0.313271418671
0.230991575631
0.225832974114
0.225273732931
0.225832974114
0.224957619584
0.225832974114
0.224712245738
0.22584630445
0.294611307308
0.395183467524
0.406287640987
0.842204656783
0.763697622094
0.721619238444
0.690979751194
0.650278786339
0.584000289611
0.488079718787
0.37081013845
0.260688310277
0.225832974114
0.225439205447
0.225832974114
0.224963484334
0.225832974114
0.224873199383
0.225832974114
0.224602292538
0.307732193402
0.395636015581
0.406077636911
0.84489091897
0.719128870481
0.67673549292
0.639117142433
0.586468146823
0.507184643825
0.403714557607
0.293088315351
0.228769956456
0.22560048511
0.225832974114
0.225001031382
0.225832974114
0.224881580072
0.225832974114
0.224734497482
0.23658852188
0.321526839439
0.393939122564
0.406207897167
0.841666935278
0.650137128037
0.611845457699
0.561904958429
0.495144155914
0.40546092153
0.304910728597
0.234237713663
0.225650194943
0.225832974114
0.2250111714
0.225832974114
0.224871912409
0.225832974114
0.224830090199
0.225832974114
0.253633460952
0.330432606649
0.389591419398
0.406077636911
0.844326834262
0.570630200599
0.516965973269
0.449828915795
0.374013782408
0.289889314957
0.233045503683
0.225629984771
0.225832974114
0.224957192712
0.225832974114
0.224819961366
0.225832974114
0.224820794971
0.225832974114
0.224989736408
0.269120186006
0.331653194694
0.383265425885
0.405759456104
0.841350332194
0.485312505759
0.398913204267
0.314551635888
0.254740872547
0.227254170981
0.225536275652
0.225832974114
0.22473073729
0.225832974114
0.22465486532
0.225832974114
0.22481801936
0.225832974114
0.225016804568
0.231276562386
0.271766145101
0.324485792649
0.374076381184
0.40376880408
0.841721251597
0.388146470873
0.279378365641
0.228179535795
0.225832974114
0.224888621736
0.225832974114
0.224034267064
0.225832974114
0.22423739447
0.22585390931
0.224713828679
0.225832974114
0.225018857226
0.225832974114
0.235494192262
0.261606785839
0.302570133503
0.356924025693
0.397691011113
0.797173005913
0.275009710027
0.226034251062
0.225832974114
0.223921132356
0.225832974114
0.222801475696
0.225832974114
0.223197518124
0.225832974114
0.224206063775
0.225832974114
0.224879328671
0.225832974114
0.225952131657
0.234546607263
0.239727534205
0.267373421145
0.326083333664
0.384281646918
0.681306376084
0.225400225605
0.225832974114
0.223155418597
0.225832974114
0.221643197969
0.225832974114
0.221869696867
0.225832974114
0.22343868971
0.225832974114
0.224641226297
0.225832974114
0.225333469098
0.22834787612
0.228508755458
0.224251761499
0.233658598335
0.281598771848
0.359056132498
0.557885897466
0.258457624832
0.231932952469
0.225832974114
0.221740400918
0.225832974114
0.221545491675
0.225832974114
0.223007215627
0.225832974114
0.225161710059
0.225832974114
0.225437054216
0.228311146698
0.228281840844
0.225183527791
0.221477068982
0.221362475784
0.238233840726
0.318588623266
0.557879050828
0.437547373145
0.380975100874
0.341360462686
0.320047490659
0.309320062516
0.301336824774
0.282056830813
0.261105355421
0.243175412493
0.232926296551
0.227511759921
0.226105572204
0.227030681152
0.226808219186
0.224202869324
0.221389464198
0.22111188118
0.221328652017
0.266821149047
0.66609376041
0.707365741041
0.664142119296
0.619960735154
0.586270765751
0.562458817141
0.51866659227
0.443902192072
0.358016604262
0.290229537705
0.250426943929
0.23113115779
0.224387420072
0.223168153436
0.223605909533
0.223486150637
0.221430940465
0.22103555183
0.221068300698
0.226588781011
0.814863809379
0.835170928761
0.81009742616
0.781027161218
0.756723009681
0.734960177886
0.696246584943
0.621814831202
0.512189832103
0.393398818483
0.299586849116
0.242819399665
0.222371365232
0.221350427089
0.22173388017
0.222484895084
0.221611209726
0.221068300698
0.220861698464
0.221032004209
0.859290351143
0.849574747437
0.834275496482
0.808072586615
0.786885402649
0.767036055848
0.737463464205
0.683882774528
0.595373535734
0.48274506365
0.368603855029
0.271804407621
0.221605006499
0.221119243514
0.221215296617
0.22153491842
0.221605331511
0.220992364814
0.221032004209
0.220677152126
0.85890293172
0.84967829466
0.834612835112
0.807876341594
0.786401402952
0.765934216167
0.736278281693
0.685141303929
0.60294751495
0.500620639438
0.392318715655
0.288743871764
0.22263729239
0.22111188118
0.221056530841
0.221146339716
0.221443163583
0.221032004209
0.220790453296
0.221002962735
0.859660987248
0.845413781268
0.827343779248
0.799364308497
0.777113322504
0.754492560811
0.721356978231
0.667310741167
0.587692256945
0.490626680988
0.38559258621
0.283754255601
0.222404664606
0.220995536573
0.221068300698
0.2209781757
0.221154512279
0.221131858428
0.221002962735
0.220648330226
0.85890293172
0.831292915716
0.808855893909
0.782274658016
0.761017853575
0.736482600901
0.696914563766
0.632664620805
0.548134368281
0.452756068789
0.350447944648
0.256566112409
0.221081926385
0.221068300698
0.220814405957
0.221032004209
0.220940004069
0.221057799381
0.220894991875
0.2209700668
0.857376804303
0.808924332941
0.785963466053
0.765495154071
0.748544010065
0.724380528698
0.67985219387
0.605348314473
0.509569176671
0.40537184126
0.299955084069
0.227683557492
0.221068300698
0.22074959602
0.221032004209
0.220666025749
0.221002962735
0.220903137376
0.2209700668
0.220686478791
0.832629988636
0.78483760627
0.765939728024
0.753648858284
0.742035989674
0.71927067453
0.671769976371
0.591084865761
0.486246232873
0.371747104895
0.264484010333
0.221143436814
0.220861466405
0.221032004209
0.220502560936
0.221002962735
0.220605962374
0.220980219635
0.220825512884
0.220942451787
0.793401511788
0.762241139977
0.748373403312
0.743610907223
0.736471559474
0.714612828636
0.664259968647
0.579375584324
0.46923948817
0.349214563233
0.246459073675
0.220977128836
0.221032004209
0.220498239079
0.221002962735
0.220357464153
0.2209700668
0.220593383498
0.220949400262
0.220699380219
0.781762387793
0.736508475647
0.726376276459
0.728495432349
0.725252275128
0.703802692653
0.649742249077
0.560916996077
0.447554453473
0.326085353071
0.234010705541
0.221032004209
0.220573511155
0.221002962735
0.220238905894
0.2209700668
0.220319689678
0.220942451787
0.220600625027
0.220920258255
0.781347766444
0.682674485482
0.689402553154
0.699452218346
0.69892656947
0.676984091122
0.618778494522
0.526559199341
0.411789541483
0.293303950423
0.223826570237
0.220781304189
0.221002962735
0.220249800513
0.2209700668
0.220190892355
0.220942451787
0.220394358181
0.220919619254
0.220604614544
0.780916324161
0.577979070494
0.626521480849
0.644842480042
0.64534636339
0.621550119928
0.560331846152
0.466835933906
0.353900304365
0.249675781799
0.220909381352
0.221002962735
0.220312740714
0.2209700668
0.220173471059
0.220942451787
0.22024647811
0.220919619254
0.22051644193
0.220893091632
0.780477728244
0.466367193533
0.536776994971
0.553396083842
0.552666813798
0.526330794078
0.465558170161
0.375439226545
0.274870992108
0.221897009596
0.221032004209
0.220379711616
0.221002962735
0.220186473109
0.2209700668
0.220215548504
0.220942451787
0.221233000851
0.225290398145
0.223004887769
0.770797612978
0.420026354268
0.437807165031
0.435742049526
0.426041571635
0.395230548979
0.339597003488
0.266580668918
0.222705940192
0.221068300698
0.220292026121
0.221032004209
0.220077696293
0.221002962735
0.220304320613
0.223083275951
0.229902971779
0.23563516573
0.235287884335
0.229118484988
0.708774514942
0.42035033928
0.394829930974
0.359225292679
0.324626794047
0.284109381567
0.239964750958
0.221023809
0.22111188118
0.219931034265
0.221068300698
0.219895270176
0.222953809366
0.232403732433
0.236406245837
0.239376001617
0.239827236208
0.239784097725
0.236082714726
0.229658094019
0.625882249421
0.448574580128
0.407984221021
0.363208375291
0.318709588412
0.27274935893
0.233475962705
0.221143570819
0.22059223424
0.226571059106
0.238061682572
0.253450341743
0.265623225486
0.262927568827
0.250539540945
0.24030000561
0.238282402223
0.236615687471
0.232847569285
0.228295116002
0.614951593311
0.536736057728
0.488413744518
0.433883138924
0.376018763443
0.326505641632
0.295653661027
0.294343029604
0.312025594527
0.33896335862
0.357148783987
0.356504112372
0.328796725144
0.287337689812
0.250748008218
0.233542801742
0.229419438245
0.22798113943
0.226613130083
0.224985773098
0.664562086971
0.679488399273
0.651418778066
0.606470563497
0.5584100796
0.526224348822
0.519654351648
0.537490406554
0.568521169086
0.588430217459
0.560483165264
0.494226838285
0.407945463249
0.321620449645
0.253699581782
0.224123446828
0.221223736183
0.221180922363
0.221428333414
0.221303091561
0.772618695285
0.787949379793
0.761302468654
0.741201075509
0.731389443522
0.732442451767
0.743429614298
0.758187527795
0.769965940484
0.761234768342
0.701536144963
0.602847123066
0.487552667411
0.371087724951
0.267681271524
0.220462785044
0.220035578362
0.220061945562
0.220022410681
0.220061945562
0.844048159094
0.807636668444
0.77818910375
0.771880268484
0.77977973473
0.7969651763
0.811657754884
0.815991220486
0.816219291759
0.796857075247
0.736059839097
0.63726638142
0.517607792351
0.392791384004
0.275884964759
0.220056172968
0.220061945562
0.219887124634
0.220061945562
0.219902263182
0.844684377987
0.793669447247
0.774947492995
0.771128554524
0.782015238189
0.801394965301
0.81586603402
0.816900603349
0.816787840243
0.795024098986
0.733491305046
0.634798243758
0.51496897892
0.388623677114
0.270291519049
0.220061945562
0.219832550258
0.220061945562
0.219652378228
0.220061945562
0.83299805771
0.756264058832
0.760347782699
0.76249081511
0.777346442118
0.796394042543
0.808814397683
0.810304132169
0.804901784265
0.775832540656
0.708215799667
0.607280482433
0.487265898244
0.358438192184
0.245685558033
0.219910716686
0.220061945562
0.219464398428
0.220061945562
0.219440621848
0.767366479788
0.711599509352
0.736997537539
0.749205888744
0.764406264307
0.778051162564
0.783539872427
0.781046009406
0.766040793267
0.72393349731
0.645456717784
0.541192099554
0.419968758005
0.293193916028
0.221323436374
0.220061945562
0.219461626409
0.220061945562
0.219168829322
0.220061945562
0.682936416561
0.670280928443
0.711795105186
0.738275564698
0.744788318692
0.744945853425
0.735170549326
0.71967066053
0.692009774106
0.636244393231
0.549778966949
0.443144936584
0.32275740476
0.230373412648
0.220061945562
0.219521306736
0.220061945562
0.21900626651
0.220061945562
0.219085815522
0.637127698502
0.640035113364
0.683957378733
0.728118149021
0.721004793136
0.692444577469
0.652873918281
0.622906515427
0.585108612256
0.519635654699
0.430381114074
0.326868597499
0.237290394613
0.220061945562
0.219552502969
0.220061945562
0.21895448827
0.220061945562
0.218974386577
0.269289045565
0.637562364007
0.635506291333
0.650018521354
0.714386161859
0.696365801194
0.606330314982
0.529539228115
0.492732569362
0.450267490014
0.382562321629
0.302051146319
0.235210143423
0.220060389271
0.219586312299
0.220061945562
0.21895448827
0.220061945562
0.21890522864
0.282132645524
0.338698709052
0.632215265451
0.637562364007
0.634994595771
0.699679414994
0.683299808822
0.507617143557
0.3831425125
0.342702986729
0.307013548653
0.259350386001
0.225444703525
0.220060389271
0.219596530065
0.220060389271
0.21895448827
0.220061945562
0.223300605549
0.301069533221
0.346501423498
0.346676751466
0.637562364007
0.630634032727
0.637562364007
0.69051904229
0.680991874203
0.503245182327
0.31831134084
0.250948053635
0.225211629579
0.220053253748
0.220060389271
0.219581193471
0.220041670054
0.21895448827
0.220060389271
0.234977267724
0.32100929566
0.369635431928
0.352511685663
0.345457140522
0.630912000119
0.637562364007
0.631530993538
0.706576849023
0.685381022793
0.547540505132
0.3504522947
0.25827903635
0.223934900226
0.220060389271
0.219521044898
0.220041670054
0.21895448827
0.220041670054
0.260256577176
0.359686587873
0.416610308997
0.374297437045
0.345976550683
0.339677009747
0.65083539333
0.672861170439
0.707316518312
0.740740820829
0.7129914133
0.638512546814
0.495245001979
0.36649665206
0.29108924015
0.253193073584
0.239006664728
0.234174240329
0.246094007501
0.304265973973
0.414149663384
0.482099403909
0.442760260946
0.369898826842
0.334080491636
0.333013097196
0.778164347898
0.781478729083
0.786046161879
0.77701267137
0.75793610389
0.732009030388
0.677792304225
0.590906091436
0.499285344896
0.426954967548
0.385436250516
0.372961616798
0.400322147103
0.481031190917
0.540500193611
0.530151798055
0.45788182944
0.371403497355
0.3237330246
0.325837574415
0.850989407775
0.825411588833
0.808167972657
0.797982664744
0.791471275433
0.78667405306
0.775863776754
0.749895485074
0.707201910606
0.657939842141
0.617121824655
0.594617757388
0.59429556085
0.606115362452
0.59544643804
0.553294766742
0.478935028013
0.385280943296
0.32121023987
0.317238878859
0.852880103674
0.8294053191
0.811690939257
0.804553855677
0.803166789548
0.802687218564
0.801138133852
0.795841858038
0.78419140481
0.765891312237
0.743157861967
0.718353031513
0.691876860688
0.660536375885
0.622708478269