/*--------------------------------*- C++ -*----------------------------------*\
| =========                 |                                                 |
| \\      /  F ield         | OpenFOAM: The Open Source CFD Toolbox           |
|  \\    /   O peration     | Version:  2312                                  |
|   \\  /    A nd           | Website:  www.openfoam.com                      |
|    \\/     M anipulation  |                                                 |
\*---------------------------------------------------------------------------*/
FoamFile
{
    version     2.0;
    format      ascii;
    arch        "LSB;label=32;scalar=64";
    class       surfaceScalarField;
    location    "0.785/water";
    object      phi.gas;
}
// * * * * * * * * * * * * * * * * * * * * * * * * * * * * * * * * * * * * * //

dimensions      [0 3 -1 0 0 0 0];

oriented        oriented;

internalField   nonuniform List<scalar> 
2928
(
3.46569456401e-07
3.13788761758e-07
2.39124274948e-07
2.09161817707e-07
3.15173163979e-07
1.92288861052e-07
2.91642947447e-07
1.81708370132e-07
3.04416544693e-07
1.83983154655e-07
2.95346277066e-07
1.88117454619e-07
2.48143650855e-07
1.94529291453e-07
2.03458319773e-07
2.1197333124e-07
2.15335993009e-07
3.43501430823e-07
1.84292971475e-07
4.23233671358e-07
1.64732673455e-07
4.48941453228e-07
1.45342642072e-07
4.7291457166e-07
1.27085886112e-07
4.98136561523e-07
1.09654823127e-07
5.24598937319e-07
9.29266435235e-08
5.52338178272e-07
7.6808415547e-08
5.81361374586e-07
6.12355625258e-08
6.1166713302e-07
4.61805068554e-08
6.43253024699e-07
3.17195513837e-08
6.76118981563e-07
7.10276976811e-07
1.80392582598e-08
1.3988442518e-07
3.32280128807e-07
2.42732980233e-07
2.62404264388e-07
2.39893493401e-07
2.40600946757e-07
2.73963536094e-07
2.33783981659e-07
2.7539849547e-07
2.34553134989e-07
2.79471633331e-07
2.4068109464e-07
2.66686779369e-07
2.49752162872e-07
2.3662020231e-07
2.63267744298e-07
1.20705053786e-07
3.16177055824e-07
5.1100525421e-08
3.61932790441e-07
4.28628408962e-08
3.76294797633e-07
3.68756416948e-08
3.92981092719e-07
3.15882246393e-08
4.10664162072e-07
2.67614019497e-08
4.29335184301e-07
2.22688905633e-08
4.49048530696e-07
1.8070586319e-08
4.69879915773e-07
1.41546418748e-08
4.91906548071e-07
1.05056185706e-08
5.15201770053e-07
7.10447722684e-09
5.39836016009e-07
5.65881923634e-07
3.95911618947e-09
1.5724139443e-07
4.05358936e-07
2.02861077374e-07
3.19848843704e-07
2.15032141838e-07
2.86228106072e-07
2.32635887367e-07
2.74425173847e-07
2.40348409004e-07
2.73064196632e-07
2.4321901474e-07
2.77096575045e-07
2.40619913569e-07
2.84740363059e-07
2.25702719684e-07
2.96362333925e-07
1.69563071768e-07
3.28127695491e-07
4.61722034187e-08
3.68353292342e-07
2.95342858513e-08
3.90920474384e-07
2.68526666413e-08
4.09146201298e-07
2.40543951949e-08
4.28303533965e-07
2.13132744048e-08
4.48447660158e-07
1.85361613447e-08
4.69590287209e-07
1.56495916205e-08
4.91787981443e-07
1.26412393379e-08
5.1512050834e-07
9.53465417082e-09
5.39677025686e-07
6.38382822821e-09
5.65549698216e-07
5.92834020761e-07
3.32082048309e-09
2.17896922484e-07
4.39561872446e-07
2.34236001215e-07
3.67957120041e-07
2.37824448152e-07
3.21810755968e-07
2.40910072349e-07
3.0401126861e-07
2.37663910232e-07
2.99196789646e-07
2.31744455878e-07
3.0119826543e-07
2.237959498e-07
3.07209836546e-07
2.1117659424e-07
3.16753936317e-07
1.84877777665e-07
3.37030353792e-07
8.52608545919e-08
3.65221741151e-07
1.63253243098e-08
3.88927888664e-07
1.51657159181e-08
4.07384869561e-07
1.3927795814e-08
4.26607380615e-07
1.25154208163e-08
4.4683047006e-07
1.10268861841e-08
4.68043149891e-07
9.41012488844e-09
4.90279564602e-07
7.61164060967e-09
5.13605755774e-07
5.61275231595e-09
5.38108091815e-07
3.44751946689e-09
5.63885031974e-07
5.9104334458e-07
1.26373753649e-09
2.57892362939e-07
4.5795761547e-07
2.71907344007e-07
4.03047093627e-07
2.66134449386e-07
3.54311481487e-07
2.62572350558e-07
3.28596778603e-07
2.52953138789e-07
3.19951566255e-07
2.3970833413e-07
3.19503486523e-07
2.23972693565e-07
3.23748799245e-07
2.0693190236e-07
3.31470715932e-07
1.84766002019e-07
3.45849563447e-07
1.3376137988e-07
3.66942249889e-07
1.82792422301e-08
3.88866842622e-07
8.12313732634e-09
4.08227013828e-07
7.49908049878e-09
4.27604165425e-07
6.58377872622e-09
4.4804751132e-07
5.59694119924e-09
4.69510102221e-07
4.55169640536e-09
4.9200848089e-07
3.39343408601e-09
5.15592116014e-07
2.07502930474e-09
5.40334667614e-07
6.00757305315e-10
5.66327020904e-07
5.93672192838e-07
-8.97358927418e-10
2.85085591239e-07
4.63307232669e-07
2.97169972075e-07
4.24832797527e-07
2.86379749305e-07
3.82843861629e-07
2.79704020832e-07
3.51179798915e-07
2.70542989979e-07
3.37772768924e-07
2.56494370535e-07
3.34579644309e-07
2.3703971839e-07
3.36876739179e-07
2.14447146111e-07
3.42814689393e-07
1.9001679272e-07
3.53566911523e-07
1.57267237508e-07
3.69792509357e-07
5.49029822529e-08
3.88999841578e-07
3.99800980158e-09
4.08261709107e-07
3.63365339454e-09
4.2793287765e-07
2.98653340893e-09
4.484995513e-07
2.2109243138e-09
4.70118409005e-07
1.39140397645e-09
4.92794957093e-07
5.05522129494e-10
5.16564752862e-07
-4.90382705644e-10
5.41488701967e-07
-1.60216369336e-09
5.67647644055e-07
5.9513696512e-07
-2.70149222186e-09
2.90219340543e-07
4.6355837546e-07
3.01765335003e-07
4.35466488519e-07
2.93326994335e-07
4.02432220492e-07
2.84962432581e-07
3.72876968144e-07
2.78753818035e-07
3.54343816092e-07
2.69486899614e-07
3.48229908174e-07
2.52878450562e-07
3.48396920582e-07
2.29333264121e-07
3.5245299565e-07
2.02551964697e-07
3.60599001258e-07
1.72242831742e-07
3.73541214474e-07
1.12814535107e-07
3.90356095443e-07
5.73779259478e-09
4.0809241551e-07
1.72194777173e-09
4.28286099568e-07
1.29660594436e-09
4.4897053895e-07
6.02472163347e-10
4.70765516926e-07
-1.95616558406e-10
4.93626831896e-07
-1.06663185942e-09
5.17579647058e-07
-2.02631326955e-09
5.42675638824e-07
-3.06766927009e-09
5.68987432056e-07
5.96606958525e-07
-4.05447974609e-09
2.78237459814e-07
4.64661266856e-07
2.92142906134e-07
4.41208957239e-07
2.89416719558e-07
4.15342435763e-07
2.83386050889e-07
3.91075214543e-07
2.79398761923e-07
3.71555993104e-07
2.75017906074e-07
3.61938028173e-07
2.64390245299e-07
3.59868323776e-07
2.44598161811e-07
3.61868962472e-07
2.18107138567e-07
3.67692611074e-07
1.88665424686e-07
3.78092031442e-07
1.4970453417e-07
3.92768745654e-07
4.10610763425e-08
4.10088503118e-07
2.54050097433e-09
4.28462152015e-07
1.87005570025e-09
4.49596703963e-07
8.63390980587e-10
4.71589434228e-07
-2.84780623296e-10
4.9463204808e-07
-1.49068143303e-09
5.18744433351e-07
-2.73968193315e-09
5.43974195702e-07
-3.99395139149e-09
5.70393102282e-07
5.98086505458e-07
-5.14719979631e-09
2.76418047285e-07
4.63928308951e-07
2.99852622163e-07
4.43521553924e-07
2.93953183095e-07
4.25087882264e-07
2.88509719155e-07
4.07247201582e-07
2.82069710613e-07
3.90872270738e-07
2.78300340156e-07
3.78089930845e-07
2.71944346254e-07
3.72930503381e-07
2.57213889937e-07
3.72537117429e-07
2.33525458111e-07
3.76047262859e-07
2.05231999568e-07
3.84032417225e-07
1.71980162281e-07
3.96672791139e-07
1.04929619537e-07
4.13079975902e-07
8.78986639385e-09
4.29571208367e-07
4.96777411284e-09
4.51014553486e-07
2.82865399627e-09
4.73116392531e-07
7.01208164033e-10
4.96235054869e-07
-1.32477572324e-09
5.20394090754e-07
-3.21971583351e-09
5.45642527914e-07
-4.9710897782e-09
5.72051456558e-07
5.99710630754e-07
-6.50026393814e-09
2.75347125617e-07
4.63267513103e-07
3.09938926876e-07
4.45051875276e-07
3.01544585141e-07
4.33838458537e-07
2.94416461419e-07
4.23002390316e-07
2.85353265005e-07
4.10981790197e-07
2.79234924271e-07
3.97605126907e-07
2.74208909254e-07
3.88296422335e-07
2.6413596727e-07
3.85360547234e-07
2.44401089056e-07
3.86459003864e-07
2.17466054525e-07
3.9182444069e-07
1.87182820556e-07
4.02140112489e-07
1.43169799384e-07
4.16798570041e-07
3.43513410348e-08
4.34851514018e-07
8.65273576154e-09
4.53825784043e-07
4.57779985719e-09
4.75845636331e-07
9.77638689942e-10
4.98756338731e-07
-2.15157202039e-09
5.22706851374e-07
-4.84475136965e-09
5.47750602096e-07
-7.13782142792e-09
5.73962485457e-07
6.01434768513e-07
-8.9936904623e-09
2.75251423694e-07
4.65680289895e-07
3.15204708156e-07
4.4928640186e-07
3.03114402233e-07
4.439755829e-07
2.92888424523e-07
4.39559578073e-07
2.81325436968e-07
4.31944202629e-07
2.72562943086e-07
4.19253579564e-07
2.67764676756e-07
4.05934562855e-07
2.61448512042e-07
3.99976380892e-07
2.45776835906e-07
3.98547457503e-07
2.20674143767e-07
4.01062228857e-07
1.91758872858e-07
4.08526062568e-07
1.55679322619e-07
4.20985617933e-07
7.52962639595e-08
4.38118219401e-07
7.52717075786e-09
4.58141110086e-07
1.5346260849e-09
4.79600815539e-07
-3.05214496587e-09
5.01911428732e-07
-6.75970846704e-09
5.25343697141e-07
-9.71721341785e-09
5.49938427803e-07
-1.20306638884e-08
5.75767008416e-07
6.02916309769e-07
-1.37411349084e-08
2.72775115306e-07
4.7404902751e-07
3.05456664649e-07
4.58669664797e-07
2.89652729823e-07
4.56303385844e-07
2.76251551332e-07
4.56422408959e-07
2.64170241993e-07
4.52051210746e-07
2.56537140152e-07
4.39982338681e-07
2.52398254514e-07
4.24242979109e-07
2.47616616089e-07
4.14156319199e-07
2.35146293942e-07
4.10159302653e-07
2.12031050554e-07
4.09793167849e-07
1.82918719302e-07
4.14142300127e-07
1.50309374057e-07
4.24003304376e-07
9.996669569e-08
4.38893303407e-07
-1.12767792182e-09
4.6206968653e-07
-1.17938599478e-08
4.82799282924e-07
-1.53363453159e-08
5.04349733438e-07
-1.78964538541e-08
5.27127004147e-07
-1.96818786318e-08
5.51208724963e-07
-2.08339745576e-08
5.76638906386e-07
6.03486675069e-07
-2.14421391905e-08
2.64489090967e-07
4.92472442383e-07
2.7574041739e-07
4.74437962331e-07
2.56997622014e-07
4.69928912452e-07
2.42601145264e-07
4.70881231788e-07
2.34750683213e-07
4.67661772703e-07
2.32186718574e-07
4.56096480606e-07
2.29744630037e-07
4.39782076114e-07
2.25853809642e-07
4.25581813603e-07
2.16006683234e-07
4.18288549494e-07
1.9525171693e-07
4.15224913139e-07
1.66300692441e-07
4.16702705945e-07
1.35543584188e-07
4.24003026185e-07
9.81855320101e-08
4.36785626724e-07
7.60556950051e-09
4.55992935723e-07
-3.75141690579e-08
4.83314491993e-07
-3.69100598782e-08
5.0380399104e-07
-3.58268104467e-08
5.26340122114e-07
-3.45287078188e-08
5.50250442047e-07
-3.30645998817e-08
5.75596515013e-07
6.02427085914e-07
-3.14730852545e-08
2.65241779244e-07
5.1174847466e-07
2.51966932346e-07
4.89320435217e-07
2.24233967076e-07
4.80926089395e-07
2.09891737941e-07
4.79611303329e-07
2.07277146984e-07
4.75707421222e-07
2.10205029878e-07
4.64814707669e-07
2.1131795323e-07
4.49370837e-07
2.08661378965e-07
4.33658309491e-07
2.00976260573e-07
4.22404584188e-07
1.83733738282e-07
4.16863816196e-07
1.5567547133e-07
4.15897162929e-07
1.23600077444e-07
4.21013981512e-07
9.18790900395e-08
4.32191343581e-07
4.29931970862e-08
4.49105754362e-07
-6.51679117291e-08
4.74362167957e-07
-6.26717245563e-08
4.99193179693e-07
-5.62304356317e-08
5.21949506878e-07
-5.06418565806e-08
5.46397284791e-07
-4.5744363576e-08
5.72234929027e-07
5.99517743863e-07
-4.14095667308e-08
2.59022026797e-07
5.24061791961e-07
2.4016968935e-07
4.99265867744e-07
2.13063494584e-07
4.88261393056e-07
1.99795717837e-07
4.84349275008e-07
1.99213447278e-07
4.7920833958e-07
2.05027334066e-07
4.68870652587e-07
2.09683155632e-07
4.54899258453e-07
2.09619887856e-07
4.40032863519e-07
2.04172158391e-07
4.26804800003e-07
1.90276236154e-07
4.18506412878e-07
1.64430633357e-07
4.15362557398e-07
1.30695780695e-07
4.1815164764e-07
9.86764292193e-08
4.27585771955e-07
6.46096971535e-08
4.43057071176e-07
-2.24366607085e-08
4.64507630278e-07
-8.18647800624e-08
4.91179193431e-07
-7.09422839289e-08
5.15016657839e-07
-6.1823977428e-08
5.40561821441e-07
-5.41833456183e-08
5.67349462555e-07
5.95445563196e-07
-4.77161863187e-08
2.62240328213e-07
5.29970327559e-07
2.5087534235e-07
5.05879428685e-07
2.26322990278e-07
4.95101138998e-07
2.13065812112e-07
4.90093429033e-07
2.11692180788e-07
4.83999708036e-07
2.18452455985e-07
4.73827076729e-07
2.25835886581e-07
4.60971759096e-07
2.29067218256e-07
4.47339734394e-07
2.257907088e-07
4.34631282029e-07
2.13538579388e-07
4.24717252918e-07
1.89940933144e-07
4.19258855222e-07
1.56620646135e-07
4.19245741185e-07
1.21676090087e-07
4.26090692625e-07
9.21208694975e-08
4.39894601052e-07
4.76680503478e-08
4.59457715953e-07
-7.37092802231e-08
4.83443891961e-07
-7.26074478671e-08
5.08577488933e-07
-6.27079722017e-08
5.34891364698e-07
-5.44556794463e-08
5.62626493081e-07
5.91542467472e-07
-4.75304700773e-08
2.62568034487e-07
5.32383269929e-07
2.56176567502e-07
5.0963318468e-07
2.3534244592e-07
5.0005244861e-07
2.2516863534e-07
4.95388310728e-07
2.25919529732e-07
4.89354043894e-07
2.35058228213e-07
4.79680999e-07
2.45784502866e-07
4.67907457074e-07
2.52935419688e-07
4.55609784211e-07
2.52699692675e-07
4.44243162479e-07
2.41292252207e-07
4.35010485612e-07
2.17739836935e-07
4.28054052324e-07
1.86389695661e-07
4.25248958851e-07
1.52543219745e-07
4.29021722157e-07
1.24105355534e-07
4.40505501123e-07
9.39231446833e-08
4.58738078759e-07
6.63625243445e-09
4.8161232866e-07
-5.94543435554e-08
5.04089050785e-07
-5.20277952441e-08
5.31175257513e-07
-4.56203593574e-08
5.59527371004e-07
5.89011495761e-07
-4.01929337375e-08
2.46748036923e-07
5.35717191798e-07
2.42989913559e-07
5.11692418615e-07
2.27883072958e-07
5.01952895174e-07
2.2416995869e-07
4.97673122451e-07
2.30143057285e-07
4.92420452708e-07
2.43625841607e-07
4.83990749846e-07
2.58969530764e-07
4.73905328817e-07
2.714965412e-07
4.63678407505e-07
2.75698060847e-07
4.54855284345e-07
2.65339934008e-07
4.47769159423e-07
2.4052753276e-07
4.40980727272e-07
2.09921186778e-07
4.35809178991e-07
1.79955029755e-07
4.36699009465e-07
1.53421948587e-07
4.45427181485e-07
1.30125562493e-07
4.62015523694e-07
8.38497041858e-08
4.83646755643e-07
-2.85992416929e-08
5.04086841333e-07
-3.21322027489e-08
5.3020072488e-07
-2.95692764809e-08
5.58840196602e-07
5.88556903992e-07
-2.7265664034e-08
2.39883359416e-07
5.40615456955e-07
2.42469330708e-07
5.13751079906e-07
2.23155375951e-07
5.04238161159e-07
2.20951229602e-07
4.99647215018e-07
2.30058695216e-07
4.94843459334e-07
2.4814460157e-07
4.87887193835e-07
2.69278556045e-07
4.80023944349e-07
2.87858484843e-07
4.7280277701e-07
2.94435358212e-07
4.67652439286e-07
2.83702695463e-07
4.63000208221e-07
2.57009048794e-07
4.57246598488e-07
2.25595322623e-07
4.50887042846e-07
1.99033644332e-07
4.49186698076e-07
1.76159388231e-07
4.54906458958e-07
1.58920557806e-07
4.69156810974e-07
1.28390092755e-07
4.8951427789e-07
2.58623601935e-08
5.10504573095e-07
-7.52992732786e-09
5.32365889928e-07
-1.01255059899e-08
5.60954382993e-07
5.90461690608e-07
-1.19329960293e-08
2.32142201302e-07
5.49238271195e-07
2.3830049723e-07
5.17705526815e-07
2.17292037561e-07
5.07492464006e-07
2.17011146294e-07
5.02246638037e-07
2.29756959569e-07
4.97732545528e-07
2.53342738377e-07
4.92390313855e-07
2.80873051079e-07
4.87235788864e-07
3.00576098602e-07
4.84090379606e-07
3.05276660115e-07
4.82633355825e-07
2.94142332011e-07
4.80389877445e-07
2.66786832859e-07
4.76211775802e-07
2.33864161541e-07
4.69789846836e-07
2.08545281599e-07
4.65555573039e-07
1.89036146693e-07
4.68128625543e-07
1.73170734731e-07
4.79472626361e-07
1.48897318317e-07
4.98046393981e-07
7.20462109817e-08
5.18985144745e-07
1.46528869621e-08
5.37519490948e-07
7.10546205981e-09
5.65542163556e-07
5.94399860927e-07
1.40892602207e-09
2.25987937114e-07
5.62303352892e-07
2.35516550614e-07
5.24828117705e-07
2.15481715584e-07
5.12429054649e-07
2.18111451668e-07
5.06266155739e-07
2.34597908394e-07
5.02186831857e-07
2.62798559431e-07
4.98548533448e-07
2.89903524845e-07
4.96364556923e-07
3.04959887546e-07
4.9736461343e-07
3.08111717148e-07
4.99053970992e-07
2.984581751e-07
4.99426323004e-07
2.70874310146e-07
4.97576044145e-07
2.35083675557e-07
4.91793184505e-07
2.09376205577e-07
4.84618468719e-07
1.91847123862e-07
4.83948762795e-07
1.7512945427e-07
4.91673014881e-07
1.51551298273e-07
5.07487251226e-07
9.21570277878e-08
5.28033254861e-07
2.72560442498e-08
5.44782089383e-07
1.65829163889e-08
5.7155634937e-07
5.99451714927e-07
8.51703836914e-09
2.1945449617e-07
5.77217994685e-07
2.32445646446e-07
5.33797863531e-07
2.17576342507e-07
5.18229438791e-07
2.24586472222e-07
5.11586607011e-07
2.44216188629e-07
5.08688101648e-07
2.72226159181e-07
5.07044093466e-07
2.92829886236e-07
5.07761794138e-07
3.04398138995e-07
5.11896650806e-07
3.08879941436e-07
5.16258578775e-07
3.0120791821e-07
5.19378987657e-07
2.71066942327e-07
5.20736381087e-07
2.29990113961e-07
5.15705099522e-07
2.02931626186e-07
5.0477441776e-07
1.85364983764e-07
5.00577025724e-07
1.66172933514e-07
5.03836875941e-07
1.40018360608e-07
5.15746562367e-07
9.24669643321e-08
5.34623440797e-07
2.62153690626e-08
5.52326713703e-07
1.49702328234e-08
5.77496605537e-07
6.04337235998e-07
6.82167895435e-09
2.10086347722e-07
5.95772308199e-07
2.28407847892e-07
5.44480110437e-07
2.20017242287e-07
5.25177706198e-07
2.30981743929e-07
5.18490187932e-07
2.51739814933e-07
5.17376562381e-07
2.75497058969e-07
5.17771295927e-07
2.92468494572e-07
5.20751377175e-07
3.05180636289e-07
5.26944502976e-07
3.11683652988e-07
5.33324106126e-07
3.027533126e-07
5.38933884106e-07
2.63501954209e-07
5.41784123181e-07
2.19719613144e-07
5.37127817241e-07
1.9153112022e-07
5.24885143885e-07
1.71230456478e-07
5.14974919332e-07
1.48217460628e-07
5.13552635377e-07
1.18858558076e-07
5.20668971908e-07
7.70933208972e-08
5.36833146246e-07
1.22174752972e-08
5.6133877222e-07
2.06262119681e-09
5.81567310834e-07
6.0763695088e-07
-3.83128954427e-09
2.18907364622e-07
6.07902679466e-07
2.48495881105e-07
5.54209653177e-07
2.34182736518e-07
5.3535613013e-07
2.40777844577e-07
5.29815398531e-07
2.57297376243e-07
5.30456953825e-07
2.77754281908e-07
5.32307674179e-07
2.94405669853e-07
5.36150282047e-07
3.0744051631e-07
5.43050374454e-07
3.11171221852e-07
5.50177572959e-07
2.84877387452e-07
5.55001886141e-07
2.42690732515e-07
5.55981705975e-07
2.10210107648e-07
5.52378943268e-07
1.81035253614e-07
5.43364224279e-07
1.55682103384e-07
5.28604020131e-07
1.27171680393e-07
5.19972825344e-07
9.44720983309e-08
5.22025911334e-07
5.4337241988e-08
5.350315801e-07
-7.95304895779e-09
5.60585571188e-07
-1.85483072473e-08
5.8259297334e-07
6.08602318855e-07
-2.09981698837e-08
2.35746731686e-07
6.13037319804e-07
2.76291745242e-07
5.64312616753e-07
2.5463486249e-07
5.50382846864e-07
2.53188324831e-07
5.48584453461e-07
2.63326740444e-07
5.50931969707e-07
2.79763027788e-07
5.52366707382e-07
2.91819187395e-07
5.54694675299e-07
2.93554996332e-07
5.59640163681e-07
2.74653255467e-07
5.64246723464e-07
2.44499233557e-07
5.65997154822e-07
2.22008254247e-07
5.64347764807e-07
1.97660388187e-07
5.60522157858e-07
1.71047170144e-07
5.54944219094e-07
1.41837490967e-07
5.42477228831e-07
1.0951233884e-07
5.24053555695e-07
7.29711432732e-08
5.21311220303e-07
3.34004095253e-08
5.31085133254e-07
-1.85067885042e-08
5.52863375325e-07
-4.21153868053e-08
5.82178621014e-07
6.07538375836e-07
-4.13163037441e-08
2.56834863899e-07
6.15427683884e-07
2.99506522913e-07
5.76313629046e-07
2.70846946771e-07
5.71246050964e-07
2.57545406672e-07
5.76480372924e-07
2.54505408083e-07
5.79280621274e-07
2.57715104001e-07
5.76071790739e-07
2.53482751354e-07
5.73785927728e-07
2.36897812556e-07
5.74507927151e-07
2.16601235705e-07
5.74376771678e-07
2.0370518504e-07
5.70998576506e-07
1.92461209492e-07
5.66120401009e-07
1.7664624863e-07
5.62431799837e-07
1.55269061324e-07
5.59556383746e-07
1.27992274286e-07
5.5230024899e-07
9.82669513021e-08
5.3018109599e-07
6.03510434176e-08
5.20234772617e-07
2.2474883692e-08
5.26658218641e-07
-1.90428689925e-08
5.45161717232e-07
-6.77233328884e-08
5.81515565971e-07
6.05298664747e-07
-6.28996004537e-08
2.70062045947e-07
6.16179236406e-07
2.97006817395e-07
5.89322690537e-07
2.56135623326e-07
5.97265781709e-07
2.2048365637e-07
6.13150366473e-07
1.98288120975e-07
6.13435930219e-07
1.87530079112e-07
6.00088399428e-07
1.74857633685e-07
5.90368777471e-07
1.62580935719e-07
5.85094207194e-07
1.57385221912e-07
5.78549962696e-07
1.57011438441e-07
5.69744733009e-07
1.56304905567e-07
5.6238344993e-07
1.49735424017e-07
5.59081328484e-07
1.34649994021e-07
5.59000849553e-07
1.15597842382e-07
5.55512573812e-07
9.09104575086e-08
5.36503878724e-07
5.69976904915e-08
5.19453491113e-07
1.91736202652e-08
5.22459230443e-07
-1.70622388104e-08
5.38330271478e-07
-8.27944632207e-08
5.66798934195e-07
6.01732845646e-07
-8.61790880696e-08
2.68480025682e-07
6.18859603168e-07
2.5952478994e-07
6.06357831141e-07
1.98580546126e-07
6.3037574669e-07
1.41388186263e-07
6.58069149963e-07
1.0850948772e-07
6.49714401475e-07
9.71467699601e-08
6.20547147107e-07
9.28572468163e-08
6.00844433502e-07
9.46799641739e-08
5.8842790087e-07
1.02421131884e-07
5.76003100639e-07
1.13896683674e-07
5.63411789642e-07
1.22659294742e-07
5.55723000958e-07
1.22962713582e-07
5.52224819914e-07
1.150076041e-07
5.53077687973e-07
1.01955865535e-07
5.52734856221e-07
8.61074231805e-08
5.38433518316e-07
6.0023712351e-08
5.18914841875e-07
2.27064258462e-08
5.18513858519e-07
-1.0197938168e-08
5.31762010051e-07
-5.24911398164e-08
5.55593178216e-07
5.98170901536e-07
-1.12546820752e-07
2.74903666529e-07
6.20150995332e-07
2.27098227216e-07
6.27117349549e-07
1.45178283647e-07
6.72779003588e-07
7.61663428754e-08
7.09538186668e-07
3.99382613884e-08
6.84264838745e-07
3.23397290493e-08
6.35739521942e-07
3.79307059352e-08
6.04660621388e-07
5.03654846038e-08
5.8511359239e-07
6.7504640315e-08
5.68245445131e-07
8.61814520608e-08
5.54399564618e-07
9.97956098253e-08
5.47992551446e-07
1.04135011636e-07
5.44396164804e-07
1.01843895141e-07
5.44154571017e-07
9.63909709164e-08
5.45237888209e-07
8.68839752293e-08
5.36658614268e-07
6.67551077292e-08
5.18541700309e-07
3.24305712119e-08
5.14872667154e-07
2.40305690821e-09
5.25098454191e-07
-2.71461090543e-08
5.4597694014e-07
5.85078381378e-07
-1.41518401244e-07
2.67313354178e-07
6.25133653415e-07
1.933874608e-07
6.5227621827e-07
1.13762681683e-07
7.19355187402e-07
4.80400584972e-08
7.59864484291e-07
1.4349347426e-08
7.12206079964e-07
8.82945963605e-09
6.45331893375e-07
1.94434670381e-08
6.03746579341e-07
3.75893325414e-08
5.78086924347e-07
5.90508852799e-08
5.58495843543e-07
7.98064015211e-08
5.45330379022e-07
9.5757630923e-08
5.40660427912e-07
1.03349418748e-07
5.37365012679e-07
1.04832759121e-07
5.35597374273e-07
1.04284143227e-07
5.36387860608e-07
9.64648619262e-08
5.33173731723e-07
7.84696578786e-08
5.19479981886e-07
4.7697195819e-08
5.12049531319e-07
1.61046783328e-08
5.18580519881e-07
-8.89148437083e-09
5.3741600878e-07
5.66222706835e-07
-1.24954800729e-07
2.4511139149e-07
6.3971112916e-07
1.60605217392e-07
6.84387714903e-07
1.00125357991e-07
7.58833752378e-07
4.77439541472e-08
7.99897764569e-07
2.34225379121e-08
7.29473196558e-07
2.06318268837e-08
6.49654304273e-07
3.29945101911e-08
6.00752963243e-07
5.29617201832e-08
5.70872711817e-07
7.50228529592e-08
5.50118976705e-07
9.59905877662e-08
5.38486898305e-07
1.13493124547e-07
5.35354967152e-07
1.23545743412e-07
5.3260840397e-07
1.26992431633e-07
5.29791517656e-07
1.26841166704e-07
5.29713183814e-07
1.17625237408e-07
5.30479473957e-07
9.7086021376e-08
5.22828963028e-07
6.77454731289e-08
5.10599265101e-07
3.46509274656e-08
5.12767381704e-07
9.85794990568e-09
5.2931618662e-07
5.5459079531e-07
-4.77188198347e-08
2.03674102837e-07
6.77392512349e-07
1.18822881377e-07
7.2505190111e-07
8.31477554328e-08
7.80914713662e-07
5.58219517708e-08
8.17240430249e-07
4.83613693523e-08
7.31414720194e-07
5.19331109007e-08
6.48247460792e-07
6.63081091514e-08
5.96958657956e-07
8.69633110742e-08
5.65419404808e-07
1.08804581997e-07
5.44895685363e-07
1.29503249162e-07
5.35153199356e-07
1.47694082389e-07
5.33158279256e-07
1.59203417576e-07
5.31032521015e-07
1.63423959176e-07
5.27737441027e-07
1.62060586286e-07
5.26954692881e-07
1.49116104528e-07
5.30341972365e-07
1.20791379884e-07
5.28739354958e-07
9.10989813708e-08
5.11805078115e-07
5.85847725896e-08
5.08569309436e-07
3.46941859194e-08
5.22352825459e-07
5.46009630562e-07
3.22581324794e-09
1.25194290094e-07
7.82746781914e-07
6.13335708764e-08
7.64087524649e-07
5.30061020288e-08
7.79143169431e-07
6.23741616458e-08
7.99568489487e-07
7.49406704832e-08
7.15127148124e-07
8.77566187637e-08
6.39898243521e-07
1.06055401619e-07
5.9171089195e-07
1.2844064471e-07
5.61406706941e-07
1.51060262794e-07
5.4267813223e-07
1.717962087e-07
5.35305020983e-07
1.89799524153e-07
5.34343566377e-07
2.01892118765e-07
5.32881275334e-07
2.06523171587e-07
5.29756190489e-07
2.03257307959e-07
5.28807813759e-07
1.82009200109e-07
5.34195233009e-07
1.47611830821e-07
5.36582910331e-07
1.18104125693e-07
5.18685790044e-07
8.77157068619e-08
5.08401265245e-07
6.3807713451e-08
5.18347872473e-07
5.40997227909e-07
3.98942155602e-08
8.31506055859e-08
9.30910654023e-07
4.3497149667e-08
7.87469844805e-07
5.07118773817e-08
7.60914929009e-07
8.3452243096e-08
7.57976314582e-07
1.06871979529e-07
6.88377935071e-07
1.25874627689e-07
6.27290337096e-07
1.47735173668e-07
5.85789109634e-07
1.72836747394e-07
5.59069927293e-07
1.97047789721e-07
5.4355395204e-07
2.17488299921e-07
5.38910048085e-07
2.34303274359e-07
5.39066155574e-07
2.4584928417e-07
5.3840618165e-07
2.49896418424e-07
5.35978749661e-07
2.42813531819e-07
5.35713047926e-07
2.13781214818e-07
5.4334864806e-07
1.76741343083e-07
5.46872196357e-07
1.45242869346e-07
5.306297322e-07
1.18062926835e-07
5.13289972934e-07
9.42563557931e-08
5.18672634707e-07
5.39836247537e-07
7.23514022328e-08
1.5700887902e-07
1.00106025275e-06
9.52285441289e-08
8.28299133687e-07
9.05636937079e-08
7.52485658853e-07
1.19072676976e-07
7.20036629058e-07
1.42902733464e-07
6.63114323946e-07
1.65020796931e-07
6.15143885345e-07
1.90453111277e-07
5.81273920574e-07
2.18738596005e-07
5.59366463458e-07
2.4399140468e-07
5.47862503555e-07
2.63110352278e-07
5.45989809993e-07
2.7783484689e-07
5.47255830439e-07
2.87971823834e-07
5.47448614052e-07
2.90569530509e-07
5.45985723788e-07
2.78404760594e-07
5.47076237887e-07
2.43363829246e-07
5.56887953427e-07
2.03346341506e-07
5.6057736061e-07
1.69628528305e-07
5.45830917425e-07
1.45453263678e-07
5.2332120026e-07
1.23957230456e-07
5.23965014037e-07
5.42742231006e-07
1.03199578283e-07
1.73865672146e-07
1.04971314245e-06
1.23358604152e-07
8.53750545005e-07
1.22762796576e-07
7.3928222338e-07
1.4810184138e-07
6.86817626888e-07
1.73184522862e-07
6.40661659307e-07
1.9976639785e-07
6.03932410734e-07
2.30024655891e-07
5.77896903066e-07
2.61548395169e-07
5.61627836083e-07
2.87269479911e-07
5.54881217698e-07
3.04419705606e-07
5.55628962273e-07
3.17107562979e-07
5.58086307941e-07
3.25477874645e-07
5.59264341625e-07
3.26286056406e-07
5.59036663046e-07
3.07859496917e-07
5.62157614998e-07
2.67851357853e-07
5.73905988891e-07
2.26253492894e-07
5.77786168774e-07
1.9099006547e-07
5.64370014085e-07
1.69008098001e-07
5.38342564482e-07
1.50519102255e-07
5.34228326318e-07
5.49654155353e-07
1.31489134883e-07
1.89816291667e-07
1.08258891741e-06
1.53879375623e-07
8.62910096455e-07
1.56095820822e-07
7.24110076613e-07
1.76396683777e-07
6.61402846455e-07
2.02006086547e-07
6.21911565536e-07
2.32208713657e-07
5.94093050763e-07
2.66692343883e-07
5.7555311444e-07
3.00707436133e-07
5.65429719134e-07
3.25525917148e-07
5.63810832726e-07
3.4056757807e-07
5.66925984027e-07
3.51678175724e-07
5.70719436649e-07
3.57938699518e-07
5.73009820507e-07
3.5619765086e-07
5.74381098794e-07
3.30271648169e-07
5.80158277719e-07
2.8658176749e-07
5.93382652952e-07
2.45527981427e-07
5.98090006531e-07
2.10219432399e-07
5.86378973872e-07
1.89122646146e-07
5.57980015607e-07
1.72694829754e-07
5.48918942454e-07
5.60004478778e-07
1.54623357333e-07
2.03293695755e-07
1.79793506443e-07
1.83878379515e-07
2.02642989445e-07
2.29911164411e-07
2.63808993382e-07
3.02349310653e-07
3.37347075997e-07
3.59723482483e-07
3.73153759473e-07
3.82598434442e-07
3.86554901286e-07
3.80371037384e-07
3.45789861356e-07
3.01000966981e-07
2.62329833716e-07
2.27631472884e-07
2.05829695737e-07
1.89709849318e-07
1.70196709812e-07
5.08641942744e-09
7.10669904988e-07
-7.23138611342e-09
6.77280882481e-07
-1.89548031644e-08
6.4520310823e-07
-3.02139881634e-08
6.1443519425e-07
-4.11627072341e-08
5.84964222661e-07
-5.19628285606e-08
5.56765316492e-07
-6.27608616052e-08
5.29804568434e-07
-7.36769708136e-08
5.04043669583e-07
-8.4811437745e-08
4.79442838265e-07
-9.62604324545e-08
4.55961152127e-07
-1.08158218856e-07
4.33553454636e-07
-1.20738815809e-07
4.12164217413e-07
-1.34394691955e-07
3.91722577843e-07
-1.495105136e-07
3.72159210232e-07
-1.6571768473e-07
3.53485103894e-07
-1.78085086357e-07
3.36051043844e-07
-2.04867138918e-07
3.1908601781e-07
-1.48793526027e-07
3.06418220014e-07
-1.04348447074e-06
2.50658732235e-07
2.60686657201e-07
1.04222948912e-09
5.6549137191e-07
-1.68913228535e-09
5.38703046473e-07
-4.28492907309e-09
5.13344930818e-07
-6.81022697797e-09
4.89310849287e-07
-9.3117480147e-09
4.66515656252e-07
-1.18239105456e-08
4.44886594008e-07
-1.43685328961e-08
4.24358058191e-07
-1.69587243618e-08
4.04868471286e-07
-1.96096279311e-08
3.86358519182e-07
-2.23531628292e-08
3.68770991803e-07
-2.52589672855e-08
3.52052833911e-07
-2.84375628932e-08
3.36160168346e-07
-3.19589422599e-08
3.21066558682e-07
-3.55550945345e-08
3.06769810667e-07
-3.83868211386e-08
2.93276042262e-07
-4.01110200135e-08
2.80498126365e-07
-4.19644540967e-08
2.68249853173e-07
-4.81450012213e-08
2.54616961495e-07
-1.4122541642e-08
2.43788532062e-07
2.1038331009e-07
3.66036011781e-10
5.92379282056e-07
-2.47859235867e-09
5.64256563861e-07
-5.16298600208e-09
5.37628193388e-07
-7.69170282523e-09
5.12379429011e-07
-1.00707832681e-08
4.88415117338e-07
-1.23067944213e-08
4.65650879025e-07
-1.44042742621e-08
4.44009362599e-07
-1.63735806476e-08
4.23418615785e-07
-1.82435410487e-08
4.03812085565e-07
-2.00666984484e-08
3.85129983118e-07
-2.19047630997e-08
3.67321657651e-07
-2.37514760253e-08
3.50348275238e-07
-2.53562643935e-08
3.34183978353e-07
-2.60749182438e-08
3.1881052092e-07
-2.5328306198e-08
3.0419225591e-07
-2.35454285066e-08
2.90180614661e-07
-2.20630261488e-08
2.76052768788e-07
-2.07689521329e-08
2.59736324781e-07
1.66799368978e-08
2.35860425679e-07