/*--------------------------------*- C++ -*----------------------------------*\
| =========                 |                                                 |
| \\      /  F ield         | OpenFOAM: The Open Source CFD Toolbox           |
|  \\    /   O peration     | Version:  2312                                  |
|   \\  /    A nd           | Website:  www.openfoam.com                      |
|    \\/     M anipulation  |                                                 |
\*---------------------------------------------------------------------------*/
FoamFile
{
    version     2.0;
    format      ascii;
    arch        "LSB;label=32;scalar=64";
    class       volScalarField;
    location    "0.36/water";
    object      alpha.gas;
}
// * * * * * * * * * * * * * * * * * * * * * * * * * * * * * * * * * * * * * //

dimensions      [0 0 0 0 0 0 0];

internalField   nonuniform List<scalar> 
750
(
0.966938327775
0.966356676155
0.963399798244
0.960042622397
0.960063342864
0.960832943177
0.963510960917
0.966279191247
0.968396953338
0.968407899753
0.0168350023955
0.0201296046698
0.0825772158552
0.477332411191
0.701410835762
0.693228953452
0.679390756112
0.663158785037
0.632712419328
0.639158631063
0.661666964866
0.679905415381
0.661048530488
0.533018877562
0.405272983529
0.357387487208
0.324057726008
0.362615319725
0.499172429207
0.549004427806
0.00384987954536
0.00385275785971
0.00872120028122
0.119154219593
0.574668315194
0.693146995711
0.631514075943
0.589449132822
0.543693163766
0.542363491419
0.569490967713
0.607529791573
0.60249309083
0.497430867115
0.350953729096
0.304675970893
0.272726732712
0.271896814252
0.328704800407
0.548894604538
0.0971300275125
0.00202119749277
0.000915100491157
0.0049633693513
0.235151591302
0.634504793075
0.573633572875
0.49252542966
0.435652595384
0.429534925249
0.473132148482
0.561149305044
0.577230531369
0.472248338807
0.320334234059
0.279840612558
0.244574782289
0.223595591068
0.150274453689
0.541131185376
0.0432006639715
0.00143933532643
0.000914993278102
0.00601535422637
0.201670173712
0.498866526484
0.434699918879
0.351237479705
0.33036313206
0.389711425939
0.490793146051
0.573042197684
0.575168222752
0.467328109033
0.319358096482
0.252120250416
0.20384917153
0.182186729664
0.137965822784
0.350404392301
0.00525060850848
0.00278644192666
0.0201453475318
0.164012504888
0.359339570179
0.359005084994
0.295709800051
0.282830584742
0.296126026553
0.414659260847
0.509025341304
0.562083970724
0.563989741273
0.473375986116
0.300689430572
0.183517613469
0.147271012464
0.138016662635
0.137935303473
0.193382565881
0.016392287603
0.108279845769
0.399317445603
0.564625156096
0.558598861602
0.462607102928
0.349892939761
0.282773366945
0.282675463556
0.310490320502
0.380518188792
0.427214194706
0.443900957874
0.419948509095
0.294584381995
0.166847341852
0.137951653422
0.137916346066
0.137946884955
0.147146958493
0.319464260919
0.611958746458
0.830080136576
0.858085993243
0.835119109851
0.814739133475
0.773985344881
0.688359903075
0.543964653468
0.307643523061
0.172071133505
0.168695795505
0.176555108618
0.217641485076
0.256910258088
0.284378106983
0.284276426698
0.261081183675
0.19971150377
0.147132924335
0.789489109697
0.919555627131
0.959108859316
0.959516034866
0.958464008812
0.960042317575
0.952744583242
0.924018323245
0.83658415874
0.637345190873
0.369021402178
0.153412462297
0.0541522514754
0.0515754400542
0.102146868694
0.245882899685
0.400768075105
0.511072493019
0.644592559786
0.520071608768
0.955022298095
0.968417134992
0.968399519285
0.968426101863
0.968398573358
0.96840813317
0.964751621027
0.93833505157
0.849906323711
0.662810112169
0.413748671491
0.196953745302
0.0616556075792
0.0485653788836
0.0804261157339
0.306402385787
0.603087864363
0.785647117025
0.876184756324
0.859630541464
0.968432854384
0.968400434634
0.968434846237
0.968399519285
0.968419724292
0.968398573358
0.963061541298
0.926729470897
0.812414804505
0.603958906138
0.360762377392
0.161157788775
0.0568216577192
0.0525756089686
0.176980656199
0.562599948021
0.850761995077
0.909124484931
0.915376510857
0.935014373987
0.968400434634
0.9684386086
0.968400434634
0.968429019395
0.968399519285
0.96840248982
0.956339183602
0.895359444215
0.741185992208
0.512147480122
0.278473351255
0.104294081231
0.05678135537
0.0906808801316
0.416824921797
0.824263744793
0.936965455905
0.942175449631
0.928936226277
0.952450768968
0.968439605403
0.968401418558
0.968435054734
0.968400434634
0.968415220927
0.967473337288
0.937917775684
0.834922307492
0.636953161313
0.395990184349
0.180051459815
0.0636301768126
0.0639450941681
0.244678175514
0.716017192374
0.93075047492
0.951499224399
0.953113723082
0.942955269331
0.95395602715
0.968400798008
0.968439198615
0.968400798008
0.968426040366
0.968399799668
0.958383955278
0.889916960474
0.723030802705
0.483611956812
0.248729365439
0.0803368272647
0.0635838406813
0.124530857406
0.559786435331
0.902157798934
0.951491060913
0.953940023333
0.953938308043
0.953869817857
0.953939741655
0.968438648333
0.968400798008
0.968432127013
0.968399799668
0.966163831983
0.922422025162
0.774308434211
0.532429458691
0.284689177944
0.0950296924659
0.0436180717099
0.0679813816461
0.405410421578
0.852318796942
0.949234587708
0.953944648521
0.953938229129
0.95395616922
0.953939491334
0.953968554597
0.968399799668
0.968438603045
0.968399799668
0.968410562029
0.938841859063
0.801995138489
0.540994741508
0.275343181396
0.0899462899572
0.0239265969661
0.0318154354606
0.279811395404
0.793427164114
0.944857922383
0.953945787912
0.953938236796
0.953955321509
0.953939319846
0.95395779751
0.953941075082
0.968439530972
0.968399799668
0.968415665866
0.948882533331
0.813551939413
0.514308594742
0.2251350144
0.0613992074054
0.0099312022886
0.011322719113
0.18266002194
0.730286765929
0.93903986848
0.953946670077
0.953938236796
0.953956714227
0.953939178506
0.953959262593
0.953940627023
0.95396877748
0.968398850403
0.968428693255
0.958460822941
0.834169657703
0.480455285081
0.157977273876
0.0293263994068
0.00234232878167
0.002327552711
0.100884477208
0.645677017877
0.930927753713
0.953945356953
0.953938236796
0.953957321715
0.953939429793
0.953957613199
0.953940514892
0.953960596466
0.95394229458
0.968436085834
0.968398850403
0.889057881244
0.510026965813
0.116410787564
0.0113938232896
0.000505862939118
0.000369051764953
0.0296667757247
0.482688637532
0.907997919234
0.953882114956
0.953938236796
0.953955451235
0.953939429793
0.953956366932
0.953940765244
0.953960223448
0.953942159373
0.953967737106
0.968397951181
0.967756755264
0.668359370536
0.158206848303
0.00712514945484
0.000214624266583
0.000169937273973
0.000638031586128
0.185857422202
0.794860848605
0.949691274958
0.95393738553
0.953953499506
0.953938606094
0.953954191231
0.953940050405
0.953955086681
0.953941315165
0.953960459577
0.953942680203
0.968424936914
0.957820050912
0.419913618111
0.0306384144084
0.000259356403615
0.000169937273973
0.000169899072041
0.0011892292789
0.287686677357
0.871266133922
0.952998617631
0.953947984932
0.953937424634
0.953952971707
0.953938645841
0.953952540005
0.953940089892
0.953957838211
0.953941354678
0.953964940372
0.968396953338
0.948493825189
0.322788232494
0.0128044617702
0.000169937273973
0.00016990349596
0.000169933270315
0.000885989612431
0.257933672769
0.859778447936
0.952123571707
0.953936090943
0.95394962913
0.953937424634
0.953950993552
0.953938645841
0.953953278209
0.953940089892
0.953960857647
0.953941354678
0.968405580903
0.952278688278
0.342588881986
0.0139243532441
0.000169924931581
0.000169933270315
0.000169895018949
0.000325774502033
0.1438877227
0.779151223382
0.942213155335
0.953939333252
0.953936090943
0.953948228881
0.953937424634
0.953950040137
0.953938645841
0.953956602054
0.953940089892
0.953965574233
0.968395991424
0.958352322451
0.543027364755
0.0576359084119
0.000677112514205
0.000169895090373
0.000169929127645
0.000169891109439
0.0327752086767
0.555636926061
0.901185483618
0.951112195328
0.953939200637
0.953936090943
0.95394461668
0.953937424634
0.953948954689
0.953938645841
0.953960019808
0.953940089892
0.962702879688
0.955654539322
0.843142473857
0.276493832222
0.0175838979308
0.000226972091607
0.000169901295699
0.0001699249571
0.00264894856045
0.262231019306
0.769729288475
0.92874311293
0.952296357212
0.953938075442
0.953936090943
0.953943065018
0.953937424634
0.953952131819
0.953938645841
0.953968094878
0.943147945224
0.955224143258
0.944279142431
0.595725829664
0.114491323926
0.00364052712825
0.0001699249571
0.000169899508638
0.000211653548221
0.0573872496031
0.502886491381
0.84096260603
0.938830368009
0.952488193376
0.953936142246
0.953936090943
0.953941660248
0.953937424634
0.9539571175
0.953938645841
0.905816209431
0.943932922487
0.943375112325
0.733510859397
0.234061981241
0.0159733043837
0.000267854033066
0.000169920916423
0.000169888981183
0.00509156476616
0.224063895122
0.656776090019
0.886875795278
0.944267289091
0.952660497712
0.953836610148
0.953936090943
0.953943922029
0.953937424634
0.95396985857
0.847627665627
0.900979733583
0.920783242962
0.701735952976
0.228060377318
0.0166882137023
0.000278547673526
0.000169890319031
0.000169921206687
0.000328495431561
0.066375995297
0.454881524977
0.770259498171
0.920215060761
0.948250799459
0.952826726833
0.953757735341
0.953936090943
0.953949950891
0.953937424634
0.762284377846
0.831052065956
0.87865234868
0.617525663498
0.174273708656
0.0105491934274
0.000206197809001
0.000169916702281
0.00016988485827
0.000169920916423
0.0147609985919
0.321822577351
0.632115668759
0.87492540279
0.939289259389
0.950325103777
0.953100080695
0.953936675368
0.953936090943
0.9539688667
0.633342274213
0.786519316504
0.835372884929
0.553519715169
0.136729882007
0.0065940164222
0.000176721188088
0.000169889941878
0.000169916702281
0.000169882520206
0.00730063644032
0.275565522952
0.567956139296
0.822064605715
0.924975610733
0.945432094772
0.951698054922
0.953922369651
0.953941601146
0.953936090943
0.537714616647
0.786492619065
0.765429819887
0.422449611941
0.0739924275176
0.00198938677468
0.000169897496747
0.000169912458368
0.000169886371492
0.000328888988342
0.0133520926591
0.278638192735
0.587885917297
0.788577974581
0.905650091071
0.936834061606
0.94850003724
0.953339190315
0.953934728776
0.953963590496
0.610524500377
0.786461533188
0.625651019657
0.19373541857
0.0130072698682
0.000230282610953
0.000169910026418
0.000169890480106
0.000227459331445
0.00245789450589
0.0426237263967
0.305962750635
0.629403718599
0.750614228389
0.878192239805
0.921399935842
0.940382494162
0.949436191
0.951568280229
0.953934728776
0.741843822288
0.786419922874
0.524368447225
0.0711586784719
0.000929808138026
0.000169910026418
0.000169894528202
0.000169908372711
0.000668301177854
0.00982528788312
0.0943481734562
0.37057120752
0.644363144468
0.710608393031
0.840961028491
0.897599790115
0.923138055157
0.936028740888
0.939277743087
0.953940521853
0.741319132951
0.786389226965
0.557318666273
0.104169872036
0.00139463067586
0.000169898498182
0.000169906144771
0.000342615569193
0.00398043854242
0.0423678789104
0.204092173445
0.465378408445
0.645615710658
0.699684309387
0.80766534506
0.868587922442
0.894427041486
0.9048794233
0.9044900848
0.935013964933
0.648727672803
0.741712526079
0.548269941222
0.155077778786
0.00210052818445
0.000176384638688
0.000875458993992
0.00793472723425
0.0487679396116
0.175823041993
0.385985875876
0.578409170733
0.669757481385
0.720024111644
0.793677299284
0.839653036076
0.855042336401
0.852000222525
0.835213871282
0.841634221131
0.538083134413
0.596912609777
0.469306629004
0.0591636222016
0.000905174616895
0.00376694806895
0.0229749335017
0.0868050808036
0.219081234998
0.400628238509
0.567398916584
0.664305269799
0.7080288607
0.750718244743
0.788107083515
0.806532283696
0.805785456758
0.776179131012
0.723810817007
0.635436147328
0.423291960949
0.47627762776
0.350044724986
0.0110497220473
0.00327853111668
0.0265350213205
0.0910891305581
0.213171828936
0.373908436093
0.53282870435
0.643275326859
0.693072490097
0.717938083869
0.738736279324
0.745885452451
0.735438803777
0.709489380119
0.628867653337
0.514603234033
0.514532522339
0.558919397804
0.475861936567
0.375741753104
0.0737437169402
0.00358076941987
0.0214499648762
0.0774984758402
0.188498154242
0.34708013644
0.515751938853
0.633599389888
0.684183644616
0.701760624091
0.698485335778
0.656433082434
0.58662371086
0.516775752264
0.420052938606
0.282969581993
0.604017762324
)
;

boundaryField
{
    emptyPatch
    {
        type            empty;
    }
    minY
    {
        type            fixedValue;
        value           nonuniform List<scalar> 0();
    }
    maxY
    {
        type            inletOutlet;
        phi             phi.gas;
        inletValue      uniform 1;
        value           nonuniform List<scalar> 
20
(
0.558919397804
0.475861936567
0.375741753104
0.0737437169402
0.00358076941987
0.0214499648762
0.0774984758402
0.188498154242
0.34708013644
0.515751938853
0.633599389888
0.684183644616
0.701760624091
0.698485335778
0.656433082434
0.58662371086
0.516775752264
0.420052938606
0.282969581993
0.604017762324
)
;
    }
    maxX
    {
        type            zeroGradient;
    }
    water_to_heater
    {
        type            zeroGradient;
    }
    procBoundary2to1
    {
        type            processor;
        value           nonuniform List<scalar> 
20
(
0.05210550796
0.058865922749
0.198918528062
0.65562601719
0.70147804074
0.700917281843
0.72216864722
0.716033169847
0.703375068765
0.718102383589
0.736760231593
0.746346200195
0.730511801754
0.608770193033
0.488626442784
0.429879294976
0.399196308184
0.489435529255
0.549108364918
0.548998229602
)
;
    }
    procBoundary2to3
    {
        type            processor;
        value           nonuniform List<scalar> 
39
(
0.0148407385278
0.0112475080882
0.464740753709
0.245015671487
0.0140283683401
0.00847591690347
0.298509522811
0.762483105764
0.931030764038
0.960276497043
0.965789883088
0.965789883088
0.952562120853
0.955966493892
0.957439913401
0.958886689448
0.962799853994
0.968395076851
0.968418661794
0.968395991424
0.96841148877
0.968395991424
0.968395991424
0.968395991424
0.966490720586
0.952675785195
0.916593259671
0.864713620784
0.810524742111
0.743364595162
0.635005047147
0.409401737069
0.416890271273
0.546769713595
0.282333096608
0.0565156409916
0.0466808481282
0.077130849566
0.510921451843
)
;
    }
}


// ************************************************************************* //
