/*--------------------------------*- C++ -*----------------------------------*\
| =========                 |                                                 |
| \\      /  F ield         | OpenFOAM: The Open Source CFD Toolbox           |
|  \\    /   O peration     | Version:  2312                                  |
|   \\  /    A nd           | Website:  www.openfoam.com                      |
|    \\/     M anipulation  |                                                 |
\*---------------------------------------------------------------------------*/
FoamFile
{
    version     2.0;
    format      ascii;
    arch        "LSB;label=32;scalar=64";
    class       volScalarField;
    location    "0.69/water";
    object      d.gas;
}
// * * * * * * * * * * * * * * * * * * * * * * * * * * * * * * * * * * * * * //

dimensions      [0 1 0 0 0 0 0];

internalField   nonuniform List<scalar> 
1504
(
0.00498285681087
0.00498290407356
0.00498288237483
0.00498288591383
0.00498290261
0.00498292559536
0.00498295468122
0.00498297283241
0.0049829914292
0.00498300838702
0.00498302764874
0.00498304936312
0.00498307214809
0.00498309220606
0.00498309997862
0.00498310974629
0.00498311819377
0.00498312188152
0.00498312491516
0.00498313454829
0.00498305719436
0.00498311005461
0.00498308792251
0.00498309473866
0.00498311464376
0.00498313951539
0.00498316368688
0.00498318482066
0.00498320232367
0.00498322251071
0.00498324657285
0.00498326731283
0.00498329686408
0.00498331090792
0.00498332314638
0.00498333933605
0.00498335147089
0.0049833559344
0.00498335659506
0.00498336294792
0.00498325192506
0.00498332145889
0.00498331060568
0.00498332021898
0.00498334093315
0.00498336717805
0.00498339725306
0.00498342088712
0.00498344621568
0.0049834773506
0.00498349621534
0.00498351912626
0.00498353651461
0.00498354998318
0.0049835674225
0.00498358643001
0.00498359690154
0.00498360020042
0.00498360069651
0.00498360521958
0.00498353988074
0.00498363227012
0.00498363009406
0.00498363930928
0.00498366004906
0.00498368699295
0.00498371793208
0.00498374722175
0.00498377108215
0.00498377971887
0.00498378803413
0.00498379955708
0.00498381133861
0.00498382480926
0.00498384173189
0.0049838558437
0.00498386283307
0.00498386346699
0.00498386379398
0.00498386512969
0.00498402936555
0.00498413365414
0.00498414036535
0.00498414814076
0.0049841570637
0.00498416184148
0.00498416582616
0.00498416340334
0.00498415017681
0.00498413592739
0.0049841291373
0.00498412861069
0.00498413037899
0.00498413431087
0.00498413994906
0.00498414453003
0.00498414593563
0.00498414318923
0.00498414046349
0.00498413655498
0.00498460837477
0.00498469320713
0.00498467991606
0.00498467737508
0.00498467364677
0.00498465834896
0.00498463117002
0.00498459551906
0.00498455798957
0.00498452558524
0.00498450135776
0.00498448304743
0.00498446718921
0.00498445327521
0.00498444257231
0.00498443437818
0.00498442829997
0.00498442156861
0.00498441421576
0.00498440632307
0.00498500718191
0.00498505243588
0.00498502256517
0.00498501498984
0.00498501235816
0.00498500413135
0.00498498268787
0.00498494929156
0.00498491142555
0.00498487421801
0.00498483980725
0.0049848082151
0.00498477852567
0.00498475125515
0.00498472822159
0.00498470951958
0.0049846958774
0.00498468578049
0.0049846761069
0.00498466508505
0.00498521033044
0.00498523007611
0.00498520582292
0.00498520199542
0.00498520379772
0.00498520468661
0.00498519870815
0.00498518246355
0.00498515855615
0.00498513053083
0.00498509982464
0.00498506810993
0.00498503667459
0.00498500651693
0.00498497997216
0.00498495770374
0.00498494030368
0.00498492878602
0.00498491671869
0.00498490438164
0.00498535545551
0.00498537395093
0.00498535460411
0.00498535124252
0.00498535278797
0.00498535427363
0.00498535224512
0.00498534364006
0.00498532868597
0.00498530990809
0.00498528845814
0.00498526526594
0.00498524116562
0.00498521637858
0.0049851936367
0.00498517406337
0.00498515735928
0.00498514523986
0.00498513380692
0.0049851221962
0.00498548028914
0.00498550669893
0.0049854960255
0.00498549362208
0.00498549415504
0.004985494002
0.00498549079694
0.00498548269779
0.00498547022278
0.004985456068
0.00498544184233
0.00498542777796
0.00498541272649
0.00498539543191
0.00498537894378
0.00498536456716
0.00498535194015
0.00498534225008
0.00498533371273
0.00498532296758
0.0049856281333
0.00498565479459
0.00498563714467
0.0049856328734
0.00498563204642
0.0049856307538
0.00498562637204
0.00498561773861
0.00498560622543
0.00498559483996
0.0049855850717
0.00498557732404
0.00498556873676
0.00498555812744
0.00498554831533
0.00498553906848
0.00498553129858
0.00498552618829
0.0049855215569
0.00498551117701
0.00498575600236
0.00498578597779
0.00498576706707
0.00498576321518
0.00498576269632
0.00498576123364
0.00498575653408
0.00498574804996
0.00498573759364
0.00498572792192
0.00498572112117
0.00498571917194
0.00498571755263
0.00498571319422
0.00498570917409
0.00498570412969
0.0049857005947
0.00498570137279
0.00498570128205
0.00498568848759
0.00498588030042
0.00498591673702
0.00498589574098
0.00498589104438
0.00498588991393
0.00498588746487
0.00498588173201
0.00498587259476
0.00498586237331
0.00498585460599
0.00498585319691
0.00498585904695
0.00498586289435
0.00498586443122
0.00498586656652
0.0049858651441
0.00498586576502
0.00498587363658
0.00498587673631
0.00498586867275
0.00498599348162
0.00498603751548
0.00498601879547
0.00498601436642
0.00498601303743
0.00498600961268
0.00498600269105
0.00498599344009
0.00498598510908
0.00498598169314
0.00498598773229
0.00498600063063
0.00498601043187
0.00498601944804
0.00498602572203
0.00498602721402
0.00498603206458
0.00498604813224
0.00498605962943
0.00498605253257
0.00498610991348
0.00498616467433
0.00498614828187
0.00498614287215
0.00498614023044
0.00498613483753
0.00498612673601
0.00498611854379
0.00498611381214
0.00498611644816
0.00498613097272
0.00498615099584
0.00498616673126
0.00498618261929
0.00498619104047
0.00498619456278
0.00498620556466
0.00498623038639
0.00498624463372
0.00498624196914
0.0049862607722
0.00498631409289
0.00498628863438
0.00498628042703
0.00498627603567
0.00498626862504
0.0049862600364
0.00498625433734
0.00498625459329
0.00498626492303
0.00498628907749
0.00498631524954
0.00498633875759
0.00498635822429
0.00498636488422
0.00498637210198
0.00498639032852
0.00498641965123
0.00498644127426
0.00498643928266
0.00498643906043
0.00498649746809
0.00498646025316
0.00498644735856
0.00498643986024
0.00498642925783
0.00498642007297
0.00498641722243
0.00498642333946
0.00498644291783
0.00498647500036
0.00498650589951
0.00498653362917
0.00498654683749
0.0049865527983
0.00498656471335
0.00498658572409
0.00498661810496
0.00498664042793
0.0049866425011
0.00498668264977
0.00498673463049
0.0049866860065
0.00498666775243
0.00498665524276
0.00498664013305
0.00498662972828
0.00498662908085
0.00498664105348
0.00498666766328
0.00498670076673
0.00498672990437
0.00498674959873
0.00498675695813
0.00498676443604
0.00498677730873
0.00498680007736
0.00498683137572
0.0049868546866
0.00498685300756
0.00498697748826
0.0049870220741
0.00498696590782
0.00498694455339
0.0049869285211
0.00498691130666
0.00498690074994
0.00498690115878
0.00498691534554
0.00498693974834
0.00498696405325
0.0049869833303
0.00498699369474
0.0049869980249
0.00498700215369
0.00498701377021
0.00498702946344
0.00498705525938
0.00498707514339
0.00498707554814
0.00498735562649
0.00498737369412
0.00498731427398
0.00498729226596
0.00498727044851
0.00498725186981
0.00498723876184
0.00498723379333
0.00498723898186
0.00498724970795
0.00498725899107
0.00498726518651
0.00498726524162
0.00498726096977
0.00498725832759
0.00498726257411
0.00498727190273
0.0049872919941
0.00498730783521
0.00498730358723
0.00498784687434
0.00498781165762
0.00498772822091
0.0049876973855
0.00498767015268
0.00498764727456
0.00498762548608
0.00498760611426
0.00498759160813
0.00498758044375
0.00498756983306
0.00498755851974
0.00498754451647
0.00498753006966
0.0049875202692
0.00498751687079
0.0049875150077
0.00498752562239
0.00498753634214
0.00498753074241
0.00498817788655
0.00498816239026
0.00498811870867
0.00498808432827
0.00498805407541
0.0049880262224
0.00498799453724
0.00498795883796
0.00498792302684
0.00498788915348
0.00498785823218
0.00498782951799
0.00498780302639
0.00498778072807
0.00498776448543
0.00498775271986
0.00498774582917
0.00498775308767
0.00498775858471
0.0049877512029
0.00498827297682
0.00498827338848
0.00498825918019
0.00498824421973
0.00498823235603
0.0049882208894
0.00498820200304
0.0049881736094
0.00498814083771
0.00498810838897
0.0049880774669
0.00498804662883
0.00498801802195
0.00498799457068
0.00498797737449
0.00498796507827
0.00498795610377
0.00498795999372
0.00498796546922
0.00498795939237
0.00498832684865
0.00498832730645
0.00498831241851
0.00498830053641
0.00498829649523
0.00498829530686
0.00498828892517
0.00498827419298
0.00498825609432
0.00498824052636
0.00498822266383
0.00498820361248
0.00498818582543
0.00498817076475
0.00498815780844
0.00498814831556
0.00498814447382
0.00498815087664
0.00498815605119
0.00498815376165
0.00498838150679
0.00498838152756
0.00498835960261
0.00498834485727
0.00498834136112
0.00498834200277
0.00498833910182
0.0049883318711
0.00498833037669
0.00498833258446
0.00498833035821
0.00498832414587
0.00498831940839
0.00498831589062
0.00498831370866
0.0049883139588
0.00498831670895
0.00498832374192
0.00498833533191
0.00498834307032
0.00498845048686
0.00498843842318
0.00498839084718
0.0049883683684
0.00498836636755
0.00498837031392
0.00498837329549
0.00498838266211
0.00498840306403
0.00498841941051
0.00498842453997
0.00498843152379
0.0049884388658
0.00498844697706
0.00498845758473
0.00498846727975
0.00498847810057
0.00498849175684
0.00498851366708
0.00498853230012
0.00498853184695
0.00498848893354
0.00498840966644
0.00498838174813
0.00498838492306
0.00498839802256
0.00498841855524
0.00498845499243
0.00498849001797
0.00498850642124
0.00498852414365
0.00498854083624
0.00498855935909
0.00498857989872
0.00498859904362
0.00498862103707
0.00498864094891
0.0049886648541
0.00498869851196
0.00498872764343
0.00498864120096
0.00498855322543
0.00498844699392
0.004988414606
0.00498842281378
0.00498844904029
0.0049884959684
0.00498854819097
0.00498857774299
0.00498860505335
0.00498863016827
0.00498865839108
0.00498868857288
0.0049887178262
0.00498875046198
0.00498878052787
0.00498881344983
0.00498884969143
0.0049888937005
0.00498893115116
0.00498869654689
0.00498861216852
0.00498848762763
0.00498845486036
0.00498847244845
0.00498852214144
0.00498859175153
0.00498864191424
0.00498867968681
0.00498871235049
0.00498875030753
0.00498878934533
0.00498882853841
0.00498887155443
0.00498891119214
0.00498895504908
0.00498899798758
0.00498904665337
0.00498909958879
0.00498914554941
0.00498871730464
0.00498865098069
0.00498852956395
0.00498850646283
0.00498854816472
0.00498863137713
0.00498870584919
0.00498875689063
0.00498879645504
0.00498884352834
0.00498889013287
0.00498893791825
0.00498899001637
0.00498903874755
0.00498909230596
0.00498914276364
0.00498919792981
0.00498925493706
0.00498931651375
0.00498937188404
0.00498876349788
0.00498871671173
0.0049885707598
0.00498857638573
0.00498867080926
0.00498877249515
0.00498884258962
0.0049888907908
0.00498894714204
0.00498900106261
0.00498905708002
0.00498911742898
0.00498917423399
0.00498923645315
0.00498929398918
0.00498935609503
0.00498941640311
0.00498948041521
0.00498954759257
0.00498961197627
0.00498883049226
0.00498882952026
0.00498870090973
0.0049887543341
0.00498887514092
0.00498896474866
0.00498902028437
0.00498908393241
0.00498914465543
0.00498920833871
0.00498927527337
0.00498933838532
0.00498940839978
0.00498947202605
0.0049895409439
0.0049896043048
0.00498966787834
0.00498973108729
0.00498979779951
0.0049898641009
0.0049890333981
0.00498910141576
0.00498901885826
0.0049890680607
0.00498915724544
0.0049892246464
0.00498929292266
0.00498936228509
0.00498942953767
0.00498950448674
0.00498957231584
0.004989650111
0.00498971703858
0.00498978826239
0.00498984907466
0.00498990630529
0.00498996012979
0.00499001423092
0.00499006928737
0.00499012436959
0.00498981072961
0.00498993708305
0.00498984320989
0.0049898388504
0.00498987029163
0.00498990208804
0.00498993701303
0.00498996568665
0.00499000270351
0.00499003722212
0.00499008225184
0.00499012214834
0.00499016520448
0.00499020195264
0.00499023584936
0.00499026740868
0.00499029832077
0.00499032985133
0.00499036194288
0.00499039477523
0.00499123368859
0.00499137120244
0.00499131644418
0.00499128379403
0.00499124791134
0.00499119875645
0.00499112721578
0.00499103577112
0.0049909344711
0.00499084729565
0.0049907803081
0.00499073539904
0.00499070446955
0.00499068360176
0.0049906698929
0.00499066100564
0.00499065646746
0.00499065616403
0.0049906594549
0.00499066578086
0.00499158464964
0.00499161444052
0.00499160171218
0.00499159558405
0.00499159179287
0.00499158454827
0.00499156789156
0.00499153661862
0.00499148447725
0.00499140805936
0.0049913177251
0.00499123048492
0.00499115635465
0.00499109628761
0.00499104747929
0.00499100762334
0.00499097549538
0.00499094987892
0.00499092999955
0.00499091482469
0.00499153475455
0.00499153567663
0.00499153629417
0.00499153681613
0.00499153726906
0.00499153768565
0.00499153807864
0.00499153842402
0.00499153838876
0.00499153108527
0.00499150689388
0.00499146402992
0.00499140864649
0.00499135182746
0.0049913000143
0.00499125436091
0.00499121436324
0.00499117939484
0.00499114900279
0.00499112222409
0.00499154676223
0.00499154685302
0.00499154690458
0.00499154701753
0.00499154717689
0.00499154739013
0.00499154765351
0.00498297438077
0.00498298310746
0.00498299032293
0.00498299625069
0.00498300110487
0.00498300509833
0.00498300843184
0.00498301125908
0.00498301367337
0.00498301573321
0.00498301748107
0.00498301894891
0.00498302015973
0.00498302112615
0.00498302185269
0.00498302233682
0.00498302264038
0.00498315034185
0.00498316556643
0.00498317793694
0.0049831882339
0.00498319681369
0.00498320387822
0.00498320964324
0.00498321433877
0.00498321819511
0.00498322141833
0.00498322415551
0.00498322649565
0.00498322849624
0.00498323019888
0.00498323163473
0.00498323282533
0.0049832337814
0.0049832345031
0.00498323498711
0.00498323530774
0.00498337651597
0.00498339068019
0.0049834019831
0.00498341128377
0.00498341898934
0.00498342526746
0.00498343032621
0.00498343440523
0.00498343774008
0.00498344052813
0.00498344290119
0.00498344493815
0.00498344668976
0.00498344819213
0.00498344947138
0.00498345054468
0.00498345141683
0.00498345208212
0.00498345253193
0.0049834528518
0.0049836151996
0.00498362694243
0.00498363606065
0.0049836433494
0.0049836493026
0.00498365405679
0.00498365779857
0.00498366075916
0.0049836631583
0.00498366516647
0.00498366688895
0.00498366838582
0.00498366969376
0.00498367083724
0.00498367183284
0.00498367268913
0.00498367340304
0.00498367395822
0.00498367433872
0.00498367463714
0.00498386866067
0.00498387496784
0.00498387991362
0.00498388371014
0.00498388678067
0.00498388914443
0.00498389089912
0.00498389221768
0.00498389326495
0.00498389415755
0.00498389495745
0.00498389569375
0.00498389637953
0.00498389702065
0.00498389761846
0.00498389816913
0.0049838986575
0.00498389905545
0.00498389933501
0.00498389959079
0.00498413326138
0.0049841316251
0.00498413060829
0.00498412963784
0.00498412888539
0.0049841281683
0.00498412742417
0.00498412671469
0.0049841261114
0.00498412565276
0.00498412534268
0.00498412516852
0.00498412511193
0.00498412515423
0.00498412527741
0.00498412546176
0.00498412567904
0.00498412588617
0.00498412604238
0.00498412623806
0.00498439876199
0.00498438964844
0.00498438228513
0.00498437625466
0.00498437145882
0.00498436751229
0.00498436417493
0.00498436137648
0.00498435908013
0.004984357239
0.00498435579557
0.00498435469297
0.00498435387963
0.00498435331121
0.00498435294932
0.00498435275819
0.00498435269541
0.00498435270521
0.00498435273217
0.00498435285678
0.00498465473314
0.004984640988
0.00498462840134
0.00498461807316
0.00498460983576
0.0049846031481
0.00498459762101
0.00498459306378
0.00498458934185
0.00498458633463
0.004984583933
0.0049845820431
0.00498458058577
0.00498457949519
0.00498457871618
0.00498457819947
0.00498457789241
0.0049845777277
0.00498457763917
0.00498457769237
0.00498489272281
0.00498487826479
0.00498486307374
0.00498485025211
0.00498483993197
0.00498483156259
0.00498482468879
0.00498481904626
0.00498481443834
0.00498481069942
0.00498480769023
0.00498480529577
0.0049848034212
0.00498480198853
0.00498480093277
0.00498480019717
0.00498479972247
0.00498479943664
0.00498479926514
0.00498479925627
0.00498511026861
0.00498509760862
0.00498508296859
0.00498506998073
0.00498505932552
0.00498505063316
0.00498504348891
0.00498503761971
0.004985032815
0.0049850289009
0.00498502573472
0.00498502320001
0.00498502120113
0.00498501965934
0.00498501850903
0.00498501769285
0.00498501715244
0.00498501681468
0.00498501660422
0.00498501655169
0.00498531086594
0.00498530025437
0.00498528832307
0.00498527720515
0.00498526783393
0.00498526010254
0.00498525371731
0.00498524845137
0.00498524412274
0.00498524058156
0.00498523770553
0.0049852353946
0.00498523356614
0.00498523215154
0.00498523109307
0.00498523034005
0.00498522983917
0.00498522952379
0.00498522932084
0.00498522924595
0.00498549870151
0.00498549002513
0.00498548193027
0.00498547409362
0.00498546721399
0.00498546140626
0.00498545655468
0.00498545252133
0.00498544918424
0.00498544644028
0.00498544420386
0.0049854424036
0.00498544097937
0.00498543988027
0.00498543906281
0.00498543848769
0.00498543811255
0.00498543787867
0.0049854377216
0.00498543764542
0.00498567835559
0.00498567263791
0.00498566854475
0.00498566447849
0.00498566063335
0.00498565720221
0.00498565425825
0.00498565177067
0.00498564969002
0.00498564796788
0.00498564656093
0.00498564543078
0.0049856445435
0.00498564386909
0.00498564338091
0.00498564305383
0.00498564285663
0.00498564274273
0.00498564265576
0.00498564259268
0.00498586164282
0.00498585593508
0.00498585408587
0.00498585298302
0.00498585184524
0.00498585064046
0.00498584952947
0.0049858485553
0.00498584772383
0.00498584703064
0.00498584646793
0.00498584602606
0.00498584569456
0.00498584546273
0.00498584532
0.00498584525449
0.00498584524757
0.00498584526178
0.00498584525143
0.00498584520895
0.00498604491322
0.0049860411836
0.00498604130549
0.00498604254748
0.0049860436414
0.00498604429432
0.00498604471216
0.00498604500555
0.0049860452278
0.00498604540915
0.00498604556922
0.00498604572052
0.00498604587103
0.00498604602538
0.00498604618592
0.00498604635196
0.00498604651352
0.00498604664303
0.00498604670124
0.00498604667794
0.00498623878305
0.00498623417003
0.00498623418404
0.0049862361819
0.00498623845214
0.00498624024447
0.00498624164956
0.00498624278824
0.00498624373028
0.00498624451997
0.00498624518988
0.00498624576426
0.00498624626157
0.00498624669571
0.00498624707727
0.00498624741253
0.0049862476987
0.0049862479124
0.00498624802111
0.00498624801146
0.00498643567388
0.0049864320546
0.00498643198963
0.00498643412247
0.0049864368741
0.00498643926223
0.00498644118563
0.0049864427687
0.00498644409413
0.00498644521292
0.004986446163
0.0049864469734
0.00498644766708
0.00498644826206
0.00498644877271
0.00498644920878
0.00498644956939
0.00498644983485
0.00498644997408
0.00498644997072
0.00498663867984
0.00498663445641
0.00498663422849
0.00498663621744
0.00498663899959
0.00498664156383
0.00498664361632
0.00498664529298
0.00498664669852
0.00498664789006
0.00498664890666
0.00498664977734
0.00498665052481
0.00498665116691
0.00498665171799
0.00498665218757
0.00498665257526
0.00498665285932
0.00498665301065
0.00498665300769
0.00498684846111
0.00498684613527
0.00498684294388
0.00498684350066
0.00498684539592
0.00498684747326
0.00498684916436
0.00498685053605
0.00498685169786
0.00498685269986
0.00498685357067
0.00498685433056
0.00498685499525
0.00498685557697
0.00498685608577
0.0049868565278
0.00498685689858
0.00498685717383
0.00498685732057
0.00498685731185
0.00498707126366
0.00498706249425
0.00498705701761
0.00498705570204
0.00498705599454
0.00498705686857
0.00498705768556
0.00498705834295
0.00498705893315
0.00498705948646
0.00498706000715
0.00498706049545
0.00498706095128
0.0049870613745
0.00498706176579
0.00498706212399
0.00498706243944
0.00498706268062
0.00498706280873
0.0049870627912
0.00498729435882
0.00498728616551
0.00498727689169
0.00498727248414
0.00498727019755
0.00498726901174
0.00498726841203
0.00498726798429
0.00498726772958
0.00498726763439
0.00498726765862
0.00498726776756
0.004987267935
0.00498726814106
0.00498726837208
0.00498726861698
0.00498726885827
0.00498726905776
0.0049872691654
0.00498726914109
0.00498752121246
0.00498750825228
0.00498749695336
0.00498748976851
0.00498748491621
0.00498748157381
0.00498747943967
0.00498747788502
0.00498747677034
0.00498747603239
0.00498747557921
0.00498747533413
0.00498747524009
0.00498747525457
0.00498747534814
0.00498747550002
0.00498747568741
0.00498747586543
0.00498747597196
0.00498747595489
0.00498773920508
0.00498772739109
0.00498771354292
0.00498770364472
0.00498769679324
0.00498769183622
0.00498768857582
0.00498768627923
0.00498768463089
0.00498768352716
0.00498768283204
0.00498768243014
0.00498768223661
0.00498768218934
0.00498768224688
0.00498768238428
0.00498768258069
0.00498768279087
0.0049876829395
0.00498768295729
0.00498794893004
0.00498793577481
0.00498792150112
0.00498791029391
0.00498790284007
0.00498789757078
0.0049878941842
0.00498789199031
0.00498789047575
0.00498788953408
0.004987889023
0.00498788880766
0.00498788878838
0.00498788889307
0.00498788907565
0.00498788931628
0.00498788961016
0.00498788992738
0.00498789017958
0.0049878902722
0.00498814725753
0.00498813582117
0.00498812188294
0.0049881105618
0.0049881035455
0.00498809915039
0.0049880967533
0.00498809556595
0.00498809491284
0.00498809469807
0.00498809482176
0.0049880951556
0.00498809560153
0.0049880960897
0.00498809657705
0.00498809705302
0.00498809753995
0.0049880980426
0.00498809847241
0.00498809870273
0.00498834154062
0.00498833221205
0.00498832091336
0.00498830949862
0.00498830296948
0.00498829994287
0.00498829917214
0.00498829954679
0.00498830022347
0.00498830110355
0.00498830215236
0.00498830326802
0.00498830436812
0.00498830539814
0.00498830632631
0.00498830714904
0.00498830790346
0.00498830864269
0.00498830930984
0.00498830977563
0.0049885370721
0.00498853151763
0.00498852183826
0.00498851175729
0.00498850604952
0.00498850463293
0.00498850575321
0.00498850784824
0.00498850999518
0.00498851205256
0.00498851405448
0.00498851595027
0.00498851768776
0.00498851924175
0.00498852060469
0.0049885217783
0.00498852278734
0.00498852370752
0.00498852458397
0.00498852541556
0.0049887378167
0.00498873736855
0.00498873236729
0.00498872435509
0.00498871964538
0.00498871943987
0.00498872199334
0.00498872548443
0.00498872881954
0.0049887317651
0.0049887344292
0.0049887368358
0.00498873897632
0.00498874086028
0.00498874249988
0.00498874388448
0.0049887449779
0.00498874582184
0.00498874663859
0.0049887479259
0.00498894914579
0.00498895646396
0.00498895620948
0.00498895283194
0.00498894984248
0.00498895014506
0.00498895318353
0.00498895735322
0.00498896129782
0.0049889646047
0.00498896744168
0.00498896994058
0.00498897215105
0.00498897410254
0.00498897579111
0.00498897716527
0.00498897815939
0.00498897870044
0.00498897898038
0.00498898046486
0.00498917325789
0.00498918915873
0.00498919622549
0.00498919847618
0.00498919846212
0.00498920001862
0.00498920352379
0.00498920797262
0.00498921202568
0.00498921517265
0.00498921763028
0.00498921969767
0.00498922148121
0.00498922299005
0.00498922431412
0.00498922552778
0.0049892266029
0.0049892273349
0.00498922696537
0.00498922893837
0.00498941130038
0.00498943652047
0.00498945123064
0.00498946028117
0.00498946682066
0.00498947326161
0.00498947932552
0.00498948399629
0.00498948723719
0.00498948915956
0.00498949016405
0.00498949068659
0.00498949089495
0.00498949098782
0.00498949107841
0.00498949107823
0.00498949091074
0.00498949055003
0.00498948985964
0.0049894918897
0.00498966269234
0.00498969716379
0.00498972113305
0.00498974112977
0.0049897604198
0.00498977669274
0.0049897867721
0.00498979132368
0.00498979242777
0.00498979138404
0.00498978914549
0.00498978660907
0.00498978413649
0.00498978184801
0.0049897796397
0.00498977743282
0.00498977531507
0.00498977348488
0.00498977209892
0.00498977435088
0.00498992040692
0.0049899628269
0.00498999704668
0.00499003186355
0.00499006607915
0.00499008999108
0.00499010354542
0.00499011120823
0.00499011429588
0.00499011296561
0.00499010805728
0.00499010152965
0.00499009448919
0.00499008749176
0.00499008115783
0.00499007563617
0.00499007079203
0.00499006679918
0.00499006400968
0.0049900659724
0.00499017534585
0.00499021794136
0.00499025786405
0.0049903018634
0.00499034042125
0.00499036622814
0.00499038439129
0.00499039885661
0.0049904109222
0.00499041728581
0.00499041820589
0.00499041323428
0.00499040560552
0.00499039328066
0.00499037855243
0.00499036670906
0.00499035759905
0.00499035030531
0.00499034505556
0.00499034580415
0.00499042606899
0.00499045657308
0.00499049120497
0.00499052982726
0.00499056196471
0.00499058445816
0.00499060173477
0.00499061809496
0.00499062912768
0.00499064014629
0.00499064214806
0.00499064305397
0.00499063538732
0.00499062923108
0.00499061595608
0.00499059923108
0.00499058635522
0.00499057731457
0.00499057074886
0.00499056998637
0.00499067309337
0.00499068301775
0.00499069930436
0.00499072047862
0.00499073821299
0.00499074800519
0.00499075523097
0.00499075862034
0.00499076562002
0.00499076549496
0.00499076765563
0.00499076234454
0.00499075644925
0.0049907500478
0.00499074999529
0.00499074128213
0.0049907286608
0.00499072031914
0.00499071505591
0.00499071347303
0.00499090308787
0.00499089384052
0.00499088877816
0.0049908878891
0.00499088905273
0.00499088766656
0.00499088255405
0.00499087748951
0.00499086953865
0.00499086371103
0.00499085494033
0.00499084630638
0.0049908389048
0.00499083211391
0.00499083070795
0.00499083339231
0.00499082242779
0.00499081148619
0.00499080679676
0.00499080491807
0.00499109887951
0.00499107861774
0.00499106003914
0.00499104375962
0.0049910311446
0.00499102012694
0.00499100834713
0.00499099596963
0.00499098398904
0.00499097103242
0.00499095790642
0.00499094519366
0.00499093179383
0.00499092161181
0.00499091541126
0.00499091815729
0.00499090973625
0.00499089289121
0.00499088578936
0.00499088310283
)
;

boundaryField
{
    emptyPatch
    {
        type            empty;
    }
    minY
    {
        type            calculated;
        value           nonuniform List<scalar> 0();
    }
    maxY
    {
        type            calculated;
        value           nonuniform List<scalar> 0();
    }
    water_to_cooler
    {
        type            calculated;
        value           nonuniform List<scalar> 
38
(
0.00498302264038
0.00498323530774
0.0049834528518
0.00498367463714
0.00498389959079
0.00498412623806
0.00498435285678
0.00498457769237
0.00498479925627
0.00498501655169
0.00498522924595
0.00498543764542
0.00498564259268
0.00498584520895
0.00498604667794
0.00498624801146
0.00498644997072
0.00498665300769
0.00498685731185
0.0049870627912
0.00498726914109
0.00498747595489
0.00498768295729
0.0049878902722
0.00498809870273
0.00498830977563
0.00498852541556
0.0049887479259
0.00498898046486
0.00498922893837
0.0049894918897
0.00498977435088
0.0049900659724
0.00499034580415
0.00499056998637
0.00499071347303
0.00499080491807
0.00499088310283
)
;
    }
    water_to_heater
    {
        type            calculated;
        value           nonuniform List<scalar> 
60
(
0.00498284601705
0.0049828834336
0.00498305571202
0.0049832504264
0.00498350501571
0.00498354952891
0.00498400436479
0.00498405139227
0.00498459510812
0.00498464205261
0.00498500557562
0.00498520861811
0.00498532433659
0.00498536350811
0.0049854590524
0.00498549797493
0.00498561653482
0.00498565571548
0.00498575415677
0.00498587842404
0.00498596227941
0.00498600132389
0.00498608835936
0.00498612755482
0.00498624892703
0.00498628830376
0.00498643703904
0.0049866806017
0.00498694381862
0.00498698590752
0.004987332305
0.00498737465448
0.00498783422691
0.00498787608731
0.00498817557013
0.00498827066874
0.00498830528175
0.00498833105643
0.00498836615901
0.00498839233568
0.00498844095281
0.00498846978666
0.00498852946266
0.00498863876054
0.0049886677222
0.004988702824
0.00498869727001
0.00498873226848
0.00498875212976
0.00498878739404
0.00498882794251
0.00498903093079
0.00498977006777
0.00498982114443
0.004991206401
0.00499125601667
0.00499157232246
0.00499161077113
0.00499153244352
0.00499154501055
)
;
    }
    procBoundary3to1
    {
        type            processor;
        value           nonuniform List<scalar> 
41
(
0.00499154796657
0.00499154830116
0.00499154891047
0.00499154702305
0.00499153716288
0.0049915157973
0.00499148380189
0.00499144684662
0.00499141029538
0.00499137558729
0.00499134319532
0.00499131343792
0.00499128578856
0.00499155658138
0.00499155667665
0.00499155675447
0.0049915568348
0.00499155692939
0.00499155704393
0.00499154796657
0.00499155718408
0.00499126009134
0.00499123619524
0.00499121349208
0.00499119090369
0.0049911692148
0.00499114910503
0.00499112971538
0.00499111097747
0.0049910930293
0.00499107521469
0.00499105730392
0.00499103799348
0.00499102194648
0.00499100742376
0.00499100019039
0.0049910044819
0.00499098982384
0.00499096173782
0.00499094862736
0.00499094379682
)
;
    }
    procBoundary3to2
    {
        type            processor;
        value           nonuniform List<scalar> 
41
(
0.00498267713021
0.00498271616709
0.00498269954731
0.00498269911149
0.00498270968508
0.00498272541698
0.00498274994703
0.0049827756122
0.00498278965681
0.00498280567882
0.00498282045787
0.00498283722544
0.00498286496269
0.00498288509965
0.00498289058531
0.00498289520844
0.00498289861378
0.00498290053709
0.004982906184
0.0049829188942
0.00498276967751
0.00498277783601
0.00498278459359
0.00498279016765
0.00498279474826
0.00498279851803
0.00498280165855
0.00498280431971
0.00498280659401
0.00498280853573
0.0049828101837
0.00498281156728