/*--------------------------------*- C++ -*----------------------------------*\
| =========                 |                                                 |
| \\      /  F ield         | OpenFOAM: The Open Source CFD Toolbox           |
|  \\    /   O peration     | Version:  2312                                  |
|   \\  /    A nd           | Website:  www.openfoam.com                      |
|    \\/     M anipulation  |                                                 |
\*---------------------------------------------------------------------------*/
FoamFile
{
    version     2.0;
    format      ascii;
    arch        "LSB;label=32;scalar=64";
    class       volScalarField;
    location    "0.08/water";
    object      p_rgh;
}
// * * * * * * * * * * * * * * * * * * * * * * * * * * * * * * * * * * * * * //

dimensions      [1 -1 -2 0 0 0 0];

internalField   nonuniform List<scalar> 
6000
(
101636.323467
101632.863861
101632.186138
101631.425267
101630.646086
101629.897392
101629.185178
101628.517736
101627.904844
101627.34472
101626.833314
101626.366849
101625.941004
101625.551842
101625.196139
101624.871348
101624.575552
101624.307498
101624.0666
101623.852832
101619.839435
101624.389155
101627.296387
101628.559165
101628.612848
101628.360729
101627.995752
101627.593729
101627.178171
101626.767252
101626.375562
101626.006115
101625.656534
101625.325201
101625.012019
101624.717786
101624.443662
101624.190949
101623.961073
101623.755539
101606.454142
101613.642829
101619.97343
101623.547289
101625.025283
101625.659126
101625.87123
101625.858149
101625.731391
101625.548537
101625.339979
101625.122293
101624.902832
101624.683638
101624.465591
101624.250246
101624.039991
101623.837764
101623.646783
101623.470184
101596.841964
101604.25901
101612.978843
101618.638757
101621.674591
101623.282174
101624.054886
101624.35041
101624.405047
101624.356174
101624.26523
101624.15286
101624.027923
101623.895108
101623.756172
101623.612122
101623.464474
101623.315545
101623.168291
101623.02584
101587.9948
101594.141986
101603.325035
101611.027914
101616.521049
101620.13233
101622.170535
101623.09886
101623.400836
101623.441649
101623.401515
101623.333188
101623.249553
101623.156416
101623.056317
101622.95005
101622.83827
101622.722238
101622.603897
101622.485478
101581.86027
101586.191963
101593.585848
101601.497144
101608.955704
101615.192947
101619.4767
101621.754085
101622.607088
101622.787198
101622.764251
101622.692306
101622.604858
101622.511136
101622.414089
101622.31412
101622.211103
101622.105376
101621.997907
101621.889927
101576.610086
101579.636235
101584.950381
101591.562851
101599.55886
101607.961563
101615.047313
101619.589088
101621.643484
101622.20824
101622.238928
101622.144425
101622.026547
101621.908285
101621.793601
101621.681962
101621.572181
101621.46362
101621.356334
101621.250526
101570.742642
101573.464885
101577.271536
101582.300767
101589.802878
101599.243098
101608.637099
101615.777909
101619.782199
101621.294171
101621.599839
101621.535959
101621.395156
101621.253665
101621.12225
101620.999541
101620.883328
101620.772106
101620.665102
101620.561894
101563.905056
101566.569054
101568.967537
101572.8369
101579.921547
101589.960716
101600.809206
101610.009168
101616.205794
101619.396031
101620.536366
101620.718876
101620.609803
101620.469329
101620.340576
101620.222833
101620.113338
101620.010202
101619.912353
101619.819046
101556.769916
101558.772661
101559.587345
101562.298816
101569.432906
101580.360372
101592.183298
101602.529543
101610.353482
101615.615275
101618.538447
101619.562175
101619.635425
101619.534402
101619.43539
101619.344612
101619.259679
101619.1791
101619.101994
101619.027758
101548.897986
101550.757285
101549.832763
101551.825468
101559.132881
101570.992107
101583.464338
101594.049635
101602.272183
101609.091093
101614.749053
101617.861949
101618.51041
101618.497247
101618.44788
101618.399819
101618.351977
101618.303857
101618.255332
101618.20636
101540.187942
101541.905235
101540.64012
101542.888024
101550.698514
101562.832331
101575.337993
101585.253846
101592.475884
101599.621247
101608.332237
101615.26029
101617.305605
101617.456609
101617.456513
101617.450202
101617.438903
101617.422982
101617.403019
101617.379489
101529.35335
101532.015924
101532.196153
101535.621569
101544.267776
101556.453514
101568.07105
101576.193869
101581.393156
101588.023358
101599.556611
101611.479179
101616.014027
101616.493728
101616.529044
101616.548581
101616.561856
101616.569182
101616.571133
101616.568153
101517.450384
101521.583046
101523.917328
101529.187469
101538.923018
101551.116077
101561.202865
101566.364498
101569.205524
101575.569133
101589.911949
101606.604466
101614.417071
101615.592414
101615.677458
101615.707947
101615.733686
101615.754861
101615.771362
101615.783129
101507.235234
101512.306349
101515.782024
101522.791711
101533.887165
101545.780169
101553.361418
101554.579059
101555.46734
101562.844096
101580.38739
101600.495608
101611.865898
101614.558352
101614.859023
101614.907771
101614.943919
101614.976074
101615.003819
101615.026839
101497.236029
101503.415652
101507.843979
101515.846597
101527.767915
101539.065506
101542.79751
101541.11352
101541.720634
101551.663258
101571.493899
101592.625875
101607.107864
101612.832684
101614.009181
101614.139435
101614.188853
101614.232036
101614.269498
101614.30115
101486.331711
101494.993298
101500.6839
101509.173807
101521.028166
101530.417291
101530.707602
101529.057457
101532.315109
101545.144898
101564.040658
101582.878673
101598.499592
101608.981914
101612.905359
101613.412991
101613.48226
101613.533759
101613.57641
101613.611257
101475.540333
101488.042826
101494.833751
101503.12865
101513.5835
101520.492312
101520.799413
101521.619432
101527.674081
101541.593128
101558.144328
101571.812564
101585.211068
101601.021267
101611.017486
101612.751861
101612.857412
101612.90339
101612.936995
101612.962247
101467.904013
101481.903031
101488.45887
101496.770647
101506.014133
101512.334527
101514.754272
101517.177681
101524.975725
101540.091475
101553.624912
101559.897389
101568.917526
101589.653532
101608.295426
101612.249854
101612.372278
101612.363087
101612.352684
101612.344869
101460.586455
101475.788705
101481.27957
101489.358988
101498.840369
101506.349346
101510.059903
101514.433058
101525.226453
101540.823585
101548.37029
101547.398751
101553.886764
101579.998702
101605.743486
101611.827872
101611.93771
101611.829375
101611.750566
101611.699071
101452.826695
101468.050831
101472.990302
101480.831043
101491.22587
101500.459843
101506.422611
101514.325399
101527.766993
101538.775764
101539.831673
101533.90595
101542.065262
101573.500973
101602.971814
101610.945126
101611.216055
101611.064025
101610.963913
101610.910946
101441.292217
101458.070706
101463.248951
101470.806372
101482.203586
101493.912013
101503.909853
101515.551183
101528.084675
101532.84114
101526.590974
101517.53591
101530.787109
101565.720907
101597.409577
101608.735616
101609.899461
101609.864498
101609.860002
101609.900238
101430.894289
101446.758633
101451.694444
101458.692378
101471.26147
101485.891348
101500.1992
101513.42176
101521.30867
101520.824115
101506.522031
101501.2773
101517.807544
101548.97616
101581.679303
101602.820887
101607.794339
101608.219424
101608.472097
101608.721016
101418.686405
101431.774575
101434.476357
101441.735031
101456.994602
101475.935794
101492.851543
101505.951701
101510.179704
101500.911351
101487.243654
101489.857444
101500.817505
101513.4175
101544.91747
101588.150346
101604.949697
101606.561972
101607.149119
101607.644167
101408.579221
101418.402978
101415.995154
101423.017725
101440.220169
101463.428429
101483.322219
101494.164727
101490.792994
101479.728862
101478.977602
101483.724843
101485.12849
101485.456965
101505.270505
101561.276804
101600.687718
101605.731768
101606.483205
101607.072178
101401.001883
101405.852544
101405.392714
101407.307159
101421.784331
101446.245227
101467.272885
101474.630622
101470.382703
101469.153573
101474.775654
101480.999495
101481.460726
101481.764405
101482.098657
101530.41707
101591.909992
101605.71341
101606.644033
101607.141099
101394.683207
101399.259998
101399.543047
101399.976634
101408.288711
101427.884888
101446.815236
101454.973906
101458.205115
101465.678569
101476.837194
101485.440552
101479.570511
101478.645692
101479.008332
101512.523973
101580.010746
101605.642637
101607.363293
101607.679149
101390.465536
101392.897578
101393.701267
101393.783992
101399.885447
101415.151122
101432.29689
101444.296361
101454.07398
101466.191611
101485.287745
101496.518818
101485.561757
101475.567042
101475.821638
101505.552763
101572.069758
101605.278109
101608.253131
101608.399268
101383.337346
101387.341345
101387.878633
101388.524846
101394.061444
101409.227068
101426.642804
101440.188205
101452.138847
101470.723581
101495.69363
101503.451648
101495.525613
101475.378668
101472.312033
101502.6343
101569.132029
101605.092118
101608.946492
101609.004792
101377.583411
101380.077703
101381.560146
101381.541892
101387.301532
101403.549326
101422.202603
101437.371327
101453.723597
101478.127296
101500.307536
101500.519824
101500.364654
101482.951886
101470.415455
101500.570342
101567.989947
101605.080387
101609.226214
101609.28246
101369.323236
101373.371739
101373.919216
101374.673613
101379.897111
101397.729886
101419.443213
101438.496383
101460.05632
101486.796139
101497.121538
101497.03323
101497.188305
101494.440443
101475.565799
101499.511341
101566.743598
101604.783408
101608.914938
101609.069732
101362.156951
101365.170412
101366.073479
101365.974311
101371.240621
101390.061816
101415.974322
101440.935693
101466.766263
101490.798876
101492.708886
101492.957555
101492.774781
101493.091464
101481.479406
101495.891823
101564.304814
101603.668343
101607.810608
101608.215692
101352.69491
101356.638023
101356.152291
101357.015616
101361.125982
101380.154491
101407.90452
101436.52107
101465.309641
101487.206873
101487.516343
101487.624539
101488.429717
101487.724588
101478.053391
101486.556592
101560.207898
101601.275166
101605.702054
101606.581695
101342.816822
101346.712115
101347.351746
101346.946579
101349.219828
101367.0805
101396.536062
101427.559687
101458.196103
101481.388445
101481.678996
101482.332242
101482.130244
101483.216925
101449.73043
101462.367557
101552.267907
101596.322766
101602.16722
101603.98243
101332.871806
101337.386139
101337.128066
101338.009924
101337.489314
101351.749893
101380.407928
101414.137961
101448.251241
101475.021028
101475.503124
101475.249956
101475.939957
101467.554682
101371.889491
101421.496938
101533.901313
101587.032473
101596.959279
101600.465297
101324.201743
101328.638538
101329.082589
101328.655488
101328.841932
101337.89387
101362.589383
101397.130589
101435.57799
101468.544667
101469.331068
101469.253484
101466.191206
101391.689368
101331.488648
101382.253959
101500.749989
101573.721625
101590.73811
101596.651027
101316.518851
101321.864125
101320.687142
101321.403857
101320.96432
101327.86244
101349.076515
101382.376669
101424.040647
101463.561372
101464.767269
101462.879972
101428.877228
101322.144712
101325.263
101354.786089
101465.241764
101558.393937
101584.28201
101593.073452
101310.033321
101317.410229
101314.087838
101313.882024
101314.016825
101320.923419
101341.842721
101374.286208
101416.353497
101458.900177
101460.202422
101444.274805
101328.416355
101317.3289
101317.549848
101337.611647
101438.767116
101543.89775
101578.530751
101589.998754
101302.970742
101314.181032
101307.381617
101307.705692
101307.375493
101315.678452
101337.298788
101370.018564
101410.731768
101449.592321
101443.265829
101354.343014
101309.916522
101309.315699
101312.85054
101323.227414
101419.129137
101531.258198
101573.970014
101587.553842
101297.724848
101313.50679
101303.058147
101301.449097
101302.746942
101314.162287
101336.743312
101368.714892
101403.900233
101423.034869
101384.879641
101303.561686
101302.851596
101306.455779
101305.272459
101308.513587
101400.601046
101518.968945
101570.038299
101585.538307
101296.342057
101314.117249
101303.617173
101298.119999
101302.010929
101316.217953
101338.99604
101367.121917
101392.538876
101384.677563
101319.132246
101297.818025
101300.648823
101298.233021
101302.057628
101301.913388
101382.269048
101505.008707
101565.849326
101583.598044
101298.086978
101308.858487
101306.488296
101298.577291
101302.826612
101318.073478
101339.5318
101360.762016
101372.763374
101350.007716
101293.573128
101294.750114
101292.184302
101295.819308
101293.948235
101297.448193
101362.725366
101487.130556
101560.055785
101581.292566
101299.791171
101302.084841
101302.551532
101294.683753
101300.004684
101317.012368
101335.55763
101349.2441
101348.684312
101321.454922
101288.77165
101286.786731
101289.594043
101286.994614
101290.943088
101290.403026
101343.595432
101465.384692
101551.596852
101578.478681
101295.112414
101292.761664
101290.399702
101279.737538
101291.355716
101311.940457
101328.08484
101334.975996
101330.630951
101305.246107
101281.893928
101283.166673
101280.75082
101284.521826
101282.720226
101286.28999
101327.728194
101443.426866
101540.387202
101575.266359
101282.453127
101273.352194
101253.153757
101252.809715
101276.200408
101301.824307
101317.634598
101322.542006
101320.707893
101297.860512
101276.472018
101275.285335
101278.014125
101276.026467
101279.976792
101279.688507
101319.176737
101428.117895
101529.10169
101572.142659
101242.5665
101219.45831
101214.647365
101220.319412
101250.633264
101283.827396
101304.664313
101314.515139
101314.906886
101293.193677
101270.198972
101271.579404
101270.382612
101273.974519
101272.980011
101276.300703
101315.770763
101423.364184
101522.022595
101570.180391
101168.701831
101179.96955
101189.327976
101194.232305
101221.956002
101260.838072
101292.227677
101310.41674
101315.173428
101296.26155
101267.093702
101266.34093
101268.700907
101267.868061
101271.325527
101271.70815
101316.495944
101424.70683
101521.844776
101570.922141
101164.741189
101168.745874
101174.590557
101180.549117
101204.648433
101245.776539
101287.584133
101314.64227
101327.200062
101314.829408
101275.869582
101265.170819
101265.013757
101267.82445
101267.680705
101270.192025
101327.24798
101435.248276
101526.407067
101574.62632
101169.310605
101168.646725
101169.462142
101171.975898
101196.447424
101240.300568
101290.31394
101328.163934
101350.983528
101349.363985
101306.924057
101265.525254
101266.112758
101266.012323
101268.339986
101275.963442
101353.618442
101458.284082
101537.718349
101581.253022
101166.094792
101170.707202
101169.671656
101170.832664
101190.660278
101237.88837
101298.759768
101349.69874
101384.496274
101393.941807
101358.981679
101289.734745
101266.499682
101267.896594
101268.414884
101302.229385
101392.941428
101488.346534
101555.239358
101592.237698
101172.051246
101170.869336
101172.327902
101171.480142
101183.086214
101232.196972
101302.466748
101370.661189
101421.440192
101442.573612
101422.506841
101351.209354
101293.198989
101280.452509
101290.471067
101347.711145
101436.020037
101517.299675
101574.315937
101606.048915
101169.003769
101173.655584
101171.910718
101173.81611
101173.752235
101219.597522
101298.319068
101373.71356
101439.271819
101486.198519
101484.144638
101439.61676
101369.982175
101340.720314
101356.121795
101406.198348
101474.406187
101540.373375
101591.412023
101619.959891
101175.418949
101173.986799
101175.706272
101173.965049
101175.69911
101204.261498
101280.14494
101366.127677
101440.131008
101499.336695
101529.097346
101517.425592
101475.057653
101439.360103
101440.913511
101462.919249
101503.439494
101556.37431
101605.274611
101632.228668
101173.674033
101177.64997
101175.777689
101177.697853
101176.684916
101191.661886
101253.041188
101344.221354
101430.510206
101500.888939
101545.720702
101552.883131
101544.112498
101524.970546
101508.336358
101506.63022
101523.829386
101567.240907
101616.328486
101642.497731
101179.77329
101178.645026
101179.864536
101178.179894
101179.846076
101185.773598
101233.476128
101320.340634
101413.934624
101495.947717
101551.419158
101562.246854
101561.656027
101559.133554
101548.198221
101534.405007
101540.515212
101576.640622
101626.030879
101651.394587
101179.775359
101182.211716
101181.077149
101182.240489
101181.597684
101186.656859
101230.78926
101312.958815
101406.42406
101493.724545
101557.283198
101570.36879
101569.255899
101568.263371
101565.406147
101554.214477
101555.461281
101587.087371
101636.100315
101659.731874
101184.61054
101184.967707
101184.751374
101184.478509
101185.067983
101192.131432
101238.716706
101319.936039
101412.724045
101501.025347
101566.135118
101578.719216
101577.184995
101575.513368
101573.89123
101569.016285
101568.40791
101599.646144
101647.695572
101667.70099
101185.534077
101197.209633
101188.589802
101188.511056
101191.840284
101212.729324
101265.092279
101342.18876
101430.307559
101516.962284
101579.107406
101586.538262
101584.405861
101582.539582
101579.914323
101577.510622
101577.492197
101615.076092
101660.539206
101674.566552
101186.69058
101219.454519
101210.194462
101213.681078
101227.327194
101262.495994
101318.108482
101388.623029
101468.965094
101548.986227
101593.390663
101592.462416
101590.28808
101587.427896
101584.908587
101575.482534
101581.398762
101633.375473
101671.481468
101678.856607
101187.240298
101250.184039
101256.402762
101274.254476
101301.574352
101342.775796
101394.856623
101456.074621
101525.893301
101587.79671
101598.121343
101595.189146
101592.203906
101589.859386
101573.846697
101543.509476
101579.377717
101648.271403
101675.438122
101678.976804
101192.897572
101291.154652
101318.810759
101354.655379
101392.935392
101434.755098
101480.22698
101529.956065
101582.310515
101597.962556
101593.643256
101589.946683
101587.033202
101558.525605
101474.288945
101483.889028
101569.922434
101646.675233
101670.723291
101674.11559
101217.987304
101342.047702
101376.901905
101415.914333
101456.413824
101498.253312
101539.33215
101578.334077
101588.695723
101583.132382
101577.600446
101572.013879
101526.603243
101390.285084
101330.669982
101395.838792
101522.386377
101621.419369
101656.641434
101663.324884
101266.76304
101372.535416
101388.538576
101411.869484
101450.624741
101495.024779
101534.911319
101566.808041
101565.472916
101558.646654
101547.391309
101476.820153
101332.725002
101247.662041
101242.694126
101287.026078
101396.489408
101542.348804
101624.24111
101645.248541
101281.571743
101312.696453
101317.059408
101338.112205
101382.601903
101432.906586
101474.133875
101500.849433
101497.309347
101473.019791
101405.693507
101300.977075
101230.65319
101211.133664
101206.075519
101212.976863
101263.983333
101406.864701
101556.919106
101617.312481
101180.903944
101153.691151
101149.061391
101164.327806
101207.427586
101255.554191
101284.176749
101289.763208
101276.740949
101253.947011
101228.7099
101209.15017
101199.109749
101187.056096
101179.701388
101178.671879
101203.127573
101299.681806
101462.529181
101575.531946
101043.161514
100998.024905
101000.742565
101005.61348
101024.852177
101046.789422
101054.289074
101047.462329
101040.818007
101051.477491
101095.828934
101141.871272
101160.388356
101158.025573
101149.796221
101148.1268
101174.080877
101252.528541
101392.119611
101528.30383
100938.437783
100934.57129
100937.657025
100934.808776
100936.301678
100940.98438
100942.706688
100940.795386
100942.275411
100958.633469
101008.524603
101075.095474
101115.791749
101125.880418
101117.545004
101117.835025
101151.280858
101231.066631
101361.336728
101495.489907
100907.154823
100921.885096
100918.250114
100914.047483
100913.011552
100914.729649
100917.947485
100921.253314
100929.483091
100947.782552
100987.350079
101048.148127
101093.993384
101107.448168
101106.589055
101109.713433
101137.372573
101223.445183
101354.261592
101483.504843
100909.141077
100919.05814
100911.332782
100909.464668
100909.279267
100909.933446
100913.252181
100919.647682
100932.823777
100956.010119
100996.922427
101055.959081
101096.537887
101102.98388
101104.963973
101106.871264
101137.533946
101231.62486
101363.306689
101485.286299
100908.991749
100917.366445
100910.567339
100910.323341
100910.881919
100910.615402
100912.752838
100921.673757
100944.155279
100983.646461
101034.903511
101088.757777
101111.231728
101104.370045
101105.761162
101107.247559
101149.993751
101255.797922
101387.348399
101497.852114
100911.624164
100915.911188
100911.275994
100911.902841
100911.469129
100912.192546
100913.442421
100925.772139
100962.207944
101026.909246
101090.660771
101130.149774
101130.668134
101110.721061
101108.097274
101112.54727
101172.503621
101287.680396
101415.982133
101515.924368
100911.244349
100914.80609
100912.915235
100912.284481
100913.190934
100912.805088
100914.036722
100929.807026
100975.626504
101058.228735
101132.698953
101158.939278
101149.463999
101123.364997
101111.128657
101127.449005
101200.006745
101320.116028
101443.504482
101533.790108
100913.9389
100914.485971
100913.508213
100914.237128
100913.582087
100914.483081
100914.490516
100931.664843
100979.05082
101061.822572
101143.044558
101175.070194
101165.41114
101139.203435
101124.680355
101147.609393
101225.83962
101347.715912
101467.085079
101550.126172
100914.30698
100915.154927
100915.344441
100914.965204
100915.623478
100915.089719
100915.852709
100932.312709
100978.870534
101059.134437
101142.97323
101185.135893
101179.751002
101158.163421
101146.283743
101168.432799
101246.037129
101367.6928
101485.429262
101564.66856
100916.683669
100916.5977
100916.479622
100916.99464
100916.280902
100917.241181
100917.040771
100931.5188
100974.361555
101049.046846
101136.069532
101191.42249
101193.707751
101180.031193
101169.115563
101187.717187
101260.662521
101380.731689
101499.142207
101577.67498
100917.575825
100918.368571
100918.545062
100918.016083
100918.877635
100918.492394
100919.153229
100929.89637
100967.730739
101036.434043
101124.605551
101194.264578
101210.93319
101202.980602
101192.149247
101206.381605
101272.695093
101390.278811
101510.393525
101589.916881
100920.291575
100920.721835
100920.160677
100920.599349
100920.219719
100920.896522
100920.614893
100929.272544
100963.717069
101028.026353
101115.435415
101196.958304
101230.938138
101227.305389
101216.648286
101226.289681
101285.241293
101399.852222
101521.568426
101602.332871
100921.941884
100925.1523
100922.394802
100922.217482
100922.722131
100922.226054
100923.02968
100930.236153
100964.14009
101026.90493
101113.763552
101202.839299
101253.19408
101253.703094
101243.732055
101248.787489
101300.481141
101411.936076
101534.629202
101615.804889
100924.337508
100934.432972
100928.65498
100924.618626
100924.343683
100924.942005
100924.818285
100932.599089
100967.497099
101030.64101
101118.355451
101213.249293
101278.254276
101283.680201
101272.925739
101273.973421
101319.625898
101428.749902
101551.389723
101631.036239
100933.154714
100952.065878
100943.275871
100929.532009
100926.912417
100926.790638
100927.200842
100937.680576
100975.6434
101039.538788
101128.821809
101231.135904
101307.353431
101315.86297
101302.728047
101300.121589
101342.752709
101451.563559
101572.906233
101648.220711
100954.355815
100979.373773
100965.277606
100941.137213
100929.849023
100929.20815
100931.324402
100950.028153
100992.718587
101058.821291
101150.820993
101258.510431
101339.875859
101347.078573
101330.010552
101324.908103
101368.974905
101480.304475
101598.835556
101666.74513
100979.440735
101013.360129
100990.589431
100958.083162
100939.644668
100937.725062
100945.492325
100973.403861
101020.631578
101090.213068
101185.665469
101294.897085
101372.498185
101373.503919
101351.231747
101347.055617
101397.134194
101513.689904
101627.448132
101685.265478
100998.7113
101047.316249
101015.89447
100979.645312
100961.116914
100961.129072
100976.031122
101009.669469
101060.580583
101134.070061
101232.755377
101337.661335
101396.59938
101390.825484
101365.826565
101365.838685
101426.275896
101549.606178
101656.131016
101702.122323
101017.049489
101073.426828
101038.087319
101005.93399
100994.567269
101002.058331
101024.729462
101061.07914
101114.180439
101191.459296
101290.764085
101380.525205
101406.121736
101399.848526
101376.369467
101381.002907
101455.041528
101585.655422
101681.88129
101715.81718
101035.585738
101087.037268
101052.577802
101028.534866
101028.925279
101051.048422
101085.066715
101125.395953
101180.812363
101260.063122
101351.340623
101406.558554
101407.556401
101404.937633
101381.409702
101391.303013
101481.343085
101618.684145
101701.805008
101725.465984
101049.881977
101087.084482
101058.288504
101038.236174
101047.615703
101089.527463
101142.921451
101193.1327
101252.502336
101327.872431
101394.276037
101407.036519
101404.993384
101403.554939
101379.139998
101391.102334
101501.519515
101645.157715
101714.180121
101731.002666
101053.950996
101075.538847
101058.415323
101034.13939
101045.252042
101099.627935
101175.4368
101243.576856
101309.590728
101372.863088
101401.58128
101400.213075
101399.571164
101397.776565
101366.630922
101381.835335
101515.445673
101661.703684
101719.099806
101732.965657
101046.880923
101062.836933
101052.627856
101019.60096
101031.065978
101087.413108
101173.17559
101256.28642
101330.105158
101384.174863
101392.257902
101391.973393
101390.895191
101390.538639
101323.683625
101357.730308
101518.375883
101665.872104
101718.480714
101732.260933
101040.5045
101047.945837
101038.935012
101000.710472
101012.633643
101068.641994
101157.182432
101244.665894
101322.840152
101378.89105
101383.162483
101382.481496
101382.889432
101345.060976
101248.434391
101320.856308
101510.068928
101661.210093
101715.159361
101730.122576
101035.394721
101036.334835
101017.500213
100988.03634
100988.912048
101039.276374
101128.327754
101222.830411
101308.179433
101369.341425
101374.091094
101374.442529
101369.81102
101232.264967
101173.070786
101280.614101
101487.014215
101647.477674
101708.865997
101726.783847
101025.281397
101023.759873
100983.716423
100974.282296
100976.65496
101010.547786
101089.727167
101186.414623
101281.480498
101355.71947
101366.941302
101365.247605
101297.860143
101122.489814
101127.070734
101245.560606
101450.42823
101624.036664
101699.723236
101722.466179
101016.275965
101015.745469
100963.554326
100966.855319
100966.021726
100993.877352
101064.764418
101157.770823
101253.403439
101336.16018
101360.933606
101344.69394
101187.114001
101095.933208
101106.540445
101218.946703
101419.249499
101601.917277
101690.731112
101718.39158
100999.548472
100993.311303
100957.104242
100954.594465
100957.990414
100985.148337
101056.911235
101150.212978
101244.03958
101317.763597
101344.182527
101283.975699
101129.417179
101090.30451
101094.946449
101201.903419
101400.821066
101587.212372
101684.039391
101715.454721
100944.531462
100948.387951
100945.118666
100950.109629
100948.681523
100977.997469
101052.88707
101148.040262
101241.862282
101310.782129
101317.742371
101250.812186
101110.966146
101082.442579
101085.442031
101190.97602
101389.947876
101578.018448
101679.515859
101713.562149
100940.656747
100936.780658
100942.142872
100938.647537
100942.657387
100970.018088
101049.895367
101149.805369
101243.49906
101307.67801
101310.495275
101239.371933
101097.565866
101078.037134
101077.668558
101181.954707
101381.685602
101571.262188
101676.126037
101712.215767
100926.51132
100932.901251
100929.032869
100934.735471
100932.742728
100960.455079
101042.784917
101149.469048
101245.288613
101304.420212
101305.995235
101230.369965
101084.675667
101068.907034
101072.397647
101173.045881
101374.171492
101565.482637
101673.235195
101711.126071
100924.214104
100920.38287
100925.988214
100922.105091
100926.545833
100949.579227
101033.710721
101145.290251
101244.945023
101300.650383
101301.34279
101219.860692
101069.836277
101064.639046
101064.030804
101164.787628
101367.586398
101560.611304
101670.807933
101710.297113
100912.027204
100917.787118
100912.851491
100918.617489
100916.413052
100940.302263
101025.039589
101140.586324
101243.603479
101296.834821
101296.865429
101206.360488
101057.105209
101055.694464
101059.272176
101157.444244
101362.587669
101557.09066
101669.025024
101709.807475
100908.629631
100905.510283
100910.543395
100906.542782
100911.022817
100932.454363
101018.611314
101137.200214
101242.865478
101293.163087
101292.642781
101189.212856
101049.857144
101051.900241
101051.251186
101151.925216
101359.346107
101555.310394
101668.102763
101709.711326
100897.120625
100902.376967
100897.920247
100903.714699
100901.455697
100925.756551
101014.569209
101136.82494
101243.957929
101289.213643
101287.499096
101173.195341
101044.587942
101043.343887
101046.792038
101147.791595
101358.055254
101554.737733
101668.022275
101709.997127
100893.503068
100891.686965
100895.760222
100892.064453
100896.297712
100920.390007
101014.623941
101140.568106
101247.531173
101285.358161
101282.950018
101162.189423
101037.654775
101039.636108
101039.452096
101147.195482
101360.858717
101556.523955
101668.6594
101710.569745
100883.513039
100887.904712
100884.079623
100889.045882
100887.040491
100917.274597
101018.33553
101148.002298
101253.612641
101281.50139
101280.025709
101155.239397
101032.423365
101031.660699
101034.619736
101150.112348
101367.321559
101561.076587
101670.591198
101711.516742
100880.191522
100879.683247
100881.154466
100877.941478
100881.544666
100914.997876
101023.601608
101157.117861
101261.206133
101277.560813
101276.173029
101151.652759
101025.923774
101027.458483
101029.235434
101155.531897
101375.631352
101567.221744
101673.605424
101712.948436
100870.09499
100876.685652
100870.861311
100874.594068
100872.93656
100912.859637
101028.379416
101165.562775
101267.462578
101273.81385
101272.4859
101149.690766
101020.413695
101020.18316
101028.430118
101162.200943
101384.615575
101573.802138
101677.013634
101714.684187
100865.720038
100876.783966
100867.314055
100864.895155
100867.614985
100909.573564
101031.086122
101171.082479
101269.018376
101270.229689
101268.907346
101149.919159
101014.311007
101015.932095
101027.881556