/*--------------------------------*- C++ -*----------------------------------*\
| =========                 |                                                 |
| \\      /  F ield         | OpenFOAM: The Open Source CFD Toolbox           |
|  \\    /   O peration     | Version:  2312                                  |
|   \\  /    A nd           | Website:  www.openfoam.com                      |
|    \\/     M anipulation  |                                                 |
\*---------------------------------------------------------------------------*/
FoamFile
{
    version     2.0;
    format      ascii;
    arch        "LSB;label=32;scalar=64";
    class       volScalarField;
    location    "0.39/water";
    object      epsilon.gas;
}
// * * * * * * * * * * * * * * * * * * * * * * * * * * * * * * * * * * * * * //

dimensions      [0 2 -3 0 0 0 0];

internalField   nonuniform List<scalar> 
1503
(
17.6555666676
2.78141131947
0.511723289014
0.12019334121
0.0375560953765
0.0073303238485
0.00196099709346
0.000902736299459
0.000605333160889
0.000498846136949
0.000454278648073
0.000433603286376
0.000423186769015
0.000417486445954
0.000414103478386
0.000411957779643
0.000410538410625
0.000409584225762
0.000408948919208
0.000408544623307
564.247032743
108.08973489
18.2769730984
3.79654307183
0.705117700949
0.194563552653
0.0430146513824
0.0078937018431
0.00198449831528
0.000888152306209
0.000597656703557
0.000495007749112
0.000452095034632
0.000432199258841
0.000422124463479
0.000416527076896
0.000413128363447
0.000410927165439
0.00040946333551
0.00040850879349
784.933182089
183.962997887
41.3149322678
8.89920358505
2.10898942048
0.477409842477
0.132768331865
0.0299169443181
0.00616432877542
0.00181774788366
0.000887693066129
0.000611177424416
0.000505782040083
0.000459468259729
0.000437260554612
0.000425763976126
0.000419279437035
0.000415294432007
0.000412693874522
0.00041097475386
998.395644819
248.303766679
61.9950749896
15.1918985787
4.18577545117
0.918780895517
0.243383294208
0.0692345737501
0.0153830090964
0.00365053267087
0.00136904644656
0.000785832087753
0.000583506741964
0.000498244623702
0.000458233453299
0.000438097166966
0.000427245333584
0.000420909922583
0.000416917556388
0.000414292026692
1088.46722195
286.092613034
76.54323737
20.7151589801
5.36716026486
1.63740093189
0.353680589863
0.109021450376
0.0311353868312
0.00695758420845
0.00211417280263
0.00102548146868
0.000684584110404
0.000547795481126
0.00048470885335
0.000453271590616
0.000436677274999
0.000427333754253
0.000421667649548
0.000418020429095
1069.31087707
297.688181581
85.1950173523
24.9284080201
7.18374923187
1.90683485237
0.58215034354
0.132235932189
0.0480590870313
0.0125709302966
0.00326393240908
0.0013454962919
0.000809474167897
0.000607184710713
0.000516021669912
0.000470872477225
0.000447209118014
0.000434148003529
0.000426473484085
0.000421674114435
1007.9781115
292.425417967
88.4069655337
27.5603822465
8.56763946403
2.53277043198
0.663567734772
0.191660282545
0.0527667527987
0.0199364068135
0.00505223587942
0.00177557424341
0.000960845704404
0.000675852564736
0.000551508660719
0.00049050767968
0.000458624870638
0.000441187783922
0.000431162081387
0.000425067455495
968.312689799
286.527674238
89.628947359
29.1047258611
9.48460561235
3.00163938091
0.883280347908
0.248257162992
0.0658454198164
0.0243194995683
0.00774353565973
0.00238005090453
0.00114691964328
0.000754438298074
0.000590812012173
0.000511883338378
0.000470806179682
0.000448435898867
0.000435741024902
0.000428208158481
944.203067049
285.067250011
90.8540816843
30.0608289994
10.0267454291
3.32462832422
1.07563848145
0.322179186099
0.110168697526
0.028740474876
0.0112612424456
0.00334228882394
0.00139644272879
0.000847931872539
0.00063487856038
0.000535215566806
0.000483889249902
0.000456057650658
0.000440397892583
0.000431267319086
952.016764444
292.007422411
93.2172748819
30.7194446515
10.322190572
3.54809546135
1.24422722184
0.43195914263
0.139583434115
0.0516202572553
0.0152492744249
0.00517071308257
0.00181058370483
0.000974333004887
0.000687941887259
0.000561865364911
0.00049854651036
0.000464505342001
0.000445459446746
0.000434483568312
1043.49064411
314.911534232
97.7094639058
31.5256637594
10.6729461542
3.80789369378
1.43374941094
0.557124616336
0.217203524553
0.089220638517
0.0265917090395
0.00887153146009
0.00269988670282
0.00117956403847
0.000759138621256
0.000594393095059
0.000515757077486
0.000474298048688
0.000451276844939
0.000438108576617
1265.71648757
352.407340636
104.336527784
33.3228177436
11.4745308378
4.23553229585
1.67357312967
0.706409261976
0.313894408717
0.14241056611
0.0655834507814
0.0145268551976
0.00474501837843
0.00157529383354
0.000866121895595
0.000636935710546
0.000536898254661
0.00048604528105
0.000458175564009
0.00044233639284
1346.95548031
371.832325845
110.365241603
35.5422556804
12.4413774702
4.71751132764
1.93450020573
0.866191301261
0.42059721897
0.222203627458
0.106356251897
0.0328737192463
0.00810262109347
0.00244016410238
0.00104482915131
0.000696116393656
0.000563803059452
0.000500380256964
0.00046639530208
0.000447264844386
1363.69010088
379.2106975
113.239119644
36.8271474293
13.1009556309
5.09564759112
2.16266960901
1.0103096496
0.524639974831
0.304962326446
0.183212969591
0.0739278028344
0.0123533169078
0.00411367542215
0.00136535176665
0.000782077571634
0.000598928235922
0.000518036691791
0.000476138299076
0.000452936439077
1368.68640541
381.149279835
114.253141369
37.41335591
13.4666641323
5.33911101747
2.33184634314
1.12941425053
0.614227595122
0.381392808698
0.261995762508
0.130091497098
0.0302472302511
0.00570087758682
0.00194479621595
0.000911974007759
0.000645980124698
0.000540095926144
0.000487714527433
0.000459439722953
1363.39843623
381.850697191
114.867173607
37.7206871213
13.6503443236
5.48150823081
2.44843975276
1.22205797512
0.686913636624
0.448422080859
0.332197843548
0.202018101866
0.0571762848588
0.00695100824618
0.00273453093898
0.0011064479832
0.000710696057066
0.000568269445947
0.000501679275063
0.000466996771676
1375.67497338
384.941898745
115.857499383
38.0198236084
13.7802320429
5.57738092881
2.53297785911
1.29449333897
0.747261628623
0.505335039318
0.393538136274
0.268214828253
0.100108438197
0.0124861969162
0.00353053698063
0.00141626529411
0.000804238722678
0.000605325376658
0.000518929259437
0.000476000023799
1408.71702298
393.216740526
118.013999964
38.6404242641
13.9902734224
5.67442163561
2.59809192528
1.34799073581
0.798012072616
0.558419139182
0.45135815683
0.328353601018
0.153320317455
0.0301460157556
0.00468921113353
0.00197504418981
0.000947206862439
0.000655562590779
0.000540778255241
0.00048700842165
1472.50424756
408.083301648
121.803891769
39.7976747845
14.3667849113
5.80222596274
2.65057071252
1.38586839043
0.843981715827
0.612488255404
0.511266710179
0.388579416162
0.211380348059
0.0619251036932
0.00819777371182
0.00313349214856
0.00118278546139
0.000726328982955
0.000569121763869
0.000500727456194
1534.67758707
424.23177795
126.530212328
41.3822253801
14.8960107781
5.95564975873
2.69115363263
1.41421149663
0.886637472866
0.6634621707
0.564479889296
0.459203135715
0.280448430839
0.0968584120383
0.0181543179441
0.00573401974222
0.00160544031698
0.000830293450981
0.00060663085889
0.00051798916455
1550.58665564
431.922682187
130.854952331
43.3511391537
15.5748618919
6.10373702646
2.70044361102
1.42142860462
0.911601244123
0.694764892409
0.598560239912
0.527137617129
0.370712805218
0.163854636354
0.042400580741
0.0109127175819
0.00243400949797
0.000990322817625
0.000657127093792
0.000539782219823
1488.9544279
431.563921803
135.759981168
45.7272349136
16.1547302772
6.08723179737
2.62382170047
1.39098851399
0.906663431737
0.691277611067
0.597367217098
0.548758214615
0.460868192225
0.263931761732
0.09349976871
0.0169344009465
0.00418447125108
0.0012520673982
0.000726559863455
0.000567417907554
1476.92633178
447.426172969
144.305497272
48.0135920974
16.2409825961
5.86929266509
2.54143803369
1.36099373188
0.878982794224
0.659053702196
0.564109350978
0.529257907332
0.473943656001
0.356038346205
0.151101075421
0.0275003005782
0.00705468489969
0.00170011785204
0.000823986845528
0.000602701907039
1583.66189405
489.355332555
155.261554061
49.6284840839
16.1714978832
5.89853636703
2.56949219923
1.35595396354
0.850161297855
0.620161069496
0.521258041462
0.488186916646
0.456388776591
0.379821531366
0.2302807446
0.0573157857225
0.00799489092822
0.00245456483658
0.000962960752781
0.000647960307317
1834.56503276
550.100860489
165.983096347
51.4558259397
16.9956772113
6.29791013568
2.73514744323
1.40063968053
0.842902024587
0.596778825942
0.491249893345
0.450277507224
0.430392190872
0.378179540392
0.282645603873
0.0997831134297
0.00996816267179
0.00338402117152
0.00116409950245
0.000706350775887
2212.14878846
615.379077496
177.744610118
55.0924631284
18.7621956186
7.11168519037
3.05229508452
1.50745821546
0.871049251666
0.601518767742
0.483508456231
0.428145356708
0.409204182575
0.375648893028
0.307426836169
0.152619433448
0.0220677672685
0.00371491892969
0.00145541019603
0.00078270394568
2479.04258617
663.887180744
190.445552878
59.7429299899
20.7673205385
8.01003778452
3.43811099106
1.66227920082
0.934754910338
0.633069337387
0.495611555178
0.425318643007
0.400753210571
0.381444182626
0.330864012918
0.20245406557
0.0374382408933
0.00381121150306
0.00185956871523
0.000884436848052
2580.45549224
689.522205397
198.792289203
63.0896784923
22.28396528
8.73403046484
3.77665639039
1.81698352625
1.01492259497
0.678491255454
0.520004753441
0.439779919805
0.409397611856
0.399900693779
0.365049153827
0.255081196358
0.0707137085093
0.00537201592112
0.00239618519239
0.00102463499985
2640.40329781
704.35801261
204.00292312
65.2753491138
23.3095845897
9.26180585764
4.04745587982
1.9613181666
1.10301187997
0.730730120501
0.552808650246
0.467062991433
0.434747422559
0.434240840677
0.417100160377
0.317067734968
0.118699825699
0.0108378220805
0.0031046205111
0.00122846543877
2657.68769631
711.748067438
206.875072124
66.4269197548
23.9121348037
9.6224280884
4.26158053447
2.09653865413
1.19233577426
0.784462657814
0.59135065414
0.504167791117
0.474177012901
0.486229311184
0.487126146858
0.392130995361
0.180439630014
0.0258672457058
0.00393651573357
0.00153574267929
2688.86681648
717.894836509
208.991857574
67.2570378927
24.372669397
9.90342689739
4.43817001696
2.21808848896
1.27208865191
0.833754661268
0.633030998682
0.549645377336
0.526179494589
0.551795756628
0.563443038237
0.458480105874
0.253577492284
0.0477647072117
0.0048041836088
0.00200018742611
2712.91514874
724.632252518
211.334299966
68.3044396575
24.8780263895
10.1564479204
4.58105821353
2.31505011614
1.33090245958
0.87392654147
0.676006692917
0.603038495263
0.590024346853
0.626463050095
0.635832811145
0.524893673128
0.33077827536
0.0844025916926
0.00667207336095
0.0027087062168
2781.74621129
734.487041802
214.154820208
69.4475218488
25.3574966106
10.3481258107
4.67002643326
2.36841578474
1.35788410414
0.901988248412
0.719574235761
0.66444234949
0.665827875497
0.707042396542
0.702945707089
0.593318783195
0.404319856097
0.136116116826
0.0123746962764
0.00380953383598
2855.63238391
750.111527356
218.187507897
70.8547517598
25.8459123502
10.4781720586
4.69336964214
2.36059911182
1.3487076183
0.918527253883
0.763429167249
0.732493730727
0.75104907208
0.785523184909
0.765836089047
0.663670547277
0.472143776328
0.193617999976
0.026758526607
0.00547688534715
2924.32533279
761.924289174
221.452822905
72.0853703666
26.2380610506
10.5085871754
4.62053160905
2.27709576157
1.30780259419
0.926194896577
0.804380850702
0.800228151692
0.835626473912
0.850417102415
0.824421495896
0.735691309043
0.540607489997
0.259184145898
0.0550346086824
0.00802459463104
2923.10614691
760.069794364
221.675348793
72.664576812
26.4231225194
10.3798143805
4.41301734877
2.12585680691
1.24950181286
0.926221780346
0.833181562651
0.850927168751
0.894755475567
0.894615769455
0.875023945681
0.809777559891
0.63096053542
0.341626297567
0.0924376373736
0.012475259304
2841.74187204
735.300100677
217.095665546
72.3236686309
26.2116896492
9.95669607676
4.0573128356
1.94424908927
1.18945698918
0.913615443803
0.834682020415
0.858205497738
0.900991558265
0.907181553708
0.902666692006
0.878434917209
0.743202558154
0.451856966456
0.131062638078
0.0208020442216
2593.96948985
686.908799805
210.307041167
71.271415846
25.2361883751
9.14983983417
3.63977368435
1.79167046824
1.13847188729
0.879454583554
0.795391962053
0.807068998097
0.847780643757
0.869658271202
0.884449761757
0.915537433093
0.834767250406
0.582034916592
0.206992337244
0.0356078969809
0.000408320892321
0.00040823697865
0.000408258660134
0.000408369963625
0.000408571767051
0.000408882339204
0.000409347456814
0.000410069200479
0.000411276141968
0.000413486190045
0.000417878680348
0.000427155564313
0.000447666175123
0.000495447935255
0.000617958490326
0.00100243682268
0.00279338772777
0.0181798069535
0.239594886868
4.15371971985
0.000407950541404
0.000407704523106
0.000407697845689
0.000407894707265
0.000408302650678
0.000408986886729
0.000410118190457
0.000412086661151
0.000415744153096
0.000422901742275
0.000437368883853
0.000467323592427
0.000531684971739
0.000681467218579
0.00109279912542
0.00261930904383
0.0112854911224
0.0800794724114
0.754284628325
7.24493602505
0.000409921434236
0.000409399461624
0.000409293294782
0.00040954721491
0.000410193372626
0.000411398030224
0.000413575241849
0.00041762050594
0.000425356651469
0.000440388997876
0.000469895706519
0.000529016054802
0.00065385632272
0.000948911068672
0.00180719836498
0.00524230040138
0.0245366756202
0.158303869233
1.23983212025
8.20493828173
0.000412638106926
0.000411752664169
0.000411482201919
0.000411768005271
0.000412706473335
0.000414640332077
0.000418349631814
0.000425403404817
0.000438790687053
0.000464137058741
0.000512421191091
0.000607167943786
0.00080705682388
0.00129216530489
0.00277767300466
0.00897767104645
0.0426519901185
0.262843615954
1.68526897608
8.20426273114
0.000415710156506
0.000414426241933
0.000413978158803
0.000414329975625
0.000415692696237
0.000418659686925
0.000424467769174
0.000435447198355
0.000455827447281
0.000493381233748
0.000563362214147
0.00069946448304
0.000989530309805
0.0017164655283
0.0040490649104
0.0140437811925
0.0672743536901
0.393769531974
2.0305225305
7.90331906054
0.000418670788538
0.000416996760583
0.000416411049588
0.000416928727105
0.000418922288577
0.000423291296718
0.000431777224852
0.000447499437668
0.00047595979729
0.000527235977614
0.00062149770751
0.000804843090866
0.00120245234194
0.00223512033191
0.00569878742624
0.020860628814
0.101117753365
0.539398299058
2.25635476361
7.55272390378
0.000421345813381
0.000419315901172
0.000418671277441
0.000419501307521
0.000422375077015
0.000428530127174
0.000440227808023
0.000461381215801
0.000498812178979
0.000565144925857
0.000686307610005
0.000923608918867
0.00145011401442
0.00287185281589
0.00785091909774
0.0300830399783
0.145634815034
0.679848908966
2.37601738281
7.21509440991
0.000423745043711
0.000421395776305
0.000420787339036
0.000422095924877
0.000426107859145
0.000434410574738
0.000449784714571
0.000476946866657
0.000524129437887
0.00060684531564
0.000757861765395
0.00105730197411
0.00174022452643
0.00366358158474
0.0106863272344
0.0425280451181
0.199323163768
0.797982548832
2.41973004162
6.90030583488
0.000425996391395
0.000423346339085
0.000422862286232
0.000424811131057
0.000430203115921
0.000440974626511
0.000460423451335
0.000494100271477
0.000551791921424
0.000652355070518
0.000836783551913
0.00120875813847
0.00208464160518
0.00466393587544
0.0144476402462
0.0589479512792
0.257835184032
0.885828358758
2.41541622625
6.60687150957
0.000428284554513
0.000425313784436
0.000425017961456
0.000427748570722
0.000434734630072
0.000448254435014
0.000472128460019
0.00051280018406
0.000581813720249
0.000701960100641
0.000924262225792
0.00138232014091
0.00250050400179
0.00594716037063
0.0194323123884
0.0796614262502
0.315568416313
0.944137807468
2.38252468731
6.3323496556
0.000430789758981
0.000427431355693
0.000427357645222
0.000430987624367
0.000439754956891
0.000456272253859
0.000484901494129
0.000533069910372
0.0006143493859
0.000756229381064
0.00102213641891
0.00158423301788
0.00301186972307
0.00761218932772
0.0259697744083
0.104261115235
0.36762964304
0.978281781262
2.33306097744
6.07463533008
0.000433636144684
0.000429785563209
0.000429946796955
0.000434578094666
0.000445298306817
0.000465051045179
0.000498775978374
0.000555012033733
0.000649712007769
0.000816058771993
0.00113305015095
0.00182324878195
0.00365187731477
0.00978556909679
0.0343716300001
0.131589206395
0.411081591553
0.994531961249
2.2742031273
5.83187610072
0.000436872936944
0.000432412074347
0.000432818823243
0.000438552818194
0.000451397888585
0.000474634208225
0.000513836734095
0.000578828105059
0.000688400769261
0.000882738010566
0.0012606754907
0.002111441232
0.00446522089831
0.0126206001986
0.0448485161474
0.159996739074
0.44508637225
0.998196594736
2.2102456592
5.60226079238
0.000440511898976
0.00043532977501
0.000436006040358
0.000442956112578
0.00045811193359
0.00048510852565
0.00053023937753
0.000604836726692
0.000731128569648
0.000958027117512
0.00140998413204
0.00246518284604
0.00551039367039
0.0162895363538
0.0574142432346
0.187752632232
0.470289342699
0.993191403436
2.14374797267
5.38388546291
0.000444599186496
0.00043859182394
0.000439576812143
0.000447871509405
0.000465544265997
0.000496618272058
0.000548218576307
0.000633479029591
0.00077883682169
0.00104422572843
0.00158754130824
0.00290615582029
0.00686066577419
0.0209652721021
0.0718201319146
0.213418062701
0.48802468606
0.982233311518
2.07620000225
5.17473182545
0.000449269944032
0.00044231764617
0.000443653079299
0.000453429680468
0.000473844839772
0.000509359042759
0.000568075751209
0.000665303209685
0.000832689407014
0.00114422611857
0.00180179596434
0.00346217667221
0.00860240583911
0.0267901744557
0.0875570407152
0.236054219574
0.49972748651
0.967158993279
2.00843786462
4.972778883
0.000454759653968
0.00044668932917
0.000448397724387
0.00045978958921
0.000483185669669
0.000523548640583
0.000590145439084
0.000700929648416
0.000894050693607
0.00126155877359
0.00206335775204
0.00416757773862
0.0108297237137
0.0338361165787
0.103934274171
0.255238751951
0.506644014196
0.949195139683
1.94092213851
4.77622658223
0.000461380020273
0.00045192061186
0.00045397986425
0.000467100963548
0.000493720872739
0.000539385214372
0.00061475318005
0.000741014211747
0.000964473876907
0.00140047128468
0.00238530053913
0.005063021159
0.0136357420022
0.0420695083455
0.120210457493
0.270954610575
0.509761212456
0.929160531099
1.87392994002
4.58376840472
0.0004694779315
0.000458216633047
0.00046053609761
0.000475466884207
0.000505551407007
0.000557016078472
0.000642192810698
0.000786245292897
0.00104575030171
0.00156612228751
0.00278361832634
0.00619496375371
0.0171024358124
0.0513388408994
0.135729472204
0.283440189892
0.509842911165
0.90761486227
1.80768046016
4.39482076318
0.000479401466914
0.000465747595972
0.000468151690996
0.000484932764526
0.000518723579448
0.00057654947867
0.000672759859881
0.000837419630779
0.0011400844237
0.00176500336939
0.00327804904071
0.00761535834063
0.0212917560594
0.0613937335281
0.150016491483
0.293062327148
0.507493551564
0.884965366955
1.74240163514
4.20961394343
0.000491505986041
0.000474661967445
0.000476885991158
0.000495526086437
0.000533285351233
0.000598132610515
0.000706864365212
0.000895624212691
0.00125043895363
0.00200568484705
0.00389346750512
0.00938209989313
0.0262397309159
0.0719286485516
0.162811228245
0.30023126467
0.503210324458
0.861534709651
1.67834190274
4.02908355911
0.000506227394468
0.00048515119467
0.00048684761818
0.000507346301298
0.000549393037576
0.000622081406243
0.000745202020272
0.000962499410953
0.00138103091724
0.00229988343756
0.00466179455032
0.0115597992576
0.031952620504
0.0826328037313
0.174042764282
0.30534906394
0.497411706515
0.837593695707
1.61573895041
3.85456988386
0.000524175277511
0.000497530547465
0.00049827879234
0.000520655478371
0.000567410300921
0.00064899566346
0.000788908745207
0.00104049925293
0.00153788047477
0.00266368479877
0.00562385515982
0.0142189539597
0.0384021163923
0.0932278989411
0.183768911515
0.30877697684
0.490445064494
0.813366854369
1.55476669438
3.68741053549
0.000546123315574
0.000512241107624
0.000511563192548
0.00053588772624
0.000587919613306
0.000679780573958
0.000839618212063
0.00113306094558
0.00172929184367
0.00311861887249
0.00683013870921
0.0174307339494
0.0455181103483
0.103485556196
0.192108529374
0.310814616012
0.482583978457
0.789024957053
1.49548881272
3.52855902123
0.000572971832886
0.000529766337295
0.000527134850884
0.00055355623637
0.000611630799571
0.000715565407893
0.000899417686068
0.00124467724778
0.00196621907285
0.00369229120564
0.00833944106021
0.0212558467543
0.0531825996983
0.113228315464
0.199189270745
0.311691466855
0.474027629414
0.764679659557
1.43784133829
3.37834509827
0.000605775503504
0.000550541483624
0.0005453634314
0.000574133398977
0.000639263822862
0.000757600093818
0.000970789145166
0.00138096478157
0.00226257839579
0.0044184225871
0.0102150503091
0.0257293340069
0.0612318689213
0.122323645612
0.205120702729
0.31157220126
0.464909841645
0.740389584463
1.38165079236
3.2364208635
0.000645879725556
0.000574964651705
0.00056652812988
0.000598010443712
0.000671507739993
0.000807232121739
0.00105664718207
0.00154885750757
0.00263562747693
0.0053363588812
0.0125190479167
0.0308466068007
0.069471362124
0.130678250549
0.209989912563
0.310572719453
0.455317400334
0.716177843295
1.32667660875
3.10185284516
0.000695455374129
0.000603596856337
0.00059093541711
0.000625584232007
0.000709102477378
0.000866016079187
0.00116054257531
0.00175702090768
0.00310651092165
0.00649025451714
0.0153057732286
0.0365566165878
0.0776999290257
0.138234187689
0.213868899611
0.30877922332
0.445310712232
0.692053185223
1.27265737799
2.97327293674
0.000758398888162
0.000637485785195
0.000619127992079
0.000657430099341
0.000753012880544
0.000935937575893
0.00128703001199
0.00201649362577
0.00370093455312
0.00792796616808
0.0186151326335
0.0427645809876
0.0857337186419
0.144964111818
0.216822475993
0.306262392379
0.434938982684
0.668026045973
1.21934513464
2.8490082126
0.00084093052903
0.000678441194859
0.000652087277809
0.000694483071864
0.000804626941097
0.00101968830677
0.00144213053096
0.00234142657592
0.00444965256479
0.00969908687545
0.0224655509184
0.0493415380385
0.0934200570336
0.15086273687
0.218910078029
0.30308251716
0.424245445552
0.644114045368
1.16652285102
2.72716023972
0.000952619801588
0.000729235152225
0.000691337024771
0.000738141126542
0.000865895418109
0.00112089823108
0.00163374386809
0.00274960010441
0.00538807223633
0.0118507995255
0.0268459391257
0.0561353291089
0.100637862317
0.155934800158
0.220181602618
0.299287308937
0.413264435794
0.620338731105
1.1140136704
2.60566597504
0.00111025503194
0.000793867546247
0.000738874014016
0.000790191567937
0.000939299991537
0.001244172884
0.00187174157454
0.0032621483782
0.00655391980771
0.0144200306905
0.0317069754117
0.0629792548998
0.107288690226
0.160183341327
0.220671935834
0.294907791526
0.402015852451
0.596719072866
1.06169361807
2.48241274866
0.00134261455537
0.000877663311963
0.000796916271
0.000852541811091
0.00102759130078
0.00139480734629
0.00216745403515
0.00390192061297
0.00798221019145
0.0174220624815
0.0369549000456
0.0696994933108
0.113287444401
0.163604113536
0.220400465889
0.289958842189
0.390504258746
0.573269743051
1.00951780916
2.35547326043
0.00169486558839
0.000987248456211
0.000867566034736
0.000926838370868
0.00113335727015
0.00157819512301
0.00253249797703
0.00469048589516
0.00969821196852
0.0208393359751
0.0424537674996
0.0761256706314
0.118560836884
0.16618977936
0.2193788297
0.284447533155
0.378726325718
0.550008209276
0.957558067009
2.22346286791
0.00225771341062
0.00113242653137
0.000952593980481
0.00101404438485
0.00125851681471
0.00179907564025
0.00297723422597
0.00564466645407
0.0117109163599
0.0246167223147
0.048040466989
0.0821068943311
0.12305536537
0.167942168878
0.217624799751
0.278387161248
0.366684814307
0.526968570511
0.906038571155
2.08593534319
0.00325584359533
0.00133132363299
0.00105365292545
0.00111423605468
0.00140402747721
0.00206103182119
0.00350965281899
0.00677437311627
0.0140106578793
0.0286683812275
0.0535508429879
0.0875304517302
0.126749894289
0.168886330677
0.215176248399
0.271811017877
0.354402728677
0.504213712145
0.855348311878
1.94367573375
0.00516368973053
0.0016167301657
0.00117319029589
0.00122710291436
0.00157033049867
0.00236692921503
0.00413585224268
0.00808371224973
0.0165736161179
0.032895875785
0.0588485124503
0.0923362072331
0.129664577377
0.169078775717
0.21209847154
0.264779504296
0.341930904084
0.481837871083
0.806016293273
1.79882683482
0.00876372295297
0.0020495513764
0.00131617634009
)
;

boundaryField
{
    emptyPatch
    {
        type            empty;
    }
    minY
    {
        type            fixedValue;
        value           uniform 4.5592e-05;
    }
    maxY
    {
        type            inletOutlet;
        inletValue      nonuniform List<scalar> 0();
        value           nonuniform List<scalar> 0();
    }
    water_to_cooler
    {
        type            epsilonWallFunction;
        blending        stepwise;
        value           nonuniform List<scalar> 
37
(
11.7079111226
29.7414300351
43.3841571326
51.527733313
55.5926313165
57.2338185149
57.4954127612
56.9482679744
55.9140838925
54.5890323414
53.0968392569
51.5158387692
49.8947980581
48.2628583971
46.6362515662
45.0232761436
43.4281605363
41.8539472445
40.3043176194
38.7842631633
37.299672515
35.8561619093
34.4577054963
33.1056492765
31.7984661938
30.5322256269
29.301445211
28.0999074063
26.9211864717
25.7588995897
24.6069254293
23.4598862182
22.3140549153
21.1685442993
20.0263599668
18.8947973798
17.7846691108
)
;
    }
    water_to_heater
    {
        type            epsilonWallFunction;
        blending        stepwise;
        value           nonuniform List<scalar> 
61
(
22.5443016065
1124.78538387
1124.78538387
1852.88732596
1852.88732596
2509.31570637
2509.31570637
2871.37644409
2911.31983361
2784.24981609
2784.24981609
2681.74244712
2681.74244712
2640.93131083
2640.93131083
2720.19951426
3036.2883312
3574.21876547
3574.21876547
3744.75192729
3744.75192729
3789.64189306
3789.64189306
3782.19785073
3768.87405434
3778.23535271
3778.23535271
3858.03748283
3858.03748283
4006.20408229
4006.20408229
4162.79751224
4176.14744844
4062.30882668
4062.30882668
4192.09528773
4192.09528773
4728.39490666
4728.39490666
5664.88845098
6737.90816865
7353.1399654
7353.1399654
7580.81600275
7580.81600275
7695.91992048
7695.91992048
7760.70222878
7798.89162957
7853.26260685
7853.26260685
7935.81177361
7935.81177361
8071.35385096
8071.35385096
8121.39298954
7986.11089429
7504.84486725
7504.84486725
6592.3868106
6592.3868106
)
;
    }
    procBoundary2to3
    {
        type            processor;
        value           nonuniform List<scalar> 
41
(
2187.42669143
643.627708118
208.484188079
69.9587331447
23.90144897
8.5894870489
3.47387081412
1.74494114881
1.09548136796
0.816378199435
0.713821666824
0.706668348801
0.742191607356
0.773064447112
0.802179172131
0.886108602145
0.866554459478
0.652870660045
0.295952733154
0.0680920577234
0.00135300472482
0.00175848394369
0.00272038594958
0.00486235261976
0.00957536384202
0.0193715233248
0.0372094504169
0.0638443157712
0.0965190573913
0.131859170984
0.168605165551
0.208482120292
0.257380642862
0.32935647286
0.459986293599
0.758679102122
1.65397658132
0.0147581392717
0.00276631150759
0.00135300472482
0.00149338172892
)
;
    }
}


// ************************************************************************* //
