/*--------------------------------*- C++ -*----------------------------------*\
| =========                 |                                                 |
| \\      /  F ield         | OpenFOAM: The Open Source CFD Toolbox           |
|  \\    /   O peration     | Version:  2312                                  |
|   \\  /    A nd           | Website:  www.openfoam.com                      |
|    \\/     M anipulation  |                                                 |
\*---------------------------------------------------------------------------*/
FoamFile
{
    version     2.0;
    format      ascii;
    arch        "LSB;label=32;scalar=64";
    class       volScalarField;
    location    "0.735/water";
    object      alphat.gas;
}
// * * * * * * * * * * * * * * * * * * * * * * * * * * * * * * * * * * * * * //

dimensions      [1 -1 -1 0 0 0 0];

internalField   nonuniform List<scalar> 
1503
(
1.93697110922e-07
8.02220858732e-08
3.43623441394e-08
2.38466137637e-08
9.72061139545e-08
7.27442686825e-07
3.0362355191e-06
6.76792614482e-06
1.01512659718e-05
1.2290084749e-05
1.34093570128e-05
1.39301193731e-05
1.41479414712e-05
1.4226023881e-05
1.4245137786e-05
1.42423068849e-05
1.42332771682e-05
1.42241108258e-05
1.42167586545e-05
1.42115862004e-05
9.01458722137e-07
6.41913248548e-07
3.29593989757e-07
1.74547127129e-07
7.26616225798e-08
5.533424787e-08
1.2398177147e-07
7.34930542417e-07
3.13760920848e-06
7.06738512551e-06
1.04392384585e-05
1.24879358195e-05
1.3528596835e-05
1.39966641294e-05
1.41815471719e-05
1.42394258663e-05
1.42461124432e-05
1.42356314729e-05
1.42220585924e-05
1.42105860347e-05
1.23955364288e-06
1.07272500089e-06
7.12949578338e-07
3.98063988392e-07
2.16952241009e-07
1.02544114971e-07
7.44728201312e-08
1.83287931725e-07
9.894412899e-07
3.50795806187e-06
7.17317540848e-06
1.03376417231e-05
1.23719268064e-05
1.34713923302e-05
1.39935412714e-05
1.42095510267e-05
1.42803272477e-05
1.428978431e-05
1.42778190168e-05
1.42618233743e-05
1.47001192569e-06
1.33001257416e-06
9.77846244132e-07
6.15685486368e-07
4.04841729087e-07
1.89109348394e-07
1.00566787647e-07
9.80786847697e-08
3.75631713797e-07
1.73918053793e-06
4.70033205448e-06
8.15239645099e-06
1.09001502158e-05
1.26492249491e-05
1.36080975477e-05
1.40709940617e-05
1.42635021011e-05
1.43245536329e-05
1.43294183479e-05
1.43151009397e-05
1.64048957054e-06
1.51954547701e-06
1.16833887764e-06
7.99708349777e-07
4.84070620473e-07
3.22850472621e-07
1.39047282455e-07
9.02751952151e-08
1.78107387753e-07
8.85453485713e-07
3.04633434158e-06
6.29168511578e-06
9.390187348e-06
1.16581373545e-05
1.30596435338e-05
1.38196741237e-05
1.41824298028e-05
1.43285241678e-05
1.436950276e-05
1.43664732127e-05
1.74206025124e-06
1.64866537788e-06
1.30899125766e-06
9.41403120445e-07
6.2038155392e-07
3.55641463224e-07
2.17922359506e-07
9.33451691713e-08
1.05977728398e-07
4.54850404737e-07
1.95490402127e-06
4.80631737418e-06
7.99148422149e-06
1.06128925101e-05
1.24024392146e-05
1.34684758643e-05
1.40309060977e-05
1.42897944347e-05
1.43861553882e-05
1.44055589419e-05
1.7759120519e-06
1.71360396333e-06
1.39985288635e-06
1.04619601955e-06
7.28263730104e-07
4.58050874996e-07
2.40638191449e-07
1.26138053507e-07
7.09713157936e-08
2.29105399383e-07
1.22699581991e-06
3.64413199138e-06
6.75728877996e-06
9.58925311431e-06
1.16899501399e-05
1.30422140906e-05
1.38146948076e-05
1.42053671219e-05
1.43738651518e-05
1.44269942766e-05
1.76591423738e-06
1.73024064586e-06
1.44880183788e-06
1.11865105283e-06
8.09659613913e-07
5.39665926566e-07
3.13600903478e-07
1.55658705286e-07
6.7669010979e-08
1.05288228149e-07
7.21677959348e-07
2.72615641405e-06
5.68277671777e-06
8.62084023078e-06
1.09591851247e-05
1.25648486356e-05
1.35440149361e-05
1.40769767287e-05
1.43308144965e-05
1.44279720017e-05
1.76173413646e-06
1.74675963128e-06
1.48889317867e-06
1.17404007986e-06
8.70551542245e-07
6.02687394488e-07
3.77461436268e-07
1.93227304399e-07
9.30166848681e-08
5.34492726287e-08
3.50041024534e-07
1.945860183e-06
4.71273949933e-06
7.69792485814e-06
1.02239032755e-05
1.20537222902e-05
1.32303223848e-05
1.39096703877e-05
1.42579437491e-05
1.4408111064e-05
1.79238964832e-06
1.7982008606e-06
1.54641204838e-06
1.2257896637e-06
9.17125934275e-07
6.5112237736e-07
4.31035932438e-07
2.45022169709e-07
1.00380489306e-07
4.7072262829e-08
1.25677032417e-07
1.19630803394e-06
3.72269454576e-06
6.74527751597e-06
9.45797643441e-06
1.1505811691e-05
1.28780835458e-05
1.37081463378e-05
1.41587197987e-05
1.43693030653e-05
1.87178997593e-06
1.88530705328e-06
1.61317460201e-06
1.26705401363e-06
9.49147264847e-07
6.88504461867e-07
4.77153699238e-07
2.94605550144e-07
1.37093253294e-07
5.31619724669e-08
4.66582974941e-08
4.87542696115e-07
2.56733285926e-06
5.64882230835e-06
8.61011352469e-06
1.09108631398e-05
1.24918391794e-05
1.34794565007e-05
1.40384315736e-05
1.43146638589e-05
1.97649655559e-06
1.96061064337e-06
1.63860325674e-06
1.27395160296e-06
9.64117528832e-07
7.17526788618e-07
5.18163517326e-07
3.43343554545e-07
1.81262445083e-07
6.29870075814e-08
3.49510035541e-08
1.20356297246e-07
1.35732942981e-06
4.34904596571e-06
7.62400795964e-06
1.02473463324e-05
1.20692299585e-05
1.32273058132e-05
1.3901032474e-05
1.42467549007e-05
1.95716118209e-06
1.9193880266e-06
1.61098034197e-06
1.26483005823e-06
9.72702554246e-07
7.412369947e-07
5.54550847928e-07
3.90204882298e-07
2.29972699692e-07
8.98683407446e-08
2.93116369979e-08
3.91080659026e-08
4.30531799281e-07
2.85252027419e-06
6.43032690937e-06
9.47506486865e-06
1.15951314768e-05
1.29477595331e-05
1.37463527474e-05
1.41659630522e-05
1.96605962078e-06
1.92144712762e-06
1.60602846491e-06
1.26195161861e-06
9.79469926321e-07
7.60181335744e-07
5.85349937806e-07
4.32125495552e-07
2.76398158536e-07
1.20647859837e-07
3.58275100414e-08
2.7382283986e-08
8.99686099606e-08
1.38760989347e-06
5.01052630054e-06
8.54852946373e-06
1.10428287981e-05
1.26281560106e-05
1.35691238229e-05
1.40699623396e-05
1.9716637822e-06
1.92532714707e-06
1.60605138957e-06
1.26081157175e-06
9.83643157804e-07
7.7387201763e-07
6.10042372251e-07
4.67297035278e-07
3.16461559504e-07
1.49144535836e-07
4.33275869211e-08
2.10236874446e-08
4.01447035166e-08
4.01874083132e-07
3.44548972166e-06
7.44652935117e-06
1.03807444767e-05
1.2249016148e-05
1.33598841931e-05
1.39543493836e-05
1.96267203014e-06
1.92476922586e-06
1.60587234102e-06
1.25944773424e-06
9.85141088486e-07
7.82903152263e-07
6.29130682329e-07
4.95918023672e-07
3.48934679692e-07
1.72061249349e-07
4.93507835731e-08
2.08354275633e-08
2.47687943061e-08
1.05970958028e-07
1.95251842149e-06
6.2143287768e-06
9.58779979816e-06
1.17882022928e-05
1.31064798721e-05
1.38134825004e-05
1.95425559265e-06
1.92606070739e-06
1.60713269937e-06
1.25769534739e-06
9.84703166079e-07
7.89140514827e-07
6.44987580654e-07
5.20014112918e-07
3.74440268865e-07
1.8870809973e-07
5.35453621734e-08
2.0496892575e-08
2.00877562775e-08
5.73096199578e-08
8.48002577688e-07
4.90033300376e-06
8.63910967593e-06
1.1219235151e-05
1.27941225556e-05
1.36405786015e-05
1.9449012523e-06
1.93097267794e-06
1.61060048838e-06
1.25766935696e-06
9.86082103617e-07
7.96639175457e-07
6.60836785678e-07
5.41639096594e-07
3.94035339519e-07
1.9995955232e-07
5.67437612531e-08
2.02482044469e-08
1.79695897266e-08
3.97417740666e-08
3.42001525259e-07
3.55905565056e-06
7.51330281582e-06
1.05147385974e-05
1.24057196124e-05
1.3427358683e-05
1.95512526323e-06
1.9411743725e-06
1.61563567384e-06
1.26134227869e-06
9.92759818176e-07
8.09033662997e-07
6.79408499299e-07
5.62187698001e-07
4.09000416745e-07
2.08600759921e-07
6.07368037911e-08
2.05968417165e-08
1.67372853669e-08
2.48585013698e-08
1.4329911587e-07
2.25199027391e-06
6.19758867679e-06
9.64657596518e-06
1.19214946965e-05
1.31635356616e-05
1.97367686722e-06
1.95449371101e-06
1.62576386755e-06
1.27267029327e-06
1.00821084156e-06
8.28541503789e-07
7.01230553132e-07
5.81518467089e-07
4.21428503363e-07
2.1863658605e-07
6.74875987562e-08
2.22440188597e-08
1.637116114e-08
1.88171635451e-08
6.64064200664e-08
1.21855279832e-06
4.75360775351e-06
8.59685207768e-06
1.13208357009e-05
1.28368470456e-05
1.98721272634e-06
1.95704601203e-06
1.63660890003e-06
1.29573938305e-06
1.03700491951e-06
8.56190911024e-07
7.25001497002e-07
5.99059817137e-07
4.32949714232e-07
2.32172839936e-07
7.96654295591e-08
2.50696461645e-08
1.66350489923e-08
1.76204355518e-08
3.89477382964e-08
5.71497816724e-07
3.32656473459e-06
7.37174007656e-06
1.05867341247e-05
1.24344116736e-05
1.97937098293e-06
1.95617145056e-06
1.66821405678e-06
1.34657522597e-06
1.08530026492e-06
8.91747887361e-07
7.4864652516e-07
6.11829572554e-07
4.41516729436e-07
2.51166841339e-07
9.67834797309e-08
2.89383917453e-08
1.72092710794e-08
1.77470502995e-08
3.08184768681e-08
2.13620930985e-07
2.06123682379e-06
6.00203882242e-06
9.70791210017e-06
1.19443788539e-05
2.01294351416e-06
2.02297988581e-06
1.76069333951e-06
1.43438174439e-06
1.14732713383e-06
9.28098060178e-07
7.65596630999e-07
6.1537385168e-07
4.49884432193e-07
2.74707949095e-07
1.17520554601e-07
3.38607760668e-08
1.77418934175e-08
1.81339179005e-08
2.1995336423e-08
7.04279543739e-08
1.08757966453e-06
4.5802108304e-06
8.68679431359e-06
1.13582253744e-05
2.15113090732e-06
2.19339414578e-06
1.91260597019e-06
1.53613251909e-06
1.20197721066e-06
9.53139145891e-07
7.71870298566e-07
6.16950642689e-07
4.63589371727e-07
3.03133634784e-07
1.42108434618e-07
4.00319454395e-08
1.81131952239e-08
1.81910042603e-08
2.19632292027e-08
4.46115246612e-08
4.12138178966e-07
3.22904940757e-06
7.54661857245e-06
1.06735856764e-05
2.35880931214e-06
2.4143859016e-06
2.06183004997e-06
1.6097183822e-06
1.2354986636e-06
9.68880598652e-07
7.76494260453e-07
6.23276387092e-07
4.8441306609e-07
3.37800461371e-07
1.72336331768e-07
4.82313001993e-08
1.8558944542e-08
1.78011102738e-08
2.13816575532e-08
2.90535634113e-08
1.19479499372e-07
1.98652635667e-06
6.32886106015e-06
9.89372876469e-06
2.52093082702e-06
2.54415854213e-06
2.12153098489e-06
1.63602782079e-06
1.25623032435e-06
9.82587532644e-07
7.84257876687e-07
6.34723624066e-07
5.09767911348e-07
3.77174684314e-07
2.08469085807e-07
5.94125550895e-08
1.93554106904e-08
1.73632973428e-08
2.03506711032e-08
2.6109207315e-08
6.78722668461e-08
8.9991589925e-07
5.06792061731e-06
9.02245138457e-06
2.50295375766e-06
2.5173660756e-06
2.11617906546e-06
1.64425435353e-06
1.26813179062e-06
9.9311426014e-07
7.92625933603e-07
6.46862945685e-07
5.34332407545e-07
4.16408391283e-07
2.47970084726e-07
7.4388418926e-08
2.08927498193e-08
1.71537730947e-08
1.93768682475e-08
2.34664084421e-08
3.9557385024e-08
3.00454543491e-07
3.76967087222e-06
8.06477526823e-06
2.49380040261e-06
2.51291753831e-06
2.1201393849e-06
1.65513172614e-06
1.27981336435e-06
1.00215217168e-06
7.99592755048e-07
6.5686557896e-07
5.54479333561e-07
4.49375795471e-07
2.85218334516e-07
9.34997536724e-08
2.36291346963e-08
1.7259059219e-08
1.88143931985e-08
2.14990169578e-08
2.99181727285e-08
1.26560081074e-07
2.47161269676e-06
7.0231913085e-06
2.5025675018e-06
2.51699172888e-06
2.1247978593e-06
1.66371773883e-06
1.28903255546e-06
1.01011418239e-06
8.0681702602e-07
6.66439953452e-07
5.71571375257e-07
4.75044387398e-07
3.14382224275e-07
1.13395202965e-07
2.78995523001e-08
1.77175919388e-08
1.86931866339e-08
2.03560588288e-08
2.50515208638e-08
7.71029283074e-08
1.343037865e-06
5.89086089633e-06
2.50372678221e-06
2.52180066503e-06
2.13011449973e-06
1.66880995244e-06
1.29329560008e-06
1.01500484625e-06
8.13249503374e-07
6.76273484134e-07
5.8730389949e-07
4.95026446298e-07
3.35600657098e-07
1.29677583113e-07
3.24895910588e-08
1.84854142618e-08
1.8845148369e-08
1.98703976564e-08
2.23989206241e-08
5.20889592866e-08
5.9717909756e-07
4.69075562444e-06
2.50491636788e-06
2.5279067513e-06
2.13645326888e-06
1.67025382258e-06
1.29234054308e-06
1.01623808769e-06
8.18275713925e-07
6.86415241142e-07
6.01907035425e-07
5.0977724316e-07
3.48376974228e-07
1.39755233233e-07
3.59313950323e-08
1.92153433287e-08
1.9085461982e-08
1.98157210711e-08
2.11101105755e-08
3.11460894826e-08
2.40427129546e-07
3.4844610067e-06
2.49410213571e-06
2.53400143722e-06
2.14339694215e-06
1.66856341778e-06
1.28810908381e-06
1.01497417686e-06
8.22076580514e-07
6.9635009264e-07
6.14489461999e-07
5.188123004e-07
3.5207231275e-07
1.4241058349e-07
3.73894258664e-08
1.96540306346e-08
1.92842313842e-08
1.98987685468e-08
2.0528995278e-08
2.55810439601e-08
1.1120658013e-07
2.32945431509e-06
2.48859701861e-06
2.53893949583e-06
2.14541972064e-06
1.6637892577e-06
1.28231804533e-06
1.01207926543e-06
8.24643810244e-07
7.05267538461e-07
6.23880312911e-07
5.2135519547e-07
3.46446957548e-07
1.38200621932e-07
3.69602482016e-08
1.97669142156e-08
1.93987213723e-08
1.99735133814e-08
2.02366988459e-08
2.29011681538e-08
6.74802643104e-08
1.34114006031e-06
2.48153568653e-06
2.53665138214e-06
2.14013224411e-06
1.65436940551e-06
1.2730353238e-06
1.00650287881e-06
8.25699718976e-07
7.12459694857e-07
6.29148035373e-07
5.16853791704e-07
3.32405398956e-07
1.29355997107e-07
3.5459686429e-08
1.96869190327e-08
1.94209733464e-08
2.00001568544e-08
2.00688274445e-08
2.13476067051e-08
4.82411306744e-08
6.77784511264e-07
2.48661159678e-06
2.53453170108e-06
2.13199674037e-06
1.6410360716e-06
1.25992306325e-06
9.98452496912e-07
8.25958375909e-07
7.177030614e-07
6.29930519869e-07
5.05192897868e-07
3.12198654728e-07
1.18908856314e-07
3.3889607919e-08
1.95661764841e-08
1.939386672e-08
2.00214212404e-08
1.9991582754e-08
2.04736776087e-08
3.44975755405e-08
3.25150643157e-07
2.48143027432e-06
2.52424427365e-06
2.11642024357e-06
1.62239033457e-06
1.24411197578e-06
9.9022851171e-07
8.27128569709e-07
7.21533330698e-07
6.26514757644e-07
4.87102585773e-07
2.89372775646e-07
1.09732534974e-07
3.30116091658e-08
1.95356866023e-08
1.93753173559e-08
2.00693531471e-08
2.00200984026e-08
2.00802327916e-08
2.48422637481e-08
1.57174301872e-07
2.46952425987e-06
2.49882933007e-06
2.08529240755e-06
1.59655136577e-06
1.22850960081e-06
9.86252953212e-07
8.31776677167e-07
7.25486761305e-07
6.19241077841e-07
4.64523633563e-07
2.68058091311e-07
1.03861747299e-07
3.32979385058e-08
1.97093586572e-08
1.93979022693e-08
2.01573806913e-08
2.01177543021e-08
2.00204374074e-08
2.21801756429e-08
8.20598266342e-08
2.43218062643e-06
2.44544162931e-06
2.03424487863e-06
1.56709878707e-06
1.22063925178e-06
9.93086648826e-07
8.43797120252e-07
7.31014429566e-07
6.07593466305e-07
4.406045542e-07
2.51900310941e-07
1.02425116907e-07
3.50523044247e-08
2.02182089962e-08
1.94778147351e-08
2.02507545773e-08
2.01828272913e-08
2.015982035e-08
2.1609492697e-08
5.16731936542e-08
1.42085173494e-05
1.42072289584e-05
1.42072908547e-05
1.4208391986e-05
1.4210248399e-05
1.42123406827e-05
1.42133791065e-05
1.42101145604e-05
1.41946871543e-05
1.4148854296e-05
1.40318969674e-05
1.37567460515e-05
1.31478908584e-05
1.1886461602e-05
9.51906246512e-06
5.84943723599e-06
2.09566942848e-06
3.47894591236e-07
1.08896137878e-07
4.95263361549e-07
1.42029198793e-05
1.41990844925e-05
1.4198221337e-05
1.41993010866e-05
1.42008673011e-05
1.42000112746e-05
1.41902553194e-05
1.41573213844e-05
1.40710844655e-05
1.38714446083e-05
1.34466526639e-05
1.26086963435e-05
1.10911539185e-05
8.64515962076e-06
5.37160239849e-06
2.22786970221e-06
5.33227009255e-07
1.40029239692e-07
2.55882888123e-07
9.83887003487e-07
1.42489090835e-05
1.42410917105e-05
1.42374468212e-05
1.42357044749e-05
1.42318234903e-05
1.42177327569e-05
1.41769320022e-05
1.40768523682e-05
1.38570385975e-05
1.34141120454e-05
1.25904030225e-05
1.1186238712e-05
9.03616865804e-06
6.19882728265e-06
3.22628006785e-06
1.10524752506e-06
2.74160833915e-07
1.72770041493e-07
5.15232567208e-07
1.43692948864e-06
1.42985402096e-05
1.4286094023e-05
1.42775275305e-05
1.42688266694e-05
1.42517495741e-05
1.42102628457e-05
1.4114159701e-05
1.39097695642e-05
1.35093015952e-05
1.27845420225e-05
1.15779734561e-05
9.7528938498e-06
7.30465943003e-06
4.52328475267e-06
2.07586028972e-06
6.50568977058e-07
2.11011478355e-07
2.84219527378e-07
8.5178088745e-07
1.80719059699e-06
1.43499990171e-05
1.43332477824e-05
1.43176382102e-05
1.42969992325e-05
1.4257449211e-05
1.4173019937e-05
1.39985595647e-05
1.36616403703e-05
1.30577661068e-05
1.20574289089e-05
1.05377406213e-05
8.45083628406e-06
5.92761866029e-06
3.37327418904e-06
1.4096414958e-06
4.39294681542e-07
2.23082615929e-07
4.69465643778e-07
1.19334032013e-06
2.07553394437e-06
1.43942912738e-05
1.43742944349e-05
1.43496014347e-05
1.43116195373e-05
1.42398902518e-05
1.40978470792e-05
1.38267159375e-05
1.33411796726e-05
1.25327598324e-05
1.12892239639e-05
9.53798513587e-06
7.31480344933e-06
4.84190378105e-06
2.56235574716e-06
1.00056875815e-06
3.41093501632e-07
2.89203111191e-07
7.08000361881e-07
1.48424497736e-06
2.25744508231e-06
1.44267721729e-05
1.44050508829e-05
1.43692745878e-05
1.43083926652e-05
1.41951321694e-05
1.39830167102e-05
1.36028383461e-05
1.29635406357e-05
1.19635984733e-05
1.05188228643e-05
8.60893125256e-06
6.33672748442e-06
3.97866086511e-06
1.9744444779e-06
7.41762714227e-07
3.08451079085e-07
4.05557980988e-07
9.62792870211e-07
1.70776873781e-06
2.37717117765e-06
1.44447740096e-05
1.4423055865e-05
1.43741924355e-05
1.42849482723e-05
1.41217343253e-05
1.38299409738e-05
1.33340500733e-05
1.25440078488e-05
1.13728978272e-05
9.76878240581e-06
7.75868171461e-06
5.49503840297e-06
3.28319200178e-06
1.53968646954e-06
5.79149386312e-07
3.23044132637e-07
5.64460959098e-07
1.20035174232e-06
1.8718260792e-06
2.45384536627e-06
1.44475817856e-05
1.44274047186e-05
1.43633264782e-05
1.42405075207e-05
1.40201639413e-05
1.36420081349e-05
1.30284615791e-05
1.20959197077e-05
1.07765053817e-05
9.05048221047e-06
6.98475084993e-06
4.76708225e-06
2.71604080246e-06
1.21560731855e-06
4.83300114695e-07
3.77840986606e-07
7.50074829056e-07
1.40312397656e-06
1.99025873017e-06
2.50074603271e-06
1.44359884228e-05
1.44182369305e-05
1.43365342377e-05
1.41752469367e-05
1.38919382125e-05
1.3423362623e-05
1.26937168483e-05
1.16297495189e-05
1.01845424736e-05
8.36825407563e-06
6.28027685489e-06
4.13324140412e-06
2.2497350272e-06
9.75521444484e-07
4.37386217543e-07
4.68709926949e-07
9.43165039469e-07
1.56820417995e-06
2.07497168637e-06
2.5269189696e-06
1.44115189281e-05
1.43961272736e-05
1.42940242228e-05
1.40897379801e-05
1.3738925446e-05
1.31780407801e-05
1.23362075058e-05
1.11530180491e-05
9.60274850673e-06
7.72226211084e-06
5.63716098059e-06
3.57784643603e-06
1.86536264233e-06
8.01749737815e-07
4.31641472485e-07
5.89827168055e-07
1.12775201367e-06
1.70018620247e-06
2.13486484216e-06
2.53854034455e-06
1.43753542421e-05
1.43613668969e-05
1.42358101465e-05
1.39844374775e-05
1.35627827537e-05
1.29093916635e-05
1.19607217921e-05
1.06705799666e-05
9.03369076394e-06
7.11037049328e-06
5.04758228415e-06
3.08897180554e-06
1.54984947928e-06
6.81872224529e-07
4.60335143815e-07
7.32398917083e-07
1.29460935005e-06
1.80546856352e-06
2.17647652301e-06
2.53984149804e-06
1.43274095594e-05
1.43134328981e-05
1.41613673261e-05
1.38593938983e-05
1.33646559798e-05
1.26198375223e-05
1.15704650922e-05
1.01851358942e-05
8.47781447629e-06
6.52939529282e-06
4.50475790153e-06
2.65795322974e-06
1.29396931643e-06
6.06829365476e-07
5.19538502243e-07
8.86025130509e-07
1.44083675443e-06
1.88977764597e-06
2.20461922313e-06
2.53374871142e-06
1.42661500514e-05
1.4251004252e-05
1.40697157963e-05
1.37143189981e-05
1.31452366371e-05
1.23110026534e-05
1.11674087294e-05
9.69791185357e-06
7.93439357133e-06
5.97603139756e-06
4.00339143735e-06
2.27889351506e-06
1.09092210849e-06
5.69975691951e-07
6.05328603566e-07
1.04106660966e-06
1.56744618497e-06
1.95768194667e-06
2.22284325598e-06
2.5223268358e-06
1.41891679242e-05
1.41724957226e-05
1.39598819222e-05
1.3548974193e-05
1.29051173749e-05
1.19841279403e-05
1.07528622884e-05
9.20942497035e-06
7.40239616173e-06
5.44759009659e-06
3.53997189015e-06
1.94816730281e-06
9.3534536673e-07
5.66464681606e-07
7.12738751291e-07
1.19043506132e-06
1.67700610467e-06
2.01275161313e-06
2.23378873365e-06
2.5070912141e-06
1.40938392115e-05
1.40766238791e-05
1.38313888819e-05
1.33636096399e-05
1.2645227756e-05
1.16405670917e-05
1.03280787752e-05
8.72018763508e-06
6.8811938082e-06
4.94254440524e-06
3.11290517527e-06
1.66382900225e-06
8.22667243674e-07
5.92611469066e-07
8.35690335987e-07
1.33011643025e-06
1.77224172998e-06
2.05776782821e-06
2.23944033642e-06
2.48922151981e-06
1.39774466499e-05
1.39625756951e-05
1.3684462477e-05
1.31592042615e-05
1.23671211291e-05
1.1282141555e-05
9.89468545215e-06
8.23118484254e-06
6.37100810419e-06
4.46081173752e-06
2.72237896824e-06
1.42484854198e-06
7.48730823972e-07
6.45157609882e-07
9.67706475287e-07
1.4586468306e-06
1.85551559678e-06
2.09487600024e-06
2.24129208117e-06
2.46969118069e-06
1.38368111405e-05
1.38297537284e-05
1.3519886745e-05
1.29374023607e-05
1.20729737036e-05
1.09111976536e-05
9.45479394121e-06
7.74401430547e-06
5.87302515134e-06
4.003714467e-06
2.36988244268e-06
1.23024364191e-06
7.09632838967e-07
7.20607314562e-07
1.10289436494e-06
1.57616600613e-06
1.92877498845e-06
2.12570928098e-06
2.24044283089e-06
2.4493207515e-06
1.36677250943e-05
1.36772745065e-05
1.33385827375e-05
1.27001451888e-05
1.17652527081e-05
1.05303148519e-05
9.01075774194e-06
7.26068841387e-06
5.38919546021e-06
3.57362327282e-06
2.05741277642e-06
1.07834900571e-06
7.01698647645e-07
8.1488625856e-07
1.23669919165e-06
1.6835751462e-06
1.99363866341e-06
2.15149927057e-06
2.23764988933e-06
2.42876901679e-06
1.34645097756e-05
1.35034202257e-05
1.31410327542e-05
1.24490816477e-05
1.14461340987e-05
1.01417621395e-05
8.56469472559e-06
6.78322425343e-06
4.92183124478e-06
3.17337374367e-06
1.78655898124e-06
9.66498305954e-07
7.21483552553e-07
9.23440586328e-07
1.36618655137e-06
1.78201583167e-06
2.05147827654e-06
2.17317246883e-06
2.23336686238e-06
2.40848480623e-06
1.32201886512e-05
1.33053456873e-05
1.29267799581e-05
1.2184980932e-05
1.11169061594e-05
9.74694672907e-06
8.11800876925e-06
6.31322669209e-06
4.47316907411e-06
2.80562479604e-06
1.55777210339e-06
8.91216592731e-07
7.65723188981e-07
1.0416692458e-06
1.48988969587e-06
1.87263453928e-06
2.10346602282e-06
2.19143022335e-06
2.22778784317e-06
2.3886511304e-06
1.29272928451e-05
1.30792733313e-05
1.26942897426e-05
1.19074516045e-05
1.07776572448e-05
9.34612543584e-06
7.67114035267e-06
5.85165573213e-06
4.04507067841e-06
2.47237175849e-06
1.37009984071e-06
8.48748962548e-07
8.31238222399e-07
1.16544295894e-06
1.60741143186e-06
1.95650192551e-06
2.15059795798e-06
2.20681381057e-06
2.22091168322e-06
2.36915582003e-06
1.25791725983e-05
1.28212233872e-05
1.24413175935e-05
1.16151285039e-05
1.0427388591e-05
8.93849391501e-06
7.22364917716e-06
5.39889008055e-06
3.63899878124e-06
2.17478966396e-06
1.22144967433e-06
8.35599653215e-07
9.14846949165e-07
1.29147884445e-06
1.7189801346e-06
2.03458086908e-06
2.19370529737e-06
2.21975716706e-06
2.2126275112e-06
2.34961515204e-06
1.21714121122e-05
1.25278882527e-05
1.21655065081e-05
1.13061236164e-05
1.0064398997e-05
8.5225551914e-06
6.77459420851e-06
4.95510964971e-06
3.25631139442e-06
1.91342146825e-06
1.10917014358e-06
8.48815148248e-07
1.01333173519e-06
1.41746114314e-06
1.82508976757e-06
2.1077008591e-06
2.23346309542e-06
2.2306276083e-06
2.20280809199e-06
2.32945674778e-06
1.17016863646e-05
1.21968464948e-05
1.18647066745e-05
1.0978378369e-05
9.68668743997e-06
8.09660570479e-06
6.32311461034e-06
4.5209142715e-06
2.89874057111e-06
1.68850740456e-06
1.03060720268e-06
8.85933109935e-07
1.12348192778e-06
1.54193441122e-06
1.92627349307e-06
2.17654164836e-06
2.27040397693e-06
2.23975371403e-06
2.19138948737e-06
2.30804296806e-06
1.11678490395e-05
1.18260502098e-05
1.15369466728e-05
1.06298578139e-05
9.29232176222e-06
7.65927050263e-06
5.86909154637e-06
4.09796715756e-06
2.5687545067e-06
1.50017083419e-06
9.83394558236e-07
9.4470347098e-07
1.24221407906e-06
1.66407729498e-06
2.02300167816e-06
2.24163848573e-06
2.3049399095e-06
2.24744008186e-06
2.17841861921e-06
2.28479864014e-06
1.0567471168e-05
1.14135027834e-05
1.11804585135e-05
1.02588186048e-05
8.87987027093e-06
7.2100452237e-06
5.41371290362e-06
3.68937453856e-06
2.2695164168e-06
1.34833369654e-06
9.65458400099e-07
1.02278061794e-06
1.36674024603e-06
1.78347192356e-06
2.11566493498e-06
2.30340888278e-06
2.33738878144e-06
2.25397115146e-06
2.16406436145e-06
2.25930877268e-06
9.89692381976e-06
1.09571380447e-05
1.07939779259e-05
9.86424939887e-06
8.44884710535e-06
6.749685859e-06
4.95972092347e-06
3.29958866528e-06
2.00438748074e-06
1.23248319746e-06
9.74867383251e-07
1.11755969716e-06
1.49472588517e-06
1.8999365441e-06
2.20459618839e-06
2.36218715148e-06
2.36799810421e-06
2.25960774372e-06
2.14860243025e-06
2.2313705603e-06
9.14930458081e-06
1.04546606288e-05
1.03771013971e-05
9.44622951289e-06
7.99993176243e-06
6.28026973192e-06
4.51125486763e-06
2.93387167764e-06
1.7762208178e-06
1.15152419811e-06
1.00966576713e-06
1.2262183563e-06
1.62437627716e-06
2.01342917837e-06
2.29009581821e-06
2.41825131558e-06
2.39695988372e-06
2.26458020845e-06
2.13239144848e-06
2.2010084574e-06
8.32260502388e-06
9.90507920045e-06
9.93063431734e-06
9.00595965372e-06
7.53484263718e-06
5.80496756876e-06
4.07345220449e-06
2.59759380082e-06
1.58681098825e-06
1.10384401861e-06
1.06775420576e-06
1.34590259686e-06
1.75442065964e-06
2.12399332466e-06
2.37244138695e-06
2.47183562086e-06
2.42441623598e-06
2.26908031267e-06
2.11585245732e-06
2.16847488154e-06
7.42629317228e-06
9.309587606e-06
9.45634563316e-06
8.54534553081e-06
7.05597191125e-06
5.32775819755e-06
3.65207298477e-06
2.29564611992e-06
1.43671103363e-06
1.08751710259e-06
1.14682003828e-06
1.47393492818e-06
1.88400704965e-06
2.23171532582e-06
2.4518817757e-06
2.52313363959e-06
2.4504615104e-06
2.27325256524e-06
2.09945259046e-06
2.13425533206e-06
6.46535168121e-06
8.66749135686e-06
8.95565544461e-06
8.06639674244e-06
6.56616384403e-06
4.85341461172e-06
3.25334444169e-06
2.03209149096e-06
1.32538159918e-06
1.10047592244e-06
1.2443015241e-06
1.60794490648e-06
2.01255270345e-06
2.33668306753e-06
2.52862764555e-06
2.57230328492e-06
2.47514889728e-06
2.27718494265e-06
2.0836824507e-06
2.0990773643e-06
5.44444830225e-06
7.9758541009e-06
8.42928494288e-06
7.57125222424e-06
6.06907598742e-06
4.38791185437e-06
2.88395050365e-06
1.80995752161e-06
1.25146731589e-06
1.14052444317e-06
1.35738711151e-06
1.74589665292e-06
2.13960783509e-06
2.43895845516e-06
2.60285492018e-06
2.61948461411e-06
2.49850762103e-06
2.28089986797e-06
2.06901413346e-06
2.06390290335e-06
4.40410356782e-06
7.23696403271e-06
7.87868941052e-06
7.06291009287e-06
5.56990844231e-06
3.93882671717e-06
2.5507343101e-06
1.63097321639e-06
1.21300254415e-06
1.20520995657e-06
1.48307655503e-06
1.88605920236e-06
2.26478035268e-06
2.53858203038e-06
2.67473051801e-06
2.66483177452e-06
2.52056916602e-06
2.28434587971e-06
2.05583320615e-06
2.02987780367e-06
3.39142124101e-06
6.45283431206e-06
7.30568436873e-06
6.54576329682e-06
5.07585043257e-06
3.51510625151e-06
2.25982480408e-06
1.49526754223e-06
1.20750747076e-06
1.29169181824e-06
1.61833135102e-06
2.02698697752e-06
2.38773862191e-06
2.63561383357e-06
2.74445497115e-06
2.70854961055e-06
2.54139475261e-06
2.28739149968e-06
2.04435101353e-06
1.99822674853e-06
2.42676852875e-06
5.61491617872e-06
6.71118808253e-06
6.02577589509e-06
4.59582959503e-06
3.12593671608e-06
2.01542070981e-06
1.40126859629e-06
1.23206026689e-06
1.39676210371e-06
1.76030854009e-06
2.1675489075e-06
2.50827257336e-06
2.73019249612e-06
2.81230277016e-06
2.75091830238e-06
2.56109344343e-06
2.28982337415e-06
2.03451404287e-06
1.97010188066e-06
1.58216234153e-06
4.72786538153e-06
6.09849666169e-06
5.51055796731e-06
4.13938688661e-06
2.77896651789e-06
1.81885835164e-06
1.34599311872e-06
1.28344557918e-06
1.51707769947e-06
1.90662106297e-06
2.30698990428e-06
2.62636406575e-06
2.82257771296e-06
2.87863506558e-06
2.79228815756e-06
2.57981678572e-06
2.29133388524e-06
2.02588283585e-06
1.94633088497e-06
9.54209834662e-07
3.82827824991e-06
5.47492587159e-06
)
;

boundaryField
{
    emptyPatch
    {
        type            empty;
    }
    minY
    {
        type            zeroGradient;
    }
    maxY
    {
        type            calculated;
        value           nonuniform List<scalar> 0();
    }
    maxX
    {
        type            compressible::alphatPhaseChangeJayatillekeWallFunction;
        Prt             0.85;
        Cmu             0.09;
        kappa           0.41;
        E               9.8;
        dmdt            uniform 0;
        value           uniform 0;
    }
    water_to_heater
    {
        type            compressible::alphatWallBoilingWallFunction;
        phaseType       vapor;
        relax           constant 1;
        partitioningModel
        {
            type            Lavieville;
            alphaCrit       0.2;
        }
        otherPhase      liquid;
        dmdt            uniform 0;
        dDep            uniform 1e-05;
        qQuenching      uniform 0;
        alphatConv      uniform 0;
        value           nonuniform List<scalar> 
61
(
5.23932817288e-11
1.02453888587e-07
1.02453888587e-07
1.04302973465e-07
1.04302973465e-07
1.04304972392e-07
1.04304972392e-07
8.19906252553e-08
5.35825622631e-08
3.75245252305e-08
3.75245252305e-08
3.21959307258e-08
3.21959307258e-08
2.54704235649e-08
2.54704235649e-08
1.83794035228e-08
1.57226671616e-08
2.25249005473e-08
2.25249005473e-08
7.05760559323e-08
7.05760559323e-08
8.1625643547e-08
8.1625643547e-08
8.7716022986e-08
8.21765737276e-08
8.80842515746e-08
8.80842515746e-08
8.2340849744e-08
8.2340849744e-08
8.66124353451e-08
8.66124353451e-08
8.20747221404e-08
8.25328599123e-08
7.9208672583e-08
7.9208672583e-08
5.6316727111e-08
5.6316727111e-08
3.36392648722e-08
3.36392648722e-08
3.30467215282e-08
5.76644229075e-08
1.58766730727e-07
1.58766730727e-07
2.12489440212e-07
2.12489440212e-07
2.26490958305e-07
2.26490958305e-07
2.13812831287e-07
2.33445414599e-07
2.16130755306e-07
2.16130755306e-07
2.33761600297e-07
2.33761600297e-07
2.16130755306e-07
2.16130755306e-07
2.32987641232e-07
2.13650025973e-07
2.27981645561e-07
2.27981645561e-07
2.12489440212e-07
2.12489440212e-07
)
;
    }
    procBoundary2to3
    {