/*--------------------------------*- C++ -*----------------------------------*\
| =========                 |                                                 |
| \\      /  F ield         | OpenFOAM: The Open Source CFD Toolbox           |
|  \\    /   O peration     | Version:  2312                                  |
|   \\  /    A nd           | Website:  www.openfoam.com                      |
|    \\/     M anipulation  |                                                 |
\*---------------------------------------------------------------------------*/
FoamFile
{
    version     2.0;
    format      ascii;
    arch        "LSB;label=32;scalar=64";
    class       surfaceScalarField;
    location    "0.12/water";
    object      phi.gas;
}
// * * * * * * * * * * * * * * * * * * * * * * * * * * * * * * * * * * * * * //

dimensions      [0 3 -1 0 0 0 0];

oriented        oriented;

internalField   nonuniform List<scalar> 
2914
(
2.95255359448e-07
5.71224603101e-07
2.6771397361e-07
5.87400493596e-07
3.74280019953e-07
7.956790379e-07
5.80195147225e-07
1.61042111021e-06
7.74026904238e-07
1.98972393475e-06
9.31980131335e-07
2.19235041375e-06
9.64673311413e-07
2.18572806677e-06
5.41234771206e-07
1.88125884679e-06
3.16345365404e-07
1.31424756807e-06
1.98538100554e-07
1.01816255029e-06
1.79346616646e-07
8.54835610261e-07
2.08142660225e-07
7.75048273554e-07
2.51828439428e-07
7.39617415904e-07
2.9466622177e-07
7.22753617187e-07
3.46495192044e-07
7.12473010652e-07
3.56694953169e-07
7.14505014533e-07
2.94250476865e-07
7.67450372823e-07
2.56511495921e-07
8.15545018219e-07
2.16100569701e-07
8.45792865652e-07
8.26303137322e-07
1.80207003023e-07
2.93155835215e-07
5.71241490862e-07
2.64500153058e-07
5.84649636112e-07
3.20078650607e-07
7.14791873409e-07
6.83959849076e-07
1.2156158826e-06
8.0382464452e-07
1.84549700854e-06
8.88326664449e-07
2.09339796607e-06
8.97425203172e-07
2.16784150054e-06
7.2714616718e-07
2.03884700456e-06
5.17081594152e-07
1.49399288828e-06
3.58600382312e-07
1.15762035861e-06
2.88743956031e-07
9.28800600805e-07
2.74994588439e-07
8.00998300789e-07
2.90194201904e-07
7.40358112778e-07
3.1996417975e-07
7.15652301249e-07
3.65499083428e-07
7.0652079177e-07
3.60518326081e-07
7.16369646207e-07
3.01817856095e-07
7.79021269978e-07
2.71436674959e-07
8.26795337624e-07
2.31214177524e-07
8.57011651122e-07
8.41167887099e-07
1.92011790551e-07
2.95044538089e-07
5.69776077013e-07
2.68160866979e-07
5.81843237683e-07
2.94396982375e-07
6.6479508212e-07
4.54950230463e-07
1.02754155772e-06
6.29808517259e-07
1.64722251112e-06
7.80684729962e-07
1.92620442814e-06
9.06385261626e-07
2.03527209829e-06
9.41947150658e-07
1.99848169564e-06
6.49588282554e-07
1.77981531604e-06
4.85050745009e-07
1.30277679675e-06
3.8681004527e-07
1.01878967392e-06
3.48609627482e-07
8.46637142674e-07
3.44943209019e-07
7.57649978412e-07
3.64184987541e-07
7.20169324551e-07
4.00192927533e-07
7.08713687643e-07
3.81459875724e-07
7.24353674109e-07
3.26657356611e-07
7.9229061347e-07
2.96073975261e-07
8.40998820699e-07
2.51633138157e-07
8.7173768845e-07
8.5977393904e-07
2.07409570895e-07
2.86904530301e-07
5.71812170933e-07
2.57784518273e-07
5.84128707099e-07
2.60865376268e-07
6.40972649647e-07
3.67808298391e-07
8.93795411235e-07
4.88513993231e-07
1.50465216029e-06
6.05289768661e-07
1.79383545896e-06
7.02217962518e-07
1.92918650933e-06
7.40101951675e-07
1.95610581522e-06
6.86483846834e-07
1.8325312119e-06
5.56371052469e-07
1.42108216886e-06
4.61262250341e-07
1.10470184306e-06
4.16168726387e-07
8.97991083452e-07
4.05109179644e-07
7.83928734618e-07
4.18308578245e-07
7.32768693831e-07
4.44058838812e-07
7.17703381541e-07
4.13091482517e-07
7.38290938947e-07
3.57583297717e-07
8.08833282264e-07
3.24707162044e-07
8.60422689493e-07
2.7499996005e-07
8.92545910264e-07
8.83693181702e-07
2.23504351539e-07
2.71928109409e-07
5.86763936676e-07
2.34502901598e-07
5.96845543668e-07
2.22898376782e-07
6.36085850634e-07
2.79075006828e-07
8.14712129127e-07
3.76816971745e-07
1.38839917303e-06
4.84553252999e-07
1.67425127266e-06
5.77608811844e-07
1.82713087978e-06
6.45687163538e-07
1.88555817927e-06
6.50172069085e-07
1.83190664182e-06
5.73490904458e-07
1.49536715613e-06
5.04541524062e-07
1.16941353327e-06
4.69408291669e-07
9.43419290082e-07
4.63852463086e-07
8.1232843702e-07
4.77423118926e-07
7.50236070824e-07
4.91605497835e-07
7.31809518343e-07
4.47318346589e-07
7.57752534583e-07
3.93095787948e-07
8.31635198496e-07
3.53901549374e-07
8.86678357641e-07
2.96851102018e-07
9.20431791257e-07
9.14355578458e-07
2.38733065277e-07
2.69107874379e-07
6.0800627622e-07
2.25453334834e-07
6.1713173435e-07
1.99436026153e-07
6.46723845726e-07
2.16681888921e-07
7.75642757895e-07
3.157337699e-07
1.27267751055e-06
4.08491610764e-07
1.57358847618e-06
4.89195282222e-07
1.74142016918e-06
5.57375694978e-07
1.81792545476e-06
5.95560158571e-07
1.79788325037e-06
5.53029835379e-07
1.54004595368e-06
5.22274569765e-07
1.2026347834e-06
5.08953986127e-07
9.74389107987e-07
5.16980356394e-07
8.36915142127e-07
5.3434170198e-07
7.69150707365e-07
5.35912505999e-07
7.4926907034e-07
4.81708994973e-07
7.82619308998e-07
4.256115148e-07
8.61585759409e-07
3.79537895452e-07
9.20774769092e-07
3.1576721563e-07
9.56367509904e-07
9.51961816004e-07
2.50052216843e-07
2.71981997343e-07
6.3939876243e-07
2.17834890089e-07
6.47373592843e-07
1.78727634387e-07
6.71881735203e-07
1.624936782e-07
7.70790804686e-07
2.88594239127e-07
1.13179645025e-06
3.42814543958e-07
1.51679947282e-06
4.01946515619e-07
1.68619417036e-06
4.55561693178e-07
1.7695774899e-06
4.90600773995e-07
1.7660929603e-06
5.25884777857e-07
1.50498976e-06
5.2978844139e-07
1.20364836693e-06
5.40235761116e-07
9.87444276813e-07
5.62475238559e-07
8.53608817122e-07
5.83173554976e-07
7.86471958848e-07
5.72324366372e-07
7.68347110989e-07
5.09383164564e-07
8.12560399805e-07
4.52976274609e-07
9.00224672955e-07
3.98751076678e-07
9.63156649688e-07
3.27339773708e-07
9.99728787512e-07
9.96388063776e-07
2.56383851629e-07
2.71304821321e-07
6.81614405669e-07
2.07354668297e-07
6.89500140734e-07
1.54963616159e-07
7.13089020978e-07
1.09690137871e-07
7.97194490761e-07
1.40787773533e-07
1.09326194054e-06
2.06923463794e-07
1.46035180752e-06
2.71656587279e-07
1.63686254273e-06
3.33733327637e-07
1.71893729773e-06
4.15417133416e-07
1.68989906895e-06
4.99006721713e-07
1.42157425605e-06
5.32940830542e-07
1.17607736335e-06
5.64089180197e-07
9.83234496132e-07
5.98426806245e-07
8.61993709462e-07
6.19276237298e-07
8.01573661773e-07
5.96599836367e-07
7.88575797452e-07
5.29222883814e-07
8.49173556609e-07
4.6761344713e-07
9.47433653282e-07
4.06166353715e-07
1.01304494206e-06
3.29752204028e-07
1.04946899599e-06
1.04577009769e-06
2.54162317659e-07
2.76802581079e-07
7.37613266999e-07
1.95252355178e-07
7.46315738014e-07
1.26738936239e-07
7.72212277343e-07
5.39882676049e-08
8.55022620251e-07
3.14313913005e-08
1.11760665646e-06
7.84207931207e-08
1.43703873285e-06
1.41941183854e-07
1.60168215003e-06
2.31434056191e-07
1.65039521888e-06
3.76234200849e-07
1.55709817992e-06
4.63077713049e-07
1.34215510001e-06
5.22923364199e-07
1.1302629483e-06
5.73253647546e-07
9.66765737581e-07
6.16622614871e-07
8.65138087152e-07
6.34434521586e-07
8.16018487119e-07
6.01523440037e-07
8.09898413744e-07
5.26151397774e-07
8.92358477043e-07
4.6268517239e-07
1.00214573022e-06
3.96299853695e-07
1.0674404246e-06
3.17051119495e-07
1.10153496532e-06
1.09681693633e-06
2.42166841988e-07
2.66688443883e-07
8.13495934231e-07
1.69196627217e-07
8.20549438678e-07
9.12733506838e-08
8.46335463712e-07
5.24469518361e-09
9.31581162515e-07
-3.31484636288e-08
1.16482198793e-06
1.58933656332e-08
1.42189079621e-06
9.5194040794e-08
1.56568410917e-06
1.9119613649e-07
1.58933435556e-06
3.0524413194e-07
1.46584374331e-06
4.10660093714e-07
1.2572644531e-06
4.91986978688e-07
1.07572024989e-06
5.55567782843e-07
9.44043844887e-07
5.98788945483e-07
8.65532491495e-07
6.07542231633e-07
8.29282828022e-07
5.64918191414e-07
8.29859898687e-07
4.88920073785e-07
9.39346011588e-07
4.26302603818e-07
1.05770149371e-06
3.61648800103e-07
1.11916125819e-06
2.87654337367e-07
1.14923812963e-06
1.14269048977e-06
2.18459657244e-07
3.02612659559e-07
8.98134561441e-07
1.85476646309e-07
9.03866844524e-07
9.00838250976e-08
9.35043614326e-07
-1.18750165893e-08
1.02439446105e-06
-7.105124774e-08
1.23228725628e-06
-5.83041607832e-08
1.44181823514e-06
3.22008280247e-09
1.55606159001e-06
1.01043585488e-07
1.54243207467e-06
2.20855931038e-07
1.38721036318e-06
3.39791834988e-07
1.17340625584e-06
4.29685503651e-07
1.02014357403e-06
4.88436170472e-07
9.1958597325e-07
5.15339856207e-07
8.638501506e-07
5.13368076643e-07
8.39322268759e-07
4.70404777435e-07
8.4462098797e-07
4.04921326213e-07
9.78150858405e-07
3.54869795145e-07
1.10435426284e-06
3.01790685422e-07
1.15834060487e-06
2.40441121792e-07
1.18337310034e-06
1.17549838775e-06
1.85819101302e-07
3.39335029581e-07
9.7491320498e-07
2.23413960252e-07
9.81753851903e-07
1.25470235633e-07
1.02336279764e-06
2.37052716789e-08
1.11639842187e-06
-5.75820991762e-08
1.31924541851e-06
-1.07368216186e-07
1.51558875326e-06
-1.01223226821e-07
1.59723416794e-06
-1.95875213291e-08
1.52099402627e-06
1.04100618561e-07
1.32168388092e-06
2.21478253245e-07
1.09783349403e-06
2.99365546708e-07
9.66224629919e-07
3.33887855988e-07
8.93646352825e-07
3.41975307696e-07
8.58162217237e-07
3.40657564949e-07
8.42890376392e-07
3.10866353154e-07
8.49847959016e-07
2.81494608509e-07
9.88529473717e-07
2.53491812607e-07
1.1294083246e-06
2.21912135679e-07
1.17490944492e-06
1.82759781337e-07
1.19562395775e-06
1.18729007232e-06
1.4805021637e-07
4.12496692704e-07
1.01215651331e-06
3.19522372926e-07
1.02028606447e-06
2.54511095275e-07
1.07507046716e-06
1.81178820113e-07
1.17632413488e-06
6.6368596507e-08
1.4322083673e-06
-1.00632765645e-07
1.68659265378e-06
-1.95054310674e-07
1.719711409e-06
-1.65831407019e-07
1.54283759233e-06
-7.24774398174e-08
1.27865880603e-06
1.52157577435e-08
1.03718554963e-06
6.47892486e-08
9.14861730115e-07
8.24880185077e-08
8.62724691022e-07
9.40596207645e-08
8.4206906812e-07
1.07759042828e-07
8.34196448059e-07
1.06824814299e-07
8.43321331393e-07
1.3314539172e-07
9.56848289614e-07
1.39508245654e-07
1.1158935245e-06
1.36646619203e-07
1.16214346098e-06
1.23378280702e-07
1.18081510197e-06
1.17395002265e-06
1.12798658367e-07
4.84893199283e-07
9.40275574247e-07
4.81881194782e-07
9.68309447458e-07
5.02647490792e-07
1.03724567431e-06
4.45572887601e-07
1.17713677588e-06
2.90314863004e-07
1.52904232357e-06
-7.37657295897e-08
1.9848405726e-06
-2.70949513813e-07
1.87423716628e-06
-3.25941594264e-07
1.58898360331e-06
-3.05727795344e-07
1.26555790816e-06
-2.63077712631e-07
9.980809087e-07
-2.22724292937e-07
8.700784956e-07
-1.90139999133e-07
8.23283707636e-07
-1.56272857591e-07
8.106400249e-07
-1.20909870678e-07
8.09716394934e-07
-8.88180524771e-08
8.2303262366e-07
-2.04518666528e-08
9.01482924486e-07
3.86748707217e-08
1.04708198893e-06
6.38918493854e-08
1.12021652648e-06
7.60773075148e-08
1.14073420588e-06
1.13737687395e-06
8.55780950111e-08
4.97526763443e-07
8.05123407937e-07
5.07503629231e-07
8.81619744554e-07
4.89978113337e-07
9.70816789523e-07
3.94336557964e-07
1.14280434443e-06
1.79988285019e-07
1.6249044924e-06
1.15063539341e-07
1.93531891387e-06
-9.22513267728e-08
1.96896093565e-06
-2.44722871552e-07
1.64744564547e-06
-3.47477508913e-07
1.29379977319e-06
-4.11243720645e-07
1.01269996458e-06
-3.98033617126e-07
8.56424679714e-07
-3.51082104148e-07
7.92600559328e-07
-3.03342097724e-07
7.76883832039e-07
-2.56472594328e-07
7.78937268908e-07
-2.08651178921e-07
7.93897724514e-07
-1.29712635303e-07
8.46386643569e-07
-2.58065936799e-08
9.49038425092e-07
2.14188046982e-08
1.05417119122e-06
4.97338802332e-08
1.08361846544e-06
1.08582875883e-06
7.21018909612e-08
3.19142249628e-07
6.91213379347e-07
1.99925032765e-07
8.67244839545e-07
7.84858814529e-08
9.90852431768e-07
-3.95857342141e-08
1.17311294373e-06
7.97236984779e-08
1.43323315492e-06
2.38604295745e-07
1.70718944437e-06
3.7407381647e-07
1.75444869435e-06
2.87856611358e-07
1.65175331425e-06
1.18145577728e-09
1.4895007561e-06
-2.31679011113e-07
1.14711331978e-06
-3.44698672527e-07
9.09849229852e-07
-3.47975912896e-07
8.08717643471e-07
-3.10660204667e-07
7.65152526923e-07
-2.69383439222e-07
7.58683213213e-07
-2.24874336877e-07
7.68889861346e-07
-1.60080992288e-07
8.02032463825e-07
-5.49795507146e-08
8.66951149844e-07
1.34110048785e-08
9.66911560223e-07
4.8474202839e-08
1.02033006531e-06
1.02906305382e-06
7.29774025787e-08
1.34613989905e-07
6.35734606773e-07
4.63063796755e-08
8.84011372278e-07
-1.50151658731e-08
9.93650027279e-07
1.98933207051e-09
1.12377323061e-06
1.02608278686e-07
1.31235404569e-06
2.83454997653e-07
1.50935693879e-06
4.21074953054e-07
1.59572794199e-06
4.63366776976e-07
1.57819313187e-06
4.07344639192e-07
1.50079258259e-06
1.2609280339e-07
1.37157396221e-06
-9.97694481609e-08
1.06331543221e-06
-2.1229180887e-07
8.80637264651e-07
-2.25085493404e-07
7.92525118266e-07
-2.01192582683e-07
7.59324168324e-07
-1.67645038269e-07
7.57179346298e-07
-1.22454619075e-07
7.74374304135e-07
-5.05673699333e-08
8.11885854562e-07
3.13897937551e-08
8.80592006916e-07
6.49071204109e-08
9.55345913809e-07
9.7417441781e-07
8.58556060872e-08
1.0822289785e-07
6.14008033955e-07
8.50512737196e-08
8.80462370771e-07
7.16921640948e-08
9.89864593153e-07
9.59959912362e-08
1.0921893317e-06
1.83023480967e-07
1.2220977902e-06
3.19789169378e-07
1.36979597557e-06
4.48711559442e-07
1.46378537312e-06
5.2193897447e-07
1.49929268459e-06
5.19091643718e-07
1.49297061847e-06
4.38673124069e-07
1.43448939172e-06
1.49803266943e-07
1.31454430509e-06
1.4584154053e-09
9.76700042464e-07
-8.31975619933e-08
8.61221086209e-07
-9.46709429164e-08
7.87433970462e-07
-7.70649592569e-08
7.62409083811e-07
-4.53700833317e-08
7.64254118788e-07
-6.75341840513e-09
7.8161959798e-07
5.80760333004e-08
8.21659459659e-07
9.30371503929e-08
8.8903662731e-07
9.24954032201e-07
1.06141463845e-07
1.15243427911e-07
5.85720478352e-07
1.18459211652e-07
8.56107916554e-07
1.3262461515e-07
9.64881099305e-07
1.67028672416e-07
1.05239773621e-06
2.31238979827e-07
1.15345413276e-06
3.29821598274e-07
1.26703481119e-06
4.29096174487e-07
1.36033966628e-06
5.03985409668e-07
1.42053634397e-06
5.4149448297e-07
1.45220620696e-06
5.18807356987e-07
1.45159819883e-06
4.39136442405e-07
1.38471149977e-06
1.94503600985e-07
1.19948694613e-06
7.99840056912e-08
9.50324381464e-07
2.86961053376e-08
8.37319447291e-07
2.50289797681e-08
7.84456078485e-07
4.29397137154e-08
7.69606865317e-07
6.86029189703e-08
7.72239997182e-07
9.74748486152e-08
7.90031506759e-07
1.25768711787e-07
8.34902426562e-07
8.79671282728e-07
1.3128351459e-07
1.18005175912e-07
5.52821706334e-07
1.30454633224e-07
8.19817712899e-07
1.55305296136e-07
9.27400358532e-07
1.91658963441e-07
1.00852918366e-06
2.43950736371e-07
1.09516577169e-06
3.15555435954e-07
1.1900444559e-06
3.91984675709e-07
1.27865314431e-06
4.57181173406e-07
1.35058827662e-06
4.9987732149e-07
1.40541214492e-06
5.07602286738e-07
1.43976160555e-06
4.58419374647e-07
1.42962187875e-06
3.17127903948e-07
1.33025456374e-06
2.12842962622e-07
1.0392409498e-06
1.46715910746e-07
8.98549068461e-07
1.25215730701e-07
8.19142726403e-07
1.3040185998e-07
7.86326148695e-07
1.48131765377e-07
7.77453948779e-07
1.54048243601e-07
7.79900704415e-07
1.64179437776e-07
8.03198038314e-07
8.41586113211e-07
1.61931702984e-07
1.16261945803e-07
5.22180021545e-07
1.32958861297e-07
7.79632446486e-07
1.65634216366e-07
8.82631417249e-07
2.05690357276e-07
9.61296743891e-07
2.49329927561e-07
1.04429290944e-06
3.02913600696e-07
1.13014878266e-06
3.60985694454e-07
1.21471572335e-06
4.14664697277e-07
1.29148830624e-06
4.56054496356e-07
1.35872443071e-06
4.78643165783e-07
1.41339915579e-06
4.69271856988e-07
1.43567002857e-06
4.08040103412e-07
1.38865637541e-06
3.05596682108e-07
1.14052837962e-06
2.4264118157e-07
9.6608527777e-07
2.13553641491e-07
8.61394265141e-07
2.11861862063e-07
8.11848846642e-07
2.20600203851e-07
7.93439774627e-07
2.24483236998e-07
7.86187953243e-07
2.14070602954e-07
7.92582641754e-07
8.18152695086e-07
2.01410874643e-07
1.12990278589e-07
4.94800819494e-07
1.34437998781e-07
7.36681653744e-07
1.7525054075e-07
8.32016256073e-07
2.21802677014e-07
9.09516036007e-07
2.63976801829e-07
9.95382052462e-07
3.0614094492e-07
1.08075579113e-06
3.51869223484e-07
1.1625522085e-06
3.9703489101e-07
1.24004501615e-06
4.37784103599e-07
1.31187270403e-06
4.70791134931e-07
1.37523112654e-06
4.86954997536e-07
1.41536045176e-06
4.82341005847e-07
1.39424852714e-06
3.69355186224e-07
1.26033065694e-06
3.15235489989e-07
1.03304486032e-06
2.89823959548e-07
9.06951717296e-07
2.85361063643e-07
8.43225715974e-07
2.88624393288e-07
8.16618744597e-07
2.92566439377e-07
8.03524982923e-07
2.73011835586e-07
7.98712002884e-07
8.10551080244e-07
2.48115794575e-07
1.09858815922e-07
4.70525035147e-07
1.37761558274e-07
6.90618205364e-07
1.83676867768e-07
7.77747434441e-07
2.33809145657e-07
8.55051791507e-07
2.77361628322e-07
9.46290673029e-07
3.11153576032e-07
1.03866359416e-06
3.45143644419e-07
1.1212842561e-06
3.78881702524e-07
1.19934154988e-06
4.10186625593e-07
1.27361474643e-06
4.36201802638e-07
1.34252442667e-06
4.49694787691e-07
1.39605142855e-06
4.44774914279e-07
1.3983729828e-06
4.07102776154e-07
1.30432963907e-06
3.68760273535e-07
1.08700911017e-06
3.52444808385e-07
9.49801675601e-07
3.48875210034e-07
8.76928264774e-07
3.5191914413e-07
8.44721171244e-07
3.53004839725e-07
8.28367179995e-07
3.36610150975e-07
8.18138536213e-07
8.19154947123e-07
2.99377018166e-07
1.09234711517e-07
4.45240104181e-07
1.4428677946e-07
6.38071744005e-07
1.8918520145e-07
7.21502675013e-07
2.3701844687e-07
8.00636114522e-07
2.80321493401e-07
8.96815079785e-07
3.12233228479e-07
9.98590640512e-07
3.38327292274e-07
1.0870340345e-06
3.6324996405e-07
1.16658015095e-06
3.87167275396e-07
1.24196694419e-06
4.08493728078e-07
1.31315700822e-06
4.25233223081e-07
1.3729354974e-06
4.36253827339e-07
1.3863111788e-06
4.29225778501e-07
1.31847749266e-06
4.10239717936e-07
1.12250648359e-06
4.03063629816e-07
9.86537803046e-07
4.04692549414e-07
9.11033944033e-07
4.09840584015e-07
8.76574721333e-07
4.09510113822e-07
8.5927197602e-07
3.9648233276e-07
8.4731255936e-07
8.42598543681e-07
3.5079911536e-07
1.14743079317e-07
4.11478240965e-07
1.57371588818e-07
5.74733271053e-07
1.92694917161e-07
6.68070941862e-07
2.32073119113e-07
7.51194105411e-07
2.71703272121e-07
8.50160890548e-07
3.05939900098e-07
9.58497753306e-07
3.30189780876e-07
1.05521497746e-06
3.50369287347e-07
1.13836109093e-06
3.68792769935e-07
1.2146794565e-06
3.87088900034e-07
1.28589689657e-06
4.06728663928e-07
1.34620427476e-06
4.28137227771e-07
1.36400821916e-06
4.44243415256e-07
1.30972195424e-06
4.44274379689e-07
1.13995892202e-06
4.46949362122e-07
1.01598056637e-06
4.55419489622e-07
9.44563249041e-07
4.6254323399e-07
9.11546609103e-07
4.62239253889e-07
8.95872515107e-07
4.49248332797e-07
8.85466816258e-07
8.80205789555e-07
4.0041471798e-07
1.16139437758e-07
3.76640935242e-07
1.47971606614e-07
5.33902725778e-07
1.83420550785e-07
6.19816575624e-07
2.17821996495e-07
7.09577282579e-07
2.46570022076e-07
8.16971232556e-07
2.78593983745e-07
9.2508748817e-07
3.05845590207e-07
1.02546471032e-06
3.26010036413e-07
1.11297689148e-06
3.43293938883e-07
1.19056139783e-06
3.61523525052e-07
1.2600792929e-06
3.87304082836e-07
1.31602632125e-06
4.21322876382e-07
1.33191545773e-06
4.58617409536e-07
1.2815446812e-06
4.76745311809e-07
1.14072793254e-06
4.88806651322e-07
1.03909868343e-06
5.02957253799e-07
9.77705477629e-07
5.11514073217e-07
9.50115618127e-07
5.11290918416e-07
9.39075390713e-07
4.98221441152e-07
9.34114754324e-07
9.33304972613e-07
4.45299732759e-07
3.87978581579e-08
4.32003591721e-07
3.96531236496e-08
5.4306784812e-07
5.33198125154e-08
6.02470719242e-07
9.20062872106e-08
6.70848605481e-07
1.43428838564e-07
7.68316174275e-07
1.89958224306e-07
8.853370804e-07
2.3150121669e-07
9.90805696951e-07
2.64353618496e-07
1.08380619856e-06
2.91440171277e-07
1.16470618454e-06
3.19535197439e-07
1.23301931723e-06
3.56845385739e-07
1.28283974476e-06
4.06062040588e-07
1.29155484514e-06
4.77792137085e-07
1.22423731595e-06
5.09951086734e-07
1.13246097215e-06
5.30969614512e-07
1.05921934873e-06
5.50504399305e-07
1.01240968394e-06
5.59419677717e-07
9.94200069985e-07
5.59724568905e-07
9.91235103432e-07
5.45306392219e-07
9.96671881064e-07
1.00633673629e-06
4.81831187065e-07
-2.37705742072e-08
5.46918158813e-07
-3.30950243971e-08
5.6893268047e-07
-3.86711355818e-08
6.09396305676e-07
-3.1149204412e-08
6.67100720658e-07
-5.89069676278e-09
7.52020236096e-07
5.50488609126e-08
8.40234844575e-07
1.28294697802e-07
9.35413224739e-07
1.88536541172e-07
1.03965865937e-06
2.33454869071e-07
1.13425314474e-06
2.78201111351e-07
1.20286753769e-06
3.35161765402e-07
1.2419001074e-06
4.28525164807e-07
1.21690171054e-06
5.04139882886e-07
1.17333311152e-06
5.44043437071e-07
1.1284995929e-06
5.75870013709e-07
1.0811823725e-06
6.01093575626e-07
1.05214641634e-06
6.08563374335e-07
1.04672897775e-06
6.08537689766e-07
1.05574654155e-06
5.91442957844e-07
1.07983701478e-06
1.10798682673e-06
4.99281359212e-07
-6.06279421644e-09
6.29246955781e-07
-2.86366513767e-08
6.06479955088e-07
-4.90768775642e-08
6.32369958344e-07
-5.34797980421e-08
6.78517821137e-07
-3.85491913054e-08
7.49015178841e-07
-1.2381820813e-09
8.24109843794e-07
5.34409865063e-08
9.06812338496e-07
1.28210139406e-07
9.91873829418e-07
2.15045627348e-07
1.0742002247e-06
3.0808640954e-07
1.13682243078e-06
4.05573563492e-07
1.17249862553e-06
4.77707974151e-07
1.17615610665e-06
5.31424742349e-07
1.15953340169e-06
5.8119118297e-07
1.13306559834e-06
6.271340484e-07
1.10837345582e-06
6.5273058158e-07
1.0987544725e-06
6.55799967203e-07
1.10831277473e-06
6.5923167745e-07
1.1364489793e-06
6.31144475342e-07
1.1946389171e-06
1.23587749678e-06
4.54080968736e-07
5.73604411211e-08
7.00870839146e-07
4.03628596853e-08
6.52040683815e-07
8.90737848315e-09
6.66644091745e-07
-3.18995910467e-09
7.03446336488e-07
5.57438638255e-09
7.5619027032e-07
4.06182135396e-08
8.13220937772e-07
9.65131595826e-08
8.81260628419e-07
1.66790909435e-07
9.55527083028e-07
2.48474779015e-07
1.02801075505e-06
3.3387409529e-07
1.08755509702e-06
4.16302484938e-07
1.12830077482e-06
4.91266855259e-07
1.14618060634e-06
5.60001831418e-07
1.14851573355e-06
6.2482388996e-07
1.14293174276e-06
6.75921206891e-07
1.13917505479e-06
6.92694857195e-07
1.14861279156e-06
7.01343896924e-07
1.17762658035e-06
7.13470973683e-07
1.23803255107e-06
5.86310392146e-07
1.34037824039e-06
1.37651680724e-06
3.14526139858e-07
1.57233461136e-07
7.61254426513e-07
1.53353375446e-07
7.06518808203e-07
1.01262682496e-07
7.17154358578e-07
7.66736662688e-08
7.45402019379e-07
7.76561361176e-08
7.77100617618e-07
1.04337494899e-07
8.15076443053e-07
1.51078712625e-07
8.68047268745e-07
2.1318453273e-07
9.30619545545e-07
2.86453259128e-07
9.94294088647e-07
3.64021408265e-07
1.05045532097e-06
4.43651276973e-07
1.094069563e-06
5.2209337286e-07
1.12380588087e-06
5.95346410995e-07
1.14256193562e-06
6.57305475119e-07
1.1539818512e-06
6.94623953233e-07
1.16795227965e-06
7.14642176662e-07
1.19789877642e-06
7.41390430457e-07
1.25497406639e-06
6.70623255254e-07
1.3506761778e-06
3.65051817991e-07
1.50442725286e-06
1.49039362563e-06
1.58583479274e-07
2.25403783403e-07
8.02171531882e-07
2.36653700031e-07
7.73387407055e-07
1.63853565119e-07
7.85897294771e-07
1.25595061947e-07
8.00737062703e-07
1.24825983209e-07
8.06175040302e-07
1.47999984128e-07
8.24729672679e-07
1.88225933435e-07
8.62036668532e-07
2.43051530893e-07
9.1150561876e-07
3.0985787345e-07
9.64213708429e-07
3.83560739253e-07
1.01339454195e-06
4.61091359656e-07
1.05665161516e-06
5.32476359073e-07
1.09407091972e-06
5.91029038666e-07
1.12620128213e-06
6.3727857967e-07
1.15600681096e-06
6.72686848467e-07
1.19094016779e-06
6.97749759227e-07
1.24194513534e-06
6.36861185586e-07
1.32081399579e-06
3.96164701592e-07
1.45365756078e-06
1.0334157077e-07
1.67119078605e-06
1.51503442218e-06
6.16067555481e-08
2.61580458773e-07
8.5708752389e-07
2.45759420667e-07
8.56456944472e-07
1.45437775988e-07
8.77890019682e-07
1.00032300474e-07
8.63319749172e-07
9.9586393871e-08
8.38247194734e-07
1.1898540324e-07
8.36217350598e-07
1.53661737679e-07
8.54800732357e-07
2.03475176387e-07
8.86473345907e-07
2.66085978776e-07
9.23203525786e-07
3.37457841596e-07
9.59616646865e-07
4.06333233012e-07
9.97508502144e-07
4.66435238316e-07
1.03864332422e-06
5.17580267967e-07
1.08370218545e-06
5.55130596273e-07
1.13442939795e-06
5.62121962714e-07
1.19299807147e-06
4.9286878985e-07
1.26823760062e-06
3.13208566029e-07
1.38159470181e-06
1.06642831644e-07
1.56071000385e-06
1.60801479971e-08
1.73952770396e-06
1.48916393799e-06
3.01362359622e-08
3.05417226745e-07
9.030437883e-07
1.61988820953e-07
9.61528847494e-07
2.66400375699e-08
9.85884878643e-07
-2.70087099837e-08
9.2174754605e-07
-4.16543569194e-08
8.69125522079e-07
-3.66125847209e-08
8.49370747556e-07
-1.11859955412e-08
8.48306121225e-07
3.49136806687e-08
8.57317457728e-07
9.74579986192e-08
8.71940128809e-07
1.66656460523e-07
8.90977801175e-07
2.33587438813e-07
9.19350272135e-07
2.95115144895e-07
9.59188377154e-07
3.41974550631e-07
1.0114419756e-06
3.57107878751e-07
1.08206708317e-06
3.16781729038e-07
1.17662443746e-06
2.042960962e-07
1.30204747049e-06
7.61029312749e-08
1.44810839608e-06
1.66595165097e-08
1.6049220712e-06
1.56769686595e-08
1.73678589306e-06
1.44883352988e-06
4.08868750003e-08
3.03825967391e-07
8.64907981244e-07
5.0780206756e-08
1.07342206175e-06
-5.77740693365e-08
1.04572621072e-06
-1.20638738597e-07
9.50418230121e-07
-1.73460877286e-07
8.90317986373e-07
-2.13415966423e-07
8.63624009683e-07
-2.27029756261e-07
8.5100168706e-07
-2.07323900466e-07
8.41787935155e-07
-1.60046739491e-07
8.33539723066e-07
-9.96639453661e-08
8.32881927667e-07
-3.3280304439e-08
8.48850011061e-07
2.99513592769e-08
8.8338336183e-07
8.43709507004e-08
9.35304907424e-07
1.20705734376e-07
1.01673278701e-06
1.23581128931e-07
1.1425800955e-06
7.30689751468e-08
1.32580359406e-06
3.07212416788e-08
1.48049334901e-06
2.19261111501e-08
1.60909396299e-06
4.40631393497e-08
1.7046469879e-06
1.41071485805e-06
6.81140066236e-08
2.5770152546e-07
7.31388657736e-07
2.08638136945e-07
1.02074076965e-06
1.56753290199e-07
1.04463136859e-06
5.79038553781e-08
9.96460130479e-07
-4.94532085734e-08
9.37613729629e-07
-1.52955284098e-07
9.01591460556e-07
-2.45314470601e-07
8.7832325865e-07
-3.09840208046e-07
8.52837667404e-07
-3.31638349689e-07
8.24432359964e-07
-3.08360878116e-07
8.00442977179e-07
-2.51506376484e-07
7.99022693839e-07
-1.83057266262e-07
8.27426407986e-07
-1.10183860024e-07
8.75761734431e-07
-3.47366408749e-08
9.52590207632e-07
3.6646375926e-08
1.07781449644e-06
6.58698342716e-08
1.29455284187e-06
5.17499745103e-08
1.48791483622e-06
5.49982676255e-08
1.59629399847e-06
7.90012241778e-08
1.6671391733e-06
1.37948131844e-06
9.82645147456e-08
9.4356117312e-08
1.00226533157e-07
1.04257921359e-07
9.21202382669e-08
4.59559527552e-08
-2.97846748994e-08
-1.26405810985e-07
-2.18038107485e-07
-2.81998739892e-07
-3.05300865079e-07
-2.83602207677e-07
-2.35700575975e-07
-1.72879124545e-07
-1.03324481408e-07
-3.23874852533e-08
2.88217957014e-08
6.19199471748e-08
8.63708760049e-08
1.11296544387e-07
1.23241940127e-07
6.80066992302e-08
4.22737975235e-07
4.9169379811e-08
4.01246298288e-07
3.64430553579e-08
3.81724791015e-07
2.81027835269e-08
3.63480456982e-07
2.19170848335e-08
3.46183782023e-07
1.67775960727e-08
3.2975213234e-07
1.54033249621e-08
3.19462036446e-07
5.75560053503e-09
3.04042741507e-07
8.0191817124e-09
2.8614926585e-07
7.67800439337e-09
2.61141764586e-07
5.25778307295e-09
2.33667140407e-07
2.55642735712e-09
2.06412250094e-07
2.08241858749e-10
1.80455765149e-07
-1.39000351916e-09
1.56705482796e-07
-1.13183307992e-08
1.36109104739e-07
1.19594943128e-07
1.54221767024e-07
6.70065639864e-07
1.39622272742e-07
5.41752623928e-07
1.21249060345e-07
4.85461498331e-07
9.74526217967e-08
4.52408318395e-07
7.34982231807e-08
4.27537933385e-07
5.37753358792e-08
4.06081459888e-07
4.02186339868e-08
3.86541137285e-07
3.12896415225e-08
3.68250042722e-07
2.47255705743e-08
3.50880298986e-07
1.9530987986e-08
3.34346506149e-07
2.37512891621e-08
3.23396093503e-07
1.43064518103e-08
3.06453535176e-07
1.56749863276e-08
2.88653758001e-07
1.42694502373e-08
2.63601244569e-07
1.06115234682e-08
2.3604742169e-07
6.64215922573e-09
2.08667878704e-07
3.06339827868e-09
1.82547150931e-07
3.11067839757e-10
1.58590765082e-07
-1.15666950538e-08
1.37734716553e-07
1.20892813049e-07
1.64542913539e-07
6.87074696813e-07
1.50208267354e-07
5.51441322498e-07
1.32505700448e-07
4.92292417705e-07
1.08423579562e-07
4.58417737676e-07
8.34702927493e-08
4.33350449585e-07
6.21478277509e-08
4.11802594671e-07
4.70175863182e-08
3.92148899953e-07
3.69084897675e-08
3.7372933064e-07
2.95317121918e-08
3.56215189233e-07
2.39105656113e-08
3.39522219692e-07
3.19597147492e-08
3.28157708734e-07
2.50296147471e-08
3.09765431323e-07
2.49715036405e-08
2.92010113943e-07
2.21933827725e-08
2.66896588626e-07
1.70174530599e-08
2.3924561895e-07
1.15339561352e-08
2.11720421771e-07
6.5066973936e-09
1.854096476e-07
2.40353852334e-09
1.61217270965e-07
-1.15268837818e-08
1.40069399778e-07
1.22857949858e-07
1.77482710606e-07
7.06739414387e-07
1.63560141891e-07
5.63824927691e-07
1.46903618774e-07
5.01460846893e-07
1.22615651431e-07
4.66389383487e-07
9.64914194944e-08
4.40805851182e-07
7.32536532504e-08
4.18923547258e-07
5.61070627038e-08
3.9896496164e-07
4.44074797065e-08
3.80258919484e-07
3.58873467572e-08
3.62470068162e-07
2.95220817414e-08
3.45512658084e-07
3.90736392564e-08
3.33486726737e-07
3.87061646258e-08
3.14547079299e-07
3.65881167078e-08
2.96583493031e-07
3.20058894479e-08
2.71342198098e-07
2.49541791316e-08
2.43537667621e-07
1.76390790817e-08
2.15816199372e-07
1.08652827049e-08
1.89266402761e-07
5.115496936e-09
1.64790343513e-07
-1.10587221329e-08
1.43306441341e-07
1.25679682329e-07
1.91061626259e-07
7.29710621305e-07
1.77460957328e-07
5.79002295518e-07
1.61979304395e-07
5.13178758281e-07
1.37599644282e-07
4.76606289857e-07
1.10377669421e-07
4.50180575424e-07