/*--------------------------------*- C++ -*----------------------------------*\
| =========                 |                                                 |
| \\      /  F ield         | OpenFOAM: The Open Source CFD Toolbox           |
|  \\    /   O peration     | Version:  2312                                  |
|   \\  /    A nd           | Website:  www.openfoam.com                      |
|    \\/     M anipulation  |                                                 |
\*---------------------------------------------------------------------------*/
FoamFile
{
    version     2.0;
    format      ascii;
    arch        "LSB;label=32;scalar=64";
    class       volScalarField;
    location    "0.17/water";
    object      alpha.gas;
}
// * * * * * * * * * * * * * * * * * * * * * * * * * * * * * * * * * * * * * //

dimensions      [0 0 0 0 0 0 0];

internalField   nonuniform List<scalar> 
1496
(
0.770238628699
0.813972919445
0.800831154241
0.790670976137
0.777352944651
0.766081056962
0.745059692552
0.690569956051
0.602128015893
0.519252510529
0.453726897308
0.397325038632
0.339944961595
0.275859375788
0.210737870301
0.167619689032
0.150647020904
0.14814487501
0.152170482002
0.16298827716
0.851563452768
0.848065418712
0.833841022549
0.834286437259
0.835299071869
0.835421435913
0.826522548713
0.796953370377
0.735454322245
0.651390378659
0.5633404461
0.485012403669
0.40912750413
0.327903385149
0.241529573176
0.173387549529
0.146778418765
0.143521774534
0.146317749456
0.154857027671
0.873150723302
0.846014112699
0.833540591099
0.835409451601
0.839916590106
0.840042570106
0.838436750562
0.82087276467
0.777607630815
0.705366073675
0.617375256745
0.530530070349
0.445548573343
0.35648266852
0.262151773791
0.180398280239
0.144572402687
0.141667211053
0.14279594776
0.148976286771
0.874299050212
0.835270203155
0.824403068068
0.827856085854
0.836246269858
0.839884017256
0.838011918325
0.821355720902
0.78005758683
0.711791778686
0.628660885783
0.542395618206
0.455449537175
0.36324898652
0.265948668212
0.180933788765
0.142873492182
0.141426449572
0.141516039295
0.144499536172
0.874395633707
0.818478612423
0.802966626327
0.805963206032
0.820727134234
0.832062679674
0.830572532782
0.814768455968
0.774041060535
0.708005909493
0.62727215287
0.542114800503
0.454713304219
0.360624706489
0.260590723112
0.174076727096
0.141657259008
0.141392245826
0.141350749355
0.141910374807
0.871368751117
0.801648414768
0.775603163127
0.774109498652
0.791443093829
0.809044468145
0.809575775903
0.793344101198
0.751831571226
0.688861614979
0.612611012988
0.530261162885
0.441642210263
0.342953797918
0.238865294468
0.15784935988
0.141392245826
0.141350749355
0.14132253757
0.141293755026
0.859605500786
0.78593417776
0.748684313302
0.739960210743
0.753559287613
0.770828530092
0.773192420438
0.754782589419
0.711291158871
0.649633314865
0.577405321185
0.497718872995
0.407502294433
0.304742025032
0.20158596178
0.14397516425
0.141425540284
0.141391623129
0.144135577976
0.141955742286
0.84559148386
0.767833844536
0.725743850012
0.70826386255
0.71139306284
0.720787871717
0.721008757885
0.699453182013
0.654600309972
0.594337252354
0.525069910291
0.446494362523
0.35442365505
0.250923312245
0.161803392361
0.141480247315
0.141458456919
0.145890008464
0.154568798878
0.137968297426
0.827507662994
0.742769461928
0.711610943541
0.68361491201
0.667441077156
0.660563551099
0.651905037529
0.626712271362
0.582870123879
0.526147016408
0.459694556431
0.380974488805
0.287366368125
0.189910245032
0.142386463231
0.141528339893
0.14388378867
0.166574581163
0.161250608868
0.125718643264
0.789948976379
0.710473056036
0.700296604832
0.670386067113
0.628186748202
0.59303137625
0.568484624912
0.538465270645
0.497184678418
0.445282186965
0.381400975255
0.302138540749
0.210992691177
0.146824291842
0.141601857645
0.141564146604
0.167301264389
0.186708622575
0.157032422363
0.11105791406
0.718567423144
0.673410489175
0.683851932866
0.660030174478
0.596013231776
0.524607599051
0.476762708083
0.439060757546
0.399127645814
0.350851683043
0.288642218777
0.212582202372
0.150550297805
0.141669179177
0.14161733187
0.156896725374
0.213303809643
0.194199776513
0.132853373497
0.100653981334
0.633313006266
0.622415728796
0.656798558715
0.639806688647
0.561507884787
0.458449873954
0.383720039465
0.334262596767
0.292449738039
0.245288402758
0.189984486032
0.147811920447
0.141887803816
0.141706348425
0.153194710699
0.227450220391
0.243498461083
0.181790491071
0.102815240885
0.0953148191725
0.572746293509
0.573243492749
0.618528563074
0.60296604991
0.514560432657
0.39203476308
0.29677995115
0.237005580406
0.194871628266
0.159373051582
0.142763109078
0.141887803816
0.141879569163
0.162863587586
0.246921882268
0.315429697809
0.247797079281
0.14495499762
0.089672932488
0.0909666754968
0.560219827377
0.55967332454
0.576855511755
0.559293652075
0.461525751847
0.334911022202
0.241661868358
0.186166393173
0.155290934873
0.144509416861
0.142612514344
0.149195150864
0.188438653034
0.300470899361
0.384803553909
0.346706323209
0.231160309499
0.117134416125
0.0875868041667
0.0879717885817
0.55967332454
0.559110669601
0.558540708699
0.54241960988
0.438475857448
0.319658937903
0.235685866322
0.184534557946
0.158000353791
0.15410420336
0.171757981767
0.236218154013
0.342713682671
0.42550780171
0.425904538363
0.345895722927
0.219712068568
0.108983486741
0.0872684398788
0.0869007145376
0.560219827377
0.566988867685
0.592444934236
0.566298893585
0.464019618873
0.351741368021
0.270657107115
0.221970837549
0.203169759033
0.215986047722
0.276706974147
0.370456459976
0.425646072178
0.426344571597
0.421979580819
0.338694447612
0.218432221684
0.108207389119
0.0870628838582
0.086795651654
0.614866258337
0.676107951446
0.695180316532
0.663690722978
0.592310332459
0.514710622135
0.447598703188
0.400168649687
0.377420975688
0.375897466297
0.397920789767
0.418490601999
0.421180618828
0.416130293262
0.39086514401
0.318467087969
0.215526235533
0.110215455006
0.0868979904804
0.0867133238672
0.773124041723
0.819351085663
0.809887290497
0.79087326424
0.76715014888
0.741867737831
0.712218786162
0.682730685712
0.655397082746
0.613045630667
0.539518188476
0.461176675476
0.414535568222
0.370254066064
0.322518531762
0.270899877723
0.198833292172
0.111060010353
0.0868296899287
0.0867287387148
0.881792676796
0.876016449246
0.85952801693
0.854885884346
0.852865136482
0.850703719747
0.846025638863
0.83854381578
0.826013626293
0.792851546012
0.710338057405
0.572126964038
0.448996843838
0.367891594492
0.293074388325
0.222880743662
0.162264358522
0.106650209782
0.0867784007391
0.0865589089751
0.902912782087
0.882464287284
0.870531436424
0.870116976654
0.870936811929
0.871944044429
0.872077919811
0.871379848455
0.868975346822
0.85776971382
0.819276241755
0.721104300073
0.56420572473
0.416230974816
0.308976288456
0.223489649645
0.15086700992
0.101906675468
0.0867221020226
0.0866566260363
0.902531295159
0.884348538468
0.873024824697
0.872974985903
0.873099170951
0.872939698923
0.873168409487
0.872893835153
0.873072022728
0.870790869973
0.853935196576
0.799089634058
0.682950399321
0.51993706815
0.368086156288
0.248412147657
0.158501459899
0.103551650089
0.0867343661294
0.0864348666741
0.903096266081
0.885263592251
0.872440900203
0.872137794556
0.872939698923
0.873054224409
0.872893835153
0.873128710886
0.872857941209
0.872868663195
0.859198406207
0.813938364294
0.726247115664
0.595007329273
0.442231926031
0.29828214949
0.182286316044
0.110389885527
0.0870742428722
0.0865906214254
0.902531295159
0.884990294019
0.866732303682
0.86496396939
0.86883734363
0.872617698382
0.873019664242
0.872857941209
0.872940730214
0.872724943934
0.857845786947
0.8125130348
0.728595458443
0.613033600588
0.477561656647
0.336454860864
0.208825057431
0.119651956133
0.0876952955436
0.0864569151998
0.902893363378
0.880327055313
0.851542349196
0.845339511058
0.852741743542
0.864481196219
0.870726561692
0.871985612176
0.871633178567
0.867679347387
0.847684367113
0.800380485538
0.720798332871
0.610822592962
0.480891224007
0.344999269745
0.217697983162
0.122850545154
0.0877062283361
0.0866749906894
0.902531295159
0.864653617108
0.824087949373
0.810156428127
0.819724231736
0.840161015708
0.856207495029
0.860526469852
0.859121867185
0.848229659356
0.819161272308
0.767250698343
0.691584855246
0.591568998008
0.470978322277
0.339775856289
0.214616815651
0.120175456187
0.0871711549666
0.086534893629
0.895161995331
0.834800448584
0.780556296839
0.758133675573
0.768114554653
0.795004628299
0.819475142155
0.826798734116
0.823356524368
0.8047736425
0.766021400428
0.708283790548
0.633718626204
0.541605784715
0.431660484571
0.310074423793
0.192399483805
0.107011499739
0.0867814628286
0.0867792705552
0.876627611192
0.791222507479
0.720896372904
0.687409491514
0.697768101824
0.726970480872
0.754982857997
0.762941540441
0.756793534325
0.731627432883
0.685168202501
0.622592538879
0.54737535526
0.458640404451
0.355960512968
0.245367442326
0.143252901773
0.0899806906129
0.086865492597
0.0860885157805
0.847629709204
0.735966297725
0.662464417253
0.608553671298
0.611420995011
0.633819197146
0.65890209725
0.664747574457
0.655666044232
0.625579841596
0.57525827165
0.510788617751
0.435274932338
0.348611742834
0.252886363196
0.157889393487
0.0955452709028
0.086928463749
0.0862644601105
0.086865492597
0.798414312556
0.67921595029
0.617769612448
0.54763863072
0.518838774055
0.520969624893
0.53408549
0.53584136651
0.523665012602
0.490517673564
0.439368025934
0.375825121795
0.302958447756
0.223223311061
0.144878642967
0.0941933894548
0.0870747091242
0.0868751687198
0.0926513827274
0.211316301793
0.725391737078
0.618436244285
0.575986354888
0.508682748212
0.440137992023
0.400304246932
0.391752372
0.386418347175
0.370135613693
0.335847969794
0.286373514462
0.227848826658
0.167044376635
0.1157354735
0.0893574774781
0.087164056869
0.0869510032831
0.127077746864
0.307141218224
0.553767031673
0.639087149651
0.542280056253
0.534339508547
0.481662347782
0.386969400392
0.298450536024
0.254145544628
0.235199327161
0.214572839873
0.181903506612
0.143037993813
0.11025077139
0.0916019664562
0.0879353685439
0.0879050627212
0.0946593872071
0.199958265768
0.43470587607
0.609763066114
0.664770171892
0.556370443892
0.498079509051
0.499961778485
0.461446365571
0.357269936335
0.246442412285
0.172740260026
0.132244895493
0.10659841217
0.094060067177
0.0881601806652
0.0879050627212
0.0879353685439
0.0879050627212
0.114428250133
0.276164376716
0.501649840432
0.623987748492
0.665510848886
0.666772435848
0.505615919878
0.498104183339
0.500927657905
0.464667321873
0.355686990855
0.243456826212
0.166048283822
0.118527260266
0.0917333952378
0.0880898549939
0.0880546921525
0.0879353685439
0.104462224147
0.159582950968
0.312493257711
0.478064990425
0.554313962886
0.617143360833
0.658347729115
0.665530517794
0.522722631682
0.534431906921
0.559363939637
0.515639369742
0.403901164938
0.288328150715
0.202551534981
0.148281221135
0.1226412077
0.125539222138
0.154013916899
0.215258380223
0.291969779965
0.374730248009
0.446755565556
0.480605501016
0.507742847849
0.549001976179
0.608674373443
0.654488077133
0.630260609601
0.674366602538
0.672451390794
0.629547697329
0.549254214266
0.456888945162
0.372911206231
0.318510012127
0.311532150244
0.357808323182
0.462247001787
0.557908130881
0.606322044909
0.588442481414
0.522831491591
0.467295372249
0.442767810512
0.4445301075
0.500244131108
0.587970873838
0.768398791617
0.788976048214
0.753920890345
0.707391573863
0.668259780468
0.635801511894
0.608806289456
0.598996740896
0.620959881471
0.675764593141
0.739545921532
0.773371261306
0.780553841006
0.750152943675
0.668540200505
0.55989275939
0.462883446827
0.40253141814
0.392871586273
0.4583389644
0.83424655155
0.821107023987
0.77259954058
0.72448252863
0.699358606394
0.696293811522
0.706396245697
0.73480823826
0.770492095892
0.798494051868
0.813241124551
0.818228825137
0.818601477695
0.811598645492
0.786788886317
0.730836574492
0.612481860434
0.44914237721
0.359155722056
0.345947960329
0.433577290501
0.280904978505
0.072205666064
0.00552993522231
0.000818830333687
0.000116913547929
1.88383376658e-05
3.71669044965e-06
5.49668748343e-07
3.81872222127e-08
5.02410421945e-10
5.30438029434e-15
1.1520893382e-14
1.41108208493e-14
1.31823112397e-14
1.32453134375e-14
0.167914988421
0.165032768907
0.258361683531
0.440232064422
0.449150554007
0.285571928058
0.0795782813166
0.00822839081734
0.00131026630959
0.000202764508107
3.19097995432e-05
7.2478527119e-06
9.67874809829e-07
5.55113393327e-08
5.96175603517e-10
6.14599109199e-15
1.12188469131e-14
1.42176601836e-14
1.36806811991e-14
1.31501216324e-14
0.157470520261
0.157568881771
0.267794634111
0.472872079594
0.451888310305
0.282860583272
0.0818977777587
0.0109394181898
0.00205020763
0.000354554163378
5.32852312612e-05
1.35414239628e-05
1.72089207137e-06
7.61059903776e-08
5.92082706691e-10
6.02999788428e-15
1.08598380385e-14
1.43004092207e-14
1.42423628083e-14
1.3128912703e-14
0.14929574948
0.155241160637
0.291275803521
0.479196423013
0.446816915962
0.267797257028
0.078563515742
0.0119556713375
0.00276246143928
0.000549968302208
8.3346309147e-05
2.01074944362e-05
2.60857331984e-06
9.19156133517e-08
4.96661740819e-10
5.84168745616e-15
1.05346396984e-14
1.43636302703e-14
1.44143488125e-14
1.31291806991e-14
0.142918594354
0.156471038214
0.33094633907
0.479301921388
0.428030520933
0.236441550946
0.0665204345648
0.0117288394901
0.00304459205897
0.000674239713588
0.000106732359446
2.29424169389e-05
3.063141401e-06
9.31554984176e-08
2.46577597303e-10
5.72721052202e-15
1.0395116774e-14
1.43999791211e-14
1.44262623025e-14
1.31246654864e-14
0.138491066471
0.166586787746
0.387191281451
0.479153129061
0.39632735898
0.195120936932
0.0499236493285
0.0104907264174
0.00304686977696
0.000700174733171
0.000112581055956
2.29400246736e-05
2.98789211774e-06
7.63254960891e-08
3.98506264208e-11
5.65711742094e-15
1.04768629133e-14
1.44103574596e-14
1.44275392027e-14
1.31291806991e-14
0.137099269441
0.193279324454
0.448811273977
0.479225195001
0.356590346925
0.152678149738
0.0352199393332
0.00872439496379
0.00288588945176
0.000677835619383
0.000109068358887
2.06867395091e-05
2.27477115176e-06
3.7529796923e-08
6.85196064603e-13
5.65559043742e-15
1.09384159771e-14
1.43831910083e-14
1.42669499992e-14
1.31228485993e-14
0.137131514828
0.237853885114
0.492648219374
0.476576515122
0.310676619178
0.115053025004
0.0244978686069
0.00707575832263
0.00249297063181
0.000582346113578
9.1809540482e-05
1.49800687942e-05
1.1051958779e-06
8.28112839564e-09
5.6267966517e-15
5.69512070726e-15
1.17789637089e-14
1.42778365486e-14
1.39168503827e-14
1.36504230987e-14
0.138304124748
0.30044415052
0.502898089763
0.451913114691
0.26194620505
0.0837948935248
0.0169860820543
0.00557315727662
0.00193617684948
0.000423107483731
6.15354886896e-05
7.70155908537e-06
2.84180708991e-07
4.30357087082e-10
5.62718409087e-15
6.83852354374e-15
1.25976673969e-14
1.40761200092e-14
1.34464817447e-14
1.36594423003e-14
0.141588527797
0.362776590699
0.502699904973
0.420532965133
0.220423183602
0.0591677155769
0.011699360464
0.00411679699428
0.00130804261133
0.000245277361384
3.03826536889e-05
2.34352951004e-06
2.84788726045e-08
5.62712622843e-15
5.62667639816e-15
8.96202269023e-15
1.29654412852e-14
1.38061494666e-14
1.28828869254e-14
1.36612698826e-14
0.150912847701
0.395669260836
0.503012423419
0.405712641145
0.202041546908
0.0446968707419
0.0080535458192
0.00272654043561
0.000718044795843
0.000101556536128
9.71492997508e-06
3.40032742467e-07
7.21964679678e-10
5.62667639816e-15
5.62700660584e-15
1.07336008387e-14
1.29918372276e-14
1.35322073418e-14
1.22815315324e-14
1.36594423003e-14
0.158649220321
0.397865771576
0.502699904973
0.404998637685
0.202097149065
0.0420119438774
0.00516809207758
0.00152095855995
0.00028780366617
2.6583980333e-05
1.74316038084e-06
3.4464539309e-08
9.998147933e-11
5.62696027127e-15
5.88631002008e-15
1.20531855678e-14
1.2899939953e-14
1.32968102257e-14
1.17122670495e-14
1.35076385086e-14
0.156329501535
0.380372638892
0.50277418002
0.412900162289
0.214674043802
0.0449373639318
0.00354810501994
0.000640019303594
7.61204871219e-05
5.02911870814e-06
3.44052500269e-07
1.42953913299e-08
9.14650352816e-11
5.6267966517e-15
9.38096546383e-15
1.24554003145e-14
1.27749945122e-14
1.31236983717e-14
1.12334704188e-14
1.28684046456e-14
0.139609237767
0.328173489986
0.497122045651
0.444214999013
0.256353270753
0.0606696828336
0.00384627508536
0.00027208874308
2.38801904858e-05
1.96743427014e-06
2.05051977186e-07
1.08485922029e-08
6.96648409259e-11
5.62711941546e-15
1.12124761198e-14
1.24896970185e-14
1.27369390644e-14
1.30399792502e-14
1.08778566723e-14
1.1924148103e-14
0.110235826861
0.243670299135
0.467416101718
0.507383243352
0.329219608293
0.100750395606
0.00707308567918
0.000255156203379
2.07898426883e-05
1.66589932302e-06
1.81951873821e-07
9.95779478631e-09
6.76810415865e-11
7.74428985924e-15
1.14200277381e-14
1.25289391569e-14
1.27639017819e-14
1.30386052918e-14
1.07076492765e-14
1.09190825669e-14
0.0903386736958
0.156486513089
0.39388143477
0.519077630397
0.407308008484
0.174142084395
0.0203972070645
0.000418688953095
2.36679225374e-05
1.73531253007e-06
1.89495868092e-07
1.16268101597e-08
1.38460997685e-10
1.24298568396e-13
1.10651699966e-14
1.26195093207e-14
1.28942054437e-14
1.31033051474e-14
1.06628258022e-14
1.0028323108e-14
0.0867398776586
0.0996989486031
0.280710729637
0.519033308202
0.48377164659
0.274525543868
0.0573163027931
0.0020216158097
4.12366608596e-05
2.82994933683e-06
2.8647686305e-07
2.42626639478e-08
6.72072571554e-10
2.68050778427e-12
9.30339580035e-15
1.26316426867e-14
1.30998135244e-14
1.32329835503e-14
1.08162421501e-14
9.29651508108e-15
0.0867287387148
0.0866162194871
0.174162669178
0.489121459902
0.557409432309
0.379754317668
0.128418573899
0.0106999812061
0.000154015762702
8.42297774287e-06
7.50824516062e-07
8.54762579064e-08
4.29815630249e-09
4.29588310424e-11
9.28577114505e-15
1.25372643105e-14
1.3342325356e-14
1.33898014095e-14
1.11628989909e-14
8.71663477371e-15
0.0864998618442
0.0866566260363
0.105656720111
0.409642991113
0.598989544697
0.465746032616
0.219826802755
0.0365685248419
0.00104414616997
2.67947525431e-05
2.70545174711e-06
3.61586562127e-07
2.7923465844e-08
5.51831156054e-10
2.78263102399e-13
1.14064278362e-14
1.3508536799e-14
1.35922133519e-14
1.16053347694e-14
8.28826050345e-15
0.0866566260363
0.0861211093618
0.0866566260363
0.308253483677
0.598888014199
0.52077253906
0.302070553738
0.0805547122882
0.00486539472482
8.53134358081e-05
8.85038785238e-06
1.4504056998e-06
1.62447059553e-07
5.67158645011e-09
1.32667929993e-11
8.20899591122e-15
1.34571805078e-14
1.38086621055e-14
1.20246104457e-14
7.97183187974e-15
0.0862534539815
0.0865424704019
0.0857445824733
0.231545496961
0.584487061516
0.552191832455
0.36005957514
0.128366410563
0.0134496810061
0.000295670337806
2.15593655555e-05
4.54236745444e-06
7.60860825604e-07
4.50310757453e-08
2.78790690466e-10
6.14111970844e-15
1.29299541375e-14
1.39463516216e-14
1.23088086503e-14
7.72101267176e-15
0.0865424704019
0.0857704671954
0.0865424704019
0.190979626353
0.564382765585
0.56849494851
0.397520260089
0.165480026627
0.0242623356394
0.000778673055698
4.77876067878e-05
1.04957037227e-05
2.64638839661e-06
2.60410684351e-07
3.32348669434e-09
6.13015406647e-15
1.20060361568e-14
1.39478190835e-14
1.23692927752e-14
7.50836465798e-15
0.0861098733704
0.0865117732701
0.0856730223016
0.182496567465
0.559602399268
0.577353664071
0.417624009745
0.187362285621
0.0318529759727
0.0013554356404
0.000102317893014
2.20740279588e-05
7.18055827328e-06
1.1277948783e-06
2.73324825467e-08
1.0518789088e-12
1.16934414598e-14
1.3928520645e-14
1.22083315572e-14
7.3040878769e-15
0.0865877347723
0.0856753166509
0.0865877347723
0.199565263137
0.583690459023
0.584040462835
0.427017099784
0.197958408758
0.034464176139
0.00184215287925
0.000205219540588
4.74692146449e-05
1.79553465018e-05
4.20906685822e-06
1.76416268814e-07
1.81986790454e-10
1.05332612569e-14
1.35980272721e-14
1.18244797863e-14
7.05480080014e-15
0.0861183480669
0.0865877347723
0.0856219215199
0.285233893595
0.637259619497
0.592579353902
0.437940810176
0.207915076808
0.0360330093065
0.00246105193874
0.000389604586768
0.000102034797599
4.34562390868e-05
1.52390889441e-05
1.32697576245e-06
3.46497069917e-09
1.05337813336e-14
1.33888046689e-14
1.14885773512e-14
6.69856009857e-15
0.0866749906894
0.0856953131933
0.104956821642
0.4709759483
0.664673733737
0.602352961149
0.456838711338
0.223769999949
0.0397606698728
0.00353207350217
0.000711704964317
0.000213278116026
9.91853071445e-05
4.71241020619e-05
9.49654138191e-06
1.12863707179e-07
1.05332612569e-14
1.3389480425e-14
1.13784302298e-14
6.22546765897e-15
0.0857647905771
0.0866749906894
0.265752896666
0.634980046793
0.665259270077
0.612077581087
0.479578954684
0.24714220329
0.0480563290489
0.00535711570008
0.00124676445744
0.000419862836198
0.0002112546224
0.000117221636647
4.23016893161e-05
2.62163571905e-06
5.85230024844e-11
1.27093200635e-14
1.14724129209e-14
5.71330243411e-15
0.0867792705552
0.174080789756
0.556099612425
0.665522888174
0.665782835724
0.619511683444
0.499316958037
0.273925150493
0.0617308388365
0.00822312110536
0.00207862099257
0.000760681350079
0.000406180276682
0.000247205227847
0.000116353037109
1.92491352707e-05
4.81261436115e-08
1.19838971299e-14
1.21083898125e-14
5.29664715036e-15
0.167809973084
0.497936038835
0.66473551772
0.666994084693
0.665522888174
0.623769723706
0.512281133827
0.297054521569
0.0792399766885
0.0123656676349
0.00326115881415
0.0012530918859
0.000693468099342
0.000440873901919
0.000237449452641
6.48050295726e-05
1.60483994018e-06
1.19825272555e-14
1.21136380688e-14
4.96958711429e-15
0.503661819317
0.660681794408
0.666969363711
0.665530517794
0.666890369435
0.626212313593
0.518440475517
0.311891195861
0.0969587114745
0.0176630990383
0.00476755939377
0.00188231782925
0.00104871733542
0.000671864126255
0.000387115631455
0.000134575419181
7.99298336661e-06
2.39337885733e-10
1.00836308167e-14
4.66898324684e-15
0.661568613623
0.666932665136
0.665530517794
0.666950046624
0.665530517794
0.628364548803
0.519562397584
0.317363335665
0.110851100364
0.0233237902971
0.00643580166322
0.00259046404599
0.00142051723577
0.000896180931581
0.000524630602835
0.000196202086358
1.59658676546e-05
1.72377429854e-09
3.77406243411e-15
4.39193787724e-15
0.66692798511
0.665530517794
0.666979359317
0.665819842356
0.666032240639
0.631009832419
0.51973029013
0.317510082792
0.119457563878
0.0282230707026
0.0079924572443
0.00325394251749
0.00174691086244
0.00107015548214
0.000607946164662
0.000216057329476
1.74294873292e-05
7.50916533961e-09
3.77307039908e-15
4.14381147915e-15
0.665530517794
0.666796151932
0.665819842356
0.667010598628
0.665819842356
0.633874466921
0.51973587093
0.31699466508
0.123940635997
0.0316975516526
0.00914579378335
0.00374111866148
0.00196936777347
0.00116213479876
0.000627582756017
0.000210215932565
1.53655730497e-05
8.40979605155e-09
3.77207551868e-15
3.93477599058e-15
0.666559329768
0.665819842356
0.666944985592
0.665972312
0.666660710062
0.636116015664
0.518750425829
0.315106076959
0.125831723838
0.0338032972849
0.00980545259525
0.00399556854063
0.00206456907959
0.00118050486857
0.000612692553558
0.000178803309291
9.22655800442e-06
2.62807502364e-09
3.77108063827e-15
3.77008575787e-15
0.665819842356
0.666773322903
0.665972312
0.666820246931
0.665972312
0.637497984504
0.516364144083
0.311428045952
0.126303792344
0.0349642661071
0.0100789604602
0.00406015354743
0.00207179320678
0.00115633866279
0.00054338081174
0.000119437193209
3.14109433974e-06
3.17186799449e-11
1.27406703955e-14
3.65192035406e-15
0.65030782342
0.665972312
0.666681175796
0.666255737406
0.666429448073
0.638556203559
0.514712090887
0.310818153725
0.127433819505
0.0355530891963
0.0100806395683
0.00401102207721
0.00200687857454
0.00105006758465
0.000414113059352
5.99540351192e-05
5.74852279452e-07
1.0753431986e-14
1.45732726543e-14
3.55010810359e-15
0.568028195957
0.641372721834
0.666255737406
0.666742761984
0.666255737406
0.639554375978
0.516411086903
0.313943858331
0.130726204102
0.0365480034227
0.00992272975358
0.00384024524044
0.0018558693881
0.000894697083473
0.000289167945103
2.61064179733e-05
7.05053267807e-08
1.07533772715e-14
1.45733105069e-14
3.52488853035e-15
0.419526441299
0.558112258771
0.665647730898
0.666488609769
0.666482213698
0.639469168465
0.519970804688
0.323793645302
0.141234186748
0.040608686211
0.0100871647307
0.00341895043526
0.00149621435681
0.000618042321416
0.000144748520478
6.26426737477e-06
1.81198512043e-09
1.07533565113e-14
1.28819372582e-14
3.52397610393e-15
)
;

boundaryField
{
    emptyPatch
    {
        type            empty;
    }
    minY
    {
        type            fixedValue;
        value           nonuniform List<scalar> 0();
    }
    maxY
    {
        type            inletOutlet;
        phi             phi.gas;
        inletValue      uniform 1;
        value           nonuniform List<scalar> 
40
(
0.83424655155
0.821107023987
0.77259954058
0.72448252863
0.699358606394
0.696293811522
0.706396245697
0.73480823826
0.770492095892
0.798494051868
0.813241124551
0.818228825137
0.818601477695
0.811598645492
0.786788886317
0.730836574492
0.612481860434
0.44914237721
0.359155722056
0.345947960329
0.419526441299
0.558112258771
0.665647730898
0.666488609769
0.666482213698
0.639469168465
0.519970804688
0.323793645302
0.141234186748
0.040608686211
0.0100871647307
0.00341895043526
0.00149621435681
0.000618042321416
0.000144748520478
6.26426737477e-06
1.81198512043e-09
1.07533565113e-14
1.28819372582e-14
3.52397610393e-15
)
;
    }
    maxX
    {
        type            zeroGradient;
    }
    water_to_heater
    {
        type            zeroGradient;
    }
    procBoundary0to1
    {
        type            processor;
        value           nonuniform List<scalar> 
41
(
0.608510003434
0.658419515151
0.642746718533
0.608476922145
0.567590746841
0.543421719459
0.529152609192
0.507032381269
0.461499083606
0.413031472841
0.36836696761
0.324764539493
0.279756611523
0.233364834549
0.192295904179
0.167063983582
0.157593059762
0.155456334378
0.160879307141
0.174810886044
0.403189194525
0.267523298842
0.064038076494
0.00386068655402
0.000542070100064
7.18347767518e-05
1.12243716153e-05
2.16011123666e-06
3.54766688282e-07
2.72919387882e-08
3.9719746486e-10
5.08804364139e-15
1.16464244941e-14
1.40162147696e-14
1.31802684999e-14
1.34288841778e-14
0.183743283178
0.18321679594
0.25558797432
0.402044155131
0.402044155131
)
;
    }
}


// ************************************************************************* //
