/*--------------------------------*- C++ -*----------------------------------*\
| =========                 |                                                 |
| \\      /  F ield         | OpenFOAM: The Open Source CFD Toolbox           |
|  \\    /   O peration     | Version:  2312                                  |
|   \\  /    A nd           | Website:  www.openfoam.com                      |
|    \\/     M anipulation  |                                                 |
\*---------------------------------------------------------------------------*/
FoamFile
{
    version     2.0;
    format      ascii;
    arch        "LSB;label=32;scalar=64";
    class       volScalarField;
    location    "0.17/water";
    object      p_rgh;
}
// * * * * * * * * * * * * * * * * * * * * * * * * * * * * * * * * * * * * * //

dimensions      [1 -1 -2 0 0 0 0];

internalField   nonuniform List<scalar> 
1496
(
100750.258721
100685.427598
100704.976684
100720.067775
100739.825349
100756.541612
100787.723741
100868.641772
101001.065412
101127.37206
101229.468766
101318.735863
101409.91793
101511.506158
101614.928935
101685.738217
101717.458247
101727.201116
101726.75579
101715.676313
100630.613932
100636.043686
100657.44911
100656.837313
100655.343875
100655.163154
100668.470044
100712.703913
100804.730158
100930.835691
101064.008872
101183.798757
101300.844372
101426.71747
101561.049278
101668.751168
101714.588686
101725.335617
101726.742828
101719.209314
100599.308204
100640.505256
100659.462235
100656.698452
100649.9192
100649.737218
100652.159254
100678.666076
100743.96819
100853.013622
100986.272599
101118.575612
101248.742926
101385.749406
101531.360157
101658.633611
101717.121655
101726.111049
101729.050263
101724.348395
100598.602548
100658.28371
100674.961581
100669.757718
100657.003443
100651.472012
100654.324039
100679.683946
100742.563683
100846.504418
100973.287637
101105.248806
101238.681903
101380.583247
101530.718562
101662.574782
101723.367379
101728.712016
101731.952881
101730.974152
100599.479976
100685.631603
100709.586334
100705.033835
100682.377566
100664.97528
100667.266161
100691.537395
100754.083858
100855.49744
100979.58403
101110.616613
101245.376936
101390.722676
101545.510222
101679.773679
101731.08593
101733.245623
101735.385678
101736.867203
100605.159277
100713.440997
100753.909473
100756.26745
100729.437664
100702.183986
100701.36438
100726.503515
100790.793134
100888.342748
101006.475964
101134.079995
101271.568556
101424.868584
101586.650995
101712.56568
101738.23836
101738.799039
101739.654569
101740.711411
100624.495296
100739.868769
100798.169562
100811.838985
100790.624066
100763.67079
100759.994722
100788.763913
100856.702347
100953.053026
101065.761084
101190.137283
101331.052004
101491.628083
101652.566322
101741.682696
101744.576287
101744.145081
101739.385171
101742.571014
100647.427942
100770.211538
100836.639287
100864.274186
100859.415396
100844.665333
100844.343135
100878.298254
100948.854343
101043.491633
101152.246828
101275.64138
101420.299938
101582.762057
101721.824154
101751.573433
101749.759691
101741.084655
101725.794829
101751.120879
100676.382651
100811.231825
100860.784583
100905.312105
100930.662071
100941.136006
100954.520231
100994.277932
101063.752047
101153.514175
101258.583604
101383.0576
101531.017254
101684.397556
101757.015811
101755.203892
101748.923629
101709.969906
101716.52102
101771.734599
100736.661065
100864.164562
100880.540781
100928.393503
100995.338256
101050.795751
101089.312021
101136.639986
101201.982672
101284.289107
101385.714229
101511.667211
101656.066401
101755.667121
101759.868226
101756.733783
101711.528155
101677.229641
101723.318212
101795.003307
100851.20121
100924.410948
100908.305233
100946.442861
101048.649678
101162.448012
101238.220267
101297.661311
101360.701968
101437.180939
101536.093344
101656.88007
101753.457168
101762.950229
101759.012562
101729.664279
101633.898777
101662.977913
101760.702393
101809.544735
100984.845696
101001.388984
100948.391047
100975.972563
101102.075433
101267.944594
101387.529085
101465.859764
101531.665686
101606.044513
101693.158877
101757.407736
101761.780609
101757.797104
101733.878798
101606.738043
101578.742143
101678.845832
101805.314252
101813.045389
101072.552145
101066.143789
100997.146439
101023.408457
101167.392988
101366.501584
101520.187279
101615.162083
101680.888921
101735.068077
101757.221615
101753.613344
101749.313708
101708.791053
101563.615052
101450.023117
101562.481558
101730.598393
101818.431686
101812.163866
101066.523633
101059.602424
101038.164024
101068.934034
101230.33412
101437.79746
101588.596604
101676.34757
101723.050593
101736.218143
101734.912599
101719.010679
101646.917358
101455.388861
101316.768779
101383.32902
101575.930669
101763.725307
101810.095241
101807.113373
101024.36429
101017.68836
101024.673332
101054.138748
101228.694414
101426.155677
101564.000671
101646.552896
101687.632922
101690.350383
101656.159711
101543.319924
101363.532772
101228.133043
101231.02182
101366.930152
101578.100889
101762.249897
101797.508576
101797.517377
100956.597303
100940.282149
100904.217733
100952.537197
101127.503153
101318.323719
101456.265466
101539.308099
101571.548134
101550.313657
101448.842378
101293.685255
101204.99736
101207.784029
101217.702493
101359.525631
101562.762715
101748.761836
101784.919139
101786.066146
100823.055749
100717.779693
100687.027411
100741.247261
100863.013958
100995.22092
101110.436531
101193.443783
101236.169353
101245.054312
101215.540892
101188.382917
101190.183027
101203.513694
101250.212007
101375.506685
101552.029901
101732.525684
101774.135542
101776.330326
100555.585656
100476.814715
100493.025407
100525.460256
100565.890472
100608.974614
100659.515977
100709.677975
100756.395741
100829.55672
100957.929362
101097.310226
101183.422254
101264.940288
101351.579254
101443.468229
101569.60086
101722.421579
101766.959947
101769.997397
100370.803068
100380.962777
100409.441507
100417.48025
100420.97438
100424.691033
100432.7218
100445.563129
100467.079474
100524.059509
100665.872529
100904.030793
101118.331733
101261.87055
101394.852244
101519.547868
101627.499478
101726.602102
101764.337376
101767.999032
100335.288077
100370.954382
100391.771603
100392.5637
100391.178718
100389.448223
100389.217694
100390.419384
100394.569687
100413.957156
100480.6003
100650.600758
100922.341351
101179.872799
101368.03887
101519.026159
101648.034407
101736.162698
101765.857458
101769.17536
100336.81999
100368.801762
100388.720593
100388.888589
100388.712117
100389.009077
100388.616389
100389.093938
100388.77606
100392.745504
100422.143914
100517.830733
100720.436626
101004.936013
101270.770887
101481.212457
101640.202702
101738.571097
101770.606545
101773.738958
100336.735997
100368.345061
100391.054357
100391.670086
100390.300063
100390.117289
100390.40686
100389.995154
100390.468417
100390.443999
100414.468429
100494.023841
100648.168156
100878.878041
101147.704807
101401.397805
101606.330658
101734.14513
101776.8512
101779.508519
100338.669684
100370.006104
100402.519182
100405.73296
100398.908953
100392.22958
100391.52422
100391.812416
100391.664855
100392.044758
100418.393036
100498.67371
100647.285671
100851.995511
101091.974553
101341.996715
101568.216698
101726.493049
101783.625439
101786.457781
100338.987603
100379.538843
100431.080712
100442.224707
100429.047749
100408.114819
100396.97689
100394.732095
100395.360943
100402.414326
100438.085528
100522.475726
100664.450136
100860.692754
101092.319832
101334.414454
101560.983276
101729.500102
101791.403865
101792.615901
100340.600667
100408.996365
100482.083907
100507.190308
100490.020017
100453.30093
100424.466618
100416.706744
100419.23168
100438.805982
100491.042756
100584.324335
100720.300586
100899.967431
101116.141227
101350.98346
101574.497864
101742.390929
101799.448102
101798.321082
100354.880381
100464.508286
100562.868064
100603.525346
100585.482895
100536.816334
100492.525943
100479.273987
100485.509224
100519.151613
100589.304609
100693.81044
100828.729214
100994.97158
101192.954587
101411.403657
101622.074007
101773.545186
101806.130394
101802.484439
100389.400795
100545.502667
100673.905831
100735.15205
100716.375413
100663.162082
100612.101478
100597.598027
100608.807852
100654.682203
100739.325275
100853.150933
100989.72068
101150.448435
101335.922358
101535.020996
101717.790024
101809.839045
101809.708419
101805.497165
100442.850295
100648.270206
100783.997486
100882.921687
100877.342702
100835.933809
100789.678421
100778.788694
100795.264292
100850.26111
100942.338165
101060.173809
101197.77849
101355.186867
101528.366116
101699.165569
101808.014195
101816.621076
101810.731656
101801.520502
100533.766859
100754.516745
100869.267515
100998.616669
101051.019593
101046.201574
101021.15704
101017.229079
101039.158755
101099.873401
101193.643518
101309.938809
101442.901171
101587.614545
101728.526534
101815.908539
101820.89998
101813.549897
101790.375941
101541.63185
100670.071024
100868.664044
100948.418437
101073.025274
101199.445874
101272.36001
101286.973738
101295.577463
101324.574936
101387.026677
101477.459166
101584.132892
101694.096462
101784.579371
101826.110237
101821.030697
101811.794134
101717.650471
101354.089646
100891.146489
100829.398631
101007.505119
101023.672902
101121.787253
101297.979562
101462.367881
101543.58864
101577.10433
101613.63685
101672.405094
101742.019974
101798.843805
101827.223615
101825.875884
101816.940076
101791.015418
101567.642194
101110.648408
100785.847405
100686.224492
100972.543552
101075.428218
101074.566607
101147.413991
101343.184875
101550.805279
101687.803579
101761.859361
101807.449054
101827.415698
101833.987521
101829.322498
101823.04574
101814.598707
101748.433029
101419.412763
100987.476391
100760.024819
100683.103244
100681.381152
101037.437432
101043.539888
101042.628751
101113.231266
101321.02866
101534.02295
101680.062912
101769.097233
101818.476764
101823.623942
101821.982642
101818.69401
101778.608173
101658.901432
101354.623349
101037.967853
100894.321843
100774.854443
100696.070298
100681.822005
100951.385472
100923.183744
100880.088714
100966.980642
101183.294436
101406.681296
101572.744597
101677.888927
101726.965552
101719.564588
101660.568824
101537.255372
101387.109279
101230.20199
101095.940685
101033.87795
100982.424648
100903.353461
100788.70247
100700.309618
100715.872041
100629.344355
100634.060556
100717.545705
100872.580701
101050.239952
101211.358293
101314.724448
101325.826074
101234.586442
101033.907716
100853.400684
100764.692035
100803.702992
100935.486511
101047.999091
101099.738036
101099.233383
100993.496072
100824.737953
100451.639844
100411.819515
100479.951334
100570.288136
100645.999979
100708.167306
100759.577594
100778.045495
100735.846955
100630.717096
100507.550098
100441.916861
100427.998347
100487.026807
100645.741119
100858.079324
101050.423043
101172.752142
101195.893827
101071.231509
100325.054175
100350.991906
100445.93097
100540.015321
100589.129239
100595.120796
100575.374338
100519.842655
100450.106251
100395.385908
100366.56928
100356.823356
100356.094293
100369.776101
100418.253102
100527.591049
100758.789497
101078.756497
101256.133938
101283.388619
101336.976066
101562.58018
101870.197548
101968.923648
101976.440468
101977.941017
101978.462767
101978.794606
101979.047853
101979.24233
101979.3895
101979.49748
101979.57318
101979.623089
101979.651653
101979.642296
101712.412489
101719.368372
101582.170789
101313.091705
101301.36404
101545.253869
101851.810303
101958.676373
101969.861905
101972.246348
101973.096986
101973.6205
101974.022987
101974.33574
101974.577344
101974.759285
101974.890825
101974.980505
101975.034894
101975.041822
101719.827219
101722.914386
101559.665387
101254.127678
101287.090272
101541.17903
101842.927054
101950.205086
101964.518918
101967.885698
101969.009399
101969.618789
101970.08343
101970.443546
101970.724148
101970.937931
101971.094374
101971.202246
101971.268809
101971.287205
101728.121733
101722.251385
101518.373391
101236.389585
101286.745613
101558.013132
101844.583837
101946.100982
101960.884223
101964.981427
101966.30714
101966.912903
101967.357037
101967.698153
101967.965136
101968.17017
101968.321292
101968.426057
101968.491184
101968.514978
101736.822488
101718.5347
101453.563849
101229.520527
101309.079295
101601.722574
101861.200578
101945.368884
101959.285276
101963.484357
101964.837752
101965.369121
101965.732121
101966.007531
101966.223516
101966.390343
101966.513799
101966.599478
101966.652794
101966.676188
101744.439597
101702.3447
101363.504503
101224.213167
101352.832525
101662.609809
101886.148819
101947.189802
101959.073754
101963.067464
101964.294441
101964.699526
101964.951358
101965.136979
101965.282091
101965.394377
101965.477289
101965.53439
101965.569706
101965.588165
101748.238843
101660.632159
101264.554638
101219.364114
101410.581202
101726.972706
101909.198491
101950.452538
101959.700125
101963.298838
101964.327425
101964.583882
101964.71101
101964.795414
101964.860251
101964.910078
101964.946076
101964.969835
101964.983917
101964.993956
101749.980739
101590.499642
101192.606374
101219.503542
101479.607632
101785.38304
101926.769924
101953.877673
101960.964138
101963.895495
101964.61849
101964.700975
101964.691862
101964.66893
101964.649059
101964.632681
101964.618834
101964.607117
101964.598386
101964.597061
101749.4182
101490.694841
101172.735848
101254.626872
101554.362425
101834.732031
101939.470581
101956.986401
101962.355199
101964.451612
101964.789643
101964.684892
101964.542176
101964.417665
101964.317404
101964.237954
101964.176271
101964.130139
101964.098927
101964.084116
101743.807135
101389.103122
101168.084865
101299.834639
101617.84214
101873.406055
101947.987818
101959.318108
101963.209159
101964.437322
101964.407099
101964.149015
101963.905792
101963.704871
101963.542994
101963.414686
101963.315426
101963.241772
101963.192011
101963.16317
101726.728857
101331.801424
101160.968432
101317.683799
101643.784533
101895.032485
101952.760125
101960.466247
101963.01033
101963.450573
101963.154983
101962.810105
101962.516297
101962.275312
101962.080089
101961.92461
101961.803945
101961.71421
101961.652937
101961.611242
101710.487956
101321.804356
101153.153395
101311.446582
101638.958088
101896.652897
101955.142804
101960.166833
101961.456808
101961.31263
101960.898947
101960.536697
101960.239527
101959.995647
101959.797202
101959.638303
101959.514289
101959.421466
101959.356903
101959.304712
101708.528352
101341.860609
101142.829083
101289.403292
101612.039862
101887.662181
101954.129165
101958.080776
101958.373832
101957.991793
101957.605967
101957.296019
101957.045788
101956.840063
101956.671557
101956.535384
101956.427974
101956.346588
101956.288265
101956.229214
101728.509732
101417.604436
101140.236204
101226.728016
101535.057446
101855.851346
101948.538911
101953.895275
101953.897783
101953.613384
101953.368025
101953.179925
101953.031403
101952.908035
101952.804715
101952.718853
101952.649019
101952.594401
101952.552741
101952.492015
101768.228844
101546.557903
101176.386321
101109.708013
101404.395113
101782.282324
101937.118763
101948.261969
101948.554637
101948.518769
101948.480087
101948.464671
101948.459978
101948.453713
101948.443736
101948.4305
101948.415369
101948.400192
101948.384279
101948.32806
101791.37011
101681.062406
101285.857297
101076.669515
101262.785027
101651.694783
101908.326641
101941.947045
101942.884343
101943.158424
101943.367609
101943.556011
101943.719963
101943.851013
101943.950771
101944.023243
101944.072917
101944.104696
101944.120385
101944.075108
101787.017014
101766.195735
101463.120325
101062.736337
101121.839819
101473.90138
101839.570868
101933.327584
101937.392882
101938.049922
101938.535725
101938.940945
101939.279257
101939.550253
101939.761098
101939.920131
101940.035179
101940.114237
101940.162301
101940.133575
101778.163034
101780.036269
101633.402034
101100.958091
100985.700637
101287.130236
101713.467831
101913.891213
101932.826775
101933.941265
101934.644881
101935.211146
101935.67688
101936.050281
101936.343074
101936.566635
101936.730852
101936.845518
101936.918261
101936.908476
101772.922283
101775.181188
101744.60238
101227.052408
100905.353616
101133.323297
101553.513774
101867.098545
101928.797887
101931.465565
101932.24765
101932.852808
101933.347691
101933.746591
101934.062241
101934.305769
101934.486462
101934.613473
101934.695024
101934.70176
101770.8395
101774.558218
101775.630898
101395.090029
100897.61815
101032.810995
101409.329679
101790.771167
101921.721472
101930.719846
101931.4802
101932.000637
101932.420737
101932.761334
101933.034048
101933.246947
101933.40642
101933.518854
101933.590762
101933.607599
101772.73456
101775.104992
101778.394675
101524.931663
100915.889411
100973.215358
101306.62246
101708.404122
101907.947134
101931.216919
101932.089044
101932.435965
101932.703022
101932.919257
101933.095022
101933.234902
101933.34117
101933.416178
101933.46323
101933.481746
101776.041263
101779.631685
101780.041444
101595.755777
100945.183744
100940.051967
101239.247563
101644.571635
101891.156309
101932.224871
101933.57277
101933.698738
101933.765393
101933.818863
101933.86528
101933.905948
101933.93875
101933.961773
101933.974814
101933.986209
101782.0405
101783.211785
101785.849743
101610.99412
100948.247251
100919.800647
101201.629674
101606.720668
101879.931004
101933.216946
101935.148332
101935.091685
101934.97032
101934.872933
101934.798325
101934.744935
101934.707525
101934.680703
101934.661605
101934.660398
101787.115103
101789.459762
101788.044993
101580.013205
100899.152182
100901.742712
101180.982043
101586.8938
101876.122667
101933.370412
101935.838488
101935.803693
101935.619842
101935.465872
101935.340229
101935.242675
101935.171281
101935.119974
101935.085287
101935.073516
101793.111319
101792.247968
101792.153353
101419.713742
100794.519085
100877.090043
101154.462895
101565.438742
101872.075243
101931.673474
101935.107236
101935.423637
101935.375839
101935.306758
101935.239265
101935.171005
101935.117606
101935.078028
101935.050811
101935.036363
101796.438142
101796.025678
101750.209357
101076.803624
100735.716086
100849.592395
101112.572058
101532.284318
101863.271485
101928.384273
101933.442514
101934.334541
101934.537051
101934.626688
101934.68935
101934.700723
101934.694925
101934.688547
101934.68275
101934.6724
101800.510558
101793.913501
101443.38678
100775.39104
100724.568533
100822.225197
101063.461371
101485.196769
101846.097799
101923.667063
101931.33124
101933.010561
101933.534131
101933.818592
101934.041727
101934.179218
101934.231227
101934.262898
101934.281847
101934.279433
101798.44544
101613.672791
100905.672773
100712.629747
100713.86298
100799.402955
101019.912358
101431.896986
101819.451527
101917.498493
101929.109583
101931.84174
101932.750778
101933.248686
101933.649719
101933.951119
101934.077829
101934.141623
101934.181489
101934.188605
101626.865535
101003.309943
100703.835985
100701.935318
100705.758638
100783.535714
100989.565329
101385.793606
101786.473827
101909.857155
101927.074401
101931.165432
101932.515041
101933.235527
101933.811521
101934.285264
101934.518545
101934.604237
101934.65669
101934.672978
100987.394804
100703.489358
100694.346607
100698.05957
100696.343057
100772.485445
100972.942503
101355.813713
101753.922042
101901.115426
101925.451223
101931.187036
101933.048533
101934.002145
101934.73329
101935.360308
101935.715463
101935.816527
101935.871445
101935.895169
100696.024514
100688.234502
100691.810089
100689.836439
100693.126341
100763.035114
100966.673445
101344.038131
101729.162855
101892.623623
101924.488828
101931.993161
101934.445473
101935.642231
101936.511702
101937.26392
101937.706876
101937.813482
101937.862192
101937.891106
100683.810622
100687.087002
100684.780874
100687.349273
100687.338351
100753.535823
100963.094109
101343.03212
101714.879502
101886.308514
101924.549538
101933.686042
101936.708893
101938.136474
101939.132924
101939.972304
101940.425655
101940.516792
101940.553364
101940.585284
100683.867023
100681.464171
100683.370247
100681.213871
100683.61721
100744.29417
100960.563182
101344.002112
101708.866349
101883.236754
101925.980584
101936.31677
101939.760771
101941.364519
101942.441857
101943.287379
101943.701542
101943.764807
101943.78565
101943.818639
100679.287496
100680.282342
100677.87758
100679.599223
100678.266109
100736.57999
100960.336458
101347.997054
101708.039365
101883.037954
101928.671104
101939.720595
101943.387169
101945.06495
101946.148041
101946.981291
101947.313643
101947.340141
101947.344845
101947.377687
100677.77285
100675.135347
100676.133474
100674.141714
100675.657977
100730.28788
100962.688245
101355.36102
101709.799628
101884.550035
101932.074387
101943.499106
101947.219534
101948.904211
101950.030555
101950.811392
101951.014899
101951.00972
101951.001835
101951.034714
100703.987992
100672.786824
100670.44285
100670.713271
100670.15216
100723.964905
100963.117093
101356.397433
101709.838342
101886.765796
101935.690147
101947.244713
101950.984649
101952.731744
101953.887041
101954.520247
101954.601601
101954.581796
101954.568277
101954.602679
100858.442325
100715.019665
100665.409122
100664.051005
100664.906005
100716.880023
100956.306321
101349.492152
101705.022793
101887.634772
101939.15318
101950.833272
101954.579682
101956.3629
101957.478803
101957.94796
101957.971212
101957.954012
101957.942943
101957.984956
101139.848577
100869.101948
100659.123073
100657.86583
100658.090573
100711.172892
100945.142033
101328.746422
101685.460028
101881.982535
101941.539846
101954.5175
101958.237417
101959.928721
101960.839477
101961.102743
101961.112297
101961.111464
101961.105444
101961.144816
)
;

boundaryField
{
    emptyPatch
    {
        type            empty;
    }
    minY
    {
        type            zeroGradient;
    }
    maxY
    {
        type            prghTotalPressure;
        U               U.gas;
        p0              uniform 100000;
        value           nonuniform List<scalar> 
40
(
100325.860865
100351.888104
100447.142303
100541.544722
100590.827579
100596.846738
100577.044856
100521.343141
100451.383313
100396.484029
100367.571776
100357.793379
100357.063045
100370.792902
100419.434693
100529.134018
100761.178385
101081.419063
101257.845394
101283.740317
101139.483608
100867.774619
100656.942407
100655.293794
100655.306334
100708.26765
100942.554105
101327.175699
101685.098661
101882.383302
101942.223277
101955.296864
101959.066548
101960.788277
101961.716209
101961.987718
101961.999996
101962
101962
101962
)
;
    }
    maxX
    {
        type            fixedFluxPressure;
        gradient        uniform 0;
        value           nonuniform List<scalar> 
38
(
101979.642296
101975.041822
101971.287205
101968.514978
101966.676188
101965.588165
101964.993956
101964.597061
101964.084116
101963.16317
101961.611242
101959.304712
101956.229214
101952.492015
101948.32806
101944.075108
101940.133575
101936.908476
101934.70176
101933.607599
101933.481746
101933.986209
101934.660398
101935.073516
101935.036363
101934.6724
101934.279433
101934.188605
101934.672978
101935.895169
101937.891106
101940.585284
101943.818639
101947.377687
101951.034714
101954.602679
101957.984956
101961.144816
)
;
    }
    water_to_heater
    {
        type            fixedFluxPressure;
        gradient        uniform 0;
        value           nonuniform List<scalar> 
59
(
100750.258721
100750.258721
100630.613932
100599.308204
100598.602548
100598.602548
100599.479976
100599.479976
100605.159277
100605.159277
100624.495296
100647.427942
100676.382651
100676.382651
100736.661065
100736.661065
100851.20121
100851.20121
100984.845696
101072.552145
101066.523633
101066.523633
101024.36429
101024.36429
100956.597303
100956.597303
100823.055749
100555.585656
100370.803068
100370.803068
100335.288077
100335.288077
100336.81999
100336.81999
100336.735997
100338.669684
100338.987603
100338.987603
100340.600667
100340.600667
100354.880381
100354.880381
100389.400795
100442.850295
100533.766859
100533.766859
100670.071024
100670.071024
100829.398631
100829.398631
100972.543552
101037.437432
100951.385472
100951.385472
100715.872041
100715.872041
100451.639844
100451.639844
100325.054175
)
;
    }
    procBoundary0to1
    {
        type            processor;
        value           nonuniform List<scalar> 
41
(
100991.421399
100910.770247
100936.086703
100988.676485
101051.063947
101089.405465
101114.45297
101153.18534
101228.223849
101307.631102
101380.519767
101451.236635
101523.716019
101597.965507
101664.071478
101706.523148
101725.370198
101732.95976
101729.002099
101712.051094
101395.656638
101594.12956
101891.022769
101978.845246
101983.761584
101984.510268
101984.653072
101984.715755
101984.756715
101984.781961
101984.795266
101984.799643
101984.797972
101984.793247
101984.786781
101984.759638
101701.635405
101703.914033
101597.774849
101382.350562
101382.350562
)
;
    }
}


// ************************************************************************* //
