/*--------------------------------*- C++ -*----------------------------------*\
| =========                 |                                                 |
| \\      /  F ield         | OpenFOAM: The Open Source CFD Toolbox           |
|  \\    /   O peration     | Version:  2312                                  |
|   \\  /    A nd           | Website:  www.openfoam.com                      |
|    \\/     M anipulation  |                                                 |
\*---------------------------------------------------------------------------*/
FoamFile
{
    version     2.0;
    format      ascii;
    arch        "LSB;label=32;scalar=64";
    class       volScalarField;
    location    "0.91/water";
    object      T.gas;
}
// * * * * * * * * * * * * * * * * * * * * * * * * * * * * * * * * * * * * * //

dimensions      [0 0 0 1 0 0 0];

internalField   nonuniform List<scalar> 
1496
(
493.177572882
371.7269832
327.69708544
311.657195231
305.490979641
302.959750255
301.844242729
301.298375082
300.998185904
300.813416277
300.685044123
300.582984243
300.490635054
300.399353642
300.311427076
300.23356597
300.172758924
300.130197316
300.099107053
300.075908524
489.69740449
364.915420416
323.727970481
309.869267067
304.747293295
302.630024058
301.653169573
301.165811494
300.901340409
300.739711027
300.626273355
300.534970419
300.448317034
300.362744344
300.284094142
300.216963245
300.165597526
300.127858456
300.099317729
300.077649416
473.879578428
359.078707119
321.564744954
308.915962457
304.178984004
302.238241788
301.391385323
300.99264726
300.780261395
300.64819496
300.553529092
300.475036616
300.397092636
300.322076947
300.255455309
300.200247139
300.157678325
300.124603229
300.098934413
300.078443102
452.738027689
352.453008815
319.141562403
307.737145211
303.509679149
301.840692226
301.150969643
300.839426151
300.673361647
300.565393598
300.485510477
300.416875002
300.349187961
300.286436206
300.231923668
300.186861457
300.150639866
300.121621516
300.098094798
300.07934873
436.491201946
345.332556561
315.988577617
306.304872763
302.818408415
301.491081651
300.962663353
300.725420279
300.593637601
300.501842744
300.430700584
300.369123821
300.31126476
300.259275149
300.214151176
300.176408167
300.145246016
300.119175489
300.097399386
300.081061062
421.449839632
341.673510605
314.04478236
305.215730618
302.260713003
301.224378059
300.830183596
300.649521053
300.541033968
300.458626382
300.391821642
300.334388752
300.283629488
300.239454249
300.201480218
300.169295023
300.141539038
300.117649093
300.098901508
300.086230206
405.647077525
337.898022694
312.824494875
304.496724621
301.866467258
301.038254456
300.744249434
300.604721787
300.510712667
300.433812694
300.368420317
300.31294998
300.266361154
300.2273447
300.194176938
300.165552971
300.140628952
300.119738437
300.105240507
300.094880492
392.600245711
334.334094291
311.891450749
304.055068884
301.618367761
300.928021619
300.700392528
300.585295909
300.499560498
300.424953882
300.358981448
300.303625563
300.258534184
300.222468161
300.192771554
300.167370636
300.14567861
300.128474725
300.116286113
300.106667147
387.928063187
334.367287156
312.498925201
304.366461954
301.747194099
300.981490953
300.725220136
300.598422093
300.508780448
300.432673243
300.364358442
300.306338354
300.260790558
300.226290956
300.199361797
300.176850623
300.157945297
300.143249739
300.132065349
300.121509255
397.315897676
343.167768045
317.767860383
307.153200322
303.160400622
301.637139275
301.001864803
300.713363671
300.562460317
300.464390011
300.386495063
300.323469868
300.274938876
300.240138588
300.215136985
300.194911753
300.17785975
300.164070165
300.151504063
300.138758254
434.737266629
362.746476885
328.297069809
312.975632168
306.344329436
303.309012354
301.8275325
301.092066464
300.728914592
300.543717069
300.433027865
300.357059906
300.303346448
300.265858833
300.240343941
300.220458867
300.203643966
300.188530243
300.173369514
300.157464544
496.117050605
379.886480578
335.108350987
316.761271871
308.638513246
304.708929829
302.643586859
301.530910278
300.947434776
300.653896588
300.501119233
300.409187645
300.34615119
300.302534175
300.272880927
300.251069989
300.232695282
300.214785937
300.19605953
300.176405178
533.514942729
387.500482717
336.621452321
317.752642201
309.41289838
305.224321096
302.978017774
301.738643018
301.077330873
300.739290378
300.564676883
300.463171055
300.394333699
300.344277104
300.308127153
300.281945722
300.260854035
300.239369391
300.217016013
300.194145192
546.472320866
391.443104761
336.665515719
316.029883291
308.125059727
304.674782328
302.799592256
301.715715305
301.109057909
300.783831792
300.60905583
300.505241464
300.43368961
300.379783046
300.338524563
300.308016974
300.284621298
300.260037758
300.234715816
300.209247647
552.635409667
387.99568632
329.384092153
311.14097937
305.390321039
303.343635465
302.250096806
301.51911088
301.057577294
300.786117349
300.628340787
300.529397895
300.458802527
300.403839057
300.360252821
300.327501334
300.30227103
300.275551828
300.248080137
300.220584758
551.397215802
374.962135187
320.56275451
306.55604877
303.116111411
302.153859909
301.667317444
301.269888814
300.966132902
300.760952984
300.628179057
300.538129086
300.470918226
300.417142647
300.37387708
300.341132171
300.31421846
300.285776818
300.256681605
300.227441401
522.454751077
359.119014704
314.560607745
303.962021755
301.883844382
301.440112698
301.236980737
301.045432059
300.866089574
300.722665672
300.616194195
300.536856587
300.47453805
300.423702136
300.382786386
300.350769654
300.321208467
300.291074846
300.260469587
300.229738404
469.333914951
346.95029092
312.030163734
303.111247435
301.405445756
301.098425552
300.987406532
300.883419194
300.776857586
300.679358381
300.597307041
300.529650431
300.473595962
300.427049967
300.388612445
300.35518001
300.32342078
300.291551166
300.259646455
300.227965994
431.981000941
340.973317169
311.506301839
303.232912621
301.290248731
300.95477659
300.859873471
300.786895768
300.712467865
300.640964976
300.576059855
300.519116162
300.469590927
300.426653804
300.388965818
300.354241929
300.320616795
300.287489673
300.254970327
300.223638033
409.291955377
336.125574141
310.990600105
303.361415309
301.329717465
300.906979299
300.802461562
300.736548124
300.67367006
300.614027093
300.558456428
300.508068199
300.462696115
300.421873849
300.384417707
300.348315955
300.313426534
300.27991793
300.248063415
300.218171942
394.202176148
332.346816815
310.513145328
303.382521289
301.356628828
300.899453847
300.784080069
300.716507319
300.656368928
300.600365833
300.547957845
300.499808032
300.455744736
300.415109864
300.376920707
300.339272077
300.303674897
300.270753119
300.240367308
300.212421791
386.365173105
331.531518655
310.800037169
303.494312025
301.379960264
300.912211561
300.788634333
300.717041575
300.655699198
300.599261798
300.546114458
300.496584165
300.450768458
300.408382762
300.368493414
300.328920199
300.293070433
300.261060057
300.232259645
300.205685199
390.85922739
337.662435372
314.139894769
304.85502871
301.89419389
301.069682802
300.835700251
300.736005838
300.667207772
300.607442342
300.550849941
300.497483197
300.447694862
300.401572416
300.358513085
300.317501847
300.281916202
300.250602145
300.222588446
300.195357748
428.055498754
359.1341246
323.782849109
309.164654222
303.686253885
301.698559786
301.021336004
300.790627425
300.689958704
300.620107254
300.557148418
300.497860051
300.442816232
300.392088584
300.346274072
300.305108107
300.269506373
300.238372197
300.209536893
300.181130448
521.457095471
381.29587421
330.779239322
311.943229892
304.8693012
302.159355153
301.170541524
300.832114936
300.70202654
300.622838615
300.5549265
300.4922651
300.432998105
300.379662864
300.332490163
300.290906033
300.25526705
300.223873545
300.193965431
300.16058079
573.779183644
390.982496549
331.681679202
311.605962409
304.570268052
302.034033926
301.133525478
300.821361004
300.694942361
300.614595263
300.545020392
300.478889258
300.418364475
300.364098314
300.315891648
300.27431938
300.239208444
300.207298544
300.174379926
300.134382306
585.408795437
390.105152015
328.857933893
309.680158525
303.64638528
301.687267907
301.026733979
300.788366217
300.677340871
300.598811038
300.526655302
300.46027618
300.399694555
300.344365333
300.296094797
300.255753449
300.220738546
300.187636857
300.149356542
300.106100367
583.862284419
383.2705388
324.551788632
307.559421226
302.775638166
301.380258831
300.924841118
300.747771649
300.652763525
300.575751516
300.504614601
300.43816271
300.37603418
300.320784135
300.274174955
300.234854635
300.19999792
300.16272618
300.120664512
300.080684377
571.486408213
373.97172887
320.156505148
305.75956001
302.11129972
301.146782109
300.84250842
300.711777724
300.62547359
300.549453508
300.478427061
300.410971079
300.349218995
300.295982414
300.25142515
300.212359529
300.174808186
300.133146679
300.093373054
300.062823868
539.020224682
367.317008941
316.743743527
304.469716326
301.669430073
300.999884173
300.785875655
300.677166803
300.594350566
300.520429884
300.44966541
300.382732015
300.322988868
300.272391986
300.22784927
300.186697406
300.144941271
300.105947534
300.074449605
300.051060566
483.37006075
361.320574035
314.565389819
303.635997986
301.398529182
300.910161588
300.738737729
300.642304415
300.563899227
300.491595501
300.421762677
300.356700057
300.299643607
300.24882259
300.20351331
300.159658712
300.119943717
300.087801489
300.062570081
300.043733505
442.266169608
349.068039145
311.775195446
302.980603087
301.238936507
300.843924748
300.699908941
300.610152073
300.535617529
300.464945697
300.396872751
300.334289678
300.277099353
300.226500002
300.180501586
300.137698684
300.104354701
300.07713788
300.055901388
300.039557162
419.013973515
344.604523564
310.060462871
302.555505069
301.126303972
300.795291586
300.66769723
300.583807246
300.511385846
300.442196461
300.375853717
300.313497868
300.25681827
300.206355535
300.161126603
300.125186685
300.096142375
300.072106242
300.052932354
300.03752708
405.880420974
340.481244434
308.906104644
302.292131392
301.049915599
300.761023101
300.644560131
300.564462857
300.493079424
300.424491066
300.358159585
300.295809335
300.239586835
300.190730377
300.149600036
300.118478492
300.092738048
300.070769812
300.052327135
300.036854175
399.809175247
336.863476716
309.360925397
302.3209417
301.010573322
300.741623034
300.632494848
300.553293047
300.481592821
300.412197181
300.344989129
300.282244748
300.22902022
300.183356344
300.144380841
300.115308689
300.092091436
300.071461367
300.053049353
300.036999694
396.63275799
335.258145371
311.00804795
302.992321771
301.112605375
300.748882491
300.633033704
300.551954849
300.478527486
300.407427173
300.339145641
300.278658805
300.227735053
300.183117146
300.144949443
300.115319446
300.091998484
300.072260187
300.054252321
300.037948039
395.317630204
335.845503895
312.818896055
304.203856368
301.430505551
300.803419834
300.649109207
300.562328315
300.486411673
300.413605362
300.345684619
300.285595076
300.234833615
300.190229379
300.151517878
300.120327893
300.095313361
300.074259864
300.055636103
300.038994219
300.016121175
300.012808621
300.01094109
300.009564169
300.007979049
300.005696171
300.003669189
300.002456049
300.002124706
300.002531357
300.004584523
300.005142713
300.006188935
300.007326302
300.008641245
300.008570343
300.058724492
300.046106576
300.035429791
300.025465142
300.019276037
300.015745189
300.013651154
300.012083072
300.010052761
300.007254456
300.00483346
300.003308992
300.002611947
300.002877315
300.005294886
300.006641658
300.007985222
300.009681883
300.011706105
300.011624619
300.061154592
300.049052273
300.038575427
300.028977691
300.022849203
300.019192267
300.016868445
300.015035067
300.012442398
300.009175787
300.006293106
300.004451842
300.002889492
300.003204044
300.005377246
300.009374027
300.010396113
300.012982479
300.015854765
300.015745894
300.063473634
300.052105934
300.042145124
300.03291127
300.0268522
300.023167958
300.020601632
300.018394711
300.015199845
300.011425813
300.008058893
300.005732075
300.003150024
300.003579331
300.005958281
300.012929954
300.013497564
300.017226904
300.021119951
300.020986958
300.065943574
300.055930953
300.046384475
300.037351521
300.03125475
300.027623991
300.024834354
300.022133195
300.018345269
300.013972013
300.010144026
300.006230283
300.003493614
300.003980894
300.00691694
300.016579123
300.017326461
300.022397434
300.027392505
300.027205062
300.07025556
300.061066932
300.051617131
300.04239304
300.036127748
300.032558109
300.029513589
300.026216851
300.021804622
300.01678144
300.012588497
300.006395982
300.003890564
300.00437329
300.007949425
300.020658958
300.021756534
300.028258224
300.034246859
300.033922396
300.076923476
300.067862705
300.058057619
300.048206067
300.041569277
300.037991519
300.03456195
300.030619957
300.025499193
300.019870303
300.014595103
300.006935624
300.004344338
300.004726586
300.008863313
300.024708737
300.0264722
300.034256245
300.041190082
300.040631423
300.085787934
300.07633513
300.065823228
300.054958079
300.047680144
300.0439067
300.039939264
300.035298045
300.029404599
300.023405021
300.014902734
300.007776072
300.00488462
300.005056098
300.009564747
300.028334819
300.031397344
300.040220644
300.048016211
300.04717409
300.096918607
300.086388244
300.074825188
300.062757797
300.054565066
300.050257255
300.045662874
300.040184936
300.0335235
300.027604088
300.015573374
300.008752375
300.005491
300.005413384
300.010154172
300.031666778
300.036710747
300.046390586
300.05498916
300.053855158
300.110235374
300.098123676
300.084924519
300.071652998
300.062322373
300.057053474
300.051679941
300.045205393
300.037824089
300.030123554
300.017031479
300.009784789
300.006104195
300.005848114
300.010888952
300.035612327
300.042346083
300.053215842
300.062763918
300.061360677
300.12505472
300.110925565
300.096204867
300.08155676
300.070818388
300.064222279
300.057829902
300.050286149
300.042327924
300.031696128
300.018571617
300.010648556
300.006667785
300.006399591
300.012017447
300.041354966
300.048691343
300.061497403
300.072302574
300.07066422
300.140779993
300.124350584
300.10813221
300.09207507
300.079775556
300.07146108
300.063790703
300.055120075
300.046609505
300.03323333
300.019646311
300.011160401
300.007076918
300.007131613
300.01395952
300.049912888
300.056456873
300.072194918
300.08489031
300.08300044
300.156760975
300.137982067
300.119975029
300.102372417
300.088618318
300.078551547
300.06926141
300.059315269
300.050300052
300.034122788
300.019935486
300.011157251
300.007410758
300.008198681
300.018137689
300.059060106
300.066564793
300.085703354
300.101861004
300.099909473
300.171716675
300.150740818
300.130721515
300.111567314
300.096711042
300.084978797
300.073949697
300.062670327
300.053231422
300.034043117
300.019321659
300.010784018
300.007781181
300.009979953
300.029230516
300.054260079
300.076962806
300.10159398
300.124327343
300.122522406
300.184461314
300.161477536
300.139355234
300.119231027
300.103439382
300.090323822
300.077705776
300.065115228
300.055261548
300.032713238
300.01796229
300.010210823
300.008483085
300.014529373
300.030524249
300.053956866
300.084579209
300.120731273
300.151539604
300.149406054
300.193852077
300.16894672
300.145207628
300.124921929
300.108533576
300.094364676
300.080499738
300.066676303
300.055333285
300.030441756
300.016113637
300.009820828
300.01040794
300.017626389
300.029808112
300.053848752
300.092029899
300.141395463
300.178167553
300.175643233
300.199088359
300.172731273
300.1487229
300.128676704
300.112054205
300.097166055
300.082400451
300.06741377
300.052955305
300.027294579
300.014236613
300.009977945
300.01284476
300.018678366
300.031193289
300.056802637
300.100306594
300.162700885
300.200764411
300.198174232
300.20022474
300.173578738
300.150303879
300.130816062
300.114219722
300.09901606
300.083425699
300.066967072
300.048889633
300.023899409
300.012502176
300.010996512
300.013882529
300.021020811
300.03580635
300.062727261
300.111994699
300.184623129
300.221055917
300.218684893
300.198496105
300.172641788
300.150528639
300.131748788
300.11534324
300.099956657
300.083437015
300.064979791
300.045439189
300.020949875
300.011358742
300.011403165
300.015561361
300.024988717
300.042056054
300.072053234
300.154739275
300.209622899
300.241650356
300.238434112
300.195242022
300.170788782
300.149950052
300.131876908
300.11560583
300.099863346
300.082237124
300.062831113
300.040333367
300.016903387
300.010739968
300.012345936
300.017758244
300.029310802
300.051760602
300.102339549
300.203769167
300.235171802
300.259582824
300.253367337
300.191506746
300.168651635
300.148807513
300.131073852
300.114565736
300.098055199
300.080008473
300.059734242
300.032497711
300.013618361
300.010855611
300.013033753
300.019205554
300.034715188
300.089725132
300.1730677
300.225213475
300.254896261
300.273517126
300.266284006
300.187405738
300.165458059
300.145819511
300.127700919
300.110415462
300.093380656
300.074963252
300.053879473
300.026693346
300.012079135
300.010802411
300.013545585
300.022806006
300.055679977
300.117074373
300.189437685
300.241236816
300.271536798
300.287639705
300.28101453
300.180899796
300.158560683
300.13731359
300.11740363
300.099279766
300.082263855
300.064612857
300.04480054
300.021031807
300.011393834
300.010989784
300.013783259
300.02335139
300.056052559
300.11914285
300.198836146
300.257177855
300.293516764
300.311866476
300.310038965
300.169529301
300.14276221
300.116623101
300.09495983
300.078244812
300.064199957
300.050164402
300.034895881
300.018157901
300.01157008
300.011286684
300.014034011
300.020824829
300.041977125
300.113283594
300.209982764
300.281098126
300.324499285
300.346399902
300.348500351
300.149030414
300.114386742
300.086422514
300.068532712
300.056471168
300.046644669
300.036954622
300.026624196
300.016259912
300.011765389
300.011473535
300.014848464
300.022533281
300.039156631
300.094161393
300.211815387
300.302146806
300.357673977
300.386739936
300.395770625
300.120307868
300.083956299
300.060955312
300.04802526
300.039774681
300.033231243
300.027044338
300.020562527
300.014507023
300.011721095
300.012088303
300.016592452
300.027643644
300.045959874
300.089030088
300.210759765
300.327333234
300.397878173
300.436128645
300.454561649
300.091385525
300.060152285
300.043422453
300.034455043
300.028813916
300.024496609
300.020553275
300.01659228
300.013169151
300.011891862
300.013881164
300.020981311
300.037319945
300.062397744
300.104066687
300.199652047
300.352303749
300.44529857
300.496637802
300.52766792
300.067929128
300.044317212
300.03251512
300.026132495
300.022152091
300.019132092
300.016535434
300.014145467
300.012603257
300.013317218
300.018690364
300.030834503
300.053262667
300.089856876
300.136109822
300.216192913
300.36140669
300.496127284
300.570403332
300.618833931
300.051614279
300.034358886
300.025837167
300.021096695
300.018014221
300.01578291
300.014157745
300.013286248
300.013999082
300.018460021
300.029774957
300.049767542
300.080859288
300.1244327
300.179699998
300.249967288
300.378028123
300.547587494
300.659911585
300.731793316
300.040944456
300.028052033
300.021598793
300.017782089
300.015276477
300.013807341
300.013631274
300.015326178
300.020011662
300.031439375
300.051230301
300.081608844
300.122748448
300.172392008
300.227044859
300.287408872
300.389185525
300.586333523
300.774408476
300.900161004
300.034001848
300.023954533
300.018656522
300.015411429
300.013536188
300.013421847
300.015828939
300.02178686
300.034648926
300.055619043
300.087137248
300.129757431
300.180556918
300.235205683
300.292396666
300.349588734
300.434342954
300.631457085
300.918051846
301.157815499
300.02957038
300.021188357
300.016517487
300.013696728
300.012691124
300.014418471
300.021538844
300.036451882
300.060133868
300.094884881
300.142179242
300.19867599
300.261073463
300.328937092
300.399479364
300.477858244
300.596300766
300.830097195
301.142941193
301.496080898
300.026862155
300.01936338
300.014982462
300.012485242
300.012209027
300.017922524
300.033545264
300.059527993
300.097423351
300.149927743
300.21674793
300.298194213
300.388813489
300.501185032
300.623995244
300.753236456
300.925125068
301.151103041
301.396364952
301.814057924
300.02537944
300.018258216
300.013963057
300.011581947
300.013069285
300.024944234
300.050526333
300.08920088
300.14294448
300.217431263
300.323297952
300.455190958
300.597665608
300.755257692
300.892477001
301.018216156
301.191174219
301.406474103
301.654700139
302.098078591
300.024779041
300.01776983
300.013508163
300.010892038
300.015577822
300.034498189
300.07027638
300.121826148
300.194819737
300.306088827
300.469813341
300.611808489
300.772721637
300.922521254
301.062436886
301.211006279
301.394603968
301.607598633
301.893382246
302.371482208
300.024919616
300.01811049
300.013096845
300.010707039
300.018970887
300.04507739
300.091360849
300.157457188
300.248038431
300.38890007
300.533310284
300.685290796
300.844323483
301.003806613
301.167762264
301.349756729
301.567015572
301.818817336
302.099829681
302.644085848
300.026019263
300.01857823
300.012825617
300.010917761
300.022490972
300.056358123
300.110450683
300.181422286
300.276439132
300.395339872
300.536651906
300.689957786
300.858326818
301.041785935
301.247060171
301.487256309
301.777112148
302.074070178
302.361264987
302.94512144
300.026907019
300.018754681
300.012658151
300.011348103
300.026079108
300.06315352
300.118052059
300.18605915
300.255925982
300.346855476
300.471517001
300.623141761
300.81193316
301.042405485
301.327326056
301.681667445
302.093925896
302.457306849
302.768850663
303.346395923
)
;

boundaryField
{
    emptyPatch
    {
        type            empty;
    }
    minY
    {
        type            fixedValue;
        value           nonuniform List<scalar> 0();
    }
    maxY
    {
        type            inletOutlet;
        inletValue      uniform 373;
        value           nonuniform List<scalar> 
40
(
395.317633702
335.84550355
312.818895689
304.203856214
301.430505503
300.80341984
300.649109263
300.562328402
300.486411774
300.413605458
300.3456847
300.285595131
300.234833645
300.190229397
300.15151789
300.120327901
300.095313365
300.074259866
300.055636104
300.03899422
300.026907019
300.018754681
300.01265815
300.011348104
300.026079115
300.06315352
300.118052028
300.186059058
300.255925843
300.346855367
300.471516914
300.623141676
300.811933089
301.042405425
301.327326003
301.681667404
302.093925884
302.457306924
302.768850884
303.346396085
)
;
    }
    water_to_cooler
    {
        type            copiedFixedValue;
        sourceFieldName T.liquid;
        value           nonuniform List<scalar> 
38
(
300.001845588
300.002190484
300.002702497
300.003426853
300.004399645
300.005659533
300.007209228
300.009022985
300.011088363
300.013458089
300.016279408
300.019841844
300.024557721
300.030767003
300.038683306
300.048521176
300.060815327
300.07634969
300.095896518
300.120331133
300.151230427
300.190074382
300.238575127
300.300115567
300.379538194
300.4816155
300.610701582
300.771443655
300.971241057
301.222557777
301.540814449
301.935983087
302.400468974
302.912708631
303.449592912
303.994232305
304.534415999
304.994349114
)
;
    }
    water_to_heater
    {
        type            copiedFixedValue;
        sourceFieldName T.liquid;
        value           nonuniform List<scalar> 
59
(
789.096845693
789.058746768
789.056024373
789.001939908
788.976686234
788.958553621
788.945114797
788.957543496
788.947054702
788.985593271
788.980813558
789.040661058
789.041346505
789.087683028
789.084382058
789.127042575
789.138511137
789.196918137
789.264823794
789.372776072
789.381608214
789.413298973
789.416753659
789.428373422
789.42791359
789.425565896
789.401411099
789.339431989
789.304181399
789.334862444
789.326486894
789.368701782
789.370405357
789.414832101
789.418085994
789.465044064
789.469098937
789.524766044
789.649910635
789.676255883
789.740560854
789.731017323
789.739213512
789.69640582
789.683139814
789.624345004
789.577123493
789.492231491
789.401310742
789.299280944
789.261020207
789.109036235
789.106489831
788.903458772
788.902401362
788.671132255
788.670559246
788.517311676
788.51707758
)
;
    }
    procBoundary0to1
    {
        type            processor;
        value           nonuniform List<scalar> 
41
(
493.812417096
376.032745452
331.338855216
313.671677747
306.422446913
303.334623671
301.970333206
301.337321412
301.018773585
300.833943192
300.704770603
300.601087784
300.508407103
300.417860117
300.327557012
300.243723893
300.17671765
300.129966885
300.097310973
300.073158124
300.013440239
300.010350672
300.008695838
300.00749458
300.006240176
300.00446857
300.002779268
300.001839876
300.001702274
300.002123684
300.003853596
300.004192398
300.004931489
300.005721907
300.006522832
300.006443219
300.055535666
300.042522574
300.032163591
300.022361312
300.022361312
)
;
    }
}


// ************************************************************************* //
