/*--------------------------------*- C++ -*----------------------------------*\
| =========                 |                                                 |
| \\      /  F ield         | OpenFOAM: The Open Source CFD Toolbox           |
|  \\    /   O peration     | Version:  2312                                  |
|   \\  /    A nd           | Website:  www.openfoam.com                      |
|    \\/     M anipulation  |                                                 |
\*---------------------------------------------------------------------------*/
FoamFile
{
    version     2.0;
    format      ascii;
    arch        "LSB;label=32;scalar=64";
    class       volScalarField;
    location    "0.905/water";
    object      p_rgh;
}
// * * * * * * * * * * * * * * * * * * * * * * * * * * * * * * * * * * * * * //

dimensions      [1 -1 -2 0 0 0 0];

internalField   nonuniform List<scalar> 
1496
(
100713.236421
100834.747127
100861.892527
100919.432933
101019.096991
101144.998304
101230.989168
101209.716161
101069.698419
100836.355966
100701.421645
100671.641495
100676.552932
100716.281696
100810.734504
100960.374822
101161.997261
101373.754278
101416.233762
101410.398896
100771.770129
100938.567018
100937.048578
100989.933423
101094.531744
101218.660445
101282.944187
101277.51413
101165.519412
100951.533506
100826.125825
100799.183646
100811.246065
100868.237666
100983.890499
101149.22649
101332.874925
101412.371564
101411.450075
101248.794319
100846.062885
101023.900701
101002.10432
101042.681729
101142.727743
101255.768263
101287.4649
101286.890329
101268.054787
101147.034283
101037.324539
101001.276527
101011.502123
101064.526111
101168.687272
101287.300533
101361.108359
101370.698071
101242.410847
101017.266325
100917.799995
101019.09818
101020.934257
101045.791217
101153.05031
101262.165936
101277.470187
101276.345593
101276.756138
101272.779301
101236.083958
101194.142042
101179.737646
101197.455506
101232.025076
101271.050552
101268.38007
101145.346168
100980.751073
100972.642478
100927.106381
100983.959237
100960.462211
100991.425863
101113.167482
101229.619368
101255.840719
101257.429877
101255.283586
101256.489042
101254.706727
101219.966342
101187.763467
101182.774118
101179.61164
101131.086436
101003.564756
100888.557714
100915.306623
100977.88283
100834.626519
100810.707925
100791.71734
100832.90762
100955.266815
101087.263611
101173.541512
101206.06849
101213.649
101201.582855
101178.721345
101133.417199
101111.085315
101093.768638
101027.621155
100916.545266
100838.028046
100841.142169
100914.016216
101009.043821
100650.881616
100601.281096
100612.357865
100644.321965
100710.121856
100799.762293
100897.454282
100956.443558
100964.328344
100936.238105
100895.126496
100878.1344
100879.087297
100882.310558
100855.624185
100824.986766
100828.283577
100835.894757
100932.986929
101057.336606
100499.023756
100509.592326
100541.389641
100552.440131
100562.551899
100581.32285
100611.558788
100635.003722
100635.588347
100616.405834
100596.924006
100596.697093
100604.90492
100641.102434
100711.738127
100778.10934
100825.6242
100870.785771
100982.998371
101124.924297
100459.06086
100506.94712
100540.795773
100540.736618
100530.152741
100521.815413
100520.393039
100519.729007
100519.392606
100517.709146
100518.375839
100517.263648
100518.356216
100521.084196
100597.795101
100716.998518
100823.152702
100926.7873
101058.946334
101210.532578
100461.603436
100528.134717
100563.645821
100556.306821
100534.12026
100520.766997
100519.460805
100520.744668
100518.894081
100520.715121
100518.750904
100520.681575
100518.87074
100520.644726
100545.109947
100654.04893
100804.936228
100957.477426
101128.9908
101278.346811
100462.38844
100587.938811
100629.399546
100609.723119
100561.185856
100524.321014
100523.052856
100521.501893
100523.010709
100520.968829
100522.971625
100520.986317
100522.935925
100522.050758
100540.461745
100634.769176
100790.128937
100973.241745
101176.898716
101294.960906
100465.417706
100690.55706
100725.717553
100702.007761
100623.818839
100549.283803
100524.857953
100525.280197
100523.855495
100525.249397
100523.780969
100525.223956
100524.078806
100525.211595
100551.360021
100648.392375
100804.510128
101003.082457
101212.301675
101301.926203
100472.912536
100786.883187
100812.67711
100805.467331
100722.585683
100616.954878
100551.586376
100529.95175
100527.520784
100526.859107
100527.497547
100526.907152
100527.48672
100535.987725
100592.912481
100704.95702
100865.845665
101064.223073
101237.836369
101290.596548
100514.729345
100820.820105
100867.953035
100899.236518
100847.786292
100743.063659
100636.544891
100572.289022
100544.616034
100535.704855
100532.883413
100533.964003
100543.647643
100587.121386
100682.247889
100815.331894
100973.730523
101131.945606
101235.92818
101227.223854
100605.182786
100825.115922
100899.187368
100974.200095
100976.092211
100909.384489
100793.664923
100687.063231
100620.408661
100589.28607
100579.558621
100584.399351
100615.94732
100695.356887
100812.861176
100943.812758
101061.755332
101141.427934
101173.980459
101102.429744
100735.085734
100859.22111
100916.87318
101003.860461
101055.217309
101051.035851
100979.777052
100871.994911
100781.331241
100726.534534
100706.709884
100715.041644
100760.305595
100846.041772
100943.337849
101019.76723
101066.536251
101098.80543
101069.221434
100996.228016
100871.544543
100921.128451
100928.037891
101000.40469
101068.865456
101075.864304
101074.594683
101042.777825
100977.989168
100922.642789
100897.677758
100901.813509
100931.389556
100973.604604
100999.761314
101013.997492
101032.167256
101028.015252
101017.622692
100996.62434
100918.102714
100914.967946
100918.735061
100983.477819
101056.32703
101063.304782
101061.342718
101061.909685
101061.259089
101055.185919
101044.154383
101038.712509
101021.999742
100997.28022
100984.792563
100985.268406
100995.937654
101015.790587
101038.109841
101073.053331
100888.331357
100854.463431
100838.827682
100917.889903
101014.235
101040.454592
101042.854891
101040.345184
101042.544522
101040.625196
101042.765323
101041.286072
101002.089501
100969.585797
100955.258772
100966.270523
100999.720916
101057.676944
101152.867123
101253.268274
100746.277761
100631.058848
100647.444981
100736.210965
100859.763593
100960.364194
101000.902482
101016.904804
101016.329652
101008.80847
100990.910765
100961.673238
100925.284662
100907.168249
100915.928499
100962.786739
101044.47469
101173.728084
101324.668977
101347.126437
100475.967299
100410.504337
100448.701586
100512.618555
100598.910369
100697.383968
100773.710152
100809.32852
100817.795428
100803.735485
100781.879235
100768.548925
100782.386487
100806.713917
100864.119888
100955.870481
101089.050878
101273.548518
101347.564414
101337.287918
100322.066044
100320.578116
100360.134295
100396.413629
100426.811
100460.124276
100495.991166
100521.376744
100534.370596
100540.946241
100554.546415
100593.075115
100652.888588
100717.648775
100812.898361
100945.984155
101116.20524
101303.555664
101344.960591
101149.55016
100285.800886
100309.872802
100345.048539
100374.085273
100386.571962
100392.3912
100398.365781
100406.869395
100421.040523
100444.881223
100482.818014
100540.057354
100610.341082
100692.902576
100807.185161
100961.371442
101161.38805
101303.880709
101223.174367
100705.227553
100283.935324
100312.63394
100347.719109
100376.675359
100388.481503
100392.628265
100395.825762
100402.57615
100418.118298
100445.997364
100488.375394
100548.198376
100621.08576
100713.418843
100849.115286
101044.453578
101214.37458
101231.615455
100901.014605
100405.743275
100285.095454
100324.869103
100362.62255
100391.680606
100404.537019
100409.372936
100413.31436
100421.958706
100441.370164
100475.922914
100527.180671
100595.045089
100679.205834
100797.696365
100976.24079
101192.259297
101220.723254
101048.834111
100521.595193
100385.761434
100289.755298
100357.820775
100396.526048
100424.636234
100440.691828
100451.164318
100461.947702
100479.167243
100508.764042
100555.125401
100618.471161
100696.959207
100801.275559
100958.19491
101170.312556
101248.73085
101165.967745
100698.376371
100387.889437
100383.9137
100316.943269
100415.926762
100442.699061
100465.915032
100486.073147
100508.318954
100536.303104
100572.892424
100620.039798
100679.142391
100750.409914
100843.510774
100976.310214
101162.685758
101326.410621
101257.089539
100886.787842
100426.790046
100387.636093
100389.878497
100380.748363
100488.318135
100489.644215
100503.94391
100528.011658
100567.298265
100624.922657
100690.704506
100755.958543
100827.496858
100912.632944
101027.23022
101187.519573
101371.291033
101366.124655
101107.100955
100546.354578
100391.101363
100391.953599
100388.128011
100479.81966
100544.366825
100530.747952
100536.458102
100563.508809
100623.488851
100721.851837
100818.017108
100905.644042
100996.615213
101103.732835
101242.619438
101408.280633
101442.539955
101319.231508
100751.666696
100432.983212
100394.402365
100391.905315
100394.106796
100571.006151
100575.626926
100564.647764
100564.937792
100594.854097
100684.511816
100825.319391
100950.502339
101064.724213
101182.245237
101313.82008
101456.083643
101527.115687
101449.827893
101075.129116
100570.839472
100430.973507
100396.109389
100396.567272
100393.631185
100618.641407
100583.879693
100590.025465
100590.498995
100625.615443
100761.797702
100935.083001
101087.293481
101229.147791
101370.368257
101502.721374
101581.268352
101538.016592
101338.344647
100832.075821
100573.092683
100453.47068
100402.048104
100398.105771
100398.762643
100616.39464
100584.44832
100606.055802
100611.710972
100662.18048
100851.701307
101048.848752
101223.823439
101384.923298
101523.1811
101603.511369
101598.557251
101503.265688
101158.633752
100807.898399
100623.984184
100526.731466
100447.486277
100407.370828
100400.349564
100611.263821
100577.565527
100611.500306
100625.222908
100699.569541
100923.810248
101138.693165
101324.160817
101483.361295
101590.01171
101621.11284
101598.14746
101438.421907
101108.903096
100851.837826
100741.091594
100656.403178
100555.569871
100474.730846
100445.088201
100554.227207
100561.110263
100606.020882
100626.359868
100712.680629
100934.074592
101156.372139
101344.503002
101499.824572
101598.755598
101626.261491
101595.892018
101433.402764
101137.410609
100955.962561
100898.243863
100826.221249
100724.319771
100630.696479
100586.836417
100490.614477
100536.732164
100594.272235
100620.58294
100703.573196
100915.269051
101141.795649
101334.644556
101493.210646
101597.414132
101629.020618
101602.70932
101463.009126
101221.147148
101088.110273
101055.45531
101010.213281
100935.158125
100860.772551
100826.40824
100470.245392
100520.836198
100579.6861
100611.919842
100684.505327
100867.439048
101091.153833
101291.012364
101457.275298
101579.298951
101630.356096
101615.581458
101528.0436
101354.791431
101224.72257
101191.93052
101181.991838
101163.25297
101133.106135
101132.41648
100468.539016
100516.604127
100572.882623
100605.914304
100670.376101
100831.460115
101044.077601
101246.001305
101418.404441
101556.12962
101635.379839
101638.748236
101609.017136
101520.652961
101397.595577
101345.717474
101356.292902
101382.759005
101381.330059
101360.501021
100953.50984
101027.250774
101037.245683
101101.202391
101366.408469
101635.284249
101735.438969
101745.810979
101745.62619
101745.35506
101744.974541
101729.876116
101387.130803
101123.659773
101495.630177
101740.119799
101188.452366
100921.648785
100896.679256
100894.817701
100927.312142
100996.62603
101031.783447
101170.803215
101468.651193
101693.950146
101749.114117
101751.635702
101751.322443
101751.058598
101750.719959
101747.323981
101400.045645
101125.198649
101469.39864
101745.660203
100991.990555
100906.162321
100891.967799
100893.904172
100903.623502
100968.979354
101029.201793
101236.600217
101551.976908
101728.711084
101756.256671
101756.574565
101756.303802
101756.077187
101755.77399
101754.412122
101413.916307
101122.900753
101436.503514
101750.655638
100959.523591
100916.707836
100890.992494
100887.885399
100891.171527
100950.801861
101034.009813
101299.953782
101617.098783
101748.180349
101761.069059
101760.927651
101760.733518
101760.569535
101760.332395
101759.549495
101423.324756
101123.625612
101388.959645
101755.215805
100971.544049
100934.365078
100885.577982
100886.099878
100885.970449
100944.371123
101060.08074
101371.377713
101669.905496
101759.696241
101764.938324
101764.81182
101764.709079
101764.621076
101764.460521
101763.945193
101440.192758
101120.829757
101328.689032
101759.409542
101003.997838
100957.817541
100883.984263
100878.627339
100881.543495
100946.011049
101110.965416
101452.129474
101712.377058
101766.750553
101768.370505
101768.383407
101768.398666
101768.406996
101768.358883
101768.037111
101478.836335
101121.285577
101273.396071
101760.055809
101050.611501
101005.269968
100911.943165
100876.63513
100880.104593
100963.041582
101176.352283
101533.719085
101742.507925
101771.304623
101771.754857
101771.911071
101772.046169
101772.173173
101772.252396
101772.099506
101538.975092
101117.820565
101234.22672
101758.841086
101114.981777
101081.197843
100962.814303
100870.101712
100872.622806
100976.716082
101237.385696
101602.559936
101760.856649
101775.087841
101775.438116
101775.723944
101775.983332
101776.222958
101776.426108
101776.416941
101591.106832
101119.147796
101218.398407
101757.816406
101196.597551
101162.342438
100998.809854
100868.572158
100866.598419
100966.497681
101276.073524
101650.199819
101771.72206
101779.360916
101779.832447
101780.230963
101780.582434
101780.922871
101781.213903
101781.246052
101611.469762
101116.832583
101228.950009
101757.985685
101266.452005
101212.082171
101008.304369
100864.269502
100866.518305
100942.465813
101287.514682
101679.945654
101779.864369
101784.763877
101785.329942
101785.797822
101786.217222
101786.607927
101786.951685
101786.548602
101596.504272
101119.241985
101272.837051
101760.141957
101291.465844
101221.638867
101000.389466
100865.002589
100862.998369
100916.83412
101294.480683
101703.120453
101787.982075
101791.461647
101792.069013
101792.576029
101793.012115
101793.42917
101793.702647
101787.601366
101525.52806
101118.611716
101346.035465
101764.439203
101297.230533
101208.0749
100960.452503
100863.266474
100865.625015
100908.131
101314.811762
101726.346947
101796.735412
101799.254563
101799.886768
101800.410104
101800.882914
101801.3278
101798.772153
101736.217162
101415.378615
101235.960991
101426.717936
101769.900205
101287.364857
101138.734607
100887.590046
100865.948074
100864.537087
100914.455233
101357.250053
101750.772555
101805.889599
101807.737824
101808.353658
101808.864149
101809.315738
101807.333491
101753.367698
101579.690189
101448.662853
101423.04975
101478.265982
101775.488534
101226.866289
101005.641278
100866.449656
100865.403809
100867.473313
100941.991441
101423.164954
101774.252186
101815.143459
101816.643341
101817.205534
101817.619223
101816.059823
101760.946953
101594.219928
101584.866791
101596.337215
101541.924864
101497.776295
101780.546879
101086.37543
100887.950049
100866.339091
100868.097674
100870.932018
101009.264332
101501.900087
101793.597467
101824.608597
101826.072891
101826.535713
101824.764546
101766.238725
101608.550522
101600.204324
101634.426183
101749.865973
101603.022332
101508.432956
101784.1709
100944.976792
100867.862522
100868.475296
100877.071791
100923.32289
101110.621121
101563.471291
101805.919479
101834.618914
101835.833133
101833.842873
101760.367729
101608.690394
101608.164839
101651.209555
101764.395632
101823.218498
101643.460559
101528.885891
101786.08698
100924.512644
100892.796535
100906.400876
100949.241612
101033.031175
101210.797983
101579.461042
101814.180623
101844.782431
101843.11615
101761.79285
101590.76172
101589.39594
101670.609998
101787.387378
101833.534079
101833.805973
101686.640193
101568.298685
101784.315059
100973.168205
100992.050514
101035.643257
101087.96118
101148.911151
101234.781832
101546.230541
101803.405247
101842.215496
101783.898959
101478.309948
101533.00681
101695.714155
101811.258024
101838.23148
101838.070159
101833.329057
101729.178773
101590.16714
101757.267856
101123.002199
101172.558369
101188.176517
101180.973833
101134.068544
101149.262074
101321.123532
101619.3401
101668.596807
101426.082179
101360.338424
101658.046169
101814.427223
101832.474252
101831.512536
101830.1036
101827.36879
101765.901007
101580.587288
101654.212366
101291.302618
101277.570835
101176.353684
101028.237148
100889.684473
100800.206562
100787.967205
100943.228829
101037.223958
100999.880664
101303.100859
101661.822916
101796.556095
101812.317417
101814.238245
101815.102199
101813.712105
101745.693616
101584.506184
101583.986942
101311.957088
101119.598923
100819.475694
100596.201778
100482.392001
100428.949962
100410.611104
100428.464957
100522.748313
100746.571117
101136.211608
101497.231037
101741.119774
101793.735736
101797.755716
101778.525353
101742.990135
101718.449694
101699.538307
101758.384637
101089.247497
100629.699463
100412.552716
100377.999435
100373.586968
100378.097501
100373.028255
100378.215965
100410.161812
100656.060356
101023.213097
101297.577367
101609.345026
101763.667374
101775.9074
101766.849238
101767.022872
101785.354559
101793.498074
101794.598934
100593.059179
100378.422493
100379.905447
100373.636395
100379.970508
100373.221741
100380.004825
100375.911278
100398.33042
100617.891542
100966.950443
101178.483919
101399.542685
101693.863387
101783.868436
101795.716699
101800.103828
101800.410747
101800.537434
101800.796849
100381.001404
100381.830034
100375.453051
100381.785752
100375.083217
100381.90638
100376.536664
100381.919247
100395.949544
100586.368639
100916.816173
101126.919009
101219.948405
101553.803477
101786.739768
101810.05122
101810.378856
101810.442431
101810.322348
101810.546283
100383.775841
100377.934715
100383.528899
100377.224946
100383.762871
100378.331
100383.875903
100380.854126
100396.907732
100557.468792
100857.513349
101089.108615
101152.1458
101380.451561
101752.585489
101821.979033
101822.328707
101822.255461
101822.073993
101822.295829
100380.759701
100385.513952
100379.314835
100385.548545
100380.436289
100385.87914
100382.2418
100385.909492
100399.47062
100544.708875
100804.332701
101042.66895
101146.85222
101251.297135
101622.713151
101822.91918
101835.299187
101835.379666
101835.204289
101835.410359
100387.837407
100382.011191
100387.572063
100382.455454
100387.91258
100384.236051
100387.955924
100386.768091
100412.63878
100555.732419
100779.747427
100993.945037
101140.597549
101241.609792
101429.528273
101729.6924
101833.127138
101846.008861
101849.859791
101850.6817
100384.766352
100389.923099
100384.70396
100389.970739
100386.542834
100390.024024
100388.690733
100393.557243
100458.714803
100600.667463
100790.648029
100974.399292
101135.841905
101279.947237
101405.389378
101547.965955
101721.206858
101794.679541
101821.861419
101870.357797
100391.998727
100387.255985
100392.051619
100388.656006
100392.114541
100391.002882
100406.849087
100460.998976
100572.069447
100708.451162
100855.740752
101015.89192
101181.678393
101369.427996
101450.497697
101479.188247
101503.184574
101485.649899
101479.089809
101835.809125
100390.522949
100394.15456
100391.031662
100394.216402
100395.403023
100435.694306
100514.756978
100635.704085
100774.788677
100910.860113
101050.944893
101214.153963
101389.481584
101446.098803
101444.922446
101312.801115
101010.114665
100817.941346
100708.443321
101554.680805
100396.280893
100393.996022
100396.341627
100405.958302
100474.889577
100599.464564
100751.959796
100913.876119
101071.379069
101226.959756
101400.717878
101510.038755
101507.88556
101357.400138
100936.303063
100576.996449
100378.530889
100345.14512
100318.280942
101247.164845
100396.836251
100398.478517
100413.175712
100506.352088
100686.222994
100885.391173
101082.729379
101266.149283
101429.889402
101589.533738
101590.039079
101571.978925
101064.359955
100560.699059
100330.98667
100276.044728
100276.927103
100276.098634
100285.920765
101032.466193
100400.975588
100422.712761
100518.717365
100739.184191
101003.407704
101244.47633
101452.766982
101604.458141
101686.422291
101683.669601
101593.385031
100834.177005
100374.292018
100280.771371
100276.937227
100278.406317
100276.766478
100278.410778
100406.100234
100838.252184
100455.902711
100533.423553
100743.248968
101064.979626
101371.522778
101597.298114
101700.386234
101712.240864
101708.552279
101659.383735
100979.738949
100403.313095
100315.898781
100279.286864
100279.933161
100279.173114
100279.930303
100303.29492
100661.445449
100795.682935
100614.172341
100755.865482
101052.684623
101412.955121
101676.736582
101725.064453
101722.592936
101721.198624
101711.226413
101336.913631
100734.637079
100497.969976
100418.325234
100364.318481
100335.605074
100326.598303
100329.209734
100437.053384
100921.514759
100814.877177
100876.055323
101054.743152
101376.215663
101691.520294
101733.343867
101731.609752
101731.878717
101727.196748
101593.970009
101197.858981
100916.777088
100778.254898
100671.925379
100588.92789
100535.831094
100516.403006
100521.815054
100687.964343
101139.042476
100882.099351
101186.738793
101323.463874
101539.420243
101736.886899
101736.474897
101738.431083
101734.943984
101586.823577
101379.01469
101326.677181
101285.14551
101171.868424
101048.919157
100964.434666
100912.411053
100892.704808
100899.009906
101037.090146
101374.453718
100957.799404
101324.294152
101357.376009
101507.37042
101691.878759
101718.281195
101660.190381
101370.351452
101046.967092
101116.060416
101380.489154
101567.200006
101603.206894
101533.031219
101461.032898
101418.463485
101400.61916
101400.582639
101462.197701
101654.926971
100958.292805
)
;

boundaryField
{
    emptyPatch
    {
        type            empty;
    }
    minY
    {
        type            zeroGradient;
    }
    maxY
    {
        type            prghTotalPressure;
        U               U.gas;
        p0              uniform 100000;
        value           nonuniform List<scalar> 
40
(
100467.770695
100516.023162
100572.513953
100604.873641
100668.76144
100830.275399
101043.402961
101245.457475
101417.727238
101555.220044
101634.116372
101636.963637
101606.582654
101517.375076
101393.491973
101341.136166
101351.380089
101377.398239
101375.334859
101353.885583
101317.450434
101350.664903
101500.546913
101684.490444
101710.091091
101652.699878
101364.263202
101039.463974
101107.855554
101373.62405
101561.785067
101598.803576
101529.150409
101457.411003
101414.991298
101397.190428
101397.097978
101458.951675
101652.674763
100953.579198
)
;
    }
    water_to_cooler
    {
        type            fixedFluxPressure;
        gradient        uniform 0;
        value           nonuniform List<scalar> 
38
(
101740.119799
101745.660203
101750.655638
101755.215805
101759.409542
101760.055809
101758.841086
101757.816406
101757.985685
101760.141957
101764.439203
101769.900205
101775.488534
101780.546879
101784.1709
101786.08698
101784.315059
101757.267856
101654.212366
101583.986942
101758.384637
101794.598934
101800.796849
101810.546283
101822.295829
101835.410359
101850.6817
101870.357797
101835.809125
101554.680805
101247.164845
101032.466193
100838.252184
100795.682935
100814.877177
100882.099351
100957.799404
100958.292805
)
;
    }
    water_to_heater
    {
        type            fixedFluxPressure;
        gradient        uniform 0;
        value           nonuniform List<scalar> 
59
(
100713.236421
100713.236421
100771.770129
100846.062885
100917.799995
100917.799995
100927.106381
100927.106381
100834.626519
100834.626519
100650.881616
100499.023756
100459.06086
100459.06086
100461.603436
100461.603436
100462.38844
100462.38844
100465.417706
100472.912536
100514.729345
100514.729345
100605.182786
100605.182786
100735.085734
100735.085734
100871.544543
100918.102714
100888.331357
100888.331357
100746.277761
100746.277761
100475.967299
100475.967299
100322.066044
100285.800886
100283.935324
100283.935324
100285.095454
100285.095454
100289.755298
100289.755298
100316.943269
100380.748363
100479.81966
100479.81966
100571.006151
100571.006151
100618.641407
100618.641407
100616.39464
100611.263821
100554.227207
100554.227207
100490.614477
100490.614477
100470.245392
100470.245392
100468.539016
)
;
    }
    procBoundary0to1
    {
        type            processor;
        value           nonuniform List<scalar> 
41
(
100667.538154
100756.217541
100794.331128
100841.660639
100919.737643
101024.062285
101104.283554
101096.559534
101000.496425
100806.214088
100664.217005
100619.95918
100617.930958
100633.781501
100693.002257
100808.423061
100982.896854
101209.026369
101404.447001
101421.01644
100979.096881
101057.785494
101044.227328
101055.833583
101258.500139
101551.627384
101707.815633
101738.136998
101739.24662
101738.985383
101738.544139
101699.428409
101381.260731
101125.486639
101521.197534
101733.872195
101369.911088
101068.860435
100895.901642
100898.146424
100898.146424
)
;
    }
}


// ************************************************************************* //
