/*--------------------------------*- C++ -*----------------------------------*\
| =========                 |                                                 |
| \\      /  F ield         | OpenFOAM: The Open Source CFD Toolbox           |
|  \\    /   O peration     | Version:  2312                                  |
|   \\  /    A nd           | Website:  www.openfoam.com                      |
|    \\/     M anipulation  |                                                 |
\*---------------------------------------------------------------------------*/
FoamFile
{
    version     2.0;
    format      ascii;
    arch        "LSB;label=32;scalar=64";
    class       volScalarField;
    location    "0.85/water";
    object      T.gas;
}
// * * * * * * * * * * * * * * * * * * * * * * * * * * * * * * * * * * * * * //

dimensions      [0 0 0 1 0 0 0];

internalField   nonuniform List<scalar> 
1503
(
354.997876848
323.87165299
310.36838148
304.271073656
301.791272626
300.384083122
300.017426172
300.000107544
300.000000081
300
300
300
300
300
300
300
300
300
300
300
398.148299172
335.315429229
312.208315869
304.340016548
301.556540527
300.561567935
300.184260204
300.022192373
300.000425706
300.000000537
300
300
300
300
300
300
300
300
300
300
402.232292735
335.573964566
311.481566166
303.704633034
301.196086775
300.391465703
300.128931697
300.034187118
300.002808345
300.000027486
300.00000001
300
300
300
300
300
300
300
300
300
401.145399452
337.148496697
312.386056801
303.94073946
301.220887036
300.37413977
300.114321171
300.034381831
300.006314094
300.000240444
300.000000813
300
300
300
300
300
300
300
300
300
398.152315817
337.44524381
313.191854482
304.34899227
301.371687938
300.422218493
300.127769386
300.037931653
300.010937402
300.001108997
300.000014356
300.000000004
300
300
300
300
300
300
300
300
393.957547961
336.62968808
313.469455659
304.62927367
301.508032786
300.477081582
300.14882055
300.045485822
300.013637385
300.002949768
300.000113763
300.000000569
300
300
300
300
300
300
300
300
390.328879029
335.118060474
313.134677486
304.657064618
301.560528052
300.506252947
300.162707696
300.051638213
300.016017063
300.004977488
300.000565109
300.000006295
300.000000001
300
300
300
300
300
300
300
388.241754988
333.57665596
312.464554498
304.453405937
301.519173894
300.50242848
300.165379263
300.05409857
300.017114767
300.005401669
300.001392435
300.000047859
300.000000038
300
300
300
300
300
300
300
386.23782756
332.488045457
311.99386528
304.282481474
301.469873223
300.490933272
300.164456577
300.055171296
300.01763904
300.005430974
300.001775192
300.000200266
300.000000907
300
300
300
300
300
300
300
383.853900801
331.451646883
311.560180526
304.116924734
301.412667645
300.474603692
300.161631521
300.056071872
300.018377206
300.005474374
300.001681007
300.000431043
300.000009469
300.000000003
300
300
300
300
300
300
382.382324644
330.758630389
311.195561413
303.954443576
301.352953998
300.45782188
300.159539433
300.057821013
300.019873195
300.005852373
300.001645555
300.000521322
300.000045389
300.000000123
300
300
300
300
300
300
384.173875625
331.261475395
311.200876997
303.911025047
301.339041977
300.460680361
300.165975463
300.063026333
300.022912629
300.00686107
300.001781797
300.000497046
300.000119398
300.000002177
300.000000001
300
300
300
300
300
391.290073075
333.709269023
311.824529807
304.072884014
301.400246704
300.492515473
300.183641859
300.072599155
300.027750279
300.008648533
300.002146197
300.000530313
300.000154158
300.000015211
300.000000048
300
300
300
300
300
394.117138771
335.413732066
312.671579873
304.387735958
301.512446027
300.538702269
300.205911626
300.084199544
300.033606363
300.011015325
300.002726109
300.000619559
300.000160048
300.000047372
300.000001267
300.000000001
300
300
300
300
394.854421715
336.088638627
313.113161402
304.595126728
301.593502772
300.573286898
300.223710603
300.094080417
300.039030095
300.0134576
300.003421245
300.000744769
300.000175408
300.000052719
300.000007092
300.00000003
300
300
300
300
395.208173453
336.076389938
313.147374127
304.636414025
301.619296424
300.589432524
300.234961426
300.101541122
300.043272673
300.015561133
300.004115066
300.000887742
300.000194865
300.000052849
300.000016797
300.00000045
300
300
300
300
395.334940829
335.571421355
312.800802529
304.500129728
301.580421896
300.584180206
300.238552693
300.105835059
300.046211894
300.017176937
300.004732872
300.001031383
300.000215065
300.000052873
300.000017511
300.000001668
300.000000003
300
300
300
395.404222449
334.447939402
312.002640194
304.146556737
301.460239937
300.55166922
300.232647285
300.106249636
300.047553116
300.018249339
300.005227765
300.001154704
300.000231595
300.000051979
300.000015473
300.000002934
300.000000021
300
300
300
395.178077853
333.732206789
311.431321376
303.839600068
301.336364786
300.51159074
300.221921884
300.104036488
300.047831639
300.018937777
300.005631689
300.001254261
300.000242267
300.000050023
300.000013292
300.000003381
300.000000055
300
300
300
394.91471421
333.529624174
311.237121441
303.708493504
301.269370694
300.485017607
300.213022493
300.101796851
300.047931426
300.019568905
300.006048968
300.001353204
300.000250023
300.000047401
300.000011157
300.00000317
300.000000083
300
300
300
394.604510514
333.733636608
311.359139243
303.748523785
301.273266981
300.481580982
300.210787274
300.101780503
300.048991494
300.020836697
300.006686832
300.001497281
300.000261798
300.000044834
300.000009008
300.000002266
300.000000071
300
300
300
394.10341499
333.918185557
311.51586663
303.836296365
301.307358316
300.48994429
300.212666173
300.103532459
300.051101433
300.022557516
300.007577605
300.001706955
300.000282874
300.000043157
300.000007051
300.000001153
300
300
300
300
391.770861477
333.224586424
311.348574399
303.801466098
301.290746542
300.47945872
300.208499551
300.103743682
300.053105406
300.024566467
300.008658545
300.001950648
300.000308901
300.000043145
300.000005725
300.000000415
300
300
300
300
387.782991034
332.404940895
311.264432333
303.726140048
301.223791164
300.44499065
300.197955166
300.103605918
300.055880384
300.027180927
300.009982974
300.00225722
300.000342329
300.000045138
300.000005276
300.000000102
300
300
300
300
385.317192543
331.857197485
311.14313555
303.627157475
301.144363882
300.410304566
300.19158433
300.106992505
300.060858679
300.030940163
300.011802401
300.002690377
300.000399764
300.000051897
300.000006005
300.000000071
300
300
300
300
385.546376192
332.002613445
311.283869762
303.655256641
301.136745954
300.410156527
300.199629938
300.11671575
300.069017404
300.03646821
300.0144282
300.003364727
300.00050988
300.000068336
300.000008112
300.000000245
300
300
300
300
389.006690916
333.216058807
311.715066896
303.85284427
301.237465772
300.456988636
300.224167296
300.132767202
300.080382904
300.043962959
300.018117052
300.004451422
300.000701771
300.000100372
300.000012873
300.000000731
300
300
300
300
394.814696248
335.017445872
312.245749818
304.118309361
301.389801155
300.530823248
300.259206415
300.152792942
300.093845893
300.052915702
300.022860809
300.006048193
300.001031728
300.000154186
300.000021363
300.000001797
300
300
300
300
400.699555813
337.388537039
313.198648182
304.532949893
301.580933895
300.616037701
300.297991505
300.17388923
300.107788271
300.062281053
300.028300733
300.008117496
300.001519974
300.000243472
300.000035359
300.000003768
300
300
300
300
406.298744975
339.911819757
314.311211162
305.012159932
301.783251221
300.70039862
300.33521446
300.193711583
300.12069256
300.070759378
300.033662043
300.010457794
300.002130105
300.000367013
300.000055423
300.000006554
300
300
300
300
408.404978491
341.533211968
315.178869753
305.401104058
301.948845263
300.770292719
300.366674282
300.210651605
300.131252013
300.077297183
300.037863265
300.012618158
300.002758917
300.000501751
300.000078276
300.000009758
300.000000492
300
300
300
409.091576667
341.886717963
315.421526092
305.550546296
302.031340819
300.812936909
300.388878873
300.223195205
300.138289678
300.081335571
300.040364933
300.014073598
300.003263046
300.000615705
300.000097251
300.000012571
300.000000966
300
300
300
409.351396983
341.265136949
315.002787563
305.413944013
302.008952925
300.820347285
300.398849107
300.229978311
300.141116893
300.082557547
300.041014498
300.01461006
300.003529242
300.000683441
300.000107656
300.00001415
300.000001162
300
300
300
409.549680124
340.969640141
314.707712535
305.25337147
301.952229122
300.809090395
300.399910637
300.231312785
300.140242053
300.081240993
300.040068309
300.014398496
300.003557148
300.000698408
300.000109701
300.000014017
300.000000909
300
300
300
409.468952363
340.915811227
314.582144235
305.151720168
301.903192194
300.794068699
300.396437372
300.227860161
300.136566428
300.078067018
300.038149257
300.0137331
300.003465083
300.000672087
300.000109354
300.000013732
300.000000497
300
300
300
409.844103753
340.899963755
314.522680062
305.108257882
301.880059405
300.785479586
300.39189504
300.221351689
300.130935437
300.073863146
300.035812093
300.013036114
300.003352224
300.000644792
300.000109756
300.000013718
300.00000011
300
300
300
410.038547111
340.605773699
314.333130579
305.047358493
301.865464812
300.780922538
300.384949079
300.213659056
300.124336224
300.069377415
300.033750329
300.012554951
300.003339153
300.000659999
300.000116061
300.000014251
300
300
300
300
410.627915801
339.814125753
313.843888603
304.864888012
301.810485293
300.761869809
300.370764778
300.203444941
300.116991154
300.065314969
300.032257657
300.012571844
300.003453345
300.000722083
300.000125853
300.00001483
300
300
300
300
300
300
300
300
300
300
300
300
300
300
300
300
300
300
300
300
300
300
300
300
300
300
300
300
300
300
300
300
300
300
300
300
300
300
300
300
300
300
300
300
300
300
300
300
300
300
300
300
300
300
300
300
300
300
300
300
300
300
300
300
300
300
300
300
300
300
300
300
300
300
300
300
300
300
300
300
300
300
300
300
300
300
300
300
300
300
300
300
300
300
300
300
300
300
300
300
300
300
300
300
300
300
300
300
300
300
300
300
300
300
300
300
300
300
300
300
300
300
300
300
300
300
300
300
300
300
300
300
300
300
300
300
300
300
300
300
300
300
300
300
300
300
300
300
300
300
300
300
300
300
300
300
300
300
300
300
300
300
300
300
300
300
300
300
300
300
300
300
300
300
300
300
300
300
300
300
300
300
300
300
300
300
300
300
300
300
300
300
300
300
300
300
300
300
300
300
300
300
300
300
300
300
300
300
300
300
300
300
300
300
300
300
300
300
300
300
300
300
300
300
300
300
300
300
300
300
300
300
300
300
300
300
300
300
300
300
300
300
300
300
300
300
300
300
300
300
300
300
300
300
300
300
300
300
300
300
300
300
300
300
300
300
300
300
300
300
300
300
300
300
300
300
300
300
300
300
300
300
300
300
300
300
300
300
300
300
300
300
300
300
300
300
300
300
300
300
300
300
300
300
300
300
300
300
300
300
300
300
300
300
300
300
300
300
300
300
300
300
300
300
300
300
300
300
300
300
300
300
300
300
300
300
300
300
300
300
300
300
300
300
300
300
300
300
300
300
300
300
300
300
300
300
300
300
300
300
300
300
300
300
300
300
300
300
300
300
300
300
300
300
300
300
300
300
300
300
300
300
300
300
300
300
300
300
300
300
300
300
300
300
300
300
300
300
300
300
300
300
300
300
300
300
300
300
300
300
300
300
300
300
300
300
300
300
300
300
300
300
300
300
300
300
300
300
300
300
300
300
300
300
300
300
300
300
300
300
300
300
300
300
300
300
300
300
300
300
300
300
300
300
300
300
300
300
300
300
300
300
300
300
300
300
300
300
300
300
300
300
300
300
300
300
300
300
300
300
300
300
300
300
300
300
300
300
300
300
300
300
300
300
300
300
300
300
300
300
300
300
300
300
300
300
300
300
300
300
300
300
300
300
300
300
300
300
300
300
300
300
300
300
300
300
300
300
300
300
300
300
300
300
300
300
300
300
300
300
300
300
300
300
300
300
300
300
300
300
300
300
300
300
300
300
300
300
300
300
300
300
300
300
300
300
300
300
300
300
300
300
300
300
300
300
300
300
300
300
300
300
300
300
300
300
300
300
300
300
300
300
300
300
300
300
300
300
300
300
300
300
300
300
300
300
300
300
300
300
300
300
300
300
300
300
300
300
300
300
300
300
300
300
300.000000001
300
300
300
300
300
300
300
300
300
300
300
300
300
300
300
300
300
300
300
300.000000009
300
300
300
300
300
300
300
300
300
300
300
300
300
300
300
300
300
300
300
300.000000012
300
300
300
300
300
300
300
300
300
300
300
300
300
300
300
300
300
300
300
300
300
300
300
300
300
300
300
300
300
300
300
300
300
300
300
300
300
300
300
300
300
300
300
300
300
300
300
300
300
300
300
300
300
300
300
300
300
300
300
300
300
300
300
300
300
300
300
300
300
300
300
300
300
300
300
300
300
300
300
300
300
300
)
;

boundaryField
{
    emptyPatch
    {
        type            empty;
    }
    minY
    {
        type            fixedValue;
        value           uniform 300;
    }
    maxY
    {
        type            inletOutlet;
        inletValue      nonuniform List<scalar> 0();
        value           nonuniform List<scalar> 0();
    }
    water_to_cooler
    {
        type            copiedFixedValue;
        sourceFieldName T.liquid;
        value           nonuniform List<scalar> 
37
(
300
300
300
300
300
300
300
300
300
300
300
300
300
300
300
300
300
300
300
300
300
300
300
300
300
300
300
300
300
300
300
300
300
300
300
300
300
)
;
    }
    water_to_heater
    {
        type            copiedFixedValue;
        sourceFieldName T.liquid;
        value           nonuniform List<scalar> 
61
(
787.405479109
787.357163131
787.088798282
787.089180262
786.955852785
786.955650329
786.886011849
786.886597064
786.865338474
786.866778941
786.86102627
786.861567357
786.859026956
786.860100511
786.856875783
786.85858369
786.850272093
786.848499251
786.833566485
786.828056833
786.811804772
786.810829014
786.794991851
786.795292127
786.779550963
786.779940625
786.766016933
786.76570625
786.754140951
786.754447088
786.746156279
786.745914129
786.740529005
786.740402321
786.73571224
786.736376468
786.732284494
786.734693271
786.731773659
786.733209693
786.729964278
786.727514517
786.725353147
786.722732464
786.721435875
786.720572663
786.721030557
786.721785305
786.724286688
786.724513988
786.727229606
786.727277097
786.732309272
786.73257885
786.742550302
786.742309981
786.759642141
786.759430047
786.785625349
786.785988352
786.825583832
)
;
    }
    procBoundary2to3
    {
        type            processor;
        value           nonuniform List<scalar> 
41
(
411.082813371
339.838597621
313.748024846
304.76695191
301.751540734
300.729643454
300.351393213
300.190829061
300.109871849
300.062202462
300.031848412
300.013052614
300.003798951
300.00079901
300.000131295
300.000013894
300
300
300
300
300
300
300
300
300
300
300
300
300
300
300
300
300
300
300
300
300
300
300
300
300
)
;
    }
}


// ************************************************************************* //
