/*--------------------------------*- C++ -*----------------------------------*\
| =========                 |                                                 |
| \\      /  F ield         | OpenFOAM: The Open Source CFD Toolbox           |
|  \\    /   O peration     | Version:  2312                                  |
|   \\  /    A nd           | Website:  www.openfoam.com                      |
|    \\/     M anipulation  |                                                 |
\*---------------------------------------------------------------------------*/
FoamFile
{
    version     2.0;
    format      ascii;
    arch        "LSB;label=32;scalar=64";
    class       volScalarField;
    location    "0.84/water";
    object      T.gas;
}
// * * * * * * * * * * * * * * * * * * * * * * * * * * * * * * * * * * * * * //

dimensions      [0 0 0 1 0 0 0];

internalField   nonuniform List<scalar> 
1503
(
355.166844539
323.85256431
310.331072269
304.246504887
301.779385766
300.384452048
300.017535934
300.000105892
300.000000073
300
300
300
300
300
300
300
300
300
300
300
398.731909882
335.400191686
312.179201523
304.315477864
301.54517959
300.558705838
300.18434836
300.021901076
300.000397552
300.000000462
300
300
300
300
300
300
300
300
300
300
402.211721787
335.560965747
311.461819063
303.691698352
301.190331007
300.390553679
300.129637507
300.034270716
300.002722673
300.000025341
300.000000009
300
300
300
300
300
300
300
300
300
401.034933744
337.077067291
312.356107599
303.928960723
301.216037444
300.373119859
300.114690385
300.034744073
300.006267125
300.000232672
300.00000074
300
300
300
300
300
300
300
300
300
397.646120892
337.194969168
313.082074535
304.312011892
301.359716291
300.418616419
300.126959335
300.037815497
300.010853068
300.001078433
300.000014042
300.000000004
300
300
300
300
300
300
300
300
392.983022361
336.074181791
313.166287608
304.493399411
301.455971357
300.458925069
300.142828294
300.043525846
300.012934313
300.0027082
300.000103697
300.0000005
300
300
300
300
300
300
300
300
391.043668337
335.229040267
312.96546914
304.506302148
301.484522131
300.475994523
300.15197112
300.047958971
300.014705061
300.004465115
300.000484721
300.000005667
300.000000001
300
300
300
300
300
300
300
390.33196083
334.526765748
312.632970618
304.408061731
301.467394066
300.476693325
300.155713607
300.050900168
300.016027721
300.004972569
300.001254546
300.000043898
300.000000037
300
300
300
300
300
300
300
390.13600207
334.409990558
312.629080883
304.423495803
301.484275483
300.487363658
300.162333689
300.054816679
300.017688358
300.005421633
300.001733798
300.000218203
300.000001263
300
300
300
300
300
300
300
390.123516852
334.510035448
312.727943088
304.49920883
301.529427192
300.511342596
300.174262639
300.06077455
300.020146287
300.006067806
300.001847653
300.000566262
300.000020729
300.000000017
300
300
300
300
300
300
390.28419619
334.437445117
312.706751003
304.530225447
301.567706741
300.538201436
300.189174286
300.068308816
300.02338731
300.006972579
300.00199463
300.000642612
300.00010324
300.00000074
300
300
300
300
300
300
390.388809678
333.994908842
312.422798118
304.437010517
301.557856867
300.549961449
300.200880334
300.07550634
300.026949192
300.008095812
300.002190208
300.000648014
300.00022638
300.000009895
300.000000008
300
300
300
300
300
390.529292814
333.049034394
311.786541015
304.169494752
301.478020515
300.535858343
300.203128176
300.079765031
300.029867202
300.009281097
300.00241579
300.000652812
300.00021893
300.000034254
300.000000176
300
300
300
300
300
390.47203645
332.447551233
311.325650396
303.925774038
301.381167266
300.506944227
300.197981227
300.080937276
300.031782851
300.010324963
300.002649772
300.000656694
300.00019811
300.000060125
300.000001259
300
300
300
300
300
390.359451856
332.237446957
311.092378602
303.771493247
301.303281646
300.477198574
300.189958625
300.080356589
300.032962196
300.01121433
300.002880875
300.000660682
300.000177167
300.000065075
300.000003721
300.000000003
300
300
300
300
390.094535127
332.346312626
311.057135045
303.711283895
301.261119477
300.456817062
300.183206962
300.079745502
300.034088057
300.012156391
300.00315885
300.000672656
300.000157398
300.000049937
300.000005903
300.000000017
300
300
300
300
388.94952574
332.171096851
310.988263817
303.660676233
301.224903378
300.438387527
300.177620835
300.079953542
300.035785283
300.013462649
300.003582852
300.000710572
300.000141062
300.000035632
300.000007316
300.000000075
300
300
300
300
387.199696387
331.639605939
310.733962453
303.51717055
301.156106435
300.413339808
300.172669425
300.081725293
300.038663847
300.015469405
300.004302118
300.000816251
300.000138328
300.000027222
300.000006372
300.000000235
300
300
300
300
387.602648756
332.270048344
311.028851975
303.549527087
301.138872985
300.406815827
300.175807238
300.087369258
300.043490079
300.01843338
300.005417324
300.001042397
300.000165046
300.000027716
300.000005196
300.000000467
300
300
300
300
393.097596352
334.925091045
312.152902716
303.958442639
301.265523448
300.448227799
300.194486452
300.09850719
300.050505138
300.022307516
300.006910093
300.001390469
300.000229347
300.000037146
300.00000638
300.000000795
300
300
300
300
396.960152932
337.025049902
313.337756659
304.533529127
301.494465003
300.530286426
300.226424088
300.11395516
300.059052713
300.026762085
300.008665348
300.001838944
300.000312851
300.000051566
300.000008588
300.000001116
300
300
300
300
397.95293727
337.720488543
313.852111167
304.868447253
301.670010701
300.605852064
300.25845846
300.129665344
300.067940574
300.031367855
300.010439053
300.002333293
300.000412378
300.000069401
300.000011278
300.00000148
300
300
300
300
398.307302088
337.34546254
313.691959134
304.868243163
301.713746389
300.640490547
300.279063481
300.142278099
300.076080057
300.035707172
300.012153004
300.002794412
300.000514928
300.000087898
300.000014044
300.000001786
300
300
300
300
398.268921453
336.944304071
313.445120471
304.765035331
301.691563086
300.646463824
300.289745588
300.151667762
300.08263488
300.039486048
300.013672168
300.003223117
300.00060549
300.000104819
300.000016667
300.000002066
300
300
300
300
398.321680013
336.512480984
313.143117993
304.618605938
301.639548195
300.637431873
300.294230907
300.158171018
300.08694213
300.042230951
300.01494978
300.003588581
300.000680982
300.000118275
300.000019011
300.000002392
300
300
300
300
398.172680688
336.106582803
312.823036706
304.472423727
301.588279705
300.626495487
300.296201316
300.161604818
300.089450745
300.043988377
300.016059165
300.003912637
300.000743219
300.000128038
300.000021076
300.000002777
300
300
300
300
398.117377223
335.630809796
312.482477836
304.331737352
301.546779278
300.619349835
300.297556553
300.162243789
300.090120767
300.044785309
300.016794005
300.004227785
300.000786819
300.000137998
300.00002305
300.000003088
300
300
300
300
397.814972721
334.817142751
311.968647486
304.12393828
301.485892361
300.606537946
300.295128931
300.160665383
300.089164277
300.044503815
300.017161744
300.004421989
300.000815684
300.00014667
300.000023705
300.000003035
300
300
300
300
397.591678419
334.476195576
311.742320395
304.001062366
301.439573608
300.592169461
300.28841739
300.15694801
300.086774667
300.043549801
300.017122387
300.004559247
300.000900247
300.00015236
300.000022137
300.000002625
300
300
300
300
397.392002262
334.587987438
311.821472341
304.012201078
301.428880102
300.581930822
300.280099341
300.151409307
300.083620683
300.042246994
300.017150881
300.004794406
300.000973576
300.000153939
300.000019377
300.000001652
300
300
300
300
396.923812876
334.839741479
311.980824934
304.06905723
301.43177553
300.571237444
300.270466867
300.14528587
300.080550445
300.041589272
300.017657591
300.005455348
300.001066397
300.000153647
300.00001657
300.00000043
300
300
300
300
393.54761011
334.034227154
311.763133024
303.983947789
301.37358483
300.534760649
300.252474043
300.138227075
300.079022551
300.042724991
300.019407833
300.00623944
300.00119551
300.000154453
300.000014897
300
300
300
300
300
388.363186501
332.238228616
311.070961082
303.627144375
301.183404665
300.450731432
300.2225957
300.130360607
300.079069892
300.045205307
300.021785105
300.007319504
300.001369371
300.000159334
300.000014218
300
300
300
300
300
384.863451602
331.624352293
310.803794007
303.32846399
300.980528436
300.367309503
300.202126711
300.130241932
300.084158267
300.050763415
300.025919809
300.009135072
300.001676705
300.000176623
300.000015843
300
300
300
300
300
384.939104651
332.138787802
311.166171806
303.430952031
300.98506406
300.356366332
300.20968894
300.142896777
300.096595363
300.060749379
300.032676107
300.012314289
300.002383209
300.000248502
300.000024252
300.000001259
300
300
300
300
389.669949011
333.746300911
311.841217786
303.90671874
301.263744011
300.462250006
300.246256251
300.166134895
300.114659395
300.074642057
300.042195667
300.017242313
300.003774495
300.000445811
300.000048476
300.000004642
300
300
300
300
396.99829618
336.046039882
312.878293253
304.448539673
301.573512117
300.620384077
300.310517449
300.197975225
300.136323368
300.090828399
300.053494136
300.023633469
300.005957053
300.000841273
300.00010329
300.000011824
300
300
300
300
400.620658539
337.887311187
313.692539916
304.881602723
301.797832143
300.746151738
300.373534571
300.230952826
300.157813176
300.106668127
300.064950685
300.030629576
300.008742808
300.001456279
300.000201835
300.000025532
300.000001626
300
300
300
300
300
300
300
300
300
300
300
300
300
300
300
300
300
300
300
300
300
300
300
300
300
300
300
300
300
300
300
300
300
300
300
300
300
300
300
300
300
300
300
300
300
300
300
300
300
300
300
300
300
300
300
300
300
300
300
300
300
300
300
300
300
300
300
300
300
300
300
300
300
300
300
300
300
300
300
300
300
300
300
300
300
300
300
300
300
300
300
300
300
300
300
300
300
300
300
300
300
300
300
300
300
300
300
300
300
300
300
300
300
300
300
300
300
300
300
300
300
300
300
300
300
300
300
300
300
300
300
300
300
300
300
300
300
300
300
300
300
300
300
300
300
300
300
300
300
300
300
300
300
300
300
300
300
300
300
300
300
300
300
300
300
300
300
300
300
300
300
300
300
300
300
300
300
300
300
300
300
300
300
300
300
300
300
300
300
300
300
300
300
300
300
300
300
300
300
300
300
300
300
300
300
300
300
300
300
300
300
300
300
300
300
300
300
300
300
300
300
300
300
300
300
300
300
300
300
300
300
300
300
300
300
300
300
300
300
300
300
300
300
300
300
300
300
300
300
300
300
300
300
300
300
300
300
300
300
300
300
300
300
300
300
300
300
300
300
300
300
300
300
300
300
300
300
300
300
300
300
300
300
300
300
300
300
300
300
300
300
300
300
300
300
300
300
300
300
300
300
300
300
300
300
300
300
300
300
300
300
300
300
300
300
300
300
300
300
300
300
300
300
300
300
300
300
300
300
300
300
300
300
300
300
300
300
300
300
300
300
300
300
300
300
300
300
300
300
300
300
300
300
300
300
300
300
300
300
300
300
300
300
300
300
300
300
300
300
300
300
300
300
300
300
300
300
300
300
300
300
300
300
300
300
300
300
300
300
300
300
300
300
300
300
300
300
300
300
300
300
300
300
300
300
300
300
300
300
300
300
300
300
300
300
300
300
300
300
300
300
300
300
300
300
300
300
300
300
300
300
300
300
300
300
300
300
300
300
300
300
300
300
300
300
300
300
300
300
300
300
300
300
300
300
300
300
300
300
300
300
300
300
300
300
300
300
300
300
300
300
300
300
300
300
300
300
300
300
300
300
300
300
300
300
300
300
300
300
300
300
300
300
300
300
300
300
300
300
300
300
300
300
300
300
300
300
300
300
300
300
300
300
300
300
300
300
300
300
300
300
300
300
300
300
300
300
300
300
300
300
300
300
300
300
300
300
300
300
300
300
300
300
300
300
300
300
300
300
300
300
300
300
300
300
300
300
300
300
300
300
300
300
300
300
300
300
300
300
300
300
300
300
300
300
300
300
300
300
300
300
300
300
300
300
300
300
300
300
300
300
300
300
300
300
300
300
300
300
300
300
300
300
300
300
300
300
300
300
300
300
300
300
300
300
300
300
300
300
300
300
300
300
300
300
300
300
300
300
300
300
300
300
300
300
300
300
300
300
300
300
300
300
300
300
300
300
300
300
300
300
300
300
300
300
300
300
300
300
300
300
300
300
300
300
300
300
300
300
300
300
300
300
300
300
300
300
300
300
300
300
300
300
300
300
300
300
300
300
300
300
300
300
300
300
300
300
300
300
300
300
300
300
300
300
300
300
300
300
300
300
300
300
300
300
300
300
300
300
300
300
300
300
300
300
300
300
300
300
300
300
300
300
300
300
300
300
300
300
300
300
300
300
300
300
300
)
;

boundaryField
{
    emptyPatch
    {
        type            empty;
    }
    minY
    {
        type            fixedValue;
        value           uniform 300;
    }
    maxY
    {
        type            inletOutlet;
        inletValue      nonuniform List<scalar> 0();
        value           nonuniform List<scalar> 0();
    }
    maxX
    {
        type            fixedValue;
        value           uniform 300;
    }
    water_to_heater
    {
        type            copiedFixedValue;
        sourceFieldName T.liquid;
        value           nonuniform List<scalar> 
61
(
787.541285246
787.492843271
787.22477585
787.225443506
787.092634421
787.092414793
787.023468478
787.024240109
787.00366902
787.003570859
786.997279287
786.997210459
786.994411965
786.994143655
786.991252758
786.991483717
786.98394122
786.984359582
786.971460238
786.97109932
786.955007513
786.95538932
786.938982174
786.938814421
786.922890115
786.923059955
786.908369503
786.909252742
786.896528398
786.896028299
786.886765404
786.883439616
786.876295308
786.876694285
786.872295018
786.872031254
786.86865102
786.868981487
786.867326504
786.867010074
786.866582762
786.866275741
786.86508214
786.865325176
786.864294951
786.864080193
786.864834184
786.864982179
786.867053081
786.86796028
786.870182162
786.872691015
786.876635171
786.878586977
786.887466955
786.886599085
786.899634811
786.897262888
786.923975184
786.924156524
786.964700771
)
;
    }
    procBoundary2to3
    {
        type            processor;
        value           nonuniform List<scalar> 
41
(
401.766633492
338.941451286
314.348157596
305.191885913
301.954670103
300.829905384
300.420682445
300.258291312
300.176096916
300.120237732
300.075013378
300.037233076
300.011778916
300.002240315
300.000345932
300.000047255
300.000004608
300
300
300
300
300
300
300
300
300
300
300
300
300
300
300
300
300
300
300
300
300
300
300
300
)
;
    }
}


// ************************************************************************* //
