/*--------------------------------*- C++ -*----------------------------------*\
| =========                 |                                                 |
| \\      /  F ield         | OpenFOAM: The Open Source CFD Toolbox           |
|  \\    /   O peration     | Version:  2312                                  |
|   \\  /    A nd           | Website:  www.openfoam.com                      |
|    \\/     M anipulation  |                                                 |
\*---------------------------------------------------------------------------*/
FoamFile
{
    version     2.0;
    format      ascii;
    arch        "LSB;label=32;scalar=64";
    class       volScalarField;
    location    "0.65/water";
    object      epsilonm;
}
// * * * * * * * * * * * * * * * * * * * * * * * * * * * * * * * * * * * * * //

dimensions      [0 2 -3 0 0 0 0];

internalField   nonuniform List<scalar> 
1496
(
2814.07354173
945.989011509
322.394111711
117.321937638
47.9307388706
22.0971852228
11.0446207233
5.80152072354
3.26737992284
2.06291794858
1.4715336719
1.15059824738
0.941220181994
0.77386787356
0.618243318574
0.498070521965
0.420148807263
0.465262163524
0.975702428052
3.68000876763
3559.89968283
1101.49061529
354.042186789
129.90474771
56.2273893846
27.2954546526
13.8150296178
6.89356304946
3.50036555728
1.95384020304
1.24781836243
0.895270725175
0.689229388373
0.542721988537
0.427049126076
0.346293056563
0.327698925407
0.632050511167
2.7053434547
7.89416232057
3938.44452111
1139.78419746
378.751511074
150.760192858
70.5405208585
35.7408949263
18.6479021819
9.09557039439
4.25566671805
2.08416853825
1.14960506642
0.730848694529
0.520768456958
0.398808032593
0.314423021853
0.265244493624
0.347599173969
1.05878907555
5.97116669265
11.2194384608
3441.5812941
1027.70776744
355.780621317
150.553326198
77.4892522827
45.0479864027
25.838544052
12.6473663977
5.55607268109
2.44373540243
1.17348902753
0.658216292625
0.436231678125
0.324632800435
0.254044926439
0.238011125887
0.487008641009
2.11428567809
8.12975461526
11.2996988633
3176.98289279
940.616796882
325.781685761
142.398528038
79.1818079415
51.5763257143
34.3692490168
17.8544655158
7.42316535684
3.00833413499
1.29735080947
0.65589862066
0.405847520459
0.290803829499
0.224870353928
0.23552029346
0.606897310833
2.93986781109
7.02590996006
9.00393959312
3052.08187281
893.841977335
306.392877795
135.841373519
79.7352955781
56.2582469199
41.4753817868
24.8686213967
9.98922384273
3.84410031735
1.53453896931
0.711312206737
0.411091566409
0.282046053152
0.213088305317
0.226544470408
0.587808641486
2.78654947627
5.5276815682
6.46919459326
2985.01098455
864.132621392
293.745464145
131.108457587
79.544010454
59.0829884191
46.4106503892
31.7436089168
13.5102761032
5.12563604036
1.94982131645
0.838695089426
0.450281087331
0.293753518938
0.214406962453
0.209827927571
0.468829950254
1.96072115365
4.09384950992
4.37867140023
2906.3379452
839.087758182
286.578488447
129.232521661
79.6687042331
60.8521372968
49.7608841076
37.0038944401
17.7747462406
7.15419809884
2.66559287958
1.07799181265
0.534937567642
0.328423391986
0.230506352258
0.199441230073
0.344502417991
1.18877340547
2.90930075655
2.9070497259
2780.37822197
809.220271694
284.312479289
130.352914359
80.1787824314
61.4357101474
51.2741847064
40.3029885471
22.3427738536
10.047657833
3.89176932006
1.50046757392
0.689421907716
0.39354351609
0.264536112536
0.206002965383
0.259585877624
0.709010250651
1.87942542979
1.92210117527
2585.48660602
770.410674014
281.860642784
130.193879943
78.6929823854
59.6406701046
50.2201773361
40.9363772921
26.0754930251
12.8934416656
5.47399098794
2.18646225341
0.950324557249
0.501181957949
0.319700655377
0.23343533119
0.223191761788
0.433795208015
1.14743098968
1.27536357329
2406.698659
742.888655463
274.491800954
123.946475483
72.798492018
54.6048023292
46.3555477977
38.8837823273
27.4631742062
14.8666357941
6.89421083349
2.95087004482
1.30221895774
0.660066904089
0.399263973278
0.279596975361
0.227228631078
0.29964760676
0.687142005963
0.83171163276
2309.94159213
746.638239807
272.938819437
116.625028753
64.6586700729
47.4140992648
40.4403725198
34.738365113
26.2790507701
15.6183719353
7.75352359977
3.55479296367
1.63750144183
0.831231342455
0.491103695516
0.335478891666
0.25582333826
0.257331490864
0.43883234816
0.55625314194
2362.60774507
785.189845533
281.151524361
111.109377533
56.2947891602
39.422648021
33.5020878472
29.3059285782
23.1596785968
14.7847650276
7.82608842817
3.82608207929
1.85615369684
0.966675541691
0.573581834835
0.387836325489
0.288986000919
0.255343322927
0.327570036471
0.406234223637
2630.65597836
855.262113994
293.861777228
107.038726552
48.9248749484
31.9447984173
26.6867637426
23.644418773
19.2219307521
12.8085171494
7.21436116295
3.74176781628
1.91172791563
1.03361284495
0.626362373276
0.426185305939
0.316736829292
0.265743964768
0.285693903815
0.333470270295
3153.65564879
955.113255256
311.422880714
108.800225774
45.506399711
26.5645318243
20.9551353803
18.380291035
15.0978917423
10.3941518963
6.17696157072
3.38086513473
1.81798452715
1.02733041313
0.64278510664
0.445739851872
0.334535292724
0.27635479304
0.273239040463
0.301880048619
3697.86710691
1078.40485948
342.036589726
116.890510512
45.537540761
23.4772823566
16.7691090633
14.0646239354
11.4365790308
8.06662014791
4.99787912518
2.87040364316
1.6250302116
0.965187390387
0.628321395392
0.447214002921
0.34157895103
0.283377339916
0.270767545789
0.290658324101
4013.57917834
1172.50792157
372.719483128
126.360443912
47.117823021
21.8568761193
13.8830513828
10.8499590069
8.58675504102
6.11414978606
3.9038443384
2.33971989737
1.39475444032
0.873651053012
0.593381097114
0.434825306834
0.339904348345
0.28692812426
0.27232917381
0.289153755505
4148.80752274
1224.8678987
393.599161384
133.805829047
48.8723153092
21.0360734536
11.9532747553
8.56971671947
6.50211640064
4.61304979613
3.00945430749
1.87611636243
1.1771886296
0.776791683883
0.548794151738
0.414586878213
0.333366650134
0.289058989681
0.277129887829
0.293126560309
4290.00476034
1267.61107526
408.963430303
139.333936849
50.4101650775
20.6612745489
10.7053374724
7.01977778914
5.05137058781
3.53457091667
2.34299964222
1.51572295069
0.997671075565
0.688198964092
0.503949642154
0.392899802639
0.326597545438
0.292773582862
0.286040108203
0.302022167333
4545.36652663
1325.63811041
424.878879155
144.279159918
51.8462525859
20.5932610049
9.95925279631
6.0243756106
4.09512879318
2.80745173899
1.88220027131
1.25741914204
0.86007913873
0.614765394411
0.466056177099
0.375602460663
0.323835148781
0.300732082223
0.299343968893
0.315206650837
4817.6848258
1405.14977067
448.198788778
151.037454106
53.7157719918
20.8715415082
9.62393093348
5.45332640707
3.51167535598
2.3499425071
1.5835639753
1.08130571164
0.760199859109
0.561847890787
0.439888317934
0.366516970602
0.327527042548
0.313913073879
0.316830191783
0.333065977267
5024.48637563
1487.55729961
476.101050235
159.425937087
56.0513292523
21.4627362119
9.61826776604
5.20113327843
3.19887883513
2.08645473469
1.40068747677
0.966180235363
0.696245045955
0.529537450643
0.426526635795
0.36647032771
0.338134859356
0.332471397525
0.339429951894
0.356385304361
5176.52322243
1565.19650737
505.561859063
168.683075091
58.6743618501
22.2772077332
9.85409544417
5.17655252751
3.07396958178
1.95476995167
1.29658018784
0.900745644517
0.66167612983
0.514346189152
0.424420755429
0.37517334614
0.356053779169
0.357535225189
0.368173310294
0.386058150465
5324.74043948
1639.97250034
533.81464758
177.273820136
61.0104921495
23.0935808824
10.2110347446
5.29219667702
3.06928065445
1.90657565454
1.25085561542
0.872992844304
0.649004241944
0.512437194267
0.432658157488
0.393160400997
0.3825723551
0.389987288387
0.404108031626
0.424656336539
5527.07042144
1724.52511316
560.301115685
183.522156081
62.2172088638
23.5792716917
10.5384212027
5.46144064446
3.12661784319
1.91081551627
1.24570794307
0.871296816745
0.651321781692
0.521597316898
0.45137255304
0.421588280594
0.41900980554
0.431148815123
0.449365452778
0.476746171047
5769.0516283
1835.96587404
590.857626872
188.558049836
62.505667444
23.767485413
10.8083765375
5.64564976583
3.21238636494
1.94889048962
1.26750671077
0.885179610643
0.664275511975
0.541225038162
0.481343517836
0.462072348487
0.46660684575
0.483626526786
0.508290682009
0.54675147987
6148.2696696
1990.53786877
629.451254304
193.998322851
62.8567254696
24.0563971382
11.1396346203
5.86683262396
3.32998967237
2.01641127795
1.30672852413
0.908841621854
0.687285128112
0.572072047294
0.524812187305
0.516376552879
0.527415803161
0.550955916174
0.585517993343
0.636847707784
6887.91965359
2208.1445711
677.299593766
202.774330735
65.0803081141
25.1309967189
11.7518912852
6.19061497365
3.50590577371
2.11562444143
1.3588535252
0.943594836335
0.722477087926
0.617541841561
0.584777679744
0.587313843119
0.605108229088
0.637359805539
0.683279297703
0.752952427786
8147.05536677
2473.8730051
732.714268394
216.985785009
70.5019317908
27.4805397987
12.8001034595
6.67990468509
3.76022868332
2.244014542
1.42683080347
0.994842979224
0.774949565305
0.682251742272
0.665583600583
0.678991964066
0.704058994051
0.746000279472
0.806238609557
0.912773322963
10018.4192168
2765.94832364
788.758688913
235.969944332
78.8702128545
30.9796855954
14.2296426131
7.32451332535
4.07371244081
2.39333377001
1.51694031789
1.06852274135
0.850530049565
0.772126840675
0.772465892387
0.794965543034
0.826805554183
0.879117419154
0.963493545514
1.14684381155
11740.9909749
3052.42067959
851.587723768
260.356962273
89.2911072519
35.1521575258
15.8785159179
8.05153938085
4.40112980678
2.55968933711
1.6337699961
1.17024978717
0.955318511841
0.893533481365
0.907743255208
0.932273485553
0.968385386321
1.03274465798
1.16068993767
1.47645851931
12644.1339579
3229.15845736
902.743282229
281.480071354
98.4360608258
38.8317756049
17.3962364594
8.7042377739
4.68839473465
2.73975552777
1.78145011161
1.3052681133
1.09565693515
1.04769953405
1.05935903882
1.07192489948
1.10917784711
1.19001096129
1.38993326561
1.8647717098
12973.5199534
3288.17676619
927.818336151
293.543433687
103.752724063
41.1015049756
18.4104116442
9.11389302875
4.9159907647
2.94361476886
1.97129962951
1.48169386163
1.27262818288
1.21342925544
1.18603230382
1.18048583578
1.21785502011
1.32273690685
1.6111344449
2.17834950305
13058.4207544
3289.07144974
933.468270032
296.258909082
104.703555906
41.7419581389
18.6957949577
9.269329407
5.14801988754
3.22162808569
2.23489527457
1.71582768338
1.46617409543
1.32988027074
1.24659143958
1.23445591607
1.26731564639
1.39227526619
1.72782327253
2.37570113508
12830.3982169
3243.99353487
922.159870823
290.534481111
102.22777262
40.9007009106
18.4362923469
9.44122694072
5.56334809411
3.70015682881
2.64944563428
2.02008729918
1.62989008892
1.36503312413
1.25284509574
1.22332820206
1.23859437554
1.35597630325
1.69407863405
2.39771363526
11927.1673735
3071.02253617
878.254362948
277.539967408
98.5478218318
40.0009284618
18.6076793012
10.1829949084
6.52136677647
4.59197348687
3.32191103759
2.40197051104
1.74390729123
1.36976042679
1.21069278103
1.14003518488
1.12596006376
1.21414361466
1.51123740004
2.16644962365
10855.1995799
2763.49359211
791.814198031
255.537061743
93.7333270505
39.4514037537
19.6154419544
11.6278841884
7.9864975127
5.86080515344
4.188844775
2.80903628661
1.89349161211
1.40289437694
1.15155516321
1.01556233987
0.95960594932
1.00483036853
1.23692966664
1.7684037218
23.8217646746
12.4322088805
3.50457219911
2.43339367923
4.69023500292
9.76775886607
10.3585061832
7.71959674903
1.77323432603
0.790762969107
0.381891495531
0.201458944511
0.134845152976
0.114554336118
0.136079624704
0.282845737229
9.54469307816
19.0436639985
24.0646657923
24.662873841
14.3327700593
4.13944147592
1.34639735356
1.00237340415
2.34642023075
5.81793938394
6.21486744366
4.67345438712
1.222973564
0.560331847807
0.295180327179
0.184478877369
0.137168159163
0.1202616637
0.137131096224
0.257760747305
15.2098996743
20.3274465472
21.7130510138
18.0660507677
5.27124776329
1.63707530848
0.601249827688
0.554604004979
1.47106243639
3.60926097651
3.72568567794
2.4651188055
0.884085441911
0.446406356239
0.261398409829
0.18062300867
0.141763638507
0.12724680979
0.137939256962
0.22293374328
15.4417932271
17.7896473535
16.3220109962
8.54373453875
2.14486060548
0.735799817667
0.391682208725
0.431565957286
1.05722335401
2.27308837759
2.12751349837
1.33866847707
0.66712172122
0.379822913233
0.245392674313
0.180040453113
0.145594255695
0.133070655933
0.137103470563
0.181637257426
13.3308511136
13.4471389876
10.1530699106
3.08252840492
1.01247910423
0.446979779284
0.348720253592
0.401034468623
0.799490356677
1.47631880106
1.27683082116
0.906248770961
0.536998059223
0.340056455957
0.235545437319
0.176056264836
0.145551736049
0.134159009151
0.131376372631
0.139099100664
9.80392104364
8.86361167534
4.51785201743
1.44260420662
0.597773170198
0.36699999394
0.360319362434
0.40812359171
0.672298221024
1.05144739089
0.9389955838
0.705195279316
0.460286838673
0.309497425714
0.218599540303
0.165317563943
0.140006021788
0.128575882035
0.116308657398
0.0946392891338
6.49646973555
4.77549820001
1.98570047976
0.848309442256
0.454757315003
0.350957039885
0.389188742922
0.432012356881
0.628560327459
0.879946487921
0.825479833691
0.650251875967
0.426805206401
0.277045970768
0.189249836737
0.147363592723
0.129610271404
0.118082537311
0.0981554852311
0.063555093129
3.86694279147
2.37263103307
1.18765223766
0.629185704828
0.408602450742
0.340953672886
0.409836977348
0.452769952848
0.603306249542
0.81718858944
0.875718647034
0.779704787176
0.490495640624
0.244280484617
0.155149335747
0.126716058679
0.118473529802
0.104507943312
0.0791212379959
0.0551798460003
2.30980469278
1.47964404974
0.863834930906
0.53897288155
0.383106367803
0.337010633356
0.397286516316
0.455351063784
0.573379162567
0.793110040647
1.01423490719
1.06553916865
0.731953084472
0.315600289869
0.135883205724
0.114152641417
0.11881097304
0.113691749991
0.0956282750974
0.0846187664927
1.57053878225
1.06954121805
0.695710268213
0.48358506707
0.35531891022
0.329879367463
0.357859805343
0.419770793267
0.534081437604
0.774986824481
1.07375609826
1.18926637279
0.999936223492
0.616974646641
0.20733385045
0.127464219018
0.12983389666
0.14764031845
0.146824250294
0.153091858479
1.10876083113
0.814787188646
0.578651587656
0.430521238753
0.335742685265
0.309481136238
0.314301624883
0.339261088496
0.432070724775
0.71043626845
0.975019645091
1.21187093639
1.22795089223
0.855694145611
0.503801131931
0.221440001385
0.154150538757
0.172507836679
0.197348417768
0.214129019457
0.782879913117
0.629313090722
0.489110291126
0.391786378419
0.323936474157
0.294113938377
0.282135315767
0.278592505265
0.319928612678
0.562087712456
0.857936379509
1.1535767729
1.2978341939
1.0777883112
0.631768592064
0.364242789287
0.213708195652
0.201525689225
0.259777622296
0.250827429695
0.565400880148
0.500508569789
0.428858343814
0.375514728145
0.331411747683
0.299458922221
0.269879387739
0.246737455599
0.257090738341
0.411202754559
0.808893219087
1.08162489255
1.27588924368
1.1602121978
0.753486571096
0.412266341116
0.259881770602
0.251049662703
0.346707419549
0.271685282501
0.435920940163
0.421263023525
0.397096026436
0.380035954581
0.357698954678
0.322842429744
0.277018507428
0.237150090869
0.235472793361
0.360008376554
0.825770729161
1.04164563248
1.23965033618
1.18737101746
0.797066850013
0.392522362652
0.269908494966
0.344898938995
0.396645394662
0.412772781022
0.366262025709
0.377969980563
0.385843208186
0.392934714517
0.379098909585
0.335921718809
0.283172711133
0.240768542286
0.244416820747
0.398826110591
0.916639181418
1.05584980944
1.26844737122
1.21039449759
0.705338064536
0.351613217851
0.298164243594
0.500174308039
0.458698843811
0.408380700547
0.332287985661
0.357857825594
0.386313283111
0.405465438634
0.388997452468
0.340217445441
0.289668735045
0.256580842525
0.287161960813
0.529242086132
1.05978213881
1.15574343936
1.40175928239
1.19492979271
0.562103611192
0.323788843822
0.382038768251
0.677523137143
0.54751048306
0.403140606725
0.318643424553
0.352528973101
0.393910052935
0.416847802441
0.39576574699
0.345976764911
0.304395053974
0.288966169245
0.387689857332
0.794869180865
1.11393289199
1.35181985405
1.56076039522
0.959843411974
0.453855063205
0.327722594132
0.517508102211
0.829892791107
0.636198476072
0.405653153116
0.316729155073
0.35700216493
0.406222290148
0.427176988064
0.399687059097
0.354974173698
0.3291464529
0.357659656916
0.600693753949
1.22913523526
1.22498786653
1.63810780947
1.48175974185
0.702163176934
0.371960020441
0.386711928389
0.657349719734
0.976238507742
0.671050349485
0.412671436434
0.322030470864
0.36757753318
0.419152038056
0.432710173369
0.402693884711
0.374101576446
0.376158462253
0.5182397362
0.988772178456
1.34293313314
1.55972271224
1.74214221871
1.12179565396
0.553520873126
0.368166609571
0.473807712528
0.752751463007
1.10835118789
0.61974559293
0.39736227545
0.332793015496
0.381635789253
0.429654445344
0.435829641572
0.41466028151
0.408983172164
0.497558394965
0.83218188473
1.50213574234
1.54231707218
1.7763365726
1.4246882302
0.856676543032
0.453135095897
0.418990205274
0.564305818091
0.832370050565
1.23036557598
0.576396082798
0.317723175362
0.348695370012
0.398159948249
0.439835665153
0.444633647886
0.440008193509
0.502657903296
0.756017647482
1.37566165742
1.59612222288
1.96278405336
1.5410350806
1.02960835319
0.7386399024
0.471387901303
0.508770291085
0.684724209723
0.980018269704
1.457154501
0.537594266686
0.196720967777
0.367557242201
0.4161071335
0.451180554875
0.461823632566
0.513948100045
0.713688453412
1.18509108367
1.71406870992
1.90083026725
1.9590692736
1.20956135447
0.831749420735
0.723456220691
0.573929866723
0.653675330157
0.896738474822
1.37829092148
1.88007702999
0.510553971005
0.187173819988
0.389893936259
0.434081386895
0.469789158997
0.523287612147
0.685765206554
1.0603177599
1.78202845628
1.72914726157
1.97685990689
1.63265301509
1.024607112
0.770159816225
0.822575619403
0.761264671943
0.913024966382
1.36782322099
2.38498707936
2.3316410641
0.429654438776
0.142797868721
0.419163999775
0.465008149511
0.52834694817
0.663133952703
0.96469348013
1.55585063305
1.82380059265
1.73190768619
1.7024047452
1.34763841058
0.914584693924
0.811867958829
1.0280025491
1.07457355898
1.40886204162
2.50242927043
3.57010950161
2.55395247099
0.260252313318
0.0613716283379
0.462376033939
0.526017043187
0.640470418086
0.878527942781
1.33827995486
1.96017037513
1.73631899512
1.56116016441
1.40251296192
1.08272179764
0.820957700399
0.903396581356
1.26943685461
1.53636699665
2.4478178062
3.89945788022
4.1459671888
2.48453229205
0.145525871304
1.09491872471
0.527262401223
0.620569892195
0.806060402239
1.1848198529
1.84181540431
1.91251464361
1.53650487996
1.29873362675
1.02040223853
0.748381935908
0.740203480873
0.963785862049
1.42679211017
2.04948391449
3.59996762044
4.53219615192
4.74390360104
1.80966096463
0.085115376728
2.22707681642
0.615084174085
0.752798065507
1.04950853819
1.60672884174
2.12862662195
1.74667959135
1.28466517325
0.923988766362
0.589459426504
0.520939801628
0.653305550312
0.939816089684
1.49429313469
2.70212441926
4.49757253497
5.53951867748
4.57368811315
1.15389815808
0.0516778614688
2.84141199587
0.731760783347
0.948446094353
1.41180955002
2.17660053593
2.11616157212
1.53595614599
1.03765673176
0.601958929646
0.366340600614
0.346702611813
0.512698235153
0.878734285007
1.71407025836
3.73450165935
5.63226631339
6.15525622424
3.28442879627
0.58874711684
0.0180705089546
3.09823949045
0.900989882303
1.25693257041
1.9651237626
2.41682837417
2.04472413111
1.31950225722
0.815999289071
0.460355281659
0.260430659219
0.211036580777
0.357771246154
0.930124777095
2.61717269449
5.28311142621
6.91582602067
5.24152270733
2.15906403564
0.121202961595
0.00592600077486
3.22687244461
1.16758480652
1.74582942235
2.44136872322
2.48534104431
1.88888964819
1.12625962496
0.667852521389
0.389742391475
0.221420002908
0.192965705558
0.447881110209
1.74649741755
4.532868446
6.78992920726
7.11570462122
3.7503224238
0.814892105299
0.0288333994002
0.00397799848728
3.38650107232
1.58517451022
2.2924426145
2.62076850195
2.46044593644
1.63726160741
0.944998473317
0.544858243458
0.323870477997
0.200274347489
0.296948064051
1.0857138679
4.0380871503
6.74980939808
8.05171842266
5.6358122562
1.9791101827
0.120080441167
0.0206810073992
0.00412215252479
4.07842767774
2.09003053162
2.60355323037
2.72386002351
2.26096379187
1.34932679505
0.724981174199
0.409837382052
0.253643123592
0.257326925693
0.667867876914
2.84874055123
5.98048040668
8.32818025094
7.65543707429
3.64389762269
0.337827652554
0.0472175223167
0.0236002815918
0.0026621162253
6.21606929928
2.47651585354
2.85046793486
2.70693057725
1.91228311099
1.04489052226
0.495920786329
0.264210485393
0.190020430139
0.374167718319
1.34918604198
3.83281725955
7.61032668669
8.86127392986
5.88181732082
1.42697749445
0.125828864888
0.049497225414
0.0243047357575
0.0015361146437
10.3147288089
2.80968892347
3.11096028815
2.61263587765
1.53644295785
0.692171740731
0.286331966188
0.143750343389
0.15087285251
0.456195481662
1.43868069883
3.73732025534
7.42814231302
7.46694760722
4.04729493192
0.860686449092
0.130309752686
0.050376938649
0.0215220341998
0.0012612969444
15.7044235148
3.11200845657
3.34419817346
2.50786257577
1.21945997598
0.478559028661
0.171405162802
0.0848477107325
0.123942924431
0.403164998202
1.15750135088
2.66368420331
5.172682755
4.82549868726
2.8259738908
1.25487565767
0.240382115595
0.0407817003285
0.014386576634
0.00114403183157
20.3032777983
3.21601503343
3.38573036076
2.35047113375
1.07241084675
0.453413961086
0.176007012861
0.0807730990085
0.0924441666375
0.256203501561
0.768029808598
1.75935547506
3.18127141757
2.84445677246
2.02554715608
1.46969889632
1.00879819444
0.0734066359803
0.0160811392371
0.000728343057167
20.3656418871
2.92889601929
3.04952353111
2.0796200165
1.04547893185
0.578041302927
0.306440018946
0.154948450463
0.0971164901515
0.124814960984
0.292233680851
0.760887722143
1.70189767331
1.52081137635
1.41365685993
1.76271958719
1.95437225502
0.518180821958
0.0423362850774
0.0014074784727
12.4368679839
2.39486696574
2.50447130122
1.76580263296
1.04698902669
0.755446409502
0.557559117096
0.385983565461
0.253687075448
0.164181959957
0.139781351661
0.207252048131
0.434917641168
0.51530544727
0.851976591749
2.30544795011
3.81072404442
1.69283615876
0.365070460918
0.0475444669148
1.91607788699
)
;

boundaryField
{
    emptyPatch
    {
        type            empty;
    }
    minY
    {
        type            fixedValue;
        value           nonuniform List<scalar> 0();
    }
    maxY
    {
        type            inletOutlet;
        inletValue      uniform 0.0001;
        value           nonuniform List<scalar> 
40
(
10855.1995799
2763.49359211
791.814198031
255.537061743
93.7333270505
39.4514037537
19.6154419544
11.6278841884
7.9864975127
5.86080515344
4.188844775
2.80903628661
1.89349161211
1.40289437694
1.15155516321
1.01556233987
0.95960594932
1.00483036853
1.23692966664
1.7684037218
2.39486696574
2.50447130122
1.76580263296
1.04698902669
0.755446409502
0.557559117096
0.385983565461
0.253687075448
0.164181959957
0.139781351661
0.207252048131
0.434917641168
0.51530544727
0.851976591749
2.30544795011
3.81072404442
1.69283615876
0.365070460918
0.0475444669148
1.91607788699
)
;
    }
    maxX
    {
        type            fixedValue;
        value           nonuniform List<scalar> 
38
(
1.15008225367
1.19695684922
1.24932700595
1.29226400525
1.3008290064
1.25091139198
1.15065327521
1.03729779551
0.967649873537
0.970414870128
0.898537998532
0.635605552352
0.23771061677
1.04198983384e-19
1.04101442284e-19
1.0414235726e-19
1.04234008531e-19
1.0422803041e-19
1.04225446799e-19
1.04324596444e-19
0.548204951573
0.755139382805
0.585194074483
0.112367691812
1.04151413342e-19
1.04151715207e-19
1.04147975902e-19
1.04147775973e-19
1.04147576146e-19
1.04147380348e-19
1.04147184778e-19
1.04146993067e-19
1.04146813103e-19
1.04146632969e-19
1.04146451183e-19
1.04146272988e-19
1.0414609489e-19
1.04145921298e-19
)
;
    }
    water_to_heater
    {
        type            fixedValue;
        value           nonuniform List<scalar> 
59
(
9313.8538411
9313.8538411
11912.2959521
12701.2001165
11429.7614828
11429.7614828
10591.2596692
10591.2596692
10164.3768436
10164.3768436
9870.20242929
9561.59486188
9075.08375822
9075.08375822
8500.627874
8500.627874
8141.50147047
8141.50147047
8251.9945674
8880.47768242
9997.16296935
9997.16296935
11418.2933041
11418.2933041
12634.0402107
12634.0402107
13232.4104759
13443.2420243
13754.5959955
13754.5959955
14402.2411673
14402.2411673
15213.4717946
15213.4717946
15980.987838
16662.5820396
17335.2215353
17335.2215353
18192.4398636
18192.4398636
19438.2243324
19438.2243324
21459.2756401
24741.2671048
29422.7943181
29422.7943181
34833.9585184
34833.9585184
38913.7008763
38913.7008763
40686.5105562
40981.3259907
40499.5157965
40499.5157965
38868.2188388
38868.2188388
35011.3148184
35011.3148184
30610.4724693
)
;
    }
    procBoundary0to1
    {
        type            processor;
        value           nonuniform List<scalar> 
41
(
2555.51058428
860.273844155
305.483774998
111.431598177
44.0136696574
19.6155325923
9.87280249975
5.49102677842
3.36305825258
2.30491355314
1.7557457588
1.44691713969
1.2410107832
1.06476034663
0.880513288164
0.72451580234
0.598875502703
0.532916175361
0.659570851945
1.46646109921
17.6808289001
18.898959625
9.81822565222
5.7888836261
9.5138053784
15.2367934929
15.845109937
11.1925105938
2.95944873716
1.55748410317
0.800529919476
0.303181053018
0.142881257338
0.111723177
0.136229500668
0.30598838537
3.70269986188
9.72460357952
16.8127189422
25.1310697339
25.1310697339
)
;
    }
}


// ************************************************************************* //
