/*--------------------------------*- C++ -*----------------------------------*\
| =========                 |                                                 |
| \\      /  F ield         | OpenFOAM: The Open Source CFD Toolbox           |
|  \\    /   O peration     | Version:  2312                                  |
|   \\  /    A nd           | Website:  www.openfoam.com                      |
|    \\/     M anipulation  |                                                 |
\*---------------------------------------------------------------------------*/
FoamFile
{
    version     2.0;
    format      ascii;
    arch        "LSB;label=32;scalar=64";
    class       volScalarField;
    location    "0.44/heater";
    object      T;
}
// * * * * * * * * * * * * * * * * * * * * * * * * * * * * * * * * * * * * * //

dimensions      [0 0 0 1 0 0 0];

internalField   nonuniform List<scalar> 
150
(
795.211065631
795.102820617
794.885416317
794.554721826
794.122714241
795.262063644
795.154501839
794.939680645
794.615546328
794.196428175
795.306605528
795.198777465
794.984589718
794.663782717
794.251497821
795.342134169
795.233032556
795.017189099
794.69525164
794.281578867
795.3666552
795.255396571
795.036047884
794.709983372
794.288776404
795.38081593
795.267460191
795.044246408
794.712926493
794.282211444
795.387576378
795.272372146
795.045026815
794.7065641
794.259099705
795.38934562
795.272502629
795.040208447
794.691448901
794.214578412
795.38585399
795.268277647
795.031334333
794.670086311
794.168163977
795.381863532
795.265831326
795.029873663
794.664914207
794.155357943
795.381758257
795.268282649
795.037019098
794.676553988
794.167530521
795.389823189
795.2793054
795.054913465
794.705016246
794.205151357
795.411714814
795.305172716
795.09302971
794.771789618
794.328892997
795.441927087
795.337360614
795.134479984
794.843451645
794.475647695
795.468759391
795.363160285
795.159732927
794.873116215
794.520149335
795.490033623
795.382203684
795.174654232
794.884268139
794.532745103
795.507234177
795.396335976
795.182390402
794.884029548
794.528937928
795.52516261
795.412267682
795.193397918
794.887550351
794.527375549
795.548003477
795.433828451
795.210662874
794.896437858
794.528678434
795.580276939
795.465997961
795.239912635
794.916589786
794.537446352
795.621462308
795.509056717
795.282734521
794.949070564
794.548918012
795.658375646
795.548634541
795.324453392
794.982174143
794.549768123
795.682598759
795.57526488
795.354158658
795.006588021
794.53252646
795.692719772
795.587005571
795.368757184
795.021122382
794.522180414
795.693168633
795.588071033
795.371233932
795.025032983
794.52060441
795.687612737
795.582431972
795.365546165
795.019530059
794.514825428
795.675031469
795.568681853
795.349388558
795.000368626
794.493400734
795.655190273
795.547035389
795.323640563
794.968788454
794.457142494
795.633510141
795.525400901
795.301210506
794.944002606
794.429707986
795.615722582
795.509343272
795.28810354
794.933808771
794.42107306
)
;

boundaryField
{
    emptyPatch
    {
        type            empty;
    }
    minY
    {
        type            zeroGradient;
    }
    maxY
    {
        type            zeroGradient;
    }
    minX
    {
        type            zeroGradient;
    }
    heater_to_water
    {
        type            compressible::turbulentTemperatureTwoPhaseRadCoupledMixed;
        refValue        nonuniform List<scalar> 
60
(
485.214226288
484.031941603
484.030185578
485.723863819
485.722554377
486.490483857
486.489795829
486.981920059
478.851727975
468.725553979
468.725780522
466.505067707
466.505686285
467.094130565
467.095229331
412.490005274
342.755063745
324.420666502
324.420857328
318.249960229
318.249940308
317.886070725
317.885877362
323.333204861
346.34897623
437.593256811
437.590924613
457.721003596
457.720237199
469.602106937
469.601926665
472.783510899
479.459831706
481.098291035
481.098392024
486.29603565
486.296076186
488.027026119
488.026903662
491.002608575
490.509188271
488.962134709
488.962187843
466.284192521
466.284675609
399.282767432
399.283091169
355.512428658
337.49246468
330.81340645
330.813540023
329.125244381
329.125535504
328.665432062
328.66587115
328.45006078
328.263378959
327.921626522
327.921777448
327.822052854
)
;
        refGradient     uniform 0;
        valueFraction   nonuniform List<scalar> 
60
(
0.000630139421357
0.000630555876166
0.000630561919148
0.000630917021704
0.000630921488683
0.00063171696789
0.000631719307958
0.000630798446186
0.0006323397076
0.000631917501849
0.000631916649956
0.000633166923383
0.000633164561504
0.000632678982895
0.000632674805359
0.000676343776033
0.000748128610473
0.000720104968343
0.000720099133172
0.000699480277727
0.00069948108234
0.000703056852042
0.000703064901803
0.000730485915542
0.000739662764229
0.000622869202673
0.000622879841734
0.000622297659409
0.000622300704042
0.000619659275655
0.000619659938619
0.000622321616405
0.000620045898157
0.000622328423051
0.000622328073787
0.000620875086509
0.000620874950581
0.00062231860679
0.000622319014513
0.000621567256985
0.000622299425542
0.000622160897843
0.00062216072196
0.00063654015517
0.000636538294861
0.000698713702828
0.000698711401666
0.0007422731593
0.000747412573614
0.000742590590025
0.000742587269223
0.000741708262038
0.000741700601444
0.000741647490174
0.000741635744158
0.000741571313362
0.000741631309842
0.000741273492714
0.000741269336593
0.000741694061017
)
;
        source          uniform 0;
        value           nonuniform List<scalar> 
60
(
793.927601756
793.926727613
794.000561267
794.001519696
794.056613138
794.056852824
794.086886532
794.087480397
794.089115422
794.082849695
794.076311361
794.074498245
794.051246534
794.05177798
794.007817134
793.956600256
793.832237151
793.83168475
793.818780763
793.824149765
793.836276268
793.834318669
793.872136247
793.863054235
793.999358736
794.108513371
794.25410606
794.266840734
794.311163881
794.319416226
794.331922463
794.333037569
794.333948877
794.334249383
794.332599159
794.336281655
794.337448192
794.338080412
794.346687218
794.34876724
794.35949808
794.358577681
794.359268212
794.340438587
794.32383496
794.256610849
794.247400605
794.197693448
794.180890461
794.178134446
794.172418193
794.171573569
794.150158595
794.149842077
794.113557766
794.113427739
794.08581756
794.085731031
794.07712945
794.076857351
)
;
        kappaMethod     solidThermo;
        Tnbr            T.liquid;
        region          solid;
        otherPhase      gas;
    }
    procBoundary0to1
    {
        type            processor;
        value           nonuniform List<scalar> 5(795.601103091 795.496664453 795.279344114 794.929966889 794.420787997);
    }
    procBoundary0to3
    {
        type            processor;
        value           nonuniform List<scalar> 5(795.155379028 795.0457728 794.82522739 794.492407637 794.076933083);
    }
}


// ************************************************************************* //
