/*--------------------------------*- C++ -*----------------------------------*\
| =========                 |                                                 |
| \\      /  F ield         | OpenFOAM: The Open Source CFD Toolbox           |
|  \\    /   O peration     | Version:  2312                                  |
|   \\  /    A nd           | Website:  www.openfoam.com                      |
|    \\/     M anipulation  |                                                 |
\*---------------------------------------------------------------------------*/
FoamFile
{
    version     2.0;
    format      ascii;
    arch        "LSB;label=32;scalar=64";
    class       volScalarField;
    location    "0.165/heater";
    object      T;
}
// * * * * * * * * * * * * * * * * * * * * * * * * * * * * * * * * * * * * * //

dimensions      [0 0 0 1 0 0 0];

internalField   nonuniform List<scalar> 
150
(
798.339975917
798.224002534
797.997896675
797.679028478
797.26887925
798.346117778
798.231371886
798.008011957
797.697976933
797.328884229
798.352141771
798.238768217
798.017952683
797.713187097
797.377081567
798.357362133
798.245749939
798.028018063
797.727053122
797.401066928
798.360394475
798.250885274
798.036851606
797.74001586
797.418054981
798.360504049
798.252843496
798.042103382
797.74894164
797.429602273
798.359021115
798.253047582
798.045353964
797.755619589
797.438620248
798.355606664
798.251115182
798.046172895
797.759588698
797.444659533
798.350332622
798.247208424
798.044908493
797.761401012
797.448193192
798.344471087
798.242378406
798.042166288
797.761128162
797.448858615
798.338518919
798.237288575
798.038917896
797.760176642
797.448727456
798.331775101
798.231179501
798.034285377
797.757557358
797.447146405
798.324146451
798.224094982
798.028526698
797.753672019
797.444477515
798.317350414
798.217895038
798.023644776
797.750476886
797.442315098
798.310817869
798.211899642
798.018757978
797.746741824
797.438709323
798.302647077
798.203498884
798.009962823
797.736943781
797.426665997
798.291811662
798.19113076
797.99463144
797.716777767
797.399826979
798.283016864
798.181180127
797.982267067
797.699594808
797.375004552
798.275430429
798.172892977
797.972366494
797.685173924
797.351360656
798.267379261
798.164127197
797.962175487
797.670608864
797.326025743
798.25807298
798.153868002
797.950509507
797.654730376
797.296624127
798.248014617
798.142167437
797.936589359
797.637192166
797.26440708
798.237002157
798.128229318
797.918231255
797.613943083
797.22148508
798.228197049
798.116485174
797.902089117
797.59496003
797.180095398
798.22270846
798.108893022
797.891659016
797.587220461
797.172429391
798.219834444
798.104690399
797.88547012
797.584561155
797.194316005
798.217977288
798.101769361
797.880606351
797.581937908
797.224512986
798.216873941
798.099709455
797.876454057
797.576936011
797.251497155
798.216450236
798.098153254
797.87204759
797.567354726
797.247061523
798.217512748
798.097981304
797.86854897
797.556332123
797.22642835
)
;

boundaryField
{
    emptyPatch
    {
        type            empty;
    }
    minY
    {
        type            zeroGradient;
    }
    maxY
    {
        type            zeroGradient;
    }
    minX
    {
        type            zeroGradient;
    }
    heater_to_water
    {
        type            compressible::turbulentTemperatureTwoPhaseRadCoupledMixed;
        refValue        nonuniform List<scalar> 
60
(
316.944744829
323.74160588
323.74114199
384.691474076
384.690547184
536.449037168
536.448894092
564.310751207
575.280101176
576.06563364
576.065557808
578.8022723
578.802221441
577.314222944
577.3141912
579.301442816
577.139500821
577.277699528
577.277709656
573.253256015
573.253273674
572.070201067
572.0702274
569.239013595
569.852693086
568.49103941
568.491073224
569.4971852
569.497228258
566.834404396
566.834516673
564.758951648
559.458010181
553.652508125
553.65271172
548.256465624
548.25666317
550.375389813
550.375620108
531.007976709
540.02648871
547.865818927
547.866249941
561.466917507
561.46740893
563.451137874
563.451601848
491.163269016
354.613766813
330.637447597
330.637273162
327.739786713
327.739545484
345.383668401
345.383364766
480.166136967
565.763667962
580.179989383
580.180240525
583.919555234
)
;
        refGradient     uniform 0;
        valueFraction   nonuniform List<scalar> 
60
(
0.000697713301197
0.000727401914304
0.000727416682582
0.000704780634457
0.000704788433345
0.000588208507892
0.000588208865193
0.000588155953846
0.000587530824117
0.000588132308278
0.000588132470363
0.000587543043852
0.000587543151378
0.000588130773589
0.000588130841126
0.000587549888627
0.00058813382809
0.000587609112178
0.000587609090651
0.000588165657377
0.000588165619259
0.000587653907233
0.0005876538502
0.000588199446145
0.000587748495257
0.00058819589301
0.000588195818749
0.000587893806663
0.000587893712512
0.000588226753599
0.000588226505522
0.000588067034157
0.000588250208763
0.000588230610975
0.000588230137821
0.000588444309797
0.000588443840568
0.00058907998463
0.000589079441715
0.000592073282599
0.000592859610734
0.000593726755394
0.000593725721072
0.000591120271316
0.00059111915845
0.000591010766993
0.000591009724416
0.00061971375674
0.00074747745159
0.00073271720553
0.000732721467388
0.000735425840336
0.000735432409367
0.000747948397154
0.000747953497975
0.00062262541938
0.000590881132074
0.000590498977241
0.00059049844602
0.00059030449712
)
;
        source          uniform 0;
        value           nonuniform List<scalar> 
60
(
796.936498079
796.92718189
796.987278672
797.040955506
797.087080036
797.224456736
797.24710576
797.263506684
797.286909585
797.28723797
797.298784131
797.300522546
797.309550732
797.308547119
797.314590941
797.315886435
797.318060218
797.318257024
797.318948057
797.316458472
797.316374695
797.315794181
797.314259283
797.312471
797.310280507
797.309377764
797.307238085
797.307898718
797.304312868
797.30267061
797.290648176
797.289464377
797.259485313
797.256075002
797.23127176
797.228044171
797.204346537
797.205436176
797.180199693
797.1679933
797.143529922
797.147961252
797.115469161
797.124158583
797.080926291
797.08212425
797.04135445
796.989847443
796.844224159
796.833188611
796.855537749
796.85214511
796.882616636
796.889937419
796.914847387
797.055398498
797.109769692
797.118370977
797.097484661
797.099734091
)
;
        kappaMethod     solidThermo;
        Tnbr            T.liquid;
        region          solid;
        otherPhase      gas;
    }
    procBoundary0to1
    {
        type            processor;
        value           nonuniform List<scalar> 5(798.218783044 798.097850925 797.864425135 797.542091279 797.196018277);
    }
    procBoundary0to3
    {
        type            processor;
        value           nonuniform List<scalar> 5(798.332777178 798.215350383 797.98515045 797.652668436 797.204930743);
    }
}


// ************************************************************************* //
