/*--------------------------------*- C++ -*----------------------------------*\
| =========                 |                                                 |
| \\      /  F ield         | OpenFOAM: The Open Source CFD Toolbox           |
|  \\    /   O peration     | Version:  2312                                  |
|   \\  /    A nd           | Website:  www.openfoam.com                      |
|    \\/     M anipulation  |                                                 |
\*---------------------------------------------------------------------------*/
FoamFile
{
    version     2.0;
    format      ascii;
    arch        "LSB;label=32;scalar=64";
    class       volScalarField;
    location    "0.765/water";
    object      Tf.gasAndLiquid;
}
// * * * * * * * * * * * * * * * * * * * * * * * * * * * * * * * * * * * * * //

dimensions      [0 0 0 1 0 0 0];

internalField   nonuniform List<scalar> 
1497
(
300.443083449
300.365796463
300.299947065
300.240184508
300.186289137
300.139557663
300.100872884
300.069269289
300.043404234
300.023232266
300.009806333
300.003205679
300.00085922
325.166852306
308.90256363
303.497312697
301.626099472
300.941316423
300.663729821
300.520529276
300.428928856
300.358564774
300.296407157
300.23870966
300.186165377
300.140431106
300.10221062
300.070545461
300.04430206
300.023716169
300.010123869
300.003463903
300.001023915
323.240723751
307.651986993
302.892269539
301.394942501
300.855440317
300.622196153
300.496332923
300.414714234
300.349706894
300.290709669
300.235203858
300.18446031
300.140148993
300.102678322
300.071052089
300.044414421
300.023516444
300.010104304
300.0036525
300.001213568
321.611894346
307.597230426
302.797260247
301.308711835
300.800569135
300.58760092
300.475649616
300.401440386
300.340439617
300.284194687
300.231055553
300.182480489
300.139847914
300.103220631
300.0715081
300.044302865
300.02321433
300.010214737
300.004002606
300.001514304
320.308976572
307.838861559
302.933618271
301.299760873
300.763734963
300.560240857
300.458446989
300.389706635
300.331884282
300.278262479
300.227718969
300.181503009
300.140596405
300.104660397
300.072581138
300.044697626
300.023624687
300.010955226
300.00473449
300.002007568
318.577795708
307.636247249
302.982294877
301.291099963
300.733220316
300.538323962
300.445162735
300.380762237
300.325643776
300.274684782
300.226911864
300.182937439
300.143397378
300.107786523
300.075167615
300.046767588
300.025624053
300.012756195
300.006024501
300.002768152
316.85712361
307.079817622
302.858992391
301.246723087
300.705501903
300.524328758
300.438607072
300.377181592
300.324071068
300.275521442
300.230446263
300.188429872
300.149466247
300.113767053
300.080719908
300.051817021
300.029945034
300.015943192
300.008026472
300.00388365
315.963883688
306.736193813
302.750966568
301.21557472
300.703165285
300.529330823
300.444340819
300.382478271
300.329656307
300.28240198
300.239071455
300.198614427
300.160327821
300.124042671
300.090519267
300.060621341
300.036957731
300.020734477
300.010894577
300.005451779
316.791782373
307.519639634
303.16553167
301.43621198
300.827925027
300.593634631
300.476978592
300.401814169
300.344669861
300.296587166
300.253621776
300.21361853
300.175468234
300.138862382
300.1044949
300.072883902
300.04648165
300.027139159
300.014695067
300.007513749
321.969597464
310.148280878
304.633855137
302.233890204
301.247728348
300.802686953
300.575369209
300.449332164
300.372660196
300.31832124
300.273309847
300.232309537
300.19346371
300.156431519
300.120854006
300.087099446
300.057531411
300.034641651
300.019173155
300.009927519
332.718497205
313.217907955
306.100805787
303.078274311
301.720237816
301.058971883
300.710934822
300.520146289
300.412568919
300.345620655
300.295519539
300.252113578
300.211833303
300.17352689
300.136468066
300.100634444
300.068137511
300.041939321
300.023542385
300.012242408
340.291753437
315.062272156
306.650321172
303.271829191
301.803239339
301.110789417
300.756225549
300.560112744
300.444340752
300.36975395
300.31457682
300.26813679
300.225918918
300.186136172
300.147747887
300.110312802
300.075707494
300.047121841
300.026553415
300.013728496
343.348988062
315.014980164
306.065535142
302.833030677
301.56520742
301.006377585
300.723714756
300.560893954
300.456214932
300.38176176
300.324357149
300.275938501
300.232319952
300.191489431
300.152199713
300.113796368
300.078160252
300.048493943
300.027020675
300.013693755
343.389058142
313.477489123
304.873617781
302.194360758
301.271985801
300.884134118
300.677269802
300.545774682
300.45202472
300.380873416
300.323686308
300.274723174
300.230536175
300.189180506
300.149306599
300.110462196
300.0748698
300.045493002
300.024579656
300.012002734
341.045189944
311.50178166
303.923007236
301.810701467
301.102835685
300.798890665
300.631990158
300.520921891
300.437355945
300.370647267
300.315024865
300.266412596
300.222096711
300.180276277
300.139788532
300.101244574
300.066773656
300.038977619
300.020025507
300.009321775
338.890456692
311.121782537
303.805354724
301.724259185
301.024189851
300.74008452
300.593008601
300.494765484
300.418553159
300.355726537
300.301728609
300.253358279
300.208452041
300.165785609
300.125421713
300.088306234
300.055946881
300.030847196
300.014937755
300.00673105
337.749531904
311.272795533
303.86224214
301.704251702
300.984239061
300.702783955
300.562625776
300.470498842
300.398784381
300.338424599
300.284900744
300.235842211
300.190259447
300.147943296
300.109127412
300.074362226
300.044869746
300.023273244
300.010863609
300.005064665
337.053259717
311.145747875
303.713772865
301.62558665
300.939876351
300.67120571
300.536064585
300.447361699
300.377869784
300.317879929
300.264083154
300.215205597
300.170628022
300.130157755
300.093808354
300.061907678
300.035775563
300.017951097
300.008669017
300.004566698
333.923061516
310.662515665
303.498274674
301.516688591
300.884601453
300.637627927
300.509797936
300.423557743
300.354487884
300.295085387
300.242547316
300.195515874
300.153197915
300.115416416
300.081892412
300.053057463
300.03031731
300.015719137
300.0084598
300.005152507
325.95451092
309.271072955
303.240392766
301.407121982
300.825751762
300.602380478
300.483491434
300.399889769
300.332794447
300.275502237
300.225324553
300.180745997
300.141216312
300.106398948
300.075506047
300.049023441
300.028764197
300.016226205
300.009900195
300.006766859
319.389681549
307.668964327
302.885195803
301.277599046
300.763485532
300.56952094
300.462295164
300.383475247
300.318935741
300.264057407
300.216411716
300.174605741
300.13771212
300.104886123
300.075337524
300.049941616
300.03084608
300.01909427
300.012839507
300.009349118
315.860537154
306.713465953
302.644731889
301.170523413
300.72018249
300.556912304
300.458261164
300.38185613
300.319021512
300.265997306
300.220267661
300.180187493
300.144440485
300.111818833
300.081907264
300.056054592
300.036645637
300.024419082
300.017309696
300.012894221
315.548704716
307.226154594
303.01113772
301.323354831
300.794165463
300.597578435
300.485120114
300.403700062
300.339468658
300.286230553
300.240141445
300.19912664
300.161927692
300.127512182
300.09556864
300.067581198
300.046195942
300.032173713
300.023390647
300.017561856
320.725997648
310.249091788
304.643049006
302.140876394
301.143725978
300.737934228
300.558518976
300.455479164
300.382990979
300.325267903
300.275201572
300.230188741
300.189280169
300.15147018
300.116114469
300.084466485
300.059539791
300.042531431
300.031318724
300.023464155
335.734574471
313.830049256
306.122423428
302.967855577
301.61280419
300.994410487
300.700287504
300.54249209
300.445904895
300.376927321
300.319982838
300.269313531
300.223541293
300.181617393
300.142266166
300.106158963
300.076529252
300.055435671
300.041146041
300.030678037
347.011712262
316.28712132
306.943744322
303.390982298
301.880070522
301.181313748
300.836450947
300.64389827
300.519014047
300.432136255
300.366365189
300.310115515
300.259905295
300.214335407
300.171529602
300.131333118
300.096798782
300.07078134
300.052661736
300.039133755
351.777477106
317.400891323
307.180804535
303.501779257
301.981625576
301.274263562
300.916302053
300.712503979
300.577407241
300.481432789
300.407034092
300.346458657
300.293382612
300.245560924
300.200714624
300.157743853
300.119208352
300.088311316
300.065565244
300.048430991
353.771546963
317.285173165
306.732649612
303.269194273
301.913334986
301.277512417
300.941674137
300.743410506
300.609526831
300.511849045
300.435861998
300.373565946
300.319799184
300.271585242
300.226295956
300.182174489
300.141219382
300.106473726
300.079137336
300.057893089
353.47229723
315.647100428
305.593602652
302.691572992
301.677827558
301.195356207
300.919941804
300.745080338
300.621047057
300.526950533
300.452657089
300.390982656
300.337867423
300.290396537
300.245699527
300.201468143
300.1592879
300.121945551
300.090946157
300.065843407
347.676661743
312.671098299
304.293618141
302.104624781
301.396052645
301.06705416
300.866764236
300.725467174
300.617024194
300.529800856
300.458634995
300.398951748
300.347420841
300.301249436
300.25752428
300.213633026
300.170856997
300.13176844
300.098017208
300.069704149
342.091138853
310.718505362
303.593083136
301.698850196
301.179757777
300.954491702
300.809196785
300.696763192
300.602964339
300.52298883
300.455211368
300.39791853
300.348324201
300.303604114
300.260723836
300.217046943
300.173845489
300.13352748
300.097822839
300.067148473
340.103745218
310.697512383
303.56048218
301.543509184
301.055024295
300.876623916
300.761395623
300.666264256
300.582118667
300.507578835
300.44336993
300.388639892
300.340865792
300.297242915
300.25454685
300.210512743
300.166780244
300.125597476
300.088629004
300.057017057
339.298605881
311.48859957
304.107331797
301.636343676
301.023002723
300.831248097
300.723609299
300.636265824
300.557333063
300.486451148
300.425105722
300.372430955
300.325808518
300.282278447
300.238534926
300.193588002
300.149242835
300.107523022
300.07051294
300.041799159
340.34647705
313.87329923
305.352849822
302.005965677
301.07621494
300.814075486
300.695601011
300.6081921
300.530558978
300.461347222
300.401711104
300.350100214
300.30339979
300.258511804
300.21308729
300.16711091
300.122234634
300.081234683
300.048503772
300.027122421
342.02204028
316.953379972
306.623584244
302.468130882
301.179867472
300.816334818
300.674338862
300.581300156
300.502001026
300.432618532
300.373245561
300.321266606
300.27328257
300.226692053
300.179765747
300.133196842
300.089666411
300.054317423
300.030072402
300.016007273
344.471352926
318.844560432
307.41077136
302.7860237
301.264874045
300.81971628
300.653939058
300.553520941
300.471004982
300.400006814
300.33953443
300.286456033
300.237316026
300.189326057
300.142106967
300.097764521
300.060319764
300.033487786
300.017465304
300.00906657
347.822925232
319.970914207
307.594865051
302.829272568
301.27264554
300.8045735
300.628068713
300.522985477
300.437564327
300.364520643
300.303011241
300.249375923
300.199633908
300.152073321
300.107442633
300.068263519
300.038428443
300.019779821
300.009775191
300.004728336
352.13131666
320.579114074
307.264213335
302.619498852
301.194240665
300.763049278
300.593668142
300.489239178
300.403114154
300.329696634
300.268445962
300.215168225
300.166304786
300.12073852
300.079761734
300.046359367
300.023640756
300.010988343
300.004941748
300.002505395
300.000215747
300.000053205
300.000011995
300.00000207
300.000000168
300.00000009
300.000000422
300.000003508
300.000007358
300.000010704
300.000013007
300.0000143
300.000015058
300.00001651
300.000019908
300.00002534
300.000034424
300.000039719
300.000040564
300.00003866
300.000300318
300.000092006
300.000028569
300.000008772
300.000002206
300.000000133
300.000000077
300.000000895
300.000003238
300.000005671
300.000007573
300.000008834
300.000009757
300.000011186
300.000014542
300.000020561
300.000031616
300.000037951
300.000039167
300.000037729
300.000417362
300.000152714
300.000058296
300.00002333
300.000009362
300.00000293
300.000000191
300.000000044
300.000000921
300.000002364
300.000003632
300.000004591
300.000005465
300.000007062
300.000010733
300.000017624
300.000029438
300.000036691
300.000037999
300.000036819
300.000596972
300.000248053
300.000107685
300.000049289
300.000023451
300.000010777
300.000003943
300.000001133
300.000000449
300.000000619
300.000001009
300.00000144
300.000002082
300.000003794
300.000007862
300.000016433
300.000029157
300.000035938
300.000037127
300.00003619
300.000871233
300.000393679
300.000185031
300.000091092
300.000046574
300.000024012
300.000011769
300.000005129
300.000001921
300.000000443
300
300
300
300.000001319
300.0000059
300.000017113
300.000029985
300.000035583
300.000036605
300.000035879
300.001278554
300.000610363
300.000301547
300.000154795
300.000081944
300.000043995
300.000023463
300.000011991
300.000005429
300.000001653
300
300
300
300.000000079
300.000005155
300.000018974
300.000030878
300.000035567
300.000036588
300.000036007
300.001869922
300.000925553
300.0004721
300.000248392
300.000134068
300.000073314
300.000040203
300.000021661
300.000010847
300.000004294
300.000000726
300
300
300
300.000006
300.000021358
300.000032219
300.000036454
300.000037566
300.00003713
300.002698096
300.001365928
300.000709662
300.000378677
300.000206736
300.000114388
300.000063541
300.000034845
300.000018129
300.000008079
300.000002236
300
300
300
300.000008546
300.000024037
300.000034645
300.00003895
300.000040308
300.000040147
300.003778146
300.001934142
300.001012989
300.000543634
300.000298204
300.000166077
300.000093016
300.000051512
300.000027334
300.000013012
300.00000465
300.000000889
300
300.000000604
300.000012553
300.000027858
300.000039016
300.000043926
300.000045744
300.000045928
300.005019861
300.00257395
300.001347205
300.000721937
300.000395655
300.000220687
300.000124173
300.000069402
300.000037627
300.000019015
300.000008259
300.000003173
300.000001
300.000003344
300.000017544
300.000034317
300.000046737
300.000052467
300.000054883
300.000055394
300.00616897
300.003140768
300.001630656
300.000867555
300.000473291
300.000263913
300.000149305
300.000084724
300.000047491
300.000025593
300.000012875
300.0000071
300.000004634
300.000007749
300.0000243
300.00004492
300.000058679
300.000065421
300.000068646
300.000070176
300.006826864
300.003420532
300.001749541
300.000920445
300.000499674
300.000279609
300.000160491
300.000093813
300.000055018
300.000031359
300.000018386
300.000012549
300.000010381
300.000014083
300.000032457
300.000057022
300.000073754
300.000083714
300.000090104
300.000091662
300.006640354
300.003245137
300.001627128
300.000846919
300.000460585
300.000262044
300.000155125
300.000093991
300.000056277
300.000031689
300.000020727
300.000016263
300.000015054
300.000016697
300.000037295
300.000068695
300.000092427
300.000108319
300.000118218
300.000119643
300.005615037
300.002670862
300.001323936
300.000695217
300.00038945
300.000230779
300.00013825
300.000076711
300.000037368
300.00002103
300.000015461
300.00001443
300.000015456
300.000024129
300.000042229
300.000079023
300.000111572
300.000136111
300.00015185
300.000154521
300.004230209
300.002009965
300.001030095
300.000576229
300.000345341
300.000201673
300.000097101
300.000042572
300.000024392
300.000019384
300.000020122
300.000027768
300.000029246
300.000042295
300.000052729
300.000092977
300.00013385
300.00017037
300.000194216
300.000198404
300.003110183
300.001585528
300.000901894
300.000556086
300.000337177
300.000166385
300.000082542
300.00005137
300.000042864
300.000043217
300.000047965
300.000053769
300.000067869
300.000055576
300.000067164
300.000110622
300.000160823
300.000212336
300.000244765
300.000250469
300.002603515
300.001515682
300.000971755
300.000663247
300.000392911
300.000222999
300.000144775
300.000111438
300.000099238
300.000098346
300.000099322
300.000107794
300.000100191
300.00006827
300.000083999
300.000131809
300.000193722
300.000262429
300.000303517
300.000310614
300.00271917
300.001818396
300.001339396
300.000960123
300.000593743
300.00038996
300.000282885
300.000229165
300.000209413
300.000200434
300.000196188
300.000176932
300.000121645
300.000088016
300.000105682
300.00015849
300.000237758
300.000319175
300.000369694
300.000377931
300.003524138
300.002621232
300.002000826
300.001459326
300.000991539
300.000700577
300.000527226
300.000438376
300.000399752
300.000379927
300.000327889
300.000237999
300.000153285
300.00011514
300.000133342
300.000192051
300.000298187
300.000384062
300.000442319
300.000451782
300.004997108
300.003796644
300.00293573
300.002239473
300.001630812
300.001201455
300.000928531
300.000771494
300.000709337
300.00061715
300.000460509
300.00031134
300.000199724
300.000149617
300.000168287
300.00023871
300.00035644
300.000465442
300.000526048
300.000539277
300.007062436
300.005416705
300.004228464
300.003327061
300.002557997
300.001957917
300.001518708
300.001269193
300.001116766
300.000869486
300.000619505
300.00041099
300.000258098
300.000190918
300.000213146
300.000310619
300.000438834
300.000568109
300.000630327
300.00064543
300.009853448
300.007597713
300.005937146
300.004718128
300.003775356
300.00297231
300.00230611
300.00192514
300.001569352
300.001174078
300.000825892
300.000535221
300.000327628
300.000239622
300.000274209
300.000399242
300.00055831
300.000699717
300.000762421
300.0007721
300.013487401
300.010454179
300.008168248
300.006470694
300.005201787
300.004161102
300.003251091
300.002667476
300.002106847
300.001561729
300.001085757
300.000691343
300.000415915
300.000294388
300.000344241
300.000510443
300.000720961
300.000865215
300.00092156
300.00091858
300.018008201
300.014045154
300.010988112
300.008644409
300.006871138
300.005432891
300.004318767
300.003517403
300.002765965
300.002045354
300.001432946
300.000924475
300.000534071
300.000370723
300.00041473
300.000619115
300.000903488
300.00105852
300.001111171
300.001081163
300.023339675
300.018236541
300.014309609
300.011203901
300.008801475
300.006884665
300.005520125
300.004485767
300.00352655
300.002613724
300.001862249
300.001209837
300.000711166
300.000477288
300.000479388
300.000675538
300.001016905
300.00124243
300.001313505
300.0012533
300.029246463
300.022662964
300.017789801
300.013911685
300.010842886
300.008495275
300.00678409
300.005479237
300.004306176
300.003202007
300.002303235
300.001537474
300.000941614
300.000619289
300.000550084
300.000699532
300.001025947
300.001353495
300.00149114
300.001425247
300.035367105
300.026877021
300.020940523
300.016350837
300.012744052
300.009959613
300.007869153
300.006289283
300.004940107
300.003695967
300.002689951
300.001856949
300.001187014
300.000779922
300.00063172
300.000723181
300.001001874
300.001414265
300.001638947
300.001618989
300.04140054
300.030481913
300.023266245
300.018003875
300.013942611
300.010811103
300.008440251
300.006662529
300.005227038
300.003949399
300.002913857
300.002076989
300.001379422
300.000918031
300.000710883
300.000763012
300.001025209
300.001487839
300.001795123
300.001834339
300.045976751
300.032695674
300.024166321
300.018283288
300.013964119
300.010695947
300.008241471
300.006426726
300.005036089
300.00385865
300.00289753
300.0021271
300.001458811
300.000990288
300.000774908
300.000842036
300.001134809
300.001651847
300.002033668
300.002074734
300.047034355
300.032257054
300.022988433
300.016873474
300.012620345
300.009522039
300.007255427
300.005620018
300.004424102
300.003459265
300.002662684
300.002006998
300.001408194
300.000989598
300.000854859
300.001023749
300.001448089
300.001896506
300.00234098
300.00233709
300.043149416
300.028557181
300.019618025
300.013953111
300.010206742
300.007609668
300.005792836
300.00452064
300.003632283
300.002932015
300.002329153
300.001781322
300.001265058
300.000979228
300.001067547
300.001466811
300.001867118
300.002340869
300.002657335
300.002617772
300.034849834
300.022233039
300.014769442
300.010252705
300.007408935
300.005552116
300.004302617
300.003475162
300.002927308
300.002474841
300.002017237
300.001522049
300.001120341
300.001111861
300.001616329
300.002085662
300.002453181
300.002822381
300.003012041
300.002945144
300.024553549
300.015110718
300.009840213
300.006798589
300.004955562
300.003808661
300.003126809
300.002714193
300.00243522
300.002167346
300.001804319
300.001324902
300.001132017
300.001519304
300.002184365
300.002686288
300.00304345
300.003274745
300.003360688
300.003283599
300.01530514
300.009239971
300.006013501
300.004164546
300.003157372
300.002657496
300.002420218
300.002254979
300.002101838
300.001965456
300.001723051
300.001316297
300.001249264
300.001791263
300.002625442
300.003087533
300.003414311
300.003632012
300.003725902
300.003608387
300.008884605
300.005286854
300.003441324
300.002580931
300.002260985
300.0021201
300.002029933
300.00198039
300.001949636
300.001914711
300.001762773
300.001449701
300.001415986
300.002065539
300.002905102
300.003291107
300.003707943
300.00397928
300.00409707
300.00394565
300.004822417
300.00292502
300.002195472
300.002002107
300.001950832
300.001978641
300.002040438
300.002104504
300.002159797
300.002192151
300.002164437
300.001992568
300.002039078
300.002715088
300.003137924
300.003564051
300.00403317
300.004340899
300.004484478
300.004312467
300.002600189
300.001967707
300.001867122
300.00194729
300.002073284
300.002184796
300.002283378
300.002371626
300.00244684
300.002506383
300.002552473
300.002607799
300.002745183
300.003092622
300.003412375
300.003911646
300.004397964
300.004733064
300.004903515
300.004718377
300.001859293
300.001832359
300.001990025
300.002152208
)
;

boundaryField
{
    emptyPatch
    {
        type            empty;
    }
    minY
    {
        type            calculated;
        value           nonuniform List<scalar> 0();
    }
    maxY
    {
        type            calculated;
        value           nonuniform List<scalar> 0();
    }
    maxX
    {
        type            calculated;
        value           nonuniform List<scalar> 
37
(
300
300
300
300
300
300
300
300
300
300
300
300
300
300
300
300
300
300
300
300
300
300
300
300
300
300
300
300
300
300
300
300
300
300
300
300
300
)
;
    }
    water_to_heater
    {
        type            calculated;
        value           nonuniform List<scalar> 
60
(
789.679052749
789.766696007
789.766046279
789.828276766
789.827409277
789.857690775
789.855183092
789.860475317
789.861402655
789.855937157
789.856475761
789.846212093
789.844455864
789.840454925
789.84864089
789.933750258
789.975253472
790.013795438
790.015629805
790.081017338
790.083943004
790.172049992
790.167980888
790.282086997
790.278667957
790.401558091
790.400882559
790.519842506
790.500706115
790.611624824
790.537976836
790.628975946
790.634061353
790.721715926
790.718890921
790.79861536
790.796789913
790.862981021
790.967996823
791.068904394
791.084700579
791.063874503
791.067050914
791.006146106
791.005551779
790.910693219
790.898440603
790.775293173
790.774210652
790.675197226
790.678619769
790.602782466
790.607206871
790.546861241
790.55333579
790.508951068
790.514692911
790.483543733
790.484214218
790.459224216
)
;
    }
    procBoundary1to0
    {
        type            processor;
        value           nonuniform List<scalar> 
41
(
356.765247253
320.05215638
306.480257949
302.255477573
301.063344895
300.703344576
300.553100728
300.454050724
300.370847653
300.299432744
300.239413422
300.187306189
300.139906421
300.096318702
300.058791602
300.030429731
300.013296817
300.005513335
300.002621254
300.00187772
300.002301172
300.002433633
300.002550018
300.002651283
300.002738502
300.002812776
300.002881994
300.002973748
300.003139684
300.003444672
300.003775208
300.004298377
300.004798378
300.00516096
300.005355416
300.005159404
300.00185465
300.002033668
300.00222416
300.002301172
300.00239973
)
;
    }
    procBoundary1to3
    {
        type            processor;
        value           nonuniform List<scalar> 
41
(
300.455645067
300.369966399
300.300027833
300.238377131
300.183551175
300.136304577
300.09766961
300.066469791
300.041178229
300.021651632
300.008836429
300.00271776
300.000659197
325.918848653
309.850702809
304.103786038
301.910934693
301.065213277
300.716177543
300.547351859
300.547351859
300.000141865
300.000027104
300.000003766
300.000000453
300.000000093
300.000000147
300.000002682
300.000008063
300.000013538
300.000017707
300.000020144
300.000021142
300.000021822
300.000023645
300.000026883
300.000031238
300.00003768
300.000041869
300.000042286
300.000039939
)
;
    }
}


// ************************************************************************* //
