/*--------------------------------*- C++ -*----------------------------------*\
| =========                 |                                                 |
| \\      /  F ield         | OpenFOAM: The Open Source CFD Toolbox           |
|  \\    /   O peration     | Version:  2312                                  |
|   \\  /    A nd           | Website:  www.openfoam.com                      |
|    \\/     M anipulation  |                                                 |
\*---------------------------------------------------------------------------*/
FoamFile
{
    version     2.0;
    format      ascii;
    arch        "LSB;label=32;scalar=64";
    class       volScalarField;
    location    "0.49/water";
    object      k.gas;
}
// * * * * * * * * * * * * * * * * * * * * * * * * * * * * * * * * * * * * * //

dimensions      [0 2 -2 0 0 0 0];

internalField   nonuniform List<scalar> 
1503
(
0.0349284267033
0.00817126239163
0.0022269113209
0.000875173643376
0.000977528668432
0.00118044910292
0.00124898951142
0.00126697953208
0.00127215952807
0.001271664446
0.0012680109464
0.00126279655623
0.00125727437605
0.00125219290688
0.00124790585045
0.00124450230864
0.00124192270196
0.00124004318552
0.00123872903714
0.0012378634342
0.48053424224
0.149384466261
0.0410811452771
0.0133841172584
0.00373036909497
0.00172155522132
0.00118996563805
0.00122876796556
0.00127318734204
0.00128190693622
0.00128052133749
0.00127590240307
0.00126976526687
0.00126312164346
0.0012567035606
0.00125099506948
0.00124624483757
0.00124251403868
0.00123974528695
0.00123782859015
0.672468849014
0.252868182373
0.0908439876841
0.0308933256627
0.0110457881553
0.00364672773342
0.00162711645723
0.00119003130794
0.00125055587947
0.0012851077416
0.0012899437302
0.00128796031358
0.00128326436588
0.00127707364314
0.00127019182547
0.00126329916933
0.0012569443461
0.00125149562173
0.00124713455263
0.00124389681908
0.825804230571
0.329576883771
0.131089217034
0.0501869645998
0.0213409361657
0.00678529487175
0.0025479953318
0.00132228935889
0.00121258738868
0.0012775049068
0.00129367365048
0.00129502317046
0.00129254122878
0.00128788326097
0.00128182482307
0.0012749992297
0.00126803893213
0.00126152110789
0.00125588268047
0.00125138407306
0.902204853311
0.378659784908
0.160014080035
0.0670622730583
0.0262786154799
0.0117979317655
0.00357223218517
0.00159278226699
0.00118883825497
0.00125799126639
0.00129337842534
0.00129857922157
0.00129849555812
0.00129575496504
0.00129113248208
0.00128516020812
0.00127840676804
0.00127150554045
0.00126506112346
0.00125954873077
0.909758038249
0.40228631088
0.179576909784
0.0801430010626
0.0344908098146
0.013367231843
0.00575903911729
0.00180934167977
0.00116040992677
0.00121940508733
0.00128987011257
0.00130049074287
0.00130240758439
0.00130150193551
0.00129839336572
0.00129352561047
0.00128736585018
0.00128050730694
0.00127362116769
0.00126733725973
0.894981535117
0.408676268343
0.189940526061
0.0889268123512
0.0408847544771
0.0176559294444
0.00661443237521
0.00260172939694
0.00103050714493
0.00110591520214
0.001276576883
0.00130265336856
0.00130565244022
0.00130615646333
0.00130433123408
0.00130046751738
0.00129494118184
0.00128827547608
0.00128114101484
0.00127425503489
0.900810626564
0.410906261182
0.1944124916
0.0940494774183
0.0454532454239
0.0212268502028
0.0089853847491
0.00335948773654
0.00117037196671
0.000823035872433
0.00120442554213
0.00130455417382
0.00130927509438
0.00131032353494
0.00130935536566
0.00130621173044
0.00130116391009
0.00129466682469
0.00128735876698
0.00127999211729
0.902996129567
0.411763155546
0.196151109109
0.0969074912547
0.0486626024628
0.024147284363
0.0112241317021
0.00447155888902
0.00176570717414
0.000650257519382
0.00094277012627
0.00128949996103
0.00131416715408
0.00131433814655
0.00131356800776
0.00131075242811
0.00130594420003
0.0012995217491
0.00129207812088
0.0012843602749
0.899720993037
0.409609436741
0.195593492372
0.0981706332875
0.0508779825087
0.0264225868628
0.0131178348016
0.00583582072485
0.00212247948952
0.000878960150021
0.000589558888072
0.00117658509982
0.00131886048552
0.00131850540139
0.00131693430865
0.00131397390485
0.00130915627839
0.00130273161935
0.00129521861881
0.00128731729517
0.892022561996
0.403986750837
0.193462476015
0.0986739212295
0.0525394920088
0.0281517344858
0.01459032574
0.00700474698884
0.00291785213073
0.00103115525083
0.000518301747534
0.00086666671909
0.00130849025872
0.00132320732151
0.00131948551653
0.0013158606872
0.00131083391156
0.00130439111249
0.00129691911173
0.00128900692401
0.882671097957
0.397637862631
0.19200763387
0.0996784413361
0.0540500509569
0.0294117733169
0.015599178481
0.00794007566684
0.00368411056903
0.00141267603641
0.000697740577653
0.000564121168309
0.00123633274338
0.0013288590407
0.00132171095644
0.00131679385189
0.0013113973374
0.00130494417461
0.00129760743537
0.00128982702622
0.883596044091
0.398966525863
0.195189192174
0.102327717213
0.0556096341425
0.0302618927773
0.0162949367452
0.00873213538615
0.00443202146395
0.00192409109374
0.000785421334941
0.000497238842973
0.00104881187351
0.00133517596295
0.00132520387723
0.00131781312274
0.00131177743182
0.00130525056079
0.00129804680291
0.00129041549997
0.898548421592
0.415291952187
0.205281541864
0.106842998531
0.0570768521546
0.0308137879626
0.0169086875805
0.00951398279694
0.00523103235833
0.00255295730926
0.00105404840467
0.000635425829949
0.000769363856025
0.00132719053827
0.00133331547364
0.00132073902454
0.00131337903293
0.00130648937449
0.00129920064838
0.00129151791208
0.962058286992
0.452555022679
0.221323428554
0.111620040984
0.0580351175645
0.0313066027552
0.0176599404728
0.0103923348163
0.00615918198112
0.0032961439411
0.00145375157378
0.000728527698648
0.000569869625873
0.00120234178134
0.00134903408207
0.00132799077597
0.00131769812037
0.00130981263443
0.0013019563396
0.00129377882445
1.10555572765
0.504752210952
0.236646183613
0.115541131553
0.0593910089658
0.0323635184797
0.0187259438848
0.0114303045275
0.00713612269465
0.00413166337975
0.00192896844479
0.000926065541413
0.000691574794653
0.000773095381163
0.00134065753669
0.00134178544478
0.00132577274252
0.00131594367886
0.0013068577801
0.00129757644563
1.22978667941
0.541620329566
0.249914596594
0.121106789336
0.0621997940983
0.034121501542
0.0200241654553
0.0125027998974
0.00808294416363
0.00496239090623
0.00246425834324
0.00119587142728
0.000733317956778
0.000539160803033
0.00109704851399
0.00135815512127
0.00133789458535
0.00132498537465
0.00131401344105
0.00130300167468
1.26702439236
0.560758244483
0.259671060644
0.126242178638
0.0650582645038
0.0358531103777
0.0212122062127
0.0134397062673
0.0089073829146
0.00568273160653
0.00294812541106
0.00143785416195
0.000950214002071
0.000670539070093
0.000585910931191
0.00132378800119
0.00135346418678
0.0013365991172
0.00132322255933
0.00130996931645
1.28308041768
0.569506606423
0.264531485932
0.129190408528
0.0669120271269
0.0370514426472
0.0220561022181
0.0141389369831
0.00957418587603
0.00628785907216
0.00332770563456
0.00161008164543
0.0010998371374
0.000752691270693
0.000454594842654
0.00107463832534
0.00136779854852
0.00135031036013
0.00133415918831
0.00131833424552
1.29141920554
0.573406688513
0.266652098146
0.130435723147
0.0677088079593
0.037627339164
0.0225459578597
0.0146571170444
0.0101510576591
0.00679321158283
0.00361883794363
0.00171277595392
0.00119300905722
0.000898278006167
0.000572518220679
0.000681837900566
0.00136278216508
0.00136539049098
0.00134637484419
0.00132786897979
1.29884144303
0.577004733238
0.268222647683
0.131008772255
0.0680142574654
0.0379266833623
0.022932724137
0.0151964110677
0.0107056758429
0.00720649512046
0.00386238081389
0.00180533020375
0.00126555199187
0.000994820567671
0.000575765267379
0.000471253260012
0.00131787950049
0.00138086272271
0.00135918350562
0.00133812810252
1.31393215737
0.582619948978
0.27049656672
0.131922492237
0.068536614621
0.038386833638
0.0234901030801
0.015824537175
0.0111987075979
0.00757145845839
0.00413337657419
0.00193532636338
0.00135151817243
0.00107995514854
0.000653869617693
0.000433363417639
0.00124634640541
0.00139570168724
0.00137152871627
0.00134831877404
1.33787421858
0.591098154922
0.273814316314
0.133589746664
0.0695840624817
0.0391891683173
0.0242553501216
0.0164328650981
0.0116185656027
0.00793877683853
0.00448689968032
0.00214215009741
0.00146832056005
0.00118796890592
0.000773832274933
0.000487036762624
0.00116522114027
0.00140991901475
0.00138226306638
0.00135738022921
1.37173305474
0.60272465361
0.278117607844
0.135879706335
0.071088840871
0.0402970095777
0.0250693022432
0.0169366984916
0.0119930792151
0.00832377914852
0.00492441268268
0.00241148857673
0.00160860470986
0.00133858469911
0.000938147135802
0.000620544928746
0.00105367318537
0.00142620997379
0.00139108068818
0.00136440007677
1.40083180205
0.612773577602
0.281909470684
0.138097323032
0.0727114287367
0.0414535417368
0.0257589814522
0.0173222398988
0.0122920689317
0.00866449628529
0.00531742561097
0.00265794294625
0.00173873770794
0.00153366670626
0.00116037378872
0.000821963002936
0.000860305908859
0.00144454103318
0.00139912087326
0.00136908889206
1.41429646838
0.61462923659
0.283035053568
0.13990767644
0.0744421321601
0.0425878021229
0.0262800836691
0.0175369892304
0.0124300612233
0.00882722409111
0.00550549124506
0.0028509912039
0.00184059312824
0.00165961968941
0.00140907172744
0.000864846660197
0.000665000929247
0.00143502877848
0.00140907966109
0.00137204558847
1.39761096355
0.605317505921
0.282471415941
0.142278551289
0.076617643472
0.0436527961403
0.0265061141536
0.0174469022515
0.0122780098379
0.00865675388496
0.00555051049325
0.00300624993061
0.00189272563651
0.00172047203491
0.00157621916701
0.00111833288199
0.000714876483221
0.00128042020419
0.0014240293586
0.00137457126366
1.35267986218
0.596309175574
0.28554594012
0.146719119823
0.0790697317645
0.0440881837409
0.0261029834652
0.0169215108783
0.0117996842221
0.00835094139567
0.00554024342825
0.00310021988809
0.00190054961063
0.00172404240027
0.00161985488391
0.00130418949623
0.000813931621384
0.000889852687316
0.00143696821554
0.00137809288747
1.31340343173
0.602001926285
0.296261737084
0.153292172244
0.0803677917951
0.0435238343053
0.0254564137734
0.0163444821084
0.0113299601118
0.00809643685122
0.00551720584355
0.00316138593361
0.00187563124603
0.00167808489804
0.00160540439357
0.0013972814805
0.000897920411404
0.000613503357287
0.00139123545672
0.00138380703047
1.32383237581
0.628684910753
0.314147782553
0.159452869969
0.081482055414
0.0438262187096
0.0253546625618
0.0161056736883
0.0111200606292
0.00801639326395
0.00558590089773
0.00325260796689
0.0018417197386
0.00159749219717
0.00155902889276
0.00141780599617
0.00105009800529
0.000673216713214
0.00115599068615
0.00139114959693
1.38695404527
0.669658928669
0.331617483411
0.166232619511
0.0854638892574
0.0460394990725
0.0263249106028
0.0164683175215
0.0112752516762
0.00818667532361
0.00582819032883
0.00344708235389
0.00183977985187
0.00150982249321
0.00150235962595
0.00141651998797
0.00116425802716
0.000726267016344
0.000749973049052
0.00139004600215
1.50083782495
0.711068500796
0.344679437417
0.176935641408
0.0942430499958
0.0505221574632
0.028384495433
0.0174040192105
0.0117728807509
0.00859138701457
0.00624359032863
0.00378227170951
0.00191383810031
0.00144612578144
0.00145621862955
0.00143016945779
0.00126112844831
0.000817536881997
0.000515705611531
0.0013319128899
1.63506807224
0.74973731104
0.360295277552
0.188896469406
0.104130858967
0.0563390371174
0.0310827528006
0.0186961313417
0.0125044732037
0.00915071140637
0.00675985856058
0.00422276244823
0.00208055414036
0.00142767006762
0.00143417301497
0.00146204181327
0.00133882740058
0.000977332841145
0.000569307331041
0.00110699867975
1.73690029585
0.788540118245
0.37937386537
0.20002188181
0.111671363209
0.0611663058266
0.0337793428346
0.020136603153
0.0133699196196
0.00978281710818
0.00728955845763
0.00469105557278
0.0023211015585
0.00145952939703
0.00143680132613
0.00150203598597
0.00139374679531
0.00111291816029
0.000640099714474
0.000720175262946
1.79113704209
0.819957793202
0.396193513671
0.208953327307
0.116902540438
0.0642047637031
0.0356053519597
0.0212853611113
0.0141584425746
0.0103789761821
0.00774894947445
0.005079148613
0.00257752979543
0.00153236119342
0.00145810403762
0.00154313801183
0.00144532512868
0.00121892296216
0.00072753042622
0.000467593144913
1.82007599866
0.840896541649
0.409061628922
0.215484719149
0.119721392882
0.0653908924914
0.0364354051024
0.0219859019821
0.0147679987128
0.0108856526801
0.00811935925636
0.0053605226456
0.00277606024959
0.00161398165997
0.00149277266308
0.00158482993368
0.00149615390868
0.00128605725914
0.000871042694177
0.000450032370036
1.83910230149
0.855921134253
0.418819117823
0.219871675919
0.120186957673
0.0649289002081
0.0364296043118
0.0223074827948
0.0152165256915
0.011287914207
0.00838940804053
0.00554008517013
0.002907838536
0.00168706955424
0.00153607203392
0.00162837145402
0.00154982446322
0.00133589791279
0.000983763190223
0.000559068929716
1.86541834411
0.87038640516
0.426988486823
0.222388606663
0.118531252495
0.063402597165
0.0359339653238
0.0223940449619
0.0155367459627
0.0115686581809
0.00855074628496
0.00562855833425
0.00298358504458
0.00174791840746
0.00158241504731
0.00167279927243
0.00160756956142
0.00139352346458
0.00107941599314
0.000623457222103
0.00123736684112
0.00123716358427
0.00123718255575
0.0012373854555
0.00123776059888
0.00123831260196
0.00123905425806
0.00123999789096
0.00124114357486
0.00124246241441
0.00124387428541
0.00124522257717
0.00124625450179
0.0012466240579
0.00124594454758
0.0012440061556
0.00124303921066
0.00129196192014
0.00262316227791
0.0232987895633
0.00123667093201
0.00123614802232
0.00123611324884
0.00123646884807
0.00123716307531
0.00123816791798
0.00123945760589
0.00124098913758
0.00124268420989
0.00124441462064
0.00124599491023
0.00124718397464
0.00124768545207
0.00124711134551
0.00124489544326
0.00124129068916
0.00126050668186
0.00172017889046
0.00713604079907
0.0433781802355
0.00124178009608
0.00124067552605
0.00124037155627
0.00124068839812
0.00124149935208
0.00124270252121
0.00124419125041
0.00124583245844
0.00124745469686
0.00124884698212
0.00124976372857
0.001249918924
0.00124893259603
0.00124617888234
0.00124076672688
0.00123699563521
0.00133292888954
0.00268732238477
0.0129855398876
0.0557953467306
0.00124820752712
0.00124634269193
0.00124555772011
0.00124559735613
0.001246249364
0.00124732274131
0.00124862177536
0.00124993253163
0.00125102191751
0.00125164252846
0.00125152624346
0.00125033741726
0.00124754303966
0.00124220734423
0.00123388274353
0.00124202725797
0.00154226979962
0.00444304810408
0.0194694543504
0.0625762530512
0.00125537260084
0.00125268438402
0.00125128252891
0.00125085850584
0.00125112406384
0.001251805541
0.00125263185911
0.00125333219895
0.00125363948585
0.00125328612656
0.00125197007209
0.00124926207478
0.001244429103
0.00123640353605
0.00122766817379
0.00127673639819
0.00199254386919
0.00699110890378
0.0252986287814
0.0658248270977
0.00126226645185
0.0012587525388
0.0012566595552
0.00125565070595
0.00125538003291
0.00125550765507
0.00125570640241
0.00125566793097
0.00125510230477
0.00125371624114
0.00125115031413
0.00124685430247
0.0012399356792
0.00122980545682
0.0012272749172
0.00137175234887
0.00278284505113
0.0100503669668
0.0297449803675
0.0671122677157
0.00126839391924
0.00126408894608
0.00126127873832
0.00125962269064
0.00125873543538
0.00125822861719
0.00125773516585
0.00125691946909
0.00125546822782
0.00125305049042
0.00124923337096
0.00124335321927
0.00123453007114
0.00122397162106
0.00124076008274
0.00156767776738
0.00395672560994
0.0131603204416
0.0327446885065
0.0673133232587
0.00127345965864
0.00126843593091
0.00126493286017
0.00126262261751
0.00126109665726
0.00125993429846
0.00125874073588
0.00125715774101
0.00125484480474
0.00125142481007
0.00124639093114
0.00123902076107
0.00122881452616
0.00122120201376
0.00127990261534
0.00190937181268
0.00546317868192
0.0159233409587
0.0345988645473
0.0668797626279
0.00127731313383
0.00127168696129
0.00126756777645
0.00126464632825
0.00126250532126
0.00126070642176
0.00125883704687
0.00125651945684
0.00125338373179
0.00124900559938
0.0012428235242
0.0012341750028
0.00122360250082
0.00122484501199
0.0013606839261
0.00243343660476
0.00716480719872
0.0181426217991
0.035648352726
0.0660579301326
0.0012799374346
0.00127386845688
0.00126924942616
0.00126579357989
0.00126308853843
0.00126069238363
0.00125818418909
0.00125517057884
0.00125125370269
0.00124597032665
0.00123874810077
0.00122919358254
0.00121999338194
0.00123964696749
0.00150281162883
0.00315275844881
0.00888996918514
0.0198055458227
0.0361538217156
0.0649956261175
0.00128149032572
0.00127514885134
0.0012701540089
0.00126624576837
0.00126303002887
0.00126007476976
0.00125695991753
0.001253281577
0.00124861960543
0.00124249067321
0.00123438799749
0.00122452654552
0.00121948252691
0.00127209990006
0.00172750174937
0.00404688092055
0.0104926764589
0.0209953324243
0.0362923524709
0.0637861868781
0.0012823233582
0.00127583266763
0.00127054641911
0.00126623597757
0.00126253720028
0.00125903920363
0.00125533050725
0.00125100237067
0.00124562218628
0.00123871835666
0.00122997025788
0.00122072769391
0.00122411413845
0.0013306614829
0.00205322803298
0.00506463595432
0.0118863909629
0.0218168437376
0.0361820082217
0.0624902278099
0.00128294324753
0.00127631229328
0.00127072965018
0.00126600080647
0.00126179819362
0.00125773804014
0.00125342170266
0.00124844078545
0.00124236445232
0.00123478114017
0.0012257380373
0.0012185129672
0.00123667685936
0.00142568061382
0.00249051601421
0.0061381213701
0.0130441835066
0.0223617746954
0.035902153098
0.0611479417866
0.00128389630004
0.00127697263516
0.00127096930635
0.00126572284029
0.00126093992434
0.00125626174582
0.00125130160873
0.00124565558103
0.00123891411319
0.00123079578557
0.00122198265796
0.00121885087291
0.00126093202663
0.00156884734864
0.0030379269216
0.00720085787401
0.0139792093806
0.0227010075511
0.0355065912376
0.0597862704415
0.00128561859071
0.00127808986197
0.00127143027626
0.00126549545136
0.00126001318081
0.00125463856759
0.00124899082429
0.0012426740977
0.0012353270166
0.00122689857769
0.00121909412541
0.00122308634059
0.00130185037272
0.00177202631537
0.00368107303811
0.00820191185317
0.0147228536988
0.0228874064949
0.0350320185175
0.0584229479747
0.00128834428343
0.00127979198001
0.00127217261573
0.00126534062469
0.0012590229296
0.00125287101771
0.00124650089896
0.00123952995643
0.00123168317314
0.00122328354342
0.00121762278462
0.00123309623587
0.00136580313782
0.00204547026934
0.00439509614756
0.00911153146002
0.0153098024813
0.0229601742528
0.0345035569866
0.0570687026563
0.00129213210423
0.00128211180558
0.00127321567449
0.00126527463865
0.00125799005424
0.00125099065236
0.00124388057024
0.0012363003637
0.00122811689709
0.00122023399994
0.00121834498875
0.00125147015189
0.00146058506475
0.00239564121076
0.00514956547477
0.00991894076384
0.0157709242362
0.022948249029
0.033938363873
0.0557285186866
0.00129697235552
0.00128508440715
0.00127462077968
0.00126537502356
0.00125700345102
0.0012490965209
0.001241241896
0.00123312186695
0.00122482657107
0.00121813993897
0.0012223321738
0.00128169477723
0.00159505372962
0.00282314082675
0.00591397922223
0.0106260253694
0.0161311571043
0.0228727028004
0.0333480025027
0.054402637609
0.00130286394218
0.00128879724283
0.00127652179365
0.00126579715096
0.00125622631975
0.00124735329418
0.00123875177222
0.00123017742535
0.00122206280358
0.00121750517204
0.00123102762607
0.00132828564786
0.00177816156001
0.00332145713301
0.00666216153089
0.0112407775249
0.0164096408748
0.0227485187727
0.0327400668937
0.0530877440973
0.00130976925239
0.00129333531544
0.00127907049906
0.00126672362548
0.00125584987817
0.0012459485388
0.00123659231844
0.00122766113105
0.00122010380217
0.0012189551704
0.0012463314693
0.0013967644093
0.00201736788479
0.00387717804715
0.00737461123663
0.0117727137489
0.0166205931799
0.0225860131993
0.0321193696385
0.0517784946863
0.00131747724924
0.00129865510931
0.00128232782485
0.00126827189537
0.00125601434639
0.00124502482541
0.00123490349066
0.00122573342854
0.00121923181686
0.00122325928215
0.00127068293805
0.00149336553683
0.00231681698594
0.00447187925502
0.00803883207021
0.0122306646135
0.0167743908665
0.0223920516224
0.0314888618693
0.0504692642462
0.00132548092906
0.00130447305234
0.00128616377113
0.00127040431862
0.00125672902591
0.00124461135991
0.00123372924075
0.00122448713147
0.00121973064127
0.00123138203481
0.00130711685197
0.00162443416391
0.00267598320096
0.00508521353527
0.00864835486442
0.0126222768691
0.0168786886397
0.022171130249
0.0308503641103
0.0491557799279
0.00133299419691
0.00131025408246
0.00129022733913
0.00127288833669
0.00125783209242
0.00124459173229
0.00123300044028
0.00122395325255
0.00122192680517
0.00124457181811
0.00135926843071
0.0017956375861
0.00308940629644
0.00569820163886
0.00920128079023
0.0129543150732
0.0169394391192
0.0219263123858
0.030205127628
0.0478362542726
0.001339183977
0.00131534872038
0.00129402732348
0.00127534779175
0.00125903104558
0.00124474522755
0.00123258452165
0.00122416577479
0.00122628043982
0.00126447594058
0.00143131254456
0.00201122639167
0.00354764002205
0.00629567994908
0.00969886642386
0.0132330607056
0.016961656226
0.0216599493848
0.0295542140716
0.0465117582324
0.00134351523296
0.00131923766771
0.00129711398907
0.00127740928776
0.00126002952219
0.00124486162155
0.00123239206695
0.00122526529778
0.00123349786823
0.00129325004471
0.00152783487425
0.0022735194873
0.00403895268123
0.00686730818512
0.0101443066691
0.0134644626742
0.016949823657
0.0213741183191
0.0288986840788
0.0451858522255
0.00134602464765
0.00132177078085
0.00129928333054
0.00127887750928
0.00126067647303
0.00124486508085
0.00123247731513
0.00122758421835
0.00124461917997
0.00133362555785
0.00165361779317
0.00258261229735
0.00455107408757
0.00740719795998
0.0105417143876
0.013654017556
0.0169079866312
0.0210707838452
0.0282396249293
0.0438637761708
0.00134729028095
0.00132321740727
0.00130065320425
0.00127981020142
0.00126102695008
0.00124485597092
0.00123306340309
0.00123166839306
0.0012610569526
0.00138891241398
0.00181329825996
0.00293622713492
0.00507249699001
0.00791273334448
0.0108953336619
0.0138065573463
0.0168396879769
0.0207517854195
0.027578090758
0.0425516168616
0.00134806262773
0.00132404963169
0.00130153138926
0.00128042746543
0.00126126985315
0.00124504825927
0.00123449162776
0.00123825252002
0.00128460851347
0.00146293309107
0.00201088423281
0.00332973507229
0.00559325346289
0.00838329894358
0.0112090808309
0.013926153596
0.0167479356996
0.0204187943405
0.0269150416642
0.0412557470284
0.00134901054392
0.00132471617642
0.00130223838056
0.00128097290721
0.00126161841714
0.00124568661386
0.00123717049532
0.0012482552285
0.00131748783319
0.00155990280713
0.00224922541242
0.00375651953359
0.00610534489783
0.00881940862101
0.0114864501923
0.0140162311352
0.0166353012069
0.0200733421016
0.0262513318928
0.0399825547175
0.00135073857331
0.00132558896695
0.0013030508901
0.001281667416
0.00126227872483
0.0012470345457
0.0012415941619
0.00126284378438
0.00136240691399
0.00168428876618
0.00252963272603
0.00420879208138
0.00660298200671
0.00922233073907
0.0117306756233
0.0140798207325
0.0165041137377
0.0197169266329
0.0255877393487
0.038738245686
0.00135409248976
0.00132709822073
0.00130428877707
0.00128277949842
0.00126351517773
0.00124944448668
0.0012484340275
0.00128356877549
0.00142270747574
0.0018406844977
0.00285180700749
0.00467870545732
0.00708263388662
0.00959399104276
0.0119449318948
0.0141197846982
0.0163566311817
0.0193511253788
0.0249249918596
0.0375284564983
0.00136019192459
0.00132983754468
0.00130640828274
0.00128471386656
0.00126573550562
0.00125344703559
0.00125865564697
0.00131253688532
0.00150251752137
0.00203369216381
0.00321405747036
0.00515936284094
0.00754278657797
0.00993684631721
0.0121323731075
0.0141388694848
0.016195073272
0.0189776262128
0.0242637500673
0.0363575635892
0.00136888239149
0.00133445195913
0.00130995970832
0.00128800253061
0.0012695009078
0.00125978716551
0.00127361225717
0.00135258619475
0.00160686769961
0.00226771310115
0.00361359279345
0.00564530591428
0.00798334778262
0.0102535385204
0.0122959266142
0.014139544876
0.016021481247
0.0185981281624
0.0236045406074
0.0352278177972
0.0013720159679
0.00134148456049
0.00131543256803
0.00129317455438
0.00127543055805
0.00126938642082
0.00129510379221
0.00140743040765
0.00174164096706
0.00254648107181
0.0040466257691
0.00613231004967
0.00840478032934
0.0105463538228
0.0124379246622
0.0141237199154
0.0158374730393
0.0182141391405
0.0229476735409
0.0341386357765
0.00133434728257
0.00135128638149
0.00132305717127
0.00130055276546
0.00128404403076
0.00128327287421
0.00132542446054
0.00148171669152
0.00191318310807
0.00287224541964
0.0045082075445
0.00661667912418
0.0088072186036
0.0108167016026
0.012559781249
0.0140925157296
0.0156440398867
0.0178267703417
0.0222932022618
0.0330864234184
0.00118648181445
0.00136356222317
0.00133265089223
0.00131011047667
0.00129567005103
0.00130257861973
0.00136743741966
0.00158091613922
0.00212747485316
0.00324478095427
0.00499200768902
0.00709452129951
0.00918991983513
0.0110648992181
0.0126619408483
0.0140462723514
0.0154415302461
0.0174366405994
0.0216409629409
0.0320651166542
0.000918448719648
0.00137557354029
0.00134372117105
0.00132158893149
0.00131057833977
0.0013287051253
0.00142469559847
0.00171099423659
0.00238902978092
0.00366073411926
0.00549045114892
0.00756150819933
0.0095513042104
0.0112904207172
0.0127441846375
0.0139848345365
0.015229856319
0.0170439054947
0.0209904508647
0.0310670913412
0.000648474833311
0.00137942851191
0.0013559371104
)
;

boundaryField
{
    emptyPatch
    {
        type            empty;
    }
    minY
    {
        type            fixedValue;
        value           uniform 0.000138;
    }
    maxY
    {
        type            inletOutlet;
        inletValue      nonuniform List<scalar> 0();
        value           nonuniform List<scalar> 0();
    }
    maxX
    {
        type            kqRWallFunction;
        value           nonuniform List<scalar> 
37
(
0.0232987895633
0.0433781802355
0.0557953467306
0.0625762530512
0.0658248270977
0.0671122677157
0.0673133232587
0.0668797626279
0.0660579301326
0.0649956261175
0.0637861868781
0.0624902278099
0.0611479417866
0.0597862704415
0.0584229479747
0.0570687026563
0.0557285186866
0.054402637609
0.0530877440973
0.0517784946863
0.0504692642462
0.0491557799279
0.0478362542726
0.0465117582324
0.0451858522255
0.0438637761708
0.0425516168616
0.0412557470284
0.0399825547175
0.038738245686
0.0375284564983
0.0363575635892
0.0352278177972
0.0341386357765
0.0330864234184
0.0320651166542
0.0310670913412
)
;
    }
    water_to_heater
    {
        type            kqRWallFunction;
        value           nonuniform List<scalar> 
61
(
0.0349284267033
0.48053424224
0.48053424224
0.672468849014
0.672468849014
0.825804230571
0.825804230571
0.902204853311
0.909758038249
0.894981535117
0.894981535117
0.900810626564
0.900810626564
0.902996129567
0.902996129567
0.899720993037
0.892022561996
0.882671097957
0.882671097957
0.883596044091
0.883596044091
0.898548421592
0.898548421592
0.962058286992
1.10555572765
1.22978667941
1.22978667941
1.26702439236
1.26702439236
1.28308041768
1.28308041768
1.29141920554
1.29884144303
1.31393215737
1.31393215737
1.33787421858
1.33787421858
1.37173305474
1.37173305474
1.40083180205
1.41429646838
1.39761096355
1.39761096355
1.35267986218
1.35267986218
1.31340343173
1.31340343173
1.32383237581
1.38695404527
1.50083782495
1.50083782495
1.63506807224
1.63506807224
1.73690029585
1.73690029585
1.79113704209
1.82007599866
1.83910230149
1.83910230149
1.86541834411
1.86541834411
)
;
    }
    procBoundary2to3
    {
        type            processor;
        value           nonuniform List<scalar> 
41
(
1.90530131024
0.894018638603
0.439034955122
0.225194214417
0.116407263416
0.0617509373966
0.035309798232
0.0223786163269
0.0157488060699
0.0117201513556
0.0086091419984
0.00564333063859
0.00301938301811
0.00179611531913
0.0016250810067
0.00171345971682
0.00167012063347
0.00146899867478
0.00117683222217
0.000666308239431
0.0013348953106
0.00132932715422
0.00136363412532
0.00150155949961
0.00187790098101
0.00269995770335
0.0041138165922
0.00599542519217
0.00801325169835
0.00988950064947
0.0114924886412
0.0128062059362
0.0139081756027
0.0150094209897
0.0166501323477
0.0203450989749
0.0300896177048
0.000481924693628
0.00136160327242
0.0013348953106
0.00136960703164
)
;
    }
}


// ************************************************************************* //
