/*--------------------------------*- C++ -*----------------------------------*\
| =========                 |                                                 |
| \\      /  F ield         | OpenFOAM: The Open Source CFD Toolbox           |
|  \\    /   O peration     | Version:  2312                                  |
|   \\  /    A nd           | Website:  www.openfoam.com                      |
|    \\/     M anipulation  |                                                 |
\*---------------------------------------------------------------------------*/
FoamFile
{
    version     2.0;
    format      ascii;
    arch        "LSB;label=32;scalar=64";
    class       volScalarField;
    location    "0.41/water";
    object      alphat.gas;
}
// * * * * * * * * * * * * * * * * * * * * * * * * * * * * * * * * * * * * * //

dimensions      [1 -1 -1 0 0 0 0];

internalField   nonuniform List<scalar> 
1504
(
2.9391129239e-06
3.14143601814e-06
2.77631043979e-06
2.17846003578e-06
1.62080676336e-06
1.19779718472e-06
9.0412020608e-07
7.06566036891e-07
5.66672910008e-07
4.4577919449e-07
3.14738727195e-07
1.75761255367e-07
6.8912017454e-08
2.70831320601e-08
2.01157664167e-08
1.98383879234e-08
1.94856808984e-08
1.96933828847e-08
2.1618771377e-08
3.18475380276e-08
3.10436856132e-06
3.23530724264e-06
2.81818584971e-06
2.26056038212e-06
1.73936997461e-06
1.3123935785e-06
9.88590715072e-07
7.61844121403e-07
6.11333818235e-07
4.99812488607e-07
3.82669392107e-07
2.38422378221e-07
1.00096398352e-07
3.41199692393e-08
2.11671237795e-08
1.99221026329e-08
1.936767811e-08
1.92317848181e-08
2.09100306774e-08
2.71982498608e-08
2.96742257954e-06
3.09920509247e-06
2.74587285087e-06
2.26508102646e-06
1.81526410119e-06
1.42125257375e-06
1.08325050506e-06
8.25944355806e-07
6.54408393282e-07
5.4333235745e-07
4.41287504376e-07
3.03343253512e-07
1.40724477156e-07
4.50231900158e-08
2.29537560552e-08
2.02521795091e-08
1.9411172771e-08
1.89166758116e-08
2.0155777975e-08
2.51025660234e-08
2.92036962005e-06
3.03677265894e-06
2.69750072735e-06
2.25234331285e-06
1.85059394353e-06
1.4904590559e-06
1.15961093122e-06
8.82858885756e-07
6.89485484569e-07
5.7277727194e-07
4.82063907274e-07
3.56951856462e-07
1.83619820144e-07
5.97397103132e-08
2.56872569115e-08
2.07851970222e-08
1.96013063457e-08
1.88152190819e-08
1.95924007112e-08
2.34162771033e-08
2.88087375186e-06
2.9965253407e-06
2.66448284082e-06
2.23764477968e-06
1.86579790098e-06
1.52943866236e-06
1.20543653542e-06
9.19988531222e-07
7.14395990197e-07
5.91823980961e-07
5.06972800344e-07
3.93467040924e-07
2.20597403382e-07
7.69088789301e-08
2.95051626241e-08
2.14817818777e-08
1.99019751403e-08
1.89106983932e-08
1.92985853563e-08
2.22064688919e-08
2.85640662204e-06
2.96051795514e-06
2.63057016952e-06
2.21595390945e-06
1.86426861725e-06
1.54531079109e-06
1.22683289746e-06
9.39776148305e-07
7.31051390628e-07
6.06272624855e-07
5.23726862126e-07
4.16341258442e-07
2.4615278628e-07
9.24045278088e-08
3.39872007705e-08
2.23838734547e-08
2.02513864548e-08
1.91280097977e-08
1.92281112084e-08
2.1449244445e-08
2.8234659491e-06
2.93058662762e-06
2.60323947077e-06
2.1932505557e-06
1.85146952276e-06
1.54179779793e-06
1.22735294439e-06
9.44629522847e-07
7.40728504599e-07
6.1840471495e-07
5.37190687516e-07
4.31078072352e-07
2.6142346571e-07
1.03129945366e-07
3.77502952687e-08
2.32440160848e-08
2.05715972203e-08
1.93813334438e-08
1.92847178621e-08
2.10419293487e-08
2.80481194498e-06
2.91165878664e-06
2.58516890474e-06
2.17453080591e-06
1.83265477945e-06
1.52347680349e-06
1.21113609454e-06
9.38266254001e-07
7.455568666e-07
6.29478465497e-07
5.49122449557e-07
4.39973746228e-07
2.67891472834e-07
1.08416837235e-07
4.0091574429e-08
2.38500596145e-08
2.07894688424e-08
1.95897586602e-08
1.93649843202e-08
2.07861075668e-08
2.77736499408e-06
2.89808504517e-06
2.576383998e-06
2.16174379364e-06
1.81144329871e-06
1.49490116332e-06
1.18502511793e-06
9.26973455832e-07
7.48974840234e-07
6.40695926876e-07
5.59659073559e-07
4.43478694009e-07
2.66764533112e-07
1.08683524477e-07
4.08388848953e-08
2.41038400961e-08
2.08749030459e-08
1.9688703264e-08
1.94108174114e-08
2.05912010938e-08
2.76534495218e-06
2.89336296533e-06
2.57183570927e-06
2.15118127302e-06
1.78732725698e-06
1.45967066561e-06
1.1565199036e-06
9.16260760776e-07
7.53207788626e-07
6.52186412437e-07
5.6783202346e-07
4.41450666713e-07
2.59330334134e-07
1.0502984745e-07
4.02326673419e-08
2.40116525874e-08
2.08181600082e-08
1.96872714265e-08
1.94235697269e-08
2.03977524793e-08
2.75798337469e-06
2.89180566117e-06
2.56529084969e-06
2.13485817125e-06
1.75570042124e-06
1.42027755099e-06
1.1297959448e-06
9.07702060888e-07
7.58415063544e-07
6.63002664554e-07
5.72393608394e-07
4.33963857056e-07
2.47033016271e-07
9.88051075498e-08
3.87086193895e-08
2.36518867141e-08
2.06406692288e-08
1.96152097747e-08
1.93926645328e-08
2.01690125173e-08
2.7687755755e-06
2.90169636972e-06
2.56214557367e-06
2.11182981539e-06
1.71425313553e-06
1.37842049059e-06
1.10470639039e-06
9.00121723684e-07
7.64024580523e-07
6.72058397372e-07
5.72505391884e-07
4.21182699568e-07
2.31230587939e-07
9.12008323707e-08
3.66770225678e-08
2.31180262246e-08
2.03726159632e-08
1.94857718134e-08
1.93108834431e-08
1.98898189501e-08
2.77309573527e-06
2.91110319996e-06
2.55640249492e-06
2.0784223156e-06
1.66409268949e-06
1.33534267143e-06
1.07969772243e-06
8.92749695916e-07
7.70004059387e-07
6.78806352338e-07
5.67737940472e-07
4.03253536922e-07
2.13232199024e-07
8.31632592786e-08
3.44573377432e-08
2.24907481036e-08
2.00400045251e-08
1.92955791063e-08
1.91777815705e-08
1.95608669666e-08
2.77996343047e-06
2.90829997629e-06
2.53531905768e-06
2.03373665734e-06
1.61047218715e-06
1.29227952525e-06
1.05467149389e-06
8.87303548598e-07
7.77337924901e-07
6.83158089315e-07
5.57621402789e-07
3.80780022117e-07
1.94577900279e-07
7.55082592473e-08
3.23037829494e-08
2.18381349761e-08
1.96633975124e-08
1.90391462319e-08
1.89912049699e-08
1.91609626565e-08
2.78136932965e-06
2.88800836892e-06
2.49547685734e-06
1.98104709656e-06
1.55726801019e-06
1.25096669317e-06
1.03323279158e-06
8.88029848427e-07
7.87685170302e-07
6.84938960601e-07
5.41587125247e-07
3.55469759135e-07
1.77167067158e-07
6.90099139374e-08
3.0449665867e-08
2.12255841867e-08
1.92653088472e-08
1.87135252252e-08
1.87144571907e-08
1.8662461763e-08
2.7924248043e-06
2.84762871905e-06
2.43755101873e-06
1.92104831668e-06
1.50495692552e-06
1.21543528689e-06
1.02264089535e-06
8.99618965914e-07
8.02186152353e-07
6.8319136796e-07
5.20220524672e-07
3.30672061198e-07
1.63184344805e-07
6.44666447758e-08
2.91528756954e-08
2.07320574746e-08
1.88766610809e-08
1.83165387258e-08
1.83126213981e-08
1.81060927381e-08
2.79272205928e-06
2.78805042569e-06
2.36757145459e-06
1.86033736476e-06
1.46158655703e-06
1.19579830945e-06
1.03172000203e-06
9.25629887797e-07
8.20400743388e-07
6.76119817085e-07
4.9650202495e-07
3.10661227661e-07
1.54690395119e-07
6.26934079406e-08
2.87298981458e-08
2.0460111046e-08
1.85335937164e-08
1.78671612492e-08
1.77980500944e-08
1.75521738789e-08
2.74784277343e-06
2.69506060309e-06
2.28909219802e-06
1.81314252902e-06
1.44385233922e-06
1.20615004477e-06
1.0671226959e-06
9.66706704373e-07
8.39028940651e-07
6.63608016161e-07
4.75716143794e-07
2.99309396473e-07
1.53331346737e-07
6.45705614733e-08
2.96043931887e-08
2.05500698876e-08
1.82889585478e-08
1.74198796504e-08
1.72192550133e-08
1.70043707981e-08
2.66706750305e-06
2.60465991661e-06
2.24154642027e-06
1.81248099162e-06
1.47377382303e-06
1.25696289234e-06
1.13069247045e-06
1.01887415588e-06
8.53603886266e-07
6.50342456261e-07
4.63566896649e-07
2.99078801511e-07
1.60782936897e-07
7.13468216952e-08
3.22752731054e-08
2.11471319462e-08
1.82304414118e-08
1.70568719729e-08
1.66544318022e-08
1.64797596977e-08
2.62025369187e-06
2.59679471494e-06
2.2831805393e-06
1.88892760747e-06
1.55975759028e-06
1.34551595027e-06
1.21520134117e-06
1.07321431278e-06
8.66103065604e-07
6.46620426937e-07
4.64681617641e-07
3.11619724487e-07
1.79181191446e-07
8.40840715968e-08
3.70166018935e-08
2.23311448292e-08
1.84356455757e-08
1.68547859965e-08
1.62081679789e-08
1.60037222742e-08
2.68686613308e-06
2.72280633388e-06
2.43707198884e-06
2.03347698437e-06
1.67898476224e-06
1.45021683101e-06
1.30287772196e-06
1.12676702594e-06
8.9069968476e-07
6.5807116663e-07
4.77740098517e-07
3.38489071042e-07
2.11301693865e-07
1.05026063794e-07
4.47900940702e-08
2.43315770948e-08
1.89644681628e-08
1.69270142208e-08
1.59672132278e-08
1.56138013969e-08
2.86519498638e-06
2.95552901931e-06
2.65081108883e-06
2.18738980686e-06
1.78651353708e-06
1.53890181727e-06
1.37841464908e-06
1.18333176256e-06
9.28844099317e-07
6.85139768357e-07
5.06854753689e-07
3.79534443707e-07
2.5721760145e-07
1.36855774868e-07
5.71834406243e-08
2.75223171741e-08
1.98262373151e-08
1.73339210133e-08
1.59641850921e-08
1.53643390945e-08
3.07896964552e-06
3.20539018137e-06
2.82959850204e-06
2.29000703793e-06
1.84695545648e-06
1.58683009916e-06
1.42780535737e-06
1.23681724445e-06
9.81755146754e-07
7.33914678985e-07
5.5188513743e-07
4.26901896747e-07
3.10538241166e-07
1.7950575375e-07
7.565975508e-08
3.23188989995e-08
2.09921319436e-08
1.79492380553e-08
1.6273994553e-08
1.53104038421e-08
3.20190487755e-06
3.32698408085e-06
2.89704751075e-06
2.32144646783e-06
1.85763064114e-06
1.59122798295e-06
1.44360352457e-06
1.28030524778e-06
1.04546778536e-06
7.98142161107e-07
6.04294069779e-07
4.7144064132e-07
3.60152028226e-07
2.26679588929e-07
9.97459706129e-08
3.89096971538e-08
2.24176380588e-08
1.85182046193e-08
1.67805767902e-08
1.54230379387e-08
3.18718659497e-06
3.30621511371e-06
2.87001994736e-06
2.29636991097e-06
1.83406966509e-06
1.57193960075e-06
1.43857460183e-06
1.30337950676e-06
1.0973782488e-06
8.59209032585e-07
6.54111067837e-07
5.08331782916e-07
3.98261174817e-07
2.68503217052e-07
1.25916608622e-07
4.70083452233e-08
2.4082470842e-08
1.89213465998e-08
1.72404263804e-08
1.55760987842e-08
3.14076250113e-06
3.24054935293e-06
2.80144639122e-06
2.2373668588e-06
1.78954760931e-06
1.54040707689e-06
1.42272688529e-06
1.3094498199e-06
1.12516339206e-06
8.98448157206e-07
6.90102392439e-07
5.35724841951e-07
4.23903017756e-07
2.98154528587e-07
1.48565021599e-07
5.5567015083e-08
2.59759438569e-08
1.9173408183e-08
1.74521589875e-08
1.57445646219e-08
3.10003587546e-06
3.17712259969e-06
2.72952257024e-06
2.1712104082e-06
1.73819106292e-06
1.50281565757e-06
1.39927488518e-06
1.30066523103e-06
1.13041350215e-06
9.14837884406e-07
7.1019946173e-07
5.5436883687e-07
4.41031083164e-07
3.1565970715e-07
1.62582394919e-07
6.17791424818e-08
2.7502808918e-08
1.92818034418e-08
1.74169639953e-08
1.58624381558e-08
3.06102190703e-06
3.12275961023e-06
2.67242670817e-06
2.11668199505e-06
1.69126248154e-06
1.46492287082e-06
1.37139484076e-06
1.28041082194e-06
1.11796786664e-06
9.12054325043e-07
7.15761795265e-07
5.65128721564e-07
4.51948099814e-07
3.2348196751e-07
1.67514385658e-07
6.42994154155e-08
2.81299356608e-08
1.9165088416e-08
1.71874391495e-08
1.5899506759e-08
3.031090227e-06
3.09002258723e-06
2.640198722e-06
2.0814022282e-06
1.65492527382e-06
1.43175097153e-06
1.34317928989e-06
1.25317879205e-06
1.09283530295e-06
8.95212387034e-07
7.11323433033e-07
5.70443594969e-07
4.58124509673e-07
3.23472301905e-07
1.64622356589e-07
6.32373061204e-08
2.7795858549e-08
1.88338760361e-08
1.68600313025e-08
1.58185366071e-08
3.02588843156e-06
3.08701066196e-06
2.62979957019e-06
2.06239050499e-06
1.63070262845e-06
1.4068174161e-06
1.3188166895e-06
1.22497068392e-06
1.06337021921e-06
8.73926303016e-07
7.04601466043e-07
5.74339297564e-07
4.61001498257e-07
3.16901969175e-07
1.55665158525e-07
5.95108958182e-08
2.67435677107e-08
1.8351034662e-08
1.64841288383e-08
1.56211947197e-08
3.04719647382e-06
3.09614048167e-06
2.62759743647e-06
2.05221415277e-06
1.61564450135e-06
1.38958264194e-06
1.30072461315e-06
1.20357187027e-06
1.0416151921e-06
8.604028883e-07
7.0398520943e-07
5.80792539947e-07
4.61898209525e-07
3.05252882174e-07
1.43046816586e-07
5.44922420824e-08
2.53770727871e-08
1.7814659455e-08
1.60870642669e-08
1.534345337e-08
3.07484757246e-06
3.10561874704e-06
2.6287626221e-06
2.04924684946e-06
1.60934932055e-06
1.38027862347e-06
1.2909883327e-06
1.19515468808e-06
1.03682890794e-06
8.6301388875e-07
7.14649604724e-07
5.9205163556e-07
4.619233954e-07
2.90889133292e-07
1.29810017307e-07
4.9645509004e-08
2.41278134126e-08
1.73354559947e-08
1.56946217006e-08
1.50051021234e-08
3.06721444437e-06
3.08325254336e-06
2.61591716983e-06
2.04836563161e-06
1.61388802891e-06
1.38472541385e-06
1.29515926186e-06
1.2030866239e-06
1.05145897402e-06
8.83599123136e-07
7.3758231023e-07
6.0855433625e-07
4.62363361323e-07
2.77313692097e-07
1.19081127181e-07
4.62094723557e-08
2.33744293332e-08
1.70269220109e-08
1.53450833977e-08
1.46399183045e-08
3.00407621738e-06
3.01836884292e-06
2.58696440797e-06
2.05332850641e-06
1.6383053048e-06
1.41593869496e-06
1.32407031533e-06
1.23094896174e-06
1.08398272945e-06
9.19755039991e-07
7.70936497681e-07
6.29721568996e-07
4.65301580286e-07
2.68886418671e-07
1.13640381027e-07
4.51853410864e-08
2.3468940374e-08
1.70247890203e-08
1.51029572202e-08
1.42954932726e-08
2.93356502793e-06
2.96802288396e-06
2.58252240115e-06
2.0889465524e-06
1.70036875715e-06
1.48823979145e-06
1.38771685979e-06
1.28250463421e-06
1.13317400007e-06
9.6857487639e-07
8.12194819064e-07
6.55301986723e-07
4.74210115816e-07
2.70676821887e-07
1.16255823202e-07
4.76705221275e-08
2.48656896423e-08
1.75379657798e-08
1.50759944155e-08
1.40366880195e-08
2.95845031584e-06
3.01783408273e-06
2.65608459944e-06
2.18541713383e-06
1.81507943951e-06
1.60584749426e-06
1.48288292373e-06
1.35394009587e-06
1.19648394653e-06
1.0273886243e-06
8.59689961401e-07
6.8737743365e-07
4.95226907049e-07
2.89080092798e-07
1.30724981091e-07
5.54435491794e-08
2.83207968226e-08
1.89001688057e-08
1.54279784539e-08
1.39602110554e-08
3.10049508598e-06
3.17035277726e-06
2.80208212217e-06
2.33055798663e-06
1.96668881527e-06
1.74610780604e-06
1.58947876288e-06
1.43347001565e-06
1.2652402222e-06
1.09078785791e-06
9.12862116941e-07
7.30519378089e-07
5.35807259699e-07
3.30621218838e-07
1.62235416415e-07
7.14629968055e-08
3.50632908545e-08
2.15786130277e-08
1.63664228248e-08
1.41641380454e-08
3.24921622777e-06
3.29365022658e-06
2.89861963498e-06
2.44439981062e-06
2.10390571892e-06
1.87922423979e-06
1.69825787041e-06
5.13079990556e-06
3.8694271353e-06
2.59643762435e-06
1.7277179126e-06
1.33681148194e-06
1.34017206554e-06
1.61832479207e-06
2.02302283181e-06
2.4165945118e-06
2.71966264454e-06
2.89662478555e-06
2.93322621307e-06
2.82819215571e-06
2.59880155396e-06
2.30377753253e-06
2.07070534674e-06
2.05079490557e-06
3.03804659343e-07
2.59751310932e-06
4.79710681203e-06
4.67745109937e-06
3.51470520926e-06
2.35830515608e-06
1.6191533069e-06
1.33915792203e-06
1.42477800382e-06
1.75044250425e-06
2.16582570425e-06
2.54759769312e-06
2.82989179268e-06
2.98349972635e-06
2.99672768882e-06
2.86893189799e-06
2.61696835225e-06
2.30051405494e-06
2.05641716505e-06
2.04974755927e-06
1.0281113854e-07
1.7445151587e-06
4.14918280558e-06
4.24232764381e-06
3.18833730738e-06
2.15423296532e-06
1.54187373926e-06
1.36631233816e-06
1.52690316497e-06
1.89111381932e-06
2.31090812003e-06
2.67845289725e-06
2.93935616516e-06
3.06966569843e-06
3.05979774908e-06
2.90954723437e-06
2.63503956056e-06
2.29595674616e-06
2.03781783652e-06
2.04563151858e-06
6.39572181486e-08
9.28481011716e-07
3.50368465836e-06
3.82638313636e-06
2.88989299717e-06
1.98257114033e-06
1.49405101547e-06
1.41721794789e-06
1.64530299008e-06
2.03934349367e-06
2.45817656071e-06
2.80941233862e-06
3.04831517818e-06
3.15528926923e-06
3.12249748033e-06
2.9500375042e-06
2.65309898929e-06
2.2904040948e-06
2.01463029989e-06
2.03495554391e-06
4.11187973313e-08
3.48982017371e-07
2.84465154481e-06
3.43156665634e-06
2.62034381004e-06
1.84297606929e-06
1.47492197568e-06
1.4911635773e-06
1.7786457361e-06
2.19419738836e-06
2.6074681012e-06
2.94057804995e-06
3.15689176183e-06
3.24044131389e-06
3.18482907143e-06
2.99035479362e-06
2.6711704348e-06
2.2841947633e-06
1.987159288e-06
2.01510605142e-06
3.23717449893e-08
1.3815998137e-07
2.12483280855e-06
3.06140885665e-06
2.38195913079e-06
1.73599591561e-06
1.48431785216e-06
1.5874094533e-06
1.92548728727e-06
2.35481239401e-06
2.75856896294e-06
3.07195081042e-06
3.26511794494e-06
3.32512930378e-06
3.24675677329e-06
3.0304185654e-06
2.68922473603e-06
2.27765034293e-06
1.95605090938e-06
1.98443635106e-06
2.87359555513e-08
8.46068699092e-08
1.34815073327e-06
2.71761192722e-06
2.17741209096e-06
1.66247589172e-06
1.52224663675e-06
1.70499663156e-06
2.08436395367e-06
2.52042806553e-06
2.91124249659e-06
3.20345953341e-06
3.37295152271e-06
3.40930205042e-06
3.30820607461e-06
3.07011724025e-06
2.70717508619e-06
2.27103326981e-06
1.92219855136e-06
1.94250606638e-06
2.63434531948e-08
6.43947751718e-08
6.96390409705e-07
2.39523565142e-06
2.00905000021e-06
1.62319416348e-06
1.5886218123e-06
1.84268722252e-06
2.25385734995e-06
2.69034530505e-06
3.06519117931e-06
3.33492922404e-06
3.48024705851e-06
3.4928263722e-06
3.36904965089e-06
3.10930365193e-06
2.72487428056e-06
2.26450950787e-06
1.88663050131e-06
1.89016269434e-06
2.46893794211e-08
4.22436131435e-08
3.22195937349e-07
2.08212402272e-06
1.87872475854e-06
1.61872367886e-06
1.68302240622e-06
1.99888957235e-06
2.43251104887e-06
2.86377051823e-06
3.2199380629e-06
3.46599764214e-06
3.58670308223e-06
3.57546166228e-06
3.42910553062e-06
3.14781218667e-06
2.74213395823e-06
2.25812919148e-06
1.85039055329e-06
1.82940284341e-06
2.34831324055e-08
3.47472295151e-08
1.64998307416e-07
1.76052370429e-06
1.78788045143e-06
1.64926902134e-06
1.80433975026e-06
2.17147179205e-06
2.61860377727e-06
3.03960461842e-06
3.37469560219e-06
3.59604613564e-06
3.6918385763e-06
3.65686910797e-06
3.48816879584e-06
3.18550404357e-06
2.75877045689e-06
2.25181575498e-06
1.81437887408e-06
1.76300839602e-06
2.25681177148e-08
3.07346226094e-08
1.05312130791e-07
1.42220421319e-06
1.73710712834e-06
1.71427961424e-06
1.95039322217e-06
2.35760042404e-06
2.80998093775e-06
3.21634917516e-06
3.52835101598e-06
3.72423215349e-06
3.79505083981e-06
3.73668138471e-06
3.54608529745e-06
3.22234309728e-06
2.77467332805e-06
2.24530002035e-06
1.77931531804e-06
1.69408334429e-06
2.18333134268e-08
2.77595917864e-08
8.03780052188e-08
1.08311602117e-06
1.72486102457e-06
1.81197475623e-06
2.11781358852e-06
2.55383818483e-06
3.00413548335e-06
3.39222874214e-06
3.67960595157e-06
3.8496207209e-06
3.89572704041e-06
3.814590885e-06
3.60281832947e-06
3.2584481307e-06
2.78986675576e-06
2.2385650991e-06
1.74573520093e-06
1.62556976971e-06
2.11927602953e-08
2.55505160793e-08
6.71665483164e-08
7.74393600276e-07
1.74648050978e-06
1.93908676144e-06
2.30228539446e-06
2.75645983296e-06
3.19845569352e-06
3.56541585429e-06
3.82716209947e-06
3.97132407772e-06
3.9933420126e-06
3.89041429022e-06
3.65849033687e-06
3.29412615461e-06
2.80459271278e-06
2.23155567008e-06
1.7136927583e-06
1.55976331986e-06
2.06130536962e-08
2.3963002412e-08
5.53803942794e-08
5.23278005535e-07
1.79339665657e-06
2.09108328443e-06
2.49912433462e-06
2.96190265745e-06
3.3905483537e-06
3.73427696996e-06
3.96989474103e-06
4.08861432546e-06
4.087524777e-06
3.96412704686e-06
3.71339697384e-06
3.32987361805e-06
2.81921899246e-06
2.22406283134e-06
1.68301559682e-06
1.49827563725e-06
1.99862568129e-08
2.28647671096e-08
4.1813148157e-08
3.39364956978e-07
1.85064856783e-06
2.26291388155e-06
2.70412481504e-06
3.16727354925e-06
3.57853310021e-06
3.89753636751e-06
4.10692794215e-06
4.20094452589e-06
4.17805346207e-06
4.03585167655e-06
3.76799953842e-06
3.36638042235e-06
2.83431054326e-06
2.21596152059e-06
1.6533664153e-06
1.44213755819e-06
1.92974899296e-08
2.20969196619e-08
3.55038953175e-08
2.18184733679e-07
1.88687765949e-06
2.44904705515e-06
2.91375980721e-06
3.37025147215e-06
3.76082980293e-06
4.05404047967e-06
4.23742169491e-06
4.30778717989e-06
4.26476138037e-06
4.10583608424e-06
3.8229655083e-06
3.40460770592e-06
2.85078035681e-06
2.20749300561e-06
1.62434149236e-06
1.39203186757e-06
1.85959551946e-08
2.14690909146e-08
3.35264843139e-08
1.50369878349e-07
1.83678633552e-06
2.64148119266e-06
3.12421161809e-06
3.56829052927e-06
3.93555798544e-06
4.20235070907e-06
4.36033935439e-06
4.40855899546e-06
4.34760551785e-06
4.17464789843e-06
3.87945501804e-06
3.44611417935e-06
2.87015031958e-06
2.19956550738e-06
1.59588207071e-06
1.34855281729e-06
1.78705268874e-08
2.09459301708e-08
3.22996880598e-08
1.18629095442e-07
1.58931717392e-06
2.82623726975e-06
3.33095662156e-06
3.75861584494e-06
4.10068558196e-06
4.34096982705e-06
4.47471382135e-06
4.50291035025e-06
4.42697496971e-06
4.24349541531e-06
3.93942779262e-06
3.49330303553e-06
2.89473755942e-06
2.19375642961e-06
1.56838082982e-06
1.31223203808e-06
1.71510032709e-08
2.04312222009e-08
3.16099388646e-08
1.05818488145e-07
1.08849847138e-06
2.97228799131e-06
3.52890252234e-06
3.93891341612e-06
4.25466261836e-06
4.46878663062e-06
4.5798450228e-06
4.59062990179e-06
4.50326650623e-06
4.31345645354e-06
4.00454421911e-06
3.54807594032e-06
2.9262158589e-06
2.19106025628e-06
1.54157917103e-06
1.28257271923e-06
1.65241909709e-08
1.9949575489e-08
3.13574679212e-08
8.07501045602e-08
5.61980448308e-07
2.9834723754e-06
3.71042102355e-06
4.10696883615e-06
4.39631619288e-06
4.58480979658e-06
4.67461869251e-06
4.67031702775e-06
4.5747119452e-06
4.38237437277e-06
4.07227281e-06
3.60759028705e-06
2.96163905515e-06
2.18867608218e-06
1.51239843959e-06
1.25655682592e-06
1.60223099118e-08
1.95234724985e-08
3.1277934109e-08
7.13962159285e-08
2.97506436226e-07
2.58167426005e-06
3.85843659906e-06
4.26021889835e-06
4.52492909483e-06
4.68815892202e-06
4.75709150923e-06
4.73830675571e-06
4.63545243251e-06
4.44206753936e-06
4.13256508443e-06
3.66114353467e-06
2.99143371402e-06
2.1796120915e-06
1.47589442146e-06
1.22947949889e-06
1.56529400251e-08
1.90603748005e-08
3.12754496001e-08
6.96634675401e-08
2.27701666449e-07
1.56767960173e-06
3.90564701025e-06
4.39611776038e-06
4.64121148653e-06
4.7791214582e-06
4.8254544435e-06
4.78938805838e-06
4.6758091089e-06
4.47798872686e-06
4.16702286405e-06
3.68945390338e-06
2.99961063362e-06
2.15396820671e-06
1.42679844025e-06
1.19580039344e-06
1.54071368907e-08
1.86583564818e-08
3.11113870317e-08
6.76707570691e-08
1.62905776506e-07
6.95997080898e-07
3.56159281158e-06
4.5066153442e-06
4.74652512166e-06
4.85919115649e-06
4.87863782168e-06
4.81772309982e-06
4.68303827152e-06
4.46908363759e-06
4.14720561558e-06
3.66148028881e-06
2.96017598776e-06
2.09620360788e-06
1.35814843728e-06
1.14916927894e-06
1.52889248249e-08
1.84674724511e-08
3.08706208667e-08
6.51283777689e-08
1.43534368302e-07
4.21852213868e-07
2.43070267176e-06
4.53200554493e-06
4.83916272298e-06
4.92938200939e-06
4.91689519091e-06
4.82050887834e-06
4.6492353934e-06
4.4007059002e-06
4.05174185052e-06
3.55280670068e-06
2.8534678056e-06
1.9987476651e-06
1.27325801364e-06
1.09220746164e-06
1.5295832589e-08
1.85061949608e-08
3.06956734991e-08
6.23566011308e-08
1.32994028163e-07
3.54005701821e-07
1.23645982982e-06
4.24053174442e-06
4.90735351291e-06
4.98583980628e-06
4.93834463618e-06
4.79626161573e-06
4.57300991106e-06
4.27181382464e-06
3.88017578041e-06
3.36424795479e-06
2.68469451691e-06
1.87608977635e-06
1.1930605615e-06
1.03892443608e-06
1.54206497702e-08
1.87709219779e-08
3.07284494643e-08
5.97547123188e-08
1.20952397027e-07
2.5170874572e-07
7.08469800394e-07
3.3470154447e-06
4.8977637515e-06
5.00192513587e-06
4.913308042e-06
4.71050104005e-06
4.41627774846e-06
4.04463783845e-06
3.60083255352e-06
3.07699818366e-06
2.45589698785e-06
1.75679727214e-06
1.15994908897e-06
1.02066458971e-06
1.56398444323e-08
1.92380083025e-08
3.10536403414e-08
5.76754888961e-08
1.09156192104e-07
2.06370269745e-07
5.26001697686e-07
2.21312300585e-06
4.66483661292e-06
4.87868672407e-06
4.71706243534e-06
4.41554441053e-06
4.01868579148e-06
3.56502930461e-06
3.09330624238e-06
2.63683863435e-06
2.20279838965e-06
1.75555879237e-06
1.31139505912e-06
1.14784204716e-06
1.59095267603e-08
1.98571152047e-08
3.16810859744e-08
5.63879303468e-08
9.92757851182e-08
1.77381822027e-07
4.32726221136e-07
1.37186309005e-06
4.03657440464e-06
4.42529795897e-06
4.1363965582e-06
3.7126679988e-06
3.24671984631e-06
2.81931903861e-06
2.50594571302e-06
2.3583187718e-06
2.35068420018e-06
2.31732933039e-06
2.08059947313e-06
1.87618461483e-06
1.61681525566e-08
2.05427067849e-08
3.2552982832e-08
5.59095990537e-08
9.17264209972e-08
1.50236645071e-07
3.46732866789e-07
8.56470789106e-07
3.06401540887e-06
3.6049942297e-06
3.24579987439e-06
2.84869792568e-06
2.53797460697e-06
2.37706855008e-06
2.39706474353e-06
2.61329121124e-06
3.02046508343e-06
3.55938164162e-06
4.17415844116e-06
5.37015757861e-06
1.63220848569e-08
2.1156604583e-08
3.35081817515e-08
5.59842348748e-08
8.60283067862e-08
1.26965546499e-07
2.44911845146e-07
5.35842062553e-07
2.05564444668e-06
2.7414834385e-06
2.4920800133e-06
2.29276346591e-06
2.22232259748e-06
2.26796010958e-06
2.3995873186e-06
2.63732662133e-06
3.03804717948e-06
3.73419540438e-06
4.90892042165e-06
6.45194814258e-06
1.62727428147e-08
2.14695020469e-08
3.42024922097e-08
5.62036070741e-08
8.15908656968e-08
1.0839381954e-07
1.53173126316e-07
3.26650175305e-07
1.20376530465e-06
2.00838910457e-06
1.91491814597e-06
1.85568415315e-06
1.89145400285e-06
1.97800836833e-06
2.12422739205e-06
2.34068939795e-06
2.65672610463e-06
3.09795594585e-06
3.67286057713e-06
4.33589845046e-06
1.59756121183e-08
2.11326573247e-08
3.40475433152e-08
5.59594929805e-08
7.86277742356e-08
9.46207543399e-08
1.07808433316e-07
1.88064545641e-07
5.18261468875e-07
1.26459352495e-06
1.31059363921e-06
1.30731738095e-06
1.36706734135e-06
1.45847763864e-06
1.57447361033e-06
1.78397772559e-06
2.21892287098e-06
2.70936403435e-06
3.22087596342e-06
3.7723757596e-06
1.55175181546e-08
2.00386090017e-08
3.21013161069e-08
5.40138120042e-08
7.6269615189e-08
8.66564593165e-08
8.51459368297e-08
9.78899510637e-08
1.42558142733e-07
4.71903399829e-07
7.08411729048e-07
7.41577287959e-07
7.7880524432e-07
6.73703818916e-07
3.73845269604e-07
3.08673887541e-07
5.84217532823e-07
1.94515996318e-06
2.88511725467e-06
3.49622923151e-06
1.49065821621e-08
1.86646749532e-08
2.90734882839e-08
4.85302273127e-08
7.02470637379e-08
8.30863937887e-08
8.00276468496e-08
6.62926646321e-08
6.67293924935e-08
7.23734341311e-08
1.90268328981e-07
3.33253637481e-07
3.38866788548e-07
1.44503147432e-07
1.09652471712e-07
1.01368485177e-07
1.43838657149e-07
3.12884756113e-07
1.12858851972e-06
3.19236423547e-06
1.42392690301e-08
1.71362111062e-08
2.56255024359e-08
4.16385670358e-08
6.07428032708e-08
7.48654223008e-08
7.83808711075e-08
7.26551869309e-08
6.27029806081e-08
5.79232255835e-08
7.5582730409e-08
9.1481692626e-08
8.83290277415e-08
6.56600817873e-08
6.48919059037e-08
6.75532972857e-08
8.34535610842e-08
1.70106315346e-07
2.50088465972e-07
1.85605555013e-06
1.3654641325e-08
1.56134525453e-08
2.21960491777e-08
3.46197251864e-08
5.0142529436e-08
6.37098992878e-08
7.2100444579e-08
7.60151531441e-08
7.66128162523e-08
7.57788838191e-08
7.79425024553e-08
8.31681941071e-08
7.82258149483e-08
6.62411933447e-08
5.91400467529e-08
5.47424664822e-08
4.64774359196e-08
1.22449387165e-07
2.08333702591e-07
5.15438732757e-07
1.32769995627e-08
1.43068525112e-08
1.91233278953e-08
2.84256168133e-08
4.05192492549e-08
5.29032194019e-08
6.45117993877e-08
7.40448594682e-08
7.84613124884e-08
7.79831983483e-08
7.57353493515e-08
7.22388476235e-08
6.70602385537e-08
6.19550032169e-08
5.83748522589e-08
5.79434886469e-08
3.22830447614e-08
1.02609605405e-07
1.85883087777e-07
3.62015568538e-07
1.3111757832e-08
1.34075189687e-08
1.66078141513e-08
2.34940294402e-08
3.30917508786e-08
4.47715743183e-08
5.74808083579e-08
6.68281012589e-08
7.11046209756e-08
7.1836380958e-08
7.03917273094e-08
6.75146024047e-08
6.37951099325e-08
5.91994640447e-08
5.54699808726e-08
5.64337634821e-08
3.23629058158e-08
9.52935663296e-08
1.81179792773e-07
3.38323147384e-07
)
;

boundaryField
{
    emptyPatch
    {
        type            empty;
    }
    minY
    {
        type            zeroGradient;
    }
    maxY
    {
        type            calculated;
        value           nonuniform List<scalar> 0();
    }
    maxX
    {
        type            compressible::alphatPhaseChangeJayatillekeWallFunction;
        Prt             0.85;
        Cmu             0.09;
        kappa           0.41;
        E               9.8;
        dmdt            uniform 0;
        value           nonuniform List<scalar> 
38
(
0
0
0
0
0
0
0
0
0
0
0
0
0
0
0
0
0
0
0
0
0
0
0
0
0
0
0
0
4.80746003307e-06
3.2425496628e-06
2.51815851681e-06
1.97534055875e-06
1.53444423726e-06
2.66095414529e-07
1.13656163752e-06
2.17663883317e-06
2.18583807156e-06
1.40949136909e-06
)
;
    }
    water_to_heater
    {
        type            compressible::alphatWallBoilingWallFunction;
        phaseType       vapor;
        relax           constant 1;
        partitioningModel
        {
            type            Lavieville;
            alphaCrit       0.2;
        }
        otherPhase      liquid;
        dmdt            uniform 0;
        dDep            uniform 1e-05;
        qQuenching      uniform 0;
        alphatConv      uniform 0;
        value           nonuniform List<scalar> 
60
(
1.78999464813e-08
1.78999464813e-08
6.04462755278e-08
3.05462645784e-07
4.21392667389e-07
4.21392667389e-07
3.84504851468e-07
3.84504851468e-07
4.33402782914e-07
4.33402782914e-07
3.8610931986e-07
4.33377091643e-07
3.8694286508e-07
3.8694286508e-07
4.30454971513e-07
4.30454971513e-07
3.8694286508e-07
3.8694286508e-07
4.15953255988e-07
3.85210767746e-07
4.00545479449e-07
4.00545479449e-07
3.84349878192e-07
3.84349878192e-07
3.8752373093e-07
3.8752373093e-07
3.8378683928e-07
3.65359890689e-07
2.83171707324e-07
2.83171707324e-07
1.56033635488e-07
1.56033635488e-07
6.71903269921e-08
6.71903269921e-08
4.0851922958e-08
4.5636440254e-08
7.93033906112e-08
7.93033906112e-08
1.68931786604e-07
1.68931786604e-07
2.68090606439e-07
2.68090606439e-07
3.24421934277e-07
3.54764308655e-07
3.7616333722e-07
3.7616333722e-07
3.77153770442e-07
3.77153770442e-07
3.76947558008e-07