/*--------------------------------*- C++ -*----------------------------------*\
| =========                 |                                                 |
| \\      /  F ield         | OpenFOAM: The Open Source CFD Toolbox           |
|  \\    /   O peration     | Version:  2312                                  |
|   \\  /    A nd           | Website:  www.openfoam.com                      |
|    \\/     M anipulation  |                                                 |
\*---------------------------------------------------------------------------*/
FoamFile
{
    version     2.0;
    format      ascii;
    arch        "LSB;label=32;scalar=64";
    class       surfaceScalarField;
    location    "0.855/water";
    object      phi;
}
// * * * * * * * * * * * * * * * * * * * * * * * * * * * * * * * * * * * * * //

dimensions      [0 3 -1 0 0 0 0];

oriented        oriented;

internalField   nonuniform List<scalar> 
2916
(
1.18577766945e-07
6.55725004793e-07
1.04348429133e-07
6.70148668283e-07
9.321071564e-08
6.78866594883e-07
8.50299437907e-08
6.84393899826e-07
7.91697675534e-08
6.88884831704e-07
7.49820160451e-08
6.9291881464e-07
7.21346123529e-08
6.95804235596e-07
7.08139247309e-08
6.9666707813e-07
7.16042170017e-08
6.95385438414e-07
7.50879237737e-08
6.92649418107e-07
8.12550090691e-08
6.87137166191e-07
8.97519988903e-08
6.78089005179e-07
6.6505847833e-07
1.00509853036e-07
1.6625781487e-07
7.20326867769e-07
1.44416546358e-07
6.24900228772e-07
1.24846466517e-07
6.09743203739e-07
1.0368640108e-07
5.99217212878e-07
8.20044326512e-08
6.05620613886e-07
6.13960209463e-08
6.27344783866e-07
4.27941192066e-08
6.52716293595e-07
2.64177549303e-08
6.72056293678e-07
1.3924533735e-08
6.82601419374e-07
5.79348163112e-09
6.86961992129e-07
1.99788541378e-09
6.88141816922e-07
1.5968895047e-09
6.89244390471e-07
3.91517326326e-09
6.90544829605e-07
7.81899711986e-09
6.91849203528e-07
1.30332000601e-08
6.91389766018e-07
1.96132388013e-08
6.88747207439e-07
2.85222456665e-08
6.83672044198e-07
3.94686812628e-08
6.76119920155e-07
5.1683386798e-08
6.65799971618e-07
6.51711632185e-07
6.49512814457e-08
1.52486927765e-07
7.21484925476e-07
9.89719965049e-08
6.6412688958e-07
5.65848790585e-08
6.47369551127e-07
1.77774961016e-08
6.36690463713e-07
-1.59483212029e-08
6.39060069931e-07
-4.40216619192e-08
6.55360174111e-07
-6.8242006923e-08
6.76909130031e-07
-8.87910520554e-08
6.92574557824e-07
-1.01705866606e-07
6.95491187355e-07
-1.04887667635e-07
6.90104965678e-07
-1.00374173254e-07
6.83592868692e-07
-9.00233004165e-08
6.78845540207e-07
-7.64406081959e-08
6.76917558136e-07
-6.13936106774e-08
6.76748456474e-07
-4.64650419356e-08
6.76408986217e-07
-3.13525325248e-08
6.73574252091e-07
-1.56529770426e-08
6.67907528213e-07
4.54354334474e-10
6.59943214688e-07
1.6485140063e-08
6.49696217944e-07
6.35863683041e-07
3.22558025319e-08
1.72484995232e-07
7.17334060155e-07
1.26398324979e-07
7.00268008213e-07
7.9807478633e-08
6.88678515745e-07
3.09273690552e-08
6.82851352246e-07
-1.80529511989e-08
6.87005513551e-07
-6.41151465894e-08
7.01153936178e-07
-1.08991048137e-07
7.21730742671e-07
-1.4996414972e-07
7.33519835004e-07
-1.75216030796e-07
7.20700474541e-07
-1.80437980674e-07
6.95284924293e-07
-1.71409189849e-07
6.74517572857e-07
-1.53345758499e-07
6.6073742886e-07
-1.30633030606e-07
6.54158114401e-07
-1.07083786018e-07
6.53152385618e-07
-8.47759107909e-08
6.54049752751e-07
-6.40009742841e-08
6.52742679896e-07
-4.42936112964e-08
6.48138578027e-07
-2.57798983281e-08
6.41363442438e-07
-8.57790300147e-09
6.32424488896e-07
6.1990832372e-07
7.30358081295e-09
2.86384040374e-07
5.94675728898e-07
2.75316698609e-07
6.76274396109e-07
2.39517755809e-07
7.02912589249e-07
1.82724402665e-07
7.28927603243e-07
1.14243222497e-07
7.51111456629e-07
4.21618043525e-08
7.71840264733e-07
-3.16977757216e-08
7.95295501381e-07
-1.00459863234e-07
8.02248174465e-07
-1.46377898791e-07
7.66613112088e-07
-1.61855186439e-07
7.10736721073e-07
-1.59087764902e-07
6.71715835057e-07
-1.45743505507e-07
6.47355789254e-07
-1.26148331837e-07
6.34526016924e-07
-1.04217482679e-07
6.31184268524e-07
-8.34122350341e-08
6.33203975022e-07
-6.48744043e-08
6.34158662115e-07
-4.79697445748e-08
6.31181620465e-07
-3.24678540061e-08
6.25803361297e-07
-1.85088811522e-08
6.18402231241e-07
6.07617777935e-07
-6.28656423969e-09
2.17509466746e-07
4.64711307061e-07
2.24314348036e-07
6.3757672997e-07
2.12201369586e-07
6.9596772007e-07
1.94549887701e-07
7.36766096395e-07
1.6518900008e-07
7.76087467302e-07
1.20035132103e-07
8.15343113839e-07
6.29547603817e-08
8.51858279163e-07
-1.44525016489e-09
8.66502337853e-07
-6.19864549886e-08
8.27092870087e-07
-7.87816439719e-08
7.27493382918e-07
-8.28629699715e-08
6.75757769856e-07
-7.97794813082e-08
6.44233548013e-07
-7.17851347635e-08
6.26495614815e-07
-6.02451658517e-08
6.1961178577e-07
-4.83957678435e-08
6.21320539534e-07
-3.81513410815e-08
6.23874822839e-07
-2.90768864168e-08
6.22062006435e-07
-2.08577460135e-08
6.17532969514e-07
-1.36357222101e-08
6.11123715701e-07
6.01758137454e-07
-7.83814397309e-09
1.16786455641e-07
4.1665968602e-07
1.28903501127e-07
6.00274638594e-07
1.33882873717e-07
6.76179781593e-07
1.33904633773e-07
7.29250464579e-07
1.27630995633e-07
7.78984629131e-07
1.13905446307e-07
8.276871611e-07
9.1957867641e-08
8.73283612212e-07
6.39728775324e-08
8.94289114003e-07
3.02765337176e-08
8.60694400215e-07
1.60378683576e-08
7.41665683438e-07
8.21850210066e-09
6.83521026197e-07
3.0327872183e-09
6.49370126871e-07
3.06220948473e-10
6.29180206796e-07
5.4726292962e-12
6.19878176504e-07
1.05591145028e-09
6.20237629344e-07
1.74424515781e-09
6.23149960779e-07
2.035492423e-09
6.21728895477e-07
2.03438152433e-09
6.17487989958e-07
1.64168141171e-09
6.1146493777e-07
6.03005367859e-07
3.37891011985e-10
8.70782112583e-08
4.01937074346e-07
8.5015836723e-08
5.80147701883e-07
9.01393212675e-08
6.58799075317e-07
9.64074830144e-08
7.17022786943e-07
9.84686337994e-08
7.74232593494e-07
9.72260605683e-08
8.2777787903e-07
9.50519101958e-08
8.74970617581e-07
9.51870630878e-08
8.93937371731e-07
9.56676009565e-08
8.60098601162e-07
9.07933399374e-08
7.46458587665e-07
8.2510191313e-08
6.91737449342e-07
7.32527437895e-08
6.58571051418e-07
6.4281699848e-08
6.38104530957e-07
5.61004433018e-08
6.28022507295e-07
4.88039507299e-08
6.27501303424e-07
4.19667752274e-08
6.29950886272e-07
3.52747035612e-08
6.28382047555e-07
2.86748497676e-08
6.24044239368e-07
2.20662322527e-08
6.18026098512e-07
6.10116539706e-07
1.49025220147e-08
6.32665098434e-08
4.1406994082e-07
4.36072320801e-08
5.82401740051e-07
4.71403525913e-08
6.48029631741e-07
5.65485434188e-08
7.04076318393e-07
6.27143338919e-08
7.66369724742e-07
6.72491874124e-08
8.22479869275e-07
7.70763139776e-08
8.64787914367e-07
9.84069561924e-08
8.72430202977e-07
1.39701063611e-07
8.18693513443e-07
1.44179290331e-07
7.41892002701e-07
1.36848562575e-07
6.98995608765e-07
1.25675168576e-07
6.69683681233e-07
1.1333428927e-07
6.50395829997e-07
1.00663132216e-07
6.40654895276e-07
8.77956001411e-08
6.40334581931e-07
7.58744984059e-08
6.41836723124e-07
6.45139107239e-08
6.39703477298e-07
5.35382159842e-08
6.34978323134e-07
4.29764372566e-08
6.28542372106e-07
6.21378475865e-07
3.16634752225e-08
1.66372869367e-08
4.83194505571e-07
-2.76450892846e-08
6.23993882157e-07
-3.31170461305e-08
6.53386748307e-07
-2.01122599394e-08
6.9024682458e-07
-5.35922566332e-09
7.50912524726e-07
1.13357026199e-08
8.05383452729e-07
4.28894385984e-08
8.33010966656e-07
1.14023484085e-07
8.01147699712e-07
1.67811854747e-07
7.64794021297e-07
1.77032056958e-07
7.325857833e-07
1.72684554979e-07
7.03271807534e-07
1.62193491786e-07
6.80115118135e-07
1.48818429995e-07
6.63723011975e-07
1.33088710635e-07
6.56347408062e-07
1.16270437573e-07
6.57119197972e-07
1.00969101083e-07
6.57100515079e-07
8.66861036194e-08
6.5394842102e-07
7.31888397915e-08
6.48433902226e-07
6.0241937275e-08
6.41442970971e-07
6.35745259407e-07
4.58238684581e-08
-8.12692864324e-08
6.70459801277e-07
-1.84982291741e-07
7.50474671804e-07
-1.80587239675e-07
6.59417465277e-07
-1.22421225537e-07
6.33936521491e-07
-5.63561555281e-08
6.84852354793e-07
2.03643247524e-08
7.28487664492e-07
1.04392292448e-07
7.48801428822e-07
1.56511393562e-07
7.48903976133e-07
1.8220863496e-07
7.390014342e-07
1.92510379201e-07
7.22206436743e-07
1.91269306772e-07
7.04446582349e-07
1.82942349264e-07
6.88386715851e-07
1.69218222427e-07
6.77403519034e-07
1.50614828258e-07
6.74915704248e-07
1.31898957897e-07
6.75797701003e-07
1.14981482923e-07
6.73982389987e-07
9.95001793003e-08
6.69390483954e-07
8.50704069183e-08
6.62821638932e-07
7.00547514263e-08
6.56416528527e-07
6.50524530661e-07
5.52212086852e-08
-8.79905192921e-08
8.59374281786e-07
-7.33430913663e-08
7.54629858648e-07
-4.50084610041e-08
6.36156437961e-07
-2.22164866611e-08
6.12328145382e-07
2.04544204869e-08
6.42220585055e-07
7.3538888564e-08
6.7525900077e-07
1.23203814754e-07
6.99012337765e-07
1.60775889492e-07
7.11238278311e-07
1.84993836976e-07
7.14706795654e-07
1.96021035909e-07
7.11112706352e-07
1.96907429392e-07
7.03502696873e-07
1.89221322338e-07
6.96026091963e-07
1.73005556157e-07
6.93581983176e-07
1.52876233978e-07
6.95007863396e-07
1.34032295658e-07
6.94608301457e-07
1.17146975805e-07
6.90830538682e-07
1.02053482312e-07
6.84446685631e-07
8.70195567513e-08
6.77820514913e-07
7.17627180722e-08
6.71628319251e-07
6.6194278482e-07
6.02952386643e-08
9.36486940897e-08
8.73930771039e-07
9.09192397073e-08
7.41943520713e-07
6.8354794915e-08
6.55116870883e-07
6.06775563683e-08
6.19685330399e-07
7.72013444776e-08
6.25643557718e-07
1.08384685906e-07
6.43986399612e-07
1.41938201776e-07
6.65377044201e-07
1.68727798786e-07
6.84379311921e-07
1.86656190534e-07
6.96717654229e-07
1.9502984568e-07
7.02685742126e-07
1.93250633999e-07
7.05237063259e-07
1.80861259732e-07
7.0837876406e-07
1.61832558213e-07
7.12573764524e-07
1.42147435475e-07
7.14661995368e-07
1.24225812263e-07
7.12492993429e-07
1.08467923758e-07
7.06554023803e-07
9.38209442963e-08
6.99059477856e-07
7.85443571059e-08
6.93049635263e-07
6.78237071016e-08
6.82291415346e-07
6.68284702524e-07
6.14209402871e-08
2.02636823445e-07
7.95434052276e-07
1.90486705627e-07
7.23309715281e-07
1.55045381087e-07
6.80434579662e-07
1.26807048722e-07
6.4560448211e-07
1.22034316425e-07
6.29985466546e-07
1.34547223636e-07
6.31351709514e-07
1.53188788928e-07
6.46668254522e-07
1.69939432598e-07
6.67577087806e-07
1.80638767889e-07
6.8597428267e-07
1.81875734245e-07
7.01411379432e-07
1.73127678867e-07
7.13952819525e-07
1.57044233697e-07
7.24425164796e-07
1.38553683288e-07
7.31035387313e-07
1.20752639067e-07
7.32425512226e-07
1.04480018274e-07
7.28732973675e-07
8.9232144711e-08
7.2176841525e-07
7.33665661253e-08
7.14874149164e-07
6.23884198038e-08
7.03969735263e-07
5.93548954997e-08
6.85262593145e-07
6.67795825151e-07
5.9782232965e-08
2.07669313136e-07
7.24368659409e-07
2.01072440609e-07
6.99330489049e-07
1.73285785945e-07
6.96296703599e-07
1.42752043741e-07
6.72744166342e-07
1.29407029514e-07
6.42593515696e-07
1.3138513473e-07
6.29208506018e-07
1.40143458714e-07
6.37850036588e-07
1.49609891934e-07
6.58072815881e-07
1.52367401157e-07
6.83186996974e-07
1.47691614633e-07
7.06059380777e-07
1.36876237144e-07
7.24731184268e-07
1.23205641566e-07
7.3806876664e-07
1.08598733532e-07
7.45605687609e-07
9.35831819324e-08
7.47408569892e-07
7.57371728727e-08
7.46550856086e-07
5.61616754292e-08
7.41292872857e-07
4.23835131038e-08
7.28603447983e-07
4.15663157301e-08
7.04730787328e-07
4.86878307102e-08
6.78088019151e-07
6.56605531359e-07
5.98198984535e-08
1.7961917469e-07
6.89813885166e-07
1.64682884951e-07
6.89605789397e-07
1.39760248346e-07
7.10878106768e-07
1.12963279071e-07
6.96314520701e-07
9.99489958016e-08
6.54856859398e-07
9.8464880827e-08
6.3053276445e-07
1.02252300997e-07
6.34015225283e-07
1.0719018541e-07
6.53110590724e-07
1.07872203824e-07
6.82485428092e-07
1.05337336388e-07
7.08567242009e-07
1.00744653019e-07
7.29298821004e-07
9.28570805154e-08
7.45928761561e-07
8.01507623469e-08
7.58278372544e-07
5.94282024817e-08
7.6811014986e-07
3.28598158994e-08
7.73066620019e-07
1.19665432626e-08
7.62133461129e-07
9.9243749909e-09
7.30583761896e-07
2.36326911821e-08
6.90958674671e-07
4.4353277304e-08
6.57306788867e-07
6.31909909505e-07
6.89874751671e-08
1.60469166839e-07
6.82631960814e-07
1.25073573236e-07
7.0744513874e-07
8.93593307032e-08
7.38991580205e-07
6.29530419231e-08
7.20153760973e-07
5.24119323626e-08
6.64730737072e-07
5.16926688629e-08
6.31089846772e-07
5.56355137197e-08
6.30020338975e-07
6.02208800989e-08
6.48497562211e-07
6.55811452522e-08
6.77094343428e-07
6.8902736456e-08
7.05207892619e-07
6.69511000077e-08
7.31216425575e-07
5.68383187409e-08
7.5599545541e-07
3.52195075984e-08
7.79849709612e-07
4.12641026246e-09
7.99126940044e-07
-1.96184765555e-08
7.9673297338e-07
-1.96404198226e-08
7.62068777376e-07
-5.91418036999e-10
7.1144812764e-07
2.80237068481e-08
6.62264228691e-07
6.140687077e-08
6.23853782262e-07
5.95325794217e-07
9.79258035608e-08
1.48426931797e-07
7.04907492269e-07
8.34252735964e-08
7.63432903142e-07
3.96531009784e-08
7.77766050904e-07
1.73457983107e-08
7.40114690014e-07
9.64449446916e-09
6.71713620528e-07
8.94449386419e-09
6.31611560524e-07
1.13100288301e-08
6.27580067297e-07
1.25222281863e-08
6.47227217193e-07
1.31716058519e-08
6.76383010213e-07
9.09521407869e-09
7.09220939958e-07
-3.66525475205e-09
7.43905673548e-07
-2.49517389572e-08
7.77211105805e-07
-4.84291418652e-08
8.03245476562e-07
-5.7029455305e-08
8.07635395166e-07
-3.92326173963e-08
7.78830560406e-07
-4.95694385462e-09
7.27682163232e-07
3.28316131235e-08
6.73552468636e-07
7.07149344351e-08
6.24286389057e-07
1.10033799977e-07
5.84457006943e-07
5.53263136469e-07
1.52028398436e-07
1.80583548188e-07
7.10719115658e-07
5.74517583965e-08
8.73731319249e-07
-8.17118419374e-11
8.29631868854e-07
-3.05608347052e-08
7.68827342331e-07
-5.45429128914e-08
6.95336432022e-07
-7.17805836127e-08
6.48785020476e-07
-8.15372711288e-08
6.37297627857e-07
-9.01562462978e-08
6.5580682659e-07
-9.99954058581e-08
6.8618259078e-07
-1.11133052246e-07
7.2031329763e-07
-1.19485441285e-07
7.52200974013e-07
-1.17430496385e-07
7.75077738985e-07
-9.60931741657e-08
7.81810632088e-07
-5.2637207629e-08
7.64066056456e-07
1.56784594591e-09
7.2450406053e-07
5.26883341212e-08
6.76436822105e-07
9.74717428181e-08
6.28652216394e-07
1.37696024595e-07
5.83961610398e-07
1.76767660544e-07
5.45303877285e-07
5.12045236502e-07
2.1791681707e-07
7.04581452258e-08
7.1525773666e-07
5.378715569e-08
8.88912719569e-07
1.56351819487e-08
8.65653535843e-07
-5.47962308737e-08
8.38533114032e-07
-1.65205009205e-07
8.05893475312e-07
-2.25655512088e-07
7.09372413481e-07
-2.42055997145e-07
6.53708127892e-07
-2.37833161379e-07
6.51557065516e-07
-2.2441247567e-07
6.72717443701e-07
-2.02188015541e-07
6.98028024963e-07
-1.68357376975e-07
7.18293627028e-07
-1.20878262015e-07
7.27504678389e-07
-6.0326594096e-08
7.21147477753e-07
6.15141821871e-09
6.97464522125e-07
6.72035960571e-08
6.6331852638e-07
1.18630864419e-07
6.24878958639e-07
1.61825109628e-07
5.85339823519e-07
1.98963861392e-07
5.46724282202e-07
2.3426850721e-07
5.0992126779e-07
4.76483171586e-07
2.69764936205e-07
2.85739414095e-08
7.10609352725e-07
2.12892199442e-08
8.99795885465e-07
-4.32478570529e-09
8.91862678684e-07
-4.58247178276e-08
8.80525333908e-07
-1.11989748064e-07
8.72376867175e-07
-2.37366100753e-07
8.34851299198e-07
-2.90900063107e-07
7.0725491419e-07
-2.67377872646e-07
6.28006692472e-07
-2.29178676951e-07
6.34471489552e-07
-1.81003706636e-07
6.49788885541e-07
-1.24170430983e-07
6.61376871117e-07
-5.99042231631e-08
6.63136586685e-07
7.53398554388e-09
6.53594519537e-07
6.99087612882e-08
6.34962852282e-07
1.22975466772e-07
6.10124430756e-07
1.66728766136e-07
5.81006809679e-07
2.02647447401e-07
5.4931882343e-07
2.3382933648e-07
5.15460028735e-07
2.62171385462e-07
4.81512605615e-07
4.48606238855e-07
2.8998636958e-07
2.70490837541e-08
6.94689138954e-07
2.79193880177e-08
9.00937881804e-07
2.02234467986e-08
9.0064609495e-07
2.57880275763e-09
8.98862801482e-07
-3.25846610911e-08
9.0778904657e-07
-8.51585527266e-08
8.87480667553e-07
-1.84689758241e-07
8.06759056224e-07
-1.71473670988e-07
6.14740708505e-07
-1.37388726193e-07
6.00324788107e-07
-9.13112703079e-08
6.0363692381e-07
-3.77446913403e-08
6.07722285163e-07
1.82220399848e-08
6.07072317762e-07
7.10541781355e-08
6.00653596806e-07
1.17395802828e-07
5.88511023038e-07
1.56192588663e-07
5.71223451375e-07
1.88065896225e-07
5.49041676555e-07
2.14899510674e-07
5.22408891029e-07
2.37922024007e-07
4.92374091252e-07
2.58961214834e-07
4.60414442929e-07
4.2797607121e-07
2.79531296728e-07
2.43009838642e-08
6.77584066133e-07
2.63596702038e-08
8.96945073731e-07
2.91268545558e-08
8.97171294863e-07
2.86279441603e-08
8.99195682858e-07
2.03418855204e-08
9.16042754876e-07
-2.75630513248e-09
9.10519534858e-07
-3.98978027446e-08
8.4382311984e-07
-4.66099235074e-08
6.21369567989e-07
-2.73241043505e-08
5.80960088289e-07
4.06631121461e-09
5.72167103528e-07
4.0821582728e-08
5.70883685619e-07
7.7869555237e-08
5.6993637363e-07
1.11891954817e-07
5.6654373638e-07
1.41463311776e-07
5.58857014423e-07
1.66347696505e-07
5.46264564237e-07
1.87001732828e-07
5.28322870055e-07
2.04640041426e-07
5.04713379339e-07
2.20500160594e-07
4.76458992224e-07
2.34870807493e-07
4.45988473722e-07
4.15378990431e-07
2.47411182877e-07
1.74731695544e-08
6.65471975494e-07
1.79783852833e-08
8.89795748171e-07
2.72800030348e-08
8.85447381359e-07
3.99093771068e-08
8.85622415843e-07
5.18003401394e-08
9.03756045816e-07
6.13347279164e-08
9.00782921788e-07
6.32662105435e-08
8.41753249116e-07
5.35982845855e-08
6.30920852142e-07
5.90915107703e-08
5.75368028591e-07
7.31680704967e-08
5.580037676e-07
9.17819225762e-08
5.52190809297e-07
1.11509779414e-07
5.50136107126e-07
1.30293400691e-07
5.47694487053e-07
1.4646883633e-07
5.42622507111e-07
1.59817477865e-07
5.32861938144e-07
1.71438170465e-07
5.16650695911e-07
1.82220310068e-07
4.93880037721e-07
1.91761228939e-07
4.66866160149e-07
1.98420485e-07
4.39276572892e-07
4.12361009228e-07
2.01383177238e-07
-1.20652031803e-08
6.85953922501e-07
-2.72006141931e-08
8.99087564968e-07
-1.96897982653e-08
8.77101897555e-07
-1.21997053158e-09
8.66818020185e-07
2.38611059094e-08
8.78376587748e-07
4.97326796994e-08
8.74717697153e-07
1.06896535721e-07
7.84442681413e-07
1.12140452533e-07
6.25536395238e-07
1.12321186539e-07
5.75072968581e-07
1.15284311414e-07
5.54947887892e-07
1.20912948005e-07
5.46486627769e-07
1.27881042839e-07
5.43106497289e-07
1.34685071335e-07
5.40839069685e-07
1.40315272685e-07
5.36945189584e-07
1.45379490156e-07
5.27750873815e-07
1.50576001887e-07
5.11406256233e-07
1.55245015775e-07
4.89162231342e-07
1.57041012155e-07
4.65021046494e-07
1.53974630788e-07
4.42292016605e-07
4.22038211403e-07
1.44243675387e-07
-8.51780803094e-08
7.89837701793e-07
-1.38287976605e-07
9.6058315665e-07
-1.37845575588e-07
8.84865064963e-07
-1.21586144147e-07
8.532181296e-07
-8.40943183579e-08
8.41326292093e-07
7.26789648304e-09
7.83303951924e-07
1.20326484641e-07
6.71199457633e-07
1.35439446518e-07
6.10269704216e-07
1.35890335396e-07
5.74500676127e-07
1.34115203754e-07
5.56627631639e-07
1.32562899336e-07
5.47965613017e-07
1.31385696245e-07
5.44227879476e-07
1.3004340089e-07
5.42135673754e-07
1.28697900565e-07
5.3824668128e-07
1.28117087663e-07
5.28286480012e-07
1.27803197577e-07
5.1167358688e-07
1.25515716005e-07
4.91402430792e-07
1.18145611726e-07
4.72343506459e-07
1.02548340443e-07
4.57838539807e-07
4.44137070606e-07
8.03830316765e-08
-2.22075055488e-07
1.05421017501e-06
-3.2951533411e-07
1.10579438177e-06
-3.95209575488e-07
9.71422001597e-07
-2.28753847457e-07
6.9259241341e-07
-5.91483579647e-08
6.72288393501e-07
7.23448837863e-08
6.51664915646e-07
1.19106729791e-07
6.2425399718e-07
1.36133268648e-07
5.93097005804e-07
1.38266093418e-07
5.72251431739e-07
1.35159803585e-07
5.59642561214e-07
1.30203714308e-07
5.5285274696e-07
1.24591394468e-07
5.49788632007e-07
1.18461053529e-07
5.48222578149e-07
1.12777161434e-07
5.4388733003e-07
1.07667174852e-07
5.33352289046e-07
1.01616349856e-07
5.1767955735e-07
9.10959868174e-08
5.01877899335e-07
7.18584817597e-08
4.91532785608e-07
4.34569505882e-08
4.8616980804e-07
4.75342042304e-07
1.21576377999e-08
-2.72423232842e-07
1.4006986971e-06
-4.03153877804e-07
1.295547979e-06
-1.61991146534e-07
7.51972518603e-07
-6.49304135191e-08
5.97336375281e-07
1.24766488564e-08
5.94881748226e-07
7.10075463741e-08
5.92937767209e-07
1.09169220382e-07
5.85933147768e-07
1.25417471103e-07
5.7672196813e-07
1.28966883662e-07
5.68599353378e-07
1.25943539224e-07
5.62584734684e-07
1.19531158106e-07
5.59203917359e-07
1.11282126089e-07
5.57991045966e-07
1.02071402527e-07
5.5739154916e-07
9.30591182592e-08
5.52857298225e-07
8.34481857934e-08
5.42920433649e-07
7.04133370824e-08
5.3067141299e-07
4.9280680348e-08
5.22964515015e-07
1.62206393142e-08
5.2452383656e-07
-2.32802186971e-08
5.25569302526e-07
5.15778971264e-07
-6.38270731393e-08
-8.92084314655e-08
1.52053171808e-06
-1.07704535636e-07
1.33042341232e-06
-4.64970136237e-08
6.95763067948e-07
-2.28343606991e-09
5.53708662453e-07
4.44718957926e-08
5.47948893735e-07
8.16455910913e-08
5.55601820115e-07
1.05509744166e-07
5.61946557324e-07
1.16781818378e-07
5.65351442084e-07
1.18761765896e-07
5.66537940209e-07
1.14634135935e-07
5.66646790411e-07
1.06582336171e-07
5.67205236406e-07
9.5776444957e-08
5.6875567504e-07
8.39640616303e-08
5.69163867342e-07
7.14137107055e-08
5.653667672e-07
5.62815863508e-08
5.58011283796e-07
3.43635968111e-08
5.52545528202e-07
-8.35090062751e-11
5.57350903189e-07
-4.35358255333e-08
5.67871432813e-07
-9.10069820066e-08
5.72922850822e-07
5.63904103364e-07
-1.39246132699e-07
-1.40598832481e-07
1.70795784157e-06
3.45999455757e-08
1.17700825073e-06
4.05271693388e-08
6.86737619219e-07
5.11722423555e-08
5.42190947575e-07
7.26424213906e-08
5.26213171497e-07
9.24771703597e-08
5.35632293021e-07
1.05551953237e-07
5.48780581551e-07
1.11034918642e-07
5.59795992116e-07
1.10002373495e-07
5.67509929756e-07
1.03708892079e-07
5.72890803435e-07
9.34487188254e-08
5.77424866147e-07
8.06529464875e-08
5.81513665998e-07
6.65970977153e-08
5.83181080731e-07
5.0171225886e-08
5.81752523312e-07
2.87800009951e-08
5.79359816855e-07
-2.350232226e-09
5.83621427206e-07
-4.75839317716e-08
6.02482589216e-07
-9.44232254542e-08
6.14599066243e-07
-1.47989657583e-07
6.26379642101e-07
6.18998134598e-07
-2.03191046426e-07
2.58155104011e-08
1.70478835383e-06
8.6912048826e-08
1.11485254921e-06
8.76842457694e-08
6.7934803779e-07
8.70421174796e-08
5.40574894903e-07
9.49243818575e-08
5.17768890556e-07
1.03155837706e-07
5.27237485546e-07
1.07712377639e-07
5.4414828886e-07
1.0722650983e-07
5.60229583868e-07
1.02121504798e-07
5.72571959113e-07
9.33026697072e-08
5.81671902475e-07
8.16766133449e-08
5.89015278061e-07
6.82618002454e-08
5.9489217067e-07
5.22810338196e-08
5.99123422694e-07
3.16829465465e-08
6.02307961916e-07
5.04106162822e-09
6.05949418396e-07
-2.99020383976e-08
6.18483138721e-07
-7.28337802776e-08
6.45317298098e-07
-1.19759318672e-07
6.61423397902e-07
-1.7493811182e-07
6.81444479748e-07
6.78142861653e-07
-2.34185965445e-07
6.08417244925e-08
1.65766024026e-06
1.11187676179e-07
1.05623879286e-06
1.1738989457e-07
6.61991944511e-07
1.15070156155e-07
5.38742718444e-07
1.15759290562e-07
5.15975682601e-07
1.16039132335e-07
5.26688243322e-07
1.12845494243e-07
5.47259846085e-07
1.06278478176e-07
5.66752629731e-07
9.75220616265e-08
5.81292096219e-07
8.71057793384e-08
5.92053516803e-07
7.54306522041e-08
6.00656562671e-07
6.18926398055e-08
6.08394293228e-07
4.37935658763e-08
6.17181865561e-07
2.02264217651e-08
6.25824535892e-07
-7.66410183847e-09
6.33777021342e-07
-3.83012250778e-08
6.49045049672e-07
-7.18371007775e-08
6.78753451019e-07
-1.13501568906e-07
7.02983785491e-07
-1.62556123948e-07
7.30394995771e-07
7.38347916724e-07
-2.22863334956e-07
5.19075971246e-08
1.61771771191e-06
1.25145698726e-07
9.64668732451e-07
1.36585481972e-07
6.35400395454e-07
1.3646670056e-07
5.33318374382e-07
1.34239496499e-07
5.1667709312e-07
1.28945771049e-07
5.31627857674e-07
1.20102671365e-07
5.5600389865e-07
1.09782736129e-07
5.77024289514e-07
9.90678924317e-08
5.91969797319e-07
8.80520112364e-08
6.03036978228e-07
7.65186881682e-08
6.12157716851e-07
6.22712634709e-08
6.22603877132e-07
4.24844966282e-08
6.36922727621e-07
1.9462544678e-08
6.48788620633e-07
-5.17607415963e-09
6.58349752544e-07
-2.95387917075e-08
6.73331058505e-07
-5.164112513e-08
7.00767765952e-07
-8.13941485003e-08
7.32643305133e-07
-1.18929371239e-07
7.67821441996e-07
7.92476915455e-07
-1.73152754906e-07
8.47864316347e-08
1.52967671684e-06
1.49515345392e-07
8.6669086532e-07
1.58912354196e-07
6.0774791619e-07
1.58123231889e-07
5.27857974274e-07
1.52439205367e-07
5.20701241714e-07
1.41728024624e-07
5.419577487e-07
1.29123508828e-07
5.68492820038e-07
1.16822052764e-07
5.89273266908e-07
1.04970151604e-07
6.03784982745e-07
9.33791200977e-08
6.14594865931e-07
8.13683938226e-08
6.24133131285e-07
6.5850470189e-08
6.38084377469e-07
4.59275331462e-08
6.56795566632e-07
2.54972145119e-08
6.69160128515e-07
4.3255510054e-09
6.79457931558e-07
-1.5417068815e-08
6.93003851579e-07
-2.83872439761e-08
7.13659237143e-07
-4.1803852992e-08
7.45963053796e-07
-6.39112941222e-08
7.89829922794e-07
8.30485235702e-07
-1.0202363172e-07
1.13789859034e-07
1.40026816916e-06
1.62968974555e-07
7.7912766071e-07
1.74155548588e-07
5.78284891621e-07
1.73276340153e-07
5.22753752172e-07
1.63905524062e-07
5.28631627312e-07
1.49688321085e-07
5.55809819951e-07
1.35379010565e-07
5.82682891911e-07
1.21852867238e-07
6.02746893769e-07
1.09137988667e-07
6.16462272557e-07
9.68625896021e-08
6.26835772279e-07
8.43247690781e-08
6.36642397195e-07
6.80026930868e-08
6.54366413492e-07
4.9712545946e-08
6.75033290237e-07
3.14569755765e-08
6.87358154468e-07
1.2953384736e-08
6.97901214278e-07
-3.14145174827e-09
7.09035279017e-07
-1.26213553489e-08
7.23071683768e-07
-1.45548600756e-08
7.47820512297e-07
-1.89426229562e-08
7.94129961101e-07
8.50306564714e-07
-3.88584568328e-08
1.14250830951e-07
1.26897356874e-06
1.66762217145e-07
6.90331704989e-07
1.7946109667e-07
5.4943477084e-07
1.77527227247e-07
5.1990309483e-07
1.64512715168e-07
5.40542132104e-07
1.48842366001e-07
5.71163495426e-07
1.33694881675e-07
5.9772551377e-07
1.19592227687e-07
6.16800859605e-07
1.06480843508e-07
6.29540817541e-07
9.40093965085e-08
6.39277461368e-07
8.1075559722e-08
6.49538512329e-07
6.46356531259e-08
6.70768448455e-07
4.82185436727e-08
6.91399035072e-07
3.19782580438e-08
7.03543333919e-07
1.64066082834e-08
7.13416628858e-07
3.09941181473e-09
7.22285556415e-07
-5.51879086748e-09
7.31632070944e-07
-5.39339260709e-09
7.47632602568e-07
2.41419043848e-09
7.8624524251e-07
8.53995089824e-07
-1.36568763054e-09
1.17063704055e-07
1.13257290716e-06
1.64299454635e-07
6.09447107997e-07
1.75882685532e-07
5.24658601199e-07
1.69131782458e-07
5.23619558381e-07
1.53952307488e-07
5.54913373124e-07
1.37654811551e-07
5.87215363528e-07
1.22126426032e-07
6.13173812881e-07
1.07742555767e-07
6.3114486191e-07
9.47581377777e-08
6.424952084e-07
8.23496372934e-08
6.51652847774e-07
6.90845889669e-08
6.62781500799e-07
5.28595235893e-08
6.86950357155e-07
3.83865385942e-08
7.05821152933e-07
2.44661755993e-08
7.17411888988e-07
1.1520142144e-08
7.26311612736e-07
3.67554078032e-10
7.33387367977e-07
-7.5691397634e-09
7.39517657157e-07
-9.05152809159e-09
7.49061041281e-07
9.80327578022e-10
7.76147727693e-07
8.41502452346e-07
1.33867449085e-08
1.2523899278e-07
1.57719158215e-07
1.6376154126e-07
1.51024124618e-07
1.34147831066e-07
1.16798059437e-07
1.00248884444e-07
8.56600207874e-08
7.27376996542e-08
6.07063923952e-08
4.55266421899e-08
3.05094290248e-08
1.81931303116e-08
6.58892966604e-09
-4.2356045778e-09
-1.35626677989e-08
-2.02702478115e-08
-2.22055920512e-08
-1.38760153983e-08
7.83951435101e-09
1.12646478361e-07
6.1691180728e-07
1.27980791391e-07
5.40627828752e-07
1.494206257e-07
4.70813708286e-07
1.75963249471e-07
4.08864433466e-07
2.03125534365e-07
3.52084035272e-07
2.27256697202e-07
2.94085387004e-07
2.4462165176e-07
2.41777775535e-07
2.42050899164e-07
2.20988198993e-07
2.03839637041e-07
2.55761252998e-07
1.77598207759e-07
2.42893379865e-07
1.50332615603e-07
2.17900926404e-07
1.2321608857e-07
1.9130087756e-07
9.67323891657e-08
1.65875944109e-07
7.02459065805e-08
1.42837451177e-07
4.36733012267e-08
1.20200933906e-07
2.1320087748e-08
8.94711374591e-08
2.60864773002e-08
-1.46902005285e-08
1.96510885522e-08
-5.16110911403e-08
9.00609760616e-09
-6.17194488392e-08
-5.84242782155e-08
7.82120497479e-08
6.03570934769e-07
9.07865270754e-08
5.27975252013e-07
1.04884309586e-07
4.56641153155e-07
1.22796057687e-07
3.90876378364e-07
1.44090955501e-07
3.30710373077e-07
1.63828168407e-07
2.74270887506e-07
1.75973014819e-07
2.29555519833e-07
1.67730419098e-07
2.29121240753e-07
1.44285506613e-07
2.79030929007e-07
1.2258484023e-07
2.64435347195e-07
9.97330487405e-08
2.40600338706e-07
7.63231104967e-08
2.1456324192e-07
5.2104761955e-08
1.89952843479e-07
2.73657182228e-08
1.6743997542e-07
6.41322396223e-09
1.41024519236e-07
2.54163084461e-08
7.03439888014e-08
2.67314100061e-08
-1.60599241901e-08
1.77722554713e-08
-4.26557008433e-08
7.9815874144e-09
-5.19288177166e-08
-5.0442693505e-08
4.70272544629e-08
5.88720838147e-07
6.0146609965e-08
5.14780698837e-07
7.19223309114e-08
4.44791755885e-07
8.34981324038e-08
3.79231292561e-07
9.54392331464e-08
3.18702036055e-07
1.05789347747e-07
2.63858277723e-07
1.10429341032e-07
2.24843518493e-07
1.02239580887e-07
2.37186858926e-07
8.98267842128e-08
2.91286406988e-07
7.39282708965e-08
2.80179988918e-07
5.68189739187e-08
2.57560298013e-07
3.84574712357e-08
2.32782594882e-07
1.96260644671e-08
2.08646025709e-07
3.07574901711e-09
1.83859079083e-07
-3.24190035321e-09
1.4721662264e-07
2.72027277924e-08
3.97964431488e-08
2.31118052143e-08
-1.19873095898e-08
1.39072073909e-08
-3.3451395481e-08
6.15830315745e-09
-4.4179954879e-08
-4.42843925069e-08
2.11606723812e-08
5.74789035412e-07
3.27174333916e-08
5.03150612756e-07
4.22017740422e-08
4.35238285118e-07
4.97569648727e-08
3.71607412799e-07
5.52230525519e-08
3.13172709873e-07