/*--------------------------------*- C++ -*----------------------------------*\
| =========                 |                                                 |
| \\      /  F ield         | OpenFOAM: The Open Source CFD Toolbox           |
|  \\    /   O peration     | Version:  2312                                  |
|   \\  /    A nd           | Website:  www.openfoam.com                      |
|    \\/     M anipulation  |                                                 |
\*---------------------------------------------------------------------------*/
FoamFile
{
    version     2.0;
    format      ascii;
    arch        "LSB;label=32;scalar=64";
    class       volScalarField;
    location    "0.515/water";
    object      alphat.gas;
}
// * * * * * * * * * * * * * * * * * * * * * * * * * * * * * * * * * * * * * //

dimensions      [1 -1 -1 0 0 0 0];

internalField   nonuniform List<scalar> 
6000
(
1.95464275895e-07
8.16786809731e-08
3.55271664749e-08
2.41536650497e-08
9.3967285596e-08
7.00327134918e-07
2.98507353448e-06
6.75164140284e-06
1.01988785251e-05
1.23842824842e-05
1.35268833505e-05
1.40574564291e-05
1.4278806031e-05
1.43578460108e-05
1.43769622756e-05
1.43738417049e-05
1.43644984763e-05
1.43550957547e-05
1.4347609034e-05
1.43423939498e-05
9.01370023822e-07
6.43287118587e-07
3.31260488457e-07
1.7689517524e-07
7.41647564888e-08
5.68239802055e-08
1.23004382857e-07
7.22545037192e-07
3.11839562313e-06
7.08701809386e-06
1.05090325524e-05
1.25902711989e-05
1.36477329574e-05
1.41235970132e-05
1.43117945637e-05
1.43709003341e-05
1.43779035399e-05
1.43673842634e-05
1.43536654893e-05
1.434203989e-05
1.24298153646e-06
1.07866615821e-06
7.18517645153e-07
4.00442626761e-07
2.20555870325e-07
1.0518785116e-07
7.66044741973e-08
1.85483379054e-07
9.95173401047e-07
3.52578432484e-06
7.21709457997e-06
1.04124882772e-05
1.24719310293e-05
1.35875442891e-05
1.41185344458e-05
1.43388218515e-05
1.44114199099e-05
1.44215178993e-05
1.44096880234e-05
1.43936457404e-05
1.47629868437e-06
1.33954578108e-06
9.87780678476e-07
6.23245749485e-07
4.09922069179e-07
1.92517089081e-07
1.03515043215e-07
1.009000693e-07
3.83307089907e-07
1.75697863137e-06
4.72872726253e-06
8.20098783881e-06
1.09760204088e-05
1.27488431215e-05
1.37235760225e-05
1.41955291351e-05
1.43926906181e-05
1.44559185327e-05
1.44616810423e-05
1.44476454965e-05
1.64863210904e-06
1.53283321478e-06
1.18396002553e-06
8.12504757242e-07
4.92224152308e-07
3.27993568393e-07
1.4136984848e-07
9.30523684436e-08
1.83481223676e-07
8.97968706782e-07
3.05906284612e-06
6.31240923841e-06
9.43750676769e-06
1.17361119428e-05
1.31613906148e-05
1.39366819885e-05
1.43082547316e-05
1.4459052568e-05
1.45023150682e-05
1.45002202074e-05
1.75569384893e-06
1.66969852128e-06
1.33388109002e-06
9.62142234018e-07
6.33493616833e-07
3.622494512e-07
2.21384772831e-07
9.60597394636e-08
1.09784937063e-07
4.57507126201e-07
1.94122517124e-06
4.78688691485e-06
8.00114678865e-06
1.06633984041e-05
1.24870069209e-05
1.35763682123e-05
1.41532093268e-05
1.44202567577e-05
1.45207317504e-05
1.45417958383e-05
1.79362887174e-06
1.73267239886e-06
1.42385118202e-06
1.06847372923e-06
7.44043947072e-07
4.68271840097e-07
2.47110998527e-07
1.30198652638e-07
7.43087036236e-08
2.24568764676e-07
1.1765791188e-06
3.56358582553e-06
6.71502761119e-06
9.60629824744e-06
1.17558296607e-05
1.31417691692e-05
1.39354780895e-05
1.43382454835e-05
1.45126028998e-05
1.45676823096e-05
1.80355312778e-06
1.75762796884e-06
1.46897610898e-06
1.1325436454e-06
8.21588771801e-07
5.52705051373e-07
3.25171450951e-07
1.63001075756e-07
7.1572284108e-08
9.95398639744e-08
6.4125879978e-07
2.56830450562e-06
5.5787124442e-06
8.60487769997e-06
1.10105466032e-05
1.26608970507e-05
1.36678564297e-05
1.42161138442e-05
1.44765056691e-05
1.45749815616e-05
1.8068234728e-06
1.76751689024e-06
1.48857701232e-06
1.16685221316e-06
8.72442820408e-07
6.17270404934e-07
3.95198598871e-07
2.06097905343e-07
9.87406384287e-08
5.12579457512e-08
2.6953203808e-07
1.7126787234e-06
4.55681532461e-06
7.66775714077e-06
1.02762351362e-05
1.2156111351e-05
1.33635734421e-05
1.40590636027e-05
1.44128424482e-05
1.45617453432e-05
1.80500622287e-06
1.76820954773e-06
1.49290601165e-06
1.18185738289e-06
9.04464188446e-07
6.65847271678e-07
4.5343760136e-07
2.62200396414e-07
1.10288023471e-07
5.10323835356e-08
8.74027890293e-08
9.4615983161e-07
3.59438911161e-06
6.77279978519e-06
9.55293164457e-06
1.16362675576e-05
1.30307748755e-05
1.38708261059e-05
1.43214609083e-05
1.45265538699e-05
1.79159287986e-06
1.75736232406e-06
1.48388272011e-06
1.18392583759e-06
9.25251519554e-07
7.03425270534e-07
5.00944776178e-07
3.11246241698e-07
1.45761121993e-07
4.79751601955e-08
4.21175785722e-08
3.63719944766e-07
2.6016641776e-06
5.84033608467e-06
8.79249842694e-06
1.10811949008e-05
1.26625976701e-05
1.36488937195e-05
1.42017187245e-05
1.44690929417e-05
1.77250851668e-06
1.73803513282e-06
1.46769295395e-06
1.18216430248e-06
9.42863347234e-07
7.3504141972e-07
5.39603105838e-07
3.52309363449e-07
1.78609214709e-07
5.82129381074e-08
3.380254656e-08
1.13409252206e-07
1.53660697498e-06
4.72717561328e-06
7.88754559818e-06
1.04367959962e-05
1.2238515697e-05
1.33890795141e-05
1.40540715562e-05
1.43900937275e-05
1.75520045167e-06
1.72281022873e-06
1.46062987115e-06
1.19119191915e-06
9.66190164524e-07
7.64934319703e-07
5.7215191373e-07
3.8681202195e-07
2.08229446906e-07
7.18704852632e-08
2.56506574141e-08
4.48886058519e-08
6.39790650328e-07
3.3622860971e-06
6.73287532117e-06
9.64328008686e-06
1.17358823248e-05
1.30850861958e-05
1.38781944169e-05
1.4290935557e-05
1.75638522924e-06
1.72375916919e-06
1.47967360714e-06
1.2235123033e-06
1.00002730475e-06
7.94909614331e-07
6.01235372487e-07
4.17713811686e-07
2.37258616438e-07
9.01810521098e-08
2.87490303092e-08
2.87966268399e-08
1.877163746e-07
1.9473445635e-06
5.30872187286e-06
8.64560732552e-06
1.11230924882e-05
1.27251288947e-05
1.36718695166e-05
1.41728030318e-05
1.80573221444e-06
1.79579991004e-06
1.56305034618e-06
1.29038586913e-06
1.04221013784e-06
8.22929479179e-07
6.27744423973e-07
4.4733053909e-07
2.70486979303e-07
1.16252167971e-07
3.57866809361e-08
2.14901602507e-08
5.50163074454e-08
8.64142243641e-07
3.72500284056e-06
7.40802525064e-06
1.03648058252e-05
1.22927045263e-05
1.34300356033e-05
1.40355458223e-05
1.95012265618e-06
1.95521359398e-06
1.68861239433e-06
1.36074292398e-06
1.07511365715e-06
8.43674000436e-07
6.50732410161e-07
4.78660676055e-07
3.11571601346e-07
1.50528438215e-07
4.65889564694e-08
1.95105560068e-08
2.91507058237e-08
2.61687914958e-07
2.21121450174e-06
5.95539964313e-06
9.43752534333e-06
1.17706200784e-05
1.31448075859e-05
1.38767677235e-05
2.10164469831e-06
2.07488073124e-06
1.75229707125e-06
1.38933107135e-06
1.08819368893e-06
8.54718321555e-07
6.69125249015e-07
5.10967685169e-07
3.5714306496e-07
1.92756208814e-07
6.20571169288e-08
2.16003227511e-08
1.94150322781e-08
6.29640513491e-08
1.00236310192e-06
4.3950736022e-06
8.33778681888e-06
1.11430719002e-05
1.28056018208e-05
1.3691412628e-05
2.11498499314e-06
2.09090637664e-06
1.77157138201e-06
1.40211654785e-06
1.09394153675e-06
8.60259779097e-07
6.82471019546e-07
5.38009471907e-07
3.98834819844e-07
2.36883532006e-07
8.22138027652e-08
2.45553467461e-08
1.83424826058e-08
3.62736072387e-08
2.74983324255e-07
2.87430450152e-06
7.10142408491e-06
1.04018490533e-05
1.24006903949e-05
1.34722154607e-05
2.14946830145e-06
2.12082586452e-06
1.79089281598e-06
1.41252876793e-06
1.09858687831e-06
8.64239076873e-07
6.92229228834e-07
5.58937532929e-07
4.32156565028e-07
2.74193479932e-07
1.01703394771e-07
2.7802064013e-08
1.80906410647e-08
2.35246365911e-08
8.3674278726e-08
1.47012890911e-06
5.79111803891e-06
9.54623124036e-06
1.19174056468e-05
1.32102009552e-05
2.1609129851e-06
2.13541424323e-06
1.80261170345e-06
1.41958159459e-06
1.10144311492e-06
8.66547723155e-07
6.98873407323e-07
5.7463973374e-07
4.58270480715e-07
3.03055949912e-07
1.16459267778e-07
2.9866315854e-08
1.76552248236e-08
2.12723211422e-08
5.39724274155e-08
5.01646659072e-07
4.41691571322e-06
8.57349005407e-06
1.13410541907e-05
1.28948887368e-05
2.16538878035e-06
2.14340985725e-06
1.80918129533e-06
1.42249325616e-06
1.10127697194e-06
8.6647380988e-07
7.03480903175e-07
5.88399876002e-07
4.80800654326e-07
3.24451566461e-07
1.25834606598e-07
3.07343199682e-08
1.71237878287e-08
1.93876386607e-08
3.18115334593e-08
1.79886826664e-07
3.01493938206e-06
7.48534251642e-06
1.06568880845e-05
1.25146376778e-05
2.159170842e-06
2.148833528e-06
1.81423783439e-06
1.42312492991e-06
1.09956926517e-06
8.66126754062e-07
7.09382831893e-07
6.04220014067e-07
5.01668558947e-07
3.3946186512e-07
1.31812315681e-07
3.12163458692e-08
1.67638766577e-08
1.79920614394e-08
2.51995366035e-08
9.66929000126e-08
1.77786240962e-06
6.2718789452e-06
9.84648348679e-06
1.20558089173e-05
2.16085836164e-06
2.15767979408e-06
1.81911201994e-06
1.42372029786e-06
1.09960223601e-06
8.69192555695e-07
7.19909379334e-07
6.22888687963e-07
5.19645683789e-07
3.49635923705e-07
1.36872673906e-07
3.22097952894e-08
1.6748192353e-08
1.72378230576e-08
2.130286305e-08
6.01294956081e-08
9.32318460773e-07
4.96385520975e-06
8.89445091833e-06
1.15033798717e-05
2.1684204549e-06
2.16514068365e-06
1.82072257563e-06
1.42379841194e-06
1.10244389579e-06
8.77233554202e-07
7.35565431774e-07
6.42112928969e-07
5.33953042551e-07
3.56702824509e-07
1.42873933668e-07
3.43295561619e-08
1.70742570668e-08
1.70747467554e-08
1.95819763969e-08
4.14807341294e-08
4.55417760519e-07
3.65643155038e-06
7.79719819178e-06
1.08423139371e-05
2.18841195469e-06
2.17378073949e-06
1.82104768438e-06
1.42407920338e-06
1.10818358558e-06
8.89973760849e-07
7.54025914165e-07
6.5980962105e-07
5.44619117994e-07
3.60860710838e-07
1.49454959217e-07
3.72999541636e-08
1.75645972598e-08
1.72905965927e-08
1.92483528938e-08
3.13282221675e-08
2.0383002137e-07
2.44061858694e-06
6.55964155888e-06
1.00581573697e-05
2.19699784517e-06
2.17034421468e-06
1.81289676444e-06
1.42195693425e-06
1.11664176518e-06
9.06949766936e-07
7.73644557837e-07
6.75320617385e-07
5.50322039854e-07
3.60795517002e-07
1.54405655908e-07
4.01261448111e-08
1.8110313126e-08
1.7672336942e-08
1.95539988076e-08
2.28075586261e-08
8.65966107943e-08
1.43980056208e-06
5.23496361131e-06
9.14674875474e-06
2.18593249306e-06
2.14147270074e-06
1.79019362132e-06
1.42028087887e-06
1.13272152479e-06
9.29990648398e-07
7.94620489917e-07
6.87447640629e-07
5.48567704786e-07
3.55226370455e-07
1.55921448706e-07
4.34096518407e-08
1.87286061464e-08
1.78807860319e-08
1.9993961241e-08
2.24028695265e-08
4.78231126726e-08
7.40466090526e-07
3.93490638228e-06
8.11980140269e-06
2.13997519508e-06
2.0917372958e-06
1.77623339953e-06
1.43987066408e-06
1.16640284461e-06
9.61367725323e-07
8.15869632836e-07
6.91860258642e-07
5.36838671623e-07
3.43711965215e-07
1.58663276894e-07
4.8239135143e-08
1.94552857997e-08
1.78979634811e-08
2.01303187093e-08
2.23948551013e-08
3.63306611883e-08
3.07607990306e-07
2.74445660573e-06
6.99123393732e-06
2.14620733383e-06
2.12150778728e-06
1.8376835463e-06
1.50774865651e-06
1.22020500295e-06
9.95709098084e-07
8.28374503221e-07
6.82059740152e-07
5.18685907153e-07
3.37737210975e-07
1.67555486096e-07
5.49529594735e-08
2.0515130122e-08
1.78377264878e-08
1.98805998728e-08
2.20536266426e-08
2.55497457144e-08
1.09022316071e-07
1.71866088262e-06
5.78169017166e-06
2.32209761619e-06
2.31900698349e-06
2.00064637369e-06
1.60447844701e-06
1.26745948381e-06
1.01390198188e-06
8.2588265476e-07
6.66861000637e-07
5.09132537405e-07
3.46202624916e-07
1.85848758035e-07
6.53622960993e-08
2.23424812758e-08
1.78144005743e-08
1.94943986142e-08
2.14392567413e-08
2.38953249312e-08
5.51730441539e-08
9.05412245067e-07
4.54068524644e-06
2.59789947667e-06
2.57136640136e-06
2.14829344679e-06
1.6743905079e-06
1.30358585971e-06
1.03069959892e-06
8.27278977128e-07
6.64709036437e-07
5.20089620991e-07
3.74981812425e-07
2.19115823127e-07
8.30712992365e-08
2.57389479783e-08
1.80148815107e-08
1.91912023924e-08
2.07795811597e-08
2.2586381888e-08
3.83796303432e-08
3.53240487578e-07
3.32102200846e-06
2.66493121058e-06
2.62764551011e-06
2.21846861209e-06
1.74931744858e-06
1.36259612223e-06
1.06739834509e-06
8.47300798138e-07
6.81977178605e-07
5.4930742712e-07
4.21169974697e-07
2.69765804326e-07
1.12448192043e-07
3.20022590337e-08
1.86634014783e-08
1.90956429245e-08
2.03131656462e-08
2.15281191571e-08
2.63040165539e-08
1.19151765685e-07
2.15540748663e-06
2.70962666745e-06
2.6981402209e-06
2.29058730797e-06
1.82927570496e-06
1.43636875286e-06
1.11699354505e-06
8.79368842092e-07
7.08253744551e-07
5.83029797463e-07
4.71184342218e-07
3.2981212405e-07
1.54306590814e-07
4.26110220856e-08
2.00022834425e-08
1.92458784736e-08
2.00993955692e-08
2.0789362899e-08
2.38708623873e-08
6.37882649419e-08
1.1202311667e-06
2.74828625254e-06
2.74776874531e-06
2.34940902322e-06
1.89603546229e-06
1.49719021911e-06
1.16447080602e-06
9.1089706336e-07
7.32158093367e-07
6.10118173942e-07
5.11658442953e-07
3.85006672036e-07
2.02233339209e-07
5.81183346687e-08
2.22413384324e-08
1.95816399763e-08
2.00598264066e-08
2.02772825821e-08
2.23198434604e-08
4.09015801125e-08
4.17926161052e-07
2.75672406901e-06
2.77252615985e-06
2.38804388927e-06
1.94352802567e-06
1.54413550484e-06
1.20138054952e-06
9.34496450182e-07
7.4913945288e-07
6.28130311923e-07
5.38463772286e-07
4.24921388477e-07
2.45056131698e-07
7.72138156471e-08
2.55248407627e-08
2.00292475896e-08
2.01070322119e-08
1.99122840723e-08
2.11825473824e-08
2.98552952038e-08
1.49479560733e-07
2.75810759961e-06
2.78149966472e-06
2.40873309914e-06
1.97191163078e-06
1.57373092742e-06
1.22470231177e-06
9.5076050392e-07
7.61873875129e-07
6.41236708506e-07
5.56235336808e-07
4.50173559321e-07
2.74000225729e-07
9.42088643815e-08
2.94443914411e-08
2.05788883026e-08
2.01726838161e-08
1.96838406007e-08
2.03370129338e-08
2.61243011039e-08
8.55375154971e-08
2.73634293437e-06
2.77829702853e-06
2.41774807955e-06
1.9849437347e-06
1.58581640801e-06
1.23340168962e-06
9.58717182743e-07
7.70736744742e-07
6.51649827246e-07
5.69156209461e-07
4.65577718599e-07
2.90102973928e-07
1.05167093839e-07
3.25856595338e-08
2.10964103561e-08
2.02539046981e-08
1.95987101583e-08
1.9729658148e-08
2.34979963631e-08
6.15748970747e-08
2.71980021281e-06
2.77297390262e-06
2.41781636247e-06
1.98455129228e-06
1.58149373678e-06
1.22851406306e-06
9.59026982869e-07
7.76013167092e-07
6.60312108173e-07
5.79233977138e-07
4.73832710661e-07
2.95687077542e-07
1.09822731623e-07
3.44556481347e-08
2.14716721187e-08
2.03381251656e-08
1.96173242358e-08
1.93721131828e-08
2.17032487465e-08
3.84020859443e-08
2.70994676871e-06
2.77170504778e-06
2.41246846285e-06
1.97191362222e-06
1.56237994864e-06
1.21308185695e-06
9.5402369992e-07
7.78932563836e-07
6.68117646797e-07
5.87177636078e-07
4.76084800974e-07
2.92861878925e-07
1.09375225642e-07
3.51393326717e-08
2.16861482751e-08
2.04173318831e-08
1.97013512663e-08
1.92547479745e-08
2.06446643861e-08
3.00937501954e-08
2.72447604496e-06
2.78311036621e-06
2.40898704398e-06
1.95231335335e-06
1.53315378708e-06
1.19255495878e-06
9.46475976432e-07
7.80652517727e-07
6.75532541687e-07
5.92696721734e-07
4.72581982164e-07
2.83408730812e-07
1.05405424459e-07
3.49590921031e-08
2.17698737706e-08
2.04829762108e-08
1.98244981963e-08
1.93228158126e-08
2.01617509325e-08
2.61527260195e-08
2.73731081812e-06
2.79654558184e-06
2.40590743212e-06
1.9264915939e-06
1.50080838697e-06
1.17189240435e-06
9.37957214213e-07
7.82090600086e-07
6.82522100211e-07
5.94986930327e-07
4.63499203281e-07
2.69108339641e-07
9.9459075753e-08
3.42605759755e-08
2.17576195133e-08
2.05237179535e-08
1.99605038375e-08
1.94863805703e-08
2.00492624262e-08
2.39560439598e-08
2.75329016966e-06
2.80761533991e-06
2.39756243669e-06
1.89749864996e-06
1.47158283185e-06
1.15277475577e-06
9.29506470307e-07
7.84526816877e-07
6.8856655812e-07
5.93411609903e-07
4.49385020806e-07
2.51896651594e-07
9.2839849114e-08
3.33089196842e-08
2.16681725883e-08
2.05272233383e-08
2.00761201266e-08
1.96425091408e-08
2.01452721616e-08
2.28817067505e-08
2.75993672302e-06
2.80538183473e-06
2.37816916309e-06
1.8683517926e-06
1.44598951404e-06
1.13499161012e-06
9.23044530699e-07
7.88888640772e-07
6.93190767171e-07
5.88085623415e-07
4.31077668999e-07
2.33754374501e-07
8.65425498793e-08
3.22954479543e-08
2.15161071132e-08
2.04865575283e-08
2.01249901487e-08
1.96914577682e-08
2.02617083156e-08
2.24496922979e-08
2.77106517104e-06
2.78719018405e-06
2.34442974421e-06
1.83419447263e-06
1.41871552923e-06
1.11801591624e-06
9.20623123726e-07
7.95348922038e-07
6.96913549917e-07
5.79529713314e-07
4.1015990947e-07
2.1692177621e-07
8.14998517811e-08
3.14628168721e-08
2.13520909792e-08
2.0393629268e-08
2.00539674169e-08
1.96092950735e-08
2.02739621408e-08
2.22714946992e-08
2.77033494692e-06
2.75390821853e-06
2.29995389977e-06
1.79387534077e-06
1.38925243072e-06
1.1045887654e-06
9.24270768021e-07
8.05471674847e-07
7.01245617832e-07
5.67993171146e-07
3.89087927348e-07
2.03665067522e-07
7.86257782612e-08
3.11525626726e-08
2.12607703657e-08
2.02412044147e-08
1.98656606439e-08
1.94654563316e-08
2.01869699197e-08
2.21095221635e-08
2.73718576604e-06
2.68640209585e-06
2.23477534238e-06
1.74720786016e-06
1.36352245872e-06
1.10164845337e-06
9.38549353966e-07
8.22809278672e-07
7.05933322043e-07
5.53856269629e-07
3.70943561316e-07
1.95869694915e-07
7.87316416158e-08
3.17429876918e-08
2.13392139724e-08
2.00477206582e-08
1.96052898779e-08
1.93067469372e-08
2.00038912138e-08
2.18671515629e-08
2.63998397452e-06
2.56898147537e-06
2.15709096722e-06
1.7120120883e-06
1.35870421072e-06
1.12070019484e-06
9.70723315938e-07
8.4872337761e-07
7.07974689626e-07
5.38626482262e-07
3.58850210873e-07
1.94925161112e-07
8.2579808e-08
3.36667241182e-08
2.17049516618e-08
1.98577612019e-08
1.93103036239e-08
1.91308964373e-08
1.9724593607e-08
2.14557097071e-08
2.52970597966e-06
2.47736052849e-06
2.12777045537e-06
1.72615348073e-06
1.39614961994e-06
1.17309866743e-06
1.02350340678e-06
8.76925946919e-07
7.04481720572e-07
5.2612966365e-07
3.56063109381e-07
2.02582734635e-07
9.14468696294e-08
3.75339020788e-08
2.25071134161e-08
1.97533205855e-08
1.90290889035e-08
1.89209633678e-08
1.93517165606e-08
2.08510809474e-08
2.52255343157e-06
2.51360456503e-06
2.20228478985e-06
1.8131435212e-06
1.48218454464e-06
1.25655819006e-06
1.08514733635e-06
8.99194178936e-07
7.01874122192e-07
5.24293615188e-07
3.66326033611e-07
2.21230230281e-07
1.06713516309e-07
4.37728832688e-08
2.38754558181e-08
1.9820590475e-08
1.88309466021e-08
1.86636062942e-08
1.8931325612e-08
2.00544206767e-08
2.66414188453e-06
2.69767176849e-06
2.37228161021e-06
1.94766741736e-06
1.59078823411e-06
1.34810934326e-06
1.14503204398e-06
9.24807156653e-07
7.09899806427e-07
5.34980239064e-07
3.91066451942e-07
2.53545553172e-07
1.31000072539e-07
5.36340235505e-08
2.61788549976e-08
2.01824751809e-08
1.87927058396e-08
1.84064254193e-08
1.84971282781e-08
1.91294698872e-08
2.87469875505e-06
2.91874874048e-06
2.53099593785e-06
2.05682181822e-06
1.68655579502e-06
1.43503633393e-06
1.20915774665e-06
9.63419193139e-07
7.34595428563e-07
5.61403852259e-07
4.30229013316e-07
3.00177966467e-07
1.67113734404e-07
6.90048363395e-08
2.99014909519e-08
2.09989394088e-08
1.89597627223e-08
1.82436863775e-08
1.80982199297e-08
1.82651919922e-08
3.02517070228e-06
3.01413580373e-06
2.56166491743e-06
2.08885466885e-06
1.74475084914e-06
1.50581997288e-06
1.27682389796e-06
1.01989149025e-06
7.79966758182e-07
6.01200948512e-07
4.75536591847e-07
3.54523874447e-07
2.14236794439e-07
9.13722978058e-08
3.55369170619e-08
2.22760227991e-08
1.93921650828e-08
1.82700697244e-08
1.7778376837e-08
1.75417156727e-08
2.92285590731e-06
2.88842199429e-06
2.48254981089e-06
2.06730475008e-06
1.76514529064e-06
1.55271482562e-06
1.34000992089e-06
1.08603910503e-06
8.37035987072e-07
6.45049265049e-07
5.16627059302e-07
4.05089125361e-07
2.65205412782e-07
1.19932519786e-07
4.34028717873e-08
2.39492381065e-08
1.99974891631e-08
1.8484501636e-08
1.75950893572e-08
1.70089847745e-08
2.81932754035e-06
2.78106990981e-06
2.40802726622e-06
2.0352307636e-06
1.7704993332e-06
1.58136528853e-06
1.38648748514e-06
1.14534249748e-06
8.91611244314e-07
6.84689772685e-07
5.48666254368e-07
4.4397824082e-07
3.1054434347e-07
1.50976564386e-07
5.3438840036e-08
2.60474279449e-08
2.06074169541e-08
1.87861103729e-08
1.75855107078e-08
1.6678861681e-08
2.75090452123e-06
2.71246796667e-06
2.35556278034e-06
2.01002431115e-06
1.77283918544e-06
1.6012987905e-06
1.41685431424e-06
1.18366271358e-06
9.30685461382e-07
7.15439872139e-07
5.71991923996e-07
4.70357699313e-07
3.44666011954e-07
1.7999611393e-07
6.51488457309e-08
2.87012068946e-08
2.11752902839e-08
1.91267574231e-08
1.77308000381e-08
1.65083470591e-08
2.69269943807e-06
2.66098091956e-06
2.31906892978e-06
1.99146919046e-06
1.77172025724e-06
1.61193971419e-06
1.43304766248e-06
1.20393878959e-06
9.53100828561e-07
7.36212456878e-07
5.89494720254e-07
4.88653256472e-07
3.67836515421e-07
2.02323794076e-07
7.64830241416e-08
3.18086861474e-08
2.17620538221e-08
1.9421375246e-08
1.79666360255e-08
1.64434252094e-08
2.62727646851e-06
2.62044376639e-06
2.29665147659e-06
1.97837817049e-06
1.76639527032e-06
1.61210783487e-06
1.43503401498e-06
1.20820678198e-06
9.61528939773e-07
7.48591643859e-07
6.03273587059e-07
5.02980972782e-07
3.83582118163e-07
2.17214290582e-07
8.49527613331e-08
3.44800674999e-08
2.22712020971e-08
1.96007727967e-08
1.8198546725e-08
1.64437434227e-08
2.58129127523e-06
2.59852973253e-06
2.28566343103e-06
1.968576412e-06
1.75669183286e-06
1.6019805782e-06
1.4232253653e-06
1.19789686913e-06
9.57919365388e-07
7.53840442922e-07
6.1416175603e-07
5.14850254743e-07
3.93601521328e-07
2.24780321732e-07
8.9539499675e-08
3.615342929e-08
2.25763877672e-08
1.96443792628e-08
1.83335756393e-08
1.64945736376e-08
2.55181919509e-06
2.59074434251e-06
2.28105918312e-06
1.95742175289e-06
1.74117577072e-06
1.58265366982e-06
1.39956688426e-06
1.17542969432e-06
9.4480665078e-07
7.53818866867e-07
6.23032346e-07
5.24533678985e-07
3.97878182947e-07
2.24709908819e-07
8.9776022372e-08
3.6530137548e-08
2.25740568041e-08
1.95463728877e-08
1.8344561633e-08
1.65850447876e-08
2.5590638808e-06
2.60645162665e-06
2.28642706977e-06
1.94775418997e-06
1.72421880175e-06
1.55915838112e-06
1.36901207674e-06
1.14551122526e-06
9.26470164813e-07
7.51487716289e-07
6.30889764975e-07
5.3132467348e-07
3.95138227846e-07
2.16606825827e-07
8.58085005922e-08
3.56132431479e-08
2.22220902809e-08
1.93051069773e-08
1.8262194703e-08
1.67075318668e-08
2.57849241044e-06
2.63007383968e-06
2.29554645127e-06
1.94314471593e-06
1.71384543739e-06
1.54010397389e-06
1.34018749865e-06
1.11624370947e-06
9.09366582654e-07
7.50524202256e-07
6.38412440353e-07
5.33656980233e-07
3.8377200758e-07
2.0096540538e-07
7.86265325039e-08
3.37017845932e-08
2.1560215019e-08
1.89383419951e-08
1.8110655404e-08
1.68667505068e-08
2.60592295236e-06
2.64843690071e-06
2.30331913044e-06
1.95117808036e-06
1.72033038211e-06
1.53457151229e-06
1.3223839842e-06
1.09680617066e-06
9.00306569052e-07
7.54178795263e-07
6.45381316644e-07
5.29404237052e-07
3.63154383236e-07
1.80120392649e-07
6.99219743611e-08
3.12567512453e-08
2.06961738844e-08
1.84776325356e-08
1.79122411964e-08
1.70800340504e-08
2.62044223422e-06
2.65297690635e-06
2.31627312485e-06
1.98642840124e-06
1.75454514525e-06
1.54940043161e-06
1.32226838637e-06
1.09413146395e-06
9.03991043566e-07
7.63575180374e-07
6.50050313499e-07
5.17081729836e-07
3.35634310989e-07
1.57886068574e-07
6.13860237135e-08
2.87706618611e-08
1.97671630572e-08
1.796105613e-08
1.76907632073e-08
1.73744562841e-08
2.61226716642e-06
2.65025515664e-06
2.36731116149e-06
2.07241598832e-06
1.82373441257e-06
1.58677749688e-06
1.34292405281e-06
1.111746873e-06
9.21871617578e-07
7.77220593221e-07
6.5038127977e-07
4.98393416969e-07
3.06678321497e-07
1.38045100861e-07
5.43297311899e-08
2.66473525969e-08
1.88970792633e-08
1.74280570449e-08
1.74750742482e-08
1.77649340759e-08
2.6771604177e-06
2.78012281739e-06
2.54828813344e-06
2.2409942675e-06
1.92967087203e-06
1.64333840098e-06
1.3836011164e-06
1.1493580292e-06
9.52078083855e-07
7.92732499624e-07
6.47216057691e-07
4.79160957317e-07
2.82703135703e-07
1.23517050135e-07
4.94810973522e-08
2.51180920785e-08
1.8183108525e-08
1.69172207993e-08
1.72888312442e-08
1.82387418169e-08
2.92435788419e-06
3.12292323108e-06
2.88174470411e-06
2.47009150615e-06
2.0571870567e-06
1.72112020128e-06
1.44494039092e-06
1.20343804445e-06
9.9169042884e-07
8.10747667319e-07
6.46479696732e-07
4.68136851763e-07
2.70247424501e-07
1.1646335196e-07
4.71777653387e-08
2.43174666319e-08
1.7702277792e-08
1.64679521429e-08
1.71249269618e-08
1.86848718071e-08
3.3104774599e-06
3.5714577735e-06
3.24750005612e-06
2.69388928477e-06
2.2032441944e-06
1.83604158611e-06
1.53892148884e-06
1.27610142373e-06
1.03978680763e-06
8.35454144906e-07
6.56057894406e-07
4.72924093671e-07
2.74479434255e-07
1.18823450722e-07
4.79064074045e-08
2.44082896887e-08
1.7531062751e-08
1.61289965108e-08
1.69309459928e-08
1.898459453e-08
3.67827479217e-06
3.93571518086e-06
3.51297592578e-06
2.8970779027e-06
2.38692689368e-06
1.99438838575e-06
1.66366511661e-06
1.36748738833e-06
1.10143433164e-06
8.73275145619e-07
6.80172219123e-07
4.94481797218e-07
2.94769205451e-07
1.31505937746e-07
5.25121370701e-08
2.56795932884e-08
1.77751417246e-08
1.59525570173e-08
1.66964411262e-08
1.90137133704e-08
3.77922525829e-06
4.03899264634e-06
3.65062747374e-06
3.07847712054e-06
2.57290623877e-06
2.15338013964e-06
1.78797726101e-06
1.4607942366e-06
1.17014007078e-06
9.22900257698e-07
7.1701342787e-07
5.28449709598e-07
3.2835131159e-07
1.54095612326e-07
6.16536810896e-08
2.84980091092e-08
1.85433536422e-08
1.59946891979e-08
1.6467045346e-08
1.88322740227e-08
3.74098330354e-06
4.03104551593e-06
3.70825381205e-06
3.18556881275e-06
2.68953941226e-06
2.25899166656e-06
1.87789470355e-06
1.53593638513e-06
1.23370017293e-06
9.76554909291e-07
7.61038054068e-07
5.68568181958e-07
3.68517560112e-07
1.83328310502e-07
7.49147866022e-08
3.30538724236e-08
1.99319046695e-08
1.63097183056e-08
1.62946601075e-08
1.85097233848e-08
3.61087375573e-06
3.91021271043e-06
3.67648681841e-06
3.23937503019e-06
2.77252107221e-06
2.33685450333e-06
1.94487802044e-06
1.59359542986e-06
1.28497375972e-06
1.02309614036e-06
8.02439410932e-07
6.07489146443e-07
4.08121006808e-07
2.14719974125e-07
9.09353524322e-08
3.91674012783e-08
2.2006112179e-08
1.6934726987e-08
1.62430331424e-08
1.80673302954e-08
3.40168421909e-06
3.67948427318e-06
3.52911450801e-06
3.19673247923e-06
2.79161820502e-06
2.37634101382e-06
1.98485813159e-06
1.62930579424e-06
1.31814453264e-06
1.05616524851e-06
8.35712794613e-07
6.41683487806e-07
4.43865599015e-07
2.4505319091e-07
1.08302395528e-07
4.65421362163e-08
2.47770957083e-08
1.79043459918e-08
1.63761998758e-08
1.76027497702e-08
3.17454004711e-06
3.411084653e-06
3.30190202503e-06
3.06038191701e-06
2.73061828245e-06
2.35738573275e-06
1.98279859396e-06
1.63452211523e-06
1.33012907989e-06
1.07551289768e-06
8.61195512671e-07
6.71852716425e-07
4.75940362587e-07
2.73390819013e-07
1.26382431933e-07
5.51436481082e-08
2.83434674743e-08
1.93137488087e-08
1.67763784177e-08
1.72594114069e-08
2.9563323839e-06
3.14698823818e-06
3.03808638342e-06
2.85310534811e-06
2.5946990279e-06
2.27414775148e-06
1.9320240372e-06
1.60681311618e-06
1.32323428836e-06
1.08569723972e-06
8.83748847216e-07
7.01791613461e-07
5.06552897021e-07
3.00724497038e-07
1.45724542241e-07
6.54958237985e-08
3.31044191989e-08
2.14161224261e-08
1.75951490417e-08
1.72054068405e-08
2.77233999852e-06
2.91847026582e-06
2.77824127588e-06
2.61459573557e-06
2.41167640981e-06
2.14494511644e-06
1.84615730737e-06
1.55880737571e-06
1.30933031517e-06
1.09704803974e-06
9.12240013846e-07
7.36871058271e-07
5.38766481799e-07
3.29561846867e-07
1.68261445013e-07
7.90324423772e-08
4.00018594667e-08
2.47663132643e-08
1.91357325312e-08
1.76398957022e-08
2.61417646483e-06
2.71918727103e-06
2.54513555663e-06
2.39159535011e-06
2.23345213821e-06
2.01585633043e-06
1.76332409099e-06
1.52171941726e-06
1.31166587837e-06
1.12708376478e-06
9.58484156247e-07
7.82473813862e-07
5.76681090777e-07
3.64409657863e-07
1.97833308019e-07
9.86812811634e-08
5.0925341622e-08
3.04242614278e-08
2.19622051576e-08
1.88602945064e-08
2.50592901747e-06
2.55576369295e-06
2.37658346923e-06
2.25185725473e-06
2.13241794725e-06
1.95073382724e-06
1.73595359432e-06
1.53453207547e-06
1.35780966863e-06
1.19535321269e-06
1.03143605821e-06
8.43050367765e-07
6.26710158023e-07
4.12333019576e-07
2.40604486282e-07
1.29415714239e-07
6.91634324962e-08
4.02044567578e-08
2.70006148266e-08
2.13210218245e-08
2.4463037073e-06
2.47691214187e-06
2.35630409853e-06
2.2701987254e-06
2.16423207458e-06
1.99210003776e-06
1.79505813313e-06
1.61818711455e-06
1.46330970111e-06
1.30840799037e-06
1.13078759678e-06
9.22072714441e-07
6.96479175679e-07
4.81297461108e-07
3.03990179909e-07
1.78055519396e-07
9.98446726704e-08
5.70480120005e-08
3.56146787311e-08
2.55796653126e-08
2.55063291388e-06
2.61757540609e-06
2.55599594013e-06
2.45912731702e-06
2.31804866073e-06
2.12201706389e-06
1.92121354961e-06
1.75536193048e-06
1.60882266627e-06
1.44390767114e-06
1.24322649396e-06
1.01673449567e-06
7.88137055558e-07
5.76339018862e-07
3.92760510723e-07
2.5098930463e-07
1.49023176571e-07
8.45734108022e-08
4.92740122153e-08
3.20176012708e-08
2.83375165547e-06
2.93716701754e-06
2.85971370444e-06
2.69317754407e-06
2.48260559324e-06
2.24877420046e-06
2.038682472e-06
1.88061037866e-06
1.74115313564e-06
1.56757440678e-06
1.3511107413e-06
1.11568358383e-06
8.88500144843e-07
6.82892506388e-07
4.99660543638e-07
3.44381067557e-07
2.16132023404e-07
1.23102210163e-07
6.76986944594e-08
4.00181816916e-08
3.05337359774e-06
3.13073039615e-06
2.97445249647e-06
2.75082030931e-06
2.51879941559e-06
2.28127610892e-06
2.07818363613e-06
1.93938789007e-06
1.81857916046e-06
1.64938266906e-06
1.4325562833e-06
1.19858813772e-06
9.7522946318e-07
7.7447957987e-07
5.96333442996e-07
4.33772257671e-07
2.83925270156e-07
1.6279582195e-07
8.57154678488e-08
4.69269120082e-08
2.55397892361e-06
3.00547990654e-06
2.97231883472e-06
2.74887057834e-06
2.485529948e-06