/*--------------------------------*- C++ -*----------------------------------*\
| =========                 |                                                 |
| \\      /  F ield         | OpenFOAM: The Open Source CFD Toolbox           |
|  \\    /   O peration     | Version:  2312                                  |
|   \\  /    A nd           | Website:  www.openfoam.com                      |
|    \\/     M anipulation  |                                                 |
\*---------------------------------------------------------------------------*/
FoamFile
{
    version     2.0;
    format      ascii;
    arch        "LSB;label=32;scalar=64";
    class       volScalarField;
    location    "0.515/water";
    object      alpha.gas_0;
}
// * * * * * * * * * * * * * * * * * * * * * * * * * * * * * * * * * * * * * //

dimensions      [0 0 0 0 0 0 0];

internalField   nonuniform List<scalar> 
6000
(
0.172241658744
0.104157827127
0.0297615621401
0.0076253181666
0.00145786686555
0.000224232258618
2.75359463735e-05
1.99589643411e-06
4.45666876236e-08
4.26027720041e-10
2.36168004649e-12
1.04088949722e-14
1e-15
1e-15
1e-15
1e-15
1e-15
1e-15
1e-15
1e-15
0.613294019074
0.257257630424
0.10740866822
0.0369888157422
0.0117963678028
0.00313896113881
0.000697409733269
0.000121475103661
1.22259262992e-05
2.90415038977e-07
1.12576036678e-09
2.03911328349e-12
3.56882286342e-15
1e-15
1e-15
1e-15
1e-15
1e-15
1e-15
1e-15
0.613295062351
0.339182956257
0.166794591001
0.071411047549
0.0276538224042
0.00922104707629
0.00255692327991
0.000570206062582
8.55222645266e-05
4.67829221112e-06
2.72866706211e-08
4.11120373788e-11
4.47734166617e-14
1.00142857646e-15
1e-15
1e-15
1e-15
1e-15
1e-15
1e-15
0.613294019074
0.417169111889
0.241624590896
0.122887893686
0.0553339483573
0.0213068110794
0.00677919216112
0.00173881802035
0.000324590854035
3.046543268e-05
4.63050270121e-07
6.5316250278e-10
4.99064389604e-13
1.25636176166e-15
1e-15
1e-15
1e-15
1e-15
1e-15
1e-15
0.59777902586
0.464436065231
0.320295665026
0.194572961916
0.103248649782
0.0461198934496
0.0166548729302
0.00470623731193
0.000983637516453
0.000121516434118
4.34334916597e-06
9.20922824434e-09
5.48851134839e-12
3.53599683082e-15
1.00008319631e-15
1e-15
1e-15
1e-15
1e-15
1e-15
0.570661673575
0.482057287593
0.380939589653
0.271911795611
0.170846656377
0.0908131171661
0.0387954374277
0.0125614559749
0.00289647581874
0.00041474574436
2.43698996707e-05
1.53490890153e-07
9.60241864524e-11
4.24088102941e-14
1.01082683575e-15
1e-15
1e-15
1e-15
1e-15
1e-15
0.560817556196
0.48903633084
0.418091919469
0.335926306202
0.243566770453
0.152838230834
0.0789640719625
0.0311982340574
0.00856809018022
0.00143913011798
0.000114097716777
2.06076829309e-06
1.82953620295e-09
7.15463079123e-13
1.22273229669e-15
1.0002297591e-15
1.00013740575e-15
1.00012196863e-15
1.00010991724e-15
1.00007782725e-15
0.560375146421
0.493813414893
0.438103131659
0.378912507088
0.303896023831
0.21789449687
0.133808335905
0.0657653462123
0.0231474709641
0.00499241415152
0.000528716335479
1.83480907884e-05
5.45541353945e-08
2.28409976088e-11
8.14628437988e-15
1.00209747167e-15
1.00028407599e-15
1.00019720504e-15
1.00015116932e-15
1.00010862232e-15
0.562253147883
0.495113035811
0.453991052708
0.409270081778
0.348849459644
0.273613404309
0.192070816582
0.114658338958
0.0523940316142
0.0154207680739
0.00231361699243
0.000129532181504
1.45164967307e-06
9.93584653558e-10
3.33588353389e-13
1.08063842594e-15
1.00064770318e-15
1.00049387621e-15
1.00039440132e-15
1.00017929735e-15
0.560375146421
0.493685129523
0.463583313206
0.428373819351
0.378766945466
0.314858072345
0.243539087945
0.168977591744
0.0965146016339
0.0384591356049
0.00836179967661
0.000735019202904
1.75698476467e-05
3.85023033824e-08
1.86334124222e-11
6.81108129824e-15
1.0029748769e-15
1.00125638424e-15
1.00086400049e-15
1.00056055904e-15
0.562346443329
0.487918566218
0.462256621477
0.431611620226
0.392616336102
0.341929170366
0.283534584976
0.218184409173
0.146424856027
0.0746659521832
0.0228868084751
0.00308962866957
0.000127140014607
8.63553309938e-07
6.91487470732e-10
2.91358363986e-13
1.08303229186e-15
1.00350067577e-15
1.00208724336e-15
1.00104270144e-15
0.56010516929
0.476119338854
0.451698045315
0.425665880067
0.395586794233
0.35813434806
0.312294705176
0.25647789897
0.189972203454
0.11530103665
0.0469096993811
0.00928872657529
0.000605788634438
8.32494676147e-06
1.19482974549e-08
6.41593466288e-12
3.16644696437e-15
1.00629082308e-15
1.00389427947e-15
1.00172413587e-15
0.561395494907
0.459216591034
0.430383691376
0.411147349918
0.393242002853
0.368225054649
0.33225137422
0.282666148828
0.221302866899
0.150801923941
0.0759168326204
0.0206551010567
0.00202759635488
4.77322075289e-05
1.37490964158e-07
8.78428019091e-11
3.27174932284e-14
1.01339485696e-15
1.00396647683e-15
1.0019058963e-15
0.560015793476
0.44565817986
0.420374362418
0.406818753532
0.395140270107
0.377550300764
0.346535852133
0.300252341767
0.244547115014
0.181246625702
0.106737144855
0.0375606305017
0.00532208589084
0.000204438365116
1.38886934525e-06
8.9711263076e-10
2.53117701459e-13
1.0387140135e-15
1.00266904781e-15
1.00148830141e-15
0.54980061937
0.444390893493
0.426520354947
0.416350727161
0.407656575878
0.390801901678
0.3592167206
0.315848175797
0.26746001832
0.213032187849
0.142782987742
0.0629529755122
0.0127512974389
0.000830762896767
1.28687227518e-05
6.6488147091e-09
2.91491310566e-13
1.00973816433e-15
1.00053845818e-15
1.00045117975e-15
0.538546972788
0.462386621951
0.455623543052
0.448910868556
0.435390859092
0.40980257221
0.374697581776
0.335757122205
0.295991946156
0.251486936562
0.189764261931
0.104818507543
0.031024374983
0.00351235433241
0.000114131466478
5.50957922612e-07
8.36595836254e-13
1.16239147801e-15
1e-15
1e-15
0.566399436033
0.514513982713
0.504809100456
0.49493775644
0.470755327718
0.433667512758
0.394729875514
0.35950246079
0.326816567281
0.291474491228
0.243774805168
0.167714767398
0.0730066667934
0.0142006940787
0.000897341346486
1.2913282189e-05
2.46463603891e-09
3.54675020051e-14
1.00153773305e-15
1e-15
0.618178517725
0.561665802018
0.544645116423
0.529994391474
0.499791234444
0.455951040063
0.411822149092
0.373189908841
0.34058902156
0.315831620474
0.287275809279
0.236162172768
0.143099585346
0.04545127875
0.00521762976772
0.000157449803436
6.76995198117e-07
5.18791530346e-12
2.462374253e-15
1e-15
0.617774645784
0.575015264713
0.569293758455
0.551615810904
0.516719501713
0.467865168449
0.417887411817
0.374093888788
0.339069704387
0.315587965403
0.309284604911
0.289207837329
0.218962503287
0.102504744324
0.0199742791714
0.00115012468081
1.41449959939e-05
1.34569837472e-09
9.7284053483e-14
1.02364079573e-15
0.621901638228
0.576372591545
0.576227496576
0.562114108216
0.524282268756
0.470649501186
0.417468876816
0.370568283836
0.330542228559
0.308482654191
0.309224712952
0.309164810682
0.271378522201
0.164697057432
0.0493389386002
0.00487755788037
0.000113460171085
3.23841859773e-07
3.27640780825e-11
6.96258314225e-15
0.617774645784
0.574203448586
0.57608389865
0.563659187137
0.524798556721
0.46888262358
0.411355020214
0.357100562664
0.311770707517
0.297436557923
0.305583175144
0.309104898598
0.292165770619
0.206866500943
0.083397525525
0.0126665252513
0.000482359219511
3.19324634674e-06
2.1779068675e-09
9.04783545827e-13
0.622416027415
0.566668353836
0.573642922553
0.559968115539
0.519298009344
0.458448967729
0.393148733812
0.33104021757
0.297086758362
0.296936514297
0.297193112118
0.307118768655
0.297340678481
0.227917984609
0.109107430537
0.0223066016541
0.00124146198926
1.31363060707e-05
1.94419399119e-08
1.28499539545e-11
0.617774645784
0.554725860052
0.561601518827
0.545125175409
0.50038239886
0.433902902755
0.362188043333
0.302712088022
0.296847554011
0.297068027858
0.296598207516
0.297534532517
0.297319472331
0.241022071524
0.126354798525
0.0311082229749
0.0022678106315
3.25735397503e-05
7.32384378391e-08
6.49921931281e-11
0.62191552774
0.540648288884
0.544193981367
0.520019946788
0.468551984975
0.397932374862
0.326520208807
0.296909171201
0.297068027858
0.296124740472
0.297068027858
0.296473230679
0.301085493629
0.255193824207
0.142032974657
0.0400222180773
0.0036082174549
6.52844775686e-05
1.8600222111e-07
1.92086625101e-10
0.617774645784
0.528347392736
0.524988890198
0.49067270084
0.432159253218
0.361458586601
0.300822273116
0.297068027858
0.296091944924
0.297068027858
0.295637070318
0.29854004805
0.332742384058
0.281933794908
0.165461021637
0.0537227323866
0.00606101572008
0.000139306082332
4.77450679078e-07
5.16099897067e-10
0.620312711016
0.516090275052
0.504217195616
0.463164888889
0.402040258957
0.336546369522
0.297068027858
0.296384041397
0.297068027858
0.295637070318
0.297068027858
0.334854656335
0.35954295628
0.320998888934
0.211033225862
0.0814231681572
0.0118447448123
0.000368168854564
1.65094237966e-06
1.78368033008e-09
0.617774645784
0.499680468576
0.479473023784
0.439201537733
0.383911627501
0.326669835929
0.296802496629
0.297068027858
0.295637070318
0.297068027858
0.31382506764
0.35954295628
0.360195725636
0.359274663374
0.273490919452
0.130371706712
0.0254832925475
0.00115972777113
7.88634966512e-06
7.13955833373e-09
0.618064610195
0.478244634361
0.453669710356
0.421164112006
0.375996401631
0.325418573708
0.297068027858
0.295958236978
0.297068027858
0.305227831256
0.358835818033
0.360420289094
0.35954295628
0.359987357004
0.3247797034
0.195829401996
0.0524827767972
0.0036816847284
4.31714539736e-05
4.01053265972e-08
0.593389232439
0.462683386361
0.450993950446
0.422245887417
0.378450795762
0.331536786328
0.302979205721
0.30355571009
0.316369467023
0.349170487132
0.360040030823
0.35954295628
0.360239532273
0.35954295628
0.356700264117
0.256482816159
0.094128284701
0.0106095792981
0.000232493023585
5.97751962003e-07
0.553879146936
0.477213168675
0.475012977598
0.448591380897
0.399659312571
0.357163392859
0.338904237357
0.343851924984
0.351825506575
0.350108980129
0.348406687502
0.354139390591
0.35954295628
0.359835560611
0.35954295628
0.296321500563
0.145696444894
0.0263626997691
0.00107050357178
6.62326850871e-06
0.571611850402
0.551785048479
0.555027233961
0.523819431065
0.453824433644
0.403477608763
0.382758283583
0.373131591114
0.35464727814
0.333621365196
0.318069889669
0.32652759664
0.348122055188
0.358527660481
0.358989626923
0.318920260887
0.198894042323
0.0555617901958
0.00400896985656
4.94806568275e-05
0.649667308285
0.650016978937
0.648664478009
0.624166260737
0.541423481233
0.465608632406
0.420230284115
0.388041236645
0.352010596182
0.311925349803
0.29016246112
0.295464690756
0.31895582417
0.342209557476
0.348882367727
0.329503618718
0.24842265786
0.100133076268
0.0122345464091
0.000287094622625
0.664698197436
0.659203371856
0.661678042118
0.659203371856
0.629000640456
0.541428788862
0.464010724326
0.407670817455
0.35563786897
0.306526497135
0.27864426642
0.279070687695
0.29138832787
0.312756126394
0.330471082305
0.336914472189
0.292237439558
0.156841223892
0.0305078403854
0.00130501400819
0.659203371856
0.662673464691
0.659203371856
0.661663336099
0.659196115591
0.602478851654
0.514118110866
0.436786242526
0.368504595928
0.308547014427
0.275649457981
0.274274839854
0.277823508958
0.288737240184
0.312581375008
0.344998679219
0.332801345873
0.218731662729
0.0627553329483
0.0046648217973
0.665481802473
0.659005363004
0.662979275341
0.659203371856
0.660520008727
0.631454974223
0.552970954331
0.464536413076
0.383208385246
0.31193438618
0.274791631114
0.273931049156
0.274055701028
0.276864301213
0.299663149724
0.351636504504
0.362672420684
0.27444629958
0.107515762172
0.0131237940707
0.659203371856
0.66251262176
0.659203371856
0.662354648936
0.659203371856
0.642017395367
0.571847509855
0.479519066558
0.389796199942
0.312310317374
0.274275249124
0.273788466795
0.27370238593
0.274047105733
0.291566303271
0.354837846078
0.362686605596
0.310217155088
0.155273021046
0.0287715864005
0.665250690197
0.659132608617
0.66296404696
0.659203371856
0.660549381718
0.644515169158
0.576258639241
0.482149423021
0.389109754271
0.308640325087
0.274012874314
0.273627993751
0.273638192652
0.273640421208
0.284944904152
0.351469937658
0.362705031277
0.328295470032
0.193637979698
0.049706141358
0.659203371856
0.661576996131
0.659203371856
0.661712118853
0.659203371856
0.643217944961
0.573297417359
0.477408314703
0.380236364044
0.298595701304
0.273673649814
0.273638192652
0.27334850162
0.273638192652
0.27956295405
0.345292315392
0.362726883459
0.336277846856
0.218862256865
0.071496578137
0.663929380892
0.659203371856
0.661904714476
0.659203371856
0.659926629436
0.634869429159
0.55782141346
0.458567240898
0.359074516031
0.284857280127
0.273638192652
0.273284751774
0.273530637465
0.273212906337
0.276932704302
0.340100416439
0.362751888441
0.339453659418
0.235355299768
0.0920737743205
0.659203371856
0.659982711331
0.659203371856
0.66053328983
0.659203371856
0.613915511922
0.526073683323
0.425039207785
0.328504069661
0.274948777481
0.273382557563
0.273530637465
0.27296466849
0.273530637465
0.276838535072
0.338545066006
0.362778217876
0.341345397463
0.249686634394
0.112716173795
0.662434046547
0.65371994001
0.659973466202
0.659203371856
0.645437736429
0.577682493005
0.482836634969
0.382012310182
0.29565749188
0.273479077567
0.273530637465
0.272907241549
0.273393814297
0.272855506867
0.280143182099
0.340096478162
0.362804547086
0.344606498536
0.267585740311
0.136597734165
0.659203371856
0.637827949832
0.656423925823
0.652128463912
0.611968661883
0.530529235556
0.432321357981
0.334098545079
0.275556483206
0.273530637465
0.272922085961
0.273393814297
0.272621782242
0.273393814297
0.287462011481
0.344576983165
0.362830876071
0.352250234222
0.293527558203
0.166334247736
0.661146519594
0.619138937174
0.636379203725
0.620680801212
0.56408851733
0.476171426956
0.376417736989
0.290899254053
0.273530637465
0.272943819873
0.273393814297
0.272473926902
0.272874712906
0.272927601229
0.297569085372
0.34676291661
0.363232505746
0.367554253929
0.325319486393
0.199903931526
0.659203371856
0.600252526334
0.605957041664
0.575565038165
0.508315383319
0.416790660266
0.32030669107
0.273659518535
0.273122629725
0.273393814297
0.272362556098
0.272874712906
0.272339257804
0.273088514481
0.305981829314
0.345197850079
0.365621497541
0.383823328371
0.351133766467
0.232869556713
0.66029192423
0.580447100264
0.57233885352
0.526577339071
0.449676281349
0.358026359985
0.280606767731
0.27321838572
0.273393814297
0.272246625599
0.272874712906
0.272057375313
0.272874712906
0.273007749889
0.310209840421
0.339429414611
0.365341574429
0.386503301291
0.36631762302
0.263499397986
0.659203371856
0.555149230592
0.534601804554
0.478406815169
0.396232587672
0.310212904968
0.273339118426
0.273393814297
0.272165347667
0.272874712906
0.271709654228
0.272874712906
0.272180453327
0.276920428416
0.307137357413
0.330565095462
0.363162688517
0.386479183207
0.376708139759
0.292576387029
0.659525056826
0.519711482615
0.492018767283
0.43681975588
0.358761769175
0.283993398416
0.273393814297
0.272204774925
0.272874712906
0.271586168932
0.272874712906
0.271790257436
0.272874712906
0.278319221384
0.297809961781
0.319793455268
0.358432496934
0.385691456683
0.388900631359
0.322285299249
0.644921291092
0.477817921472
0.454576520789
0.410583230078
0.340219193124
0.274775152017
0.272632522091
0.272874712906
0.271586168932
0.272874712906
0.271455467953
0.272874712906
0.272371471892
0.278837481065
0.285266788502
0.30595853996
0.348388535945
0.384564284284
0.407305726642
0.356665047667
0.598173320986
0.452358175772
0.45045234501
0.411219499811
0.340258705966
0.27614625071
0.273393814297
0.271798310326
0.272874712906
0.276262838499
0.291100936312
0.284525264867
0.273444922031
0.271652098796
0.271207374826
0.287556526197
0.33071358907
0.382188526174
0.413413773142
0.402965644034
0.549094304254
0.461744170835
0.470466799748
0.438280390911
0.367488723721
0.301977076177
0.281817006295
0.287312209449
0.305877976559
0.327559921498
0.316981807596
0.285873735435
0.267402585566
0.260734268042
0.258652644598
0.266412267746
0.305517842642
0.374117770808
0.413713865014
0.413413773142
0.544469095756
0.514775171889
0.534205895153
0.515374828364
0.455033453662
0.389595673235
0.360211835614
0.370633031692
0.387629533162
0.373870866132
0.327672404982
0.283921505481
0.260327059261
0.254042989522
0.250525063773
0.249740677363
0.277746403418
0.355273728676
0.413413773142
0.413840322812
0.577507897235
0.590676214814
0.605589095813
0.600184320578
0.566097551667
0.517093405547
0.485469180739
0.476436741414
0.460793005938
0.414726161832
0.346196243623
0.287890338046
0.258459436094
0.250309384476
0.246680327656
0.242986289716
0.255765194403
0.326357990056
0.411043312008
0.413413773142
0.643306003839
0.631466587776
0.636343407651
0.639715471426
0.625997587136
0.600139475325
0.573999777885
0.550245419945
0.517812344612
0.462492843174
0.382440793661
0.303054748411
0.258995503622
0.247600079291
0.245050053862
0.242030554056
0.243619177523
0.294316875003
0.396587948831
0.413811527264
0.663610741412
0.637789530202
0.645540374143
0.651779911562
0.644030680885
0.629908595085
0.612208313713
0.589863949971
0.557122129241
0.503000226707
0.419441324878
0.324255801861
0.26154627837
0.245578132553
0.244153703904
0.241939577208
0.238239672205
0.266892404247
0.36734627484
0.413413773142
0.668111420838
0.637488526632
0.648612844574
0.652075700503
0.649522582547
0.640724479118
0.628174553106
0.60990614839
0.579346310985
0.525803459624
0.441056788301
0.339725351981
0.265180544861
0.244579477635
0.243782357
0.24245493229
0.237454753826
0.24797720091
0.330131829074
0.4136698379
0.663622305707
0.63378614662
0.647403498832
0.652077167574
0.651331517034
0.645812730101
0.636943289896
0.621334180965
0.591450409704
0.536786997743
0.450587223961
0.346788080322
0.266958897333
0.24437847751
0.243979760437
0.244335417945
0.237438755045
0.235833483435
0.295558224895
0.409160866005
0.669629061563
0.624191271682
0.640956650239
0.650753679963
0.651034019287
0.6476898268
0.641928706431
0.628328138122
0.598192254659
0.541560822181
0.453469425636
0.348254828548
0.266776182608
0.244374490831
0.245839894063
0.249532926953
0.239160760796
0.224955992042
0.269372937389
0.396829282568
0.663865159734
0.609773518358
0.628246900369
0.643226268258
0.648142984196
0.646930098719
0.643461599262
0.631403425898
0.600608862988
0.541953539612
0.452251608366
0.345853127979
0.26457499637
0.245248676441
0.252261160998
0.259172012537
0.242831221635
0.217965396367
0.251476953483
0.380300069861
0.668909140643
0.592417228396
0.61390892292
0.629446086679
0.639859080139
0.642917096725
0.641861746353
0.630878369215
0.599145521705
0.537479670441
0.444108105457
0.336969587473
0.261418206669
0.250466382533
0.265375428107
0.271010063973
0.245158127013
0.215470615675
0.240148954577
0.365242356099
0.663754266434
0.575418173437
0.600055740244
0.611596070424
0.624156373943
0.631754470822
0.633515515705
0.623569504622
0.589248326299
0.522542430148
0.426178327992
0.322167890723
0.260851385796
0.260157660652
0.283298188513
0.279847592111
0.243366087111
0.214633762046
0.232921864757
0.351955049553
0.667102046256
0.560567599939
0.586107159867
0.590726031731
0.601370069137
0.610881057286
0.613563973983
0.602655143363
0.564940234883
0.494537286385
0.397759016222
0.302950668834
0.263363972029
0.275760145045
0.295061039699
0.280469877747
0.237534207055
0.214446876874
0.228206737704
0.341101828772
0.663622305707
0.547999200103
0.569898328019
0.568173479155
0.574832371928
0.581793854619
0.581506399366
0.566247751543
0.524831914114
0.452778727217
0.359723756438
0.283879876614
0.272761447218
0.29220615822
0.295157026773
0.275479104103
0.229349588181
0.214360960945
0.22522061899
0.331554143847
0.664109879086
0.538702746242
0.551322349697
0.547016332281
0.54914971864
0.5484672803
0.539775426974
0.516663905187
0.471191781243
0.399750488469
0.318115145688
0.272197174508
0.278052135644
0.293839544013
0.29422212385
0.263404637129
0.221138357632
0.214275713089
0.22304537961
0.321948664317
0.662842962952
0.53776650571
0.538971388806
0.536256001006
0.530856448591
0.514783438089
0.491898892799
0.459386890049
0.409806194576
0.34270965809
0.281595323578
0.264952440399
0.276911350532
0.293864996606
0.287082839343
0.248003129271
0.217588462583
0.214190316863
0.22071582154
0.309595079648
0.631858198235
0.537423076557
0.537077447558
0.536720860729
0.524714992125
0.485230675141
0.444509660815
0.401831212998
0.349247062595
0.29103360079
0.253987489881
0.254791634857
0.272171366585
0.285474023595
0.271353475696
0.237499844271
0.217989229774
0.214104520728
0.217511969657
0.290857877813
0.577301853625
0.537747631968
0.537362687657
0.549347948821
0.525473571724
0.466514564268
0.408871239221
0.354494444909
0.298747226403
0.25071209583
0.230053189502
0.236404491689
0.255266681733
0.260453390128
0.249564409847
0.232557289255
0.221568644389
0.214022128821
0.213941558128
0.266273927882
0.555192156966
0.537987050949
0.567616922072
0.582702216772
0.531863612069
0.464451735727
0.397403439493
0.332601460108
0.26961669778
0.223720249506
0.210449269267
0.213578073246
0.22394114581
0.22633379407
0.228008225508
0.229716732923
0.226500545381
0.214940016127
0.209521440778
0.242547148691
0.58451748519
0.601101479313
0.636984476788
0.624385357594
0.557282161811
0.477907527887
0.402796992111
0.332917818026
0.265678573167
0.212998374521
0.204171032597
0.204170142615
0.205203633493
0.206422667843
0.212236846407
0.225598481243
0.226553939534
0.217610383126
0.204993520187
0.225550511077
0.646087954829
0.674263590643
0.686407586247
0.666925632769
0.610679457698
0.528236185477
0.43693872346
0.351215052707
0.272727760821
0.213244522271
0.20400430351
0.204039161834
0.203961224206
0.204039161834
0.205037897697
0.21689828203
0.225031650925
0.21754120197
0.203963417402
0.215315549225
0.670317392077
0.689921115162
0.696579767446
0.695857995148
0.661974248302
0.59162036369
0.494345018358
0.391191280674
0.293891030075
0.218685889881
0.204039161834
0.203839502732
0.204039161834
0.203863576818
0.204039161834
0.207437733888
0.217094746166
0.21334302253
0.204039161834
0.210169126024
0.671852602529
0.687597033329
0.696058563075
0.696498043559
0.682854426021
0.625801085751
0.531969021363
0.422497899555
0.313297062679
0.225866445987
0.20392044202
0.204039161834
0.203643869492
0.204039161834
0.203824596568
0.204103742581
0.207081895023
0.206356599895
0.203926348514
0.207827166467
0.675939235556
0.675915582039
0.696153311546
0.696058563075
0.685718402761
0.632685991534
0.541235611827
0.430484350193
0.317243170352
0.226816486258
0.204039161834
0.203686035849
0.204039161834
0.203510331177
0.204039161834
0.203824026534
0.204083283319
0.204138656489
0.204039161834
0.206361461189
0.67449496959
0.650622891299
0.682071548005
0.692936347923
0.679824393092
0.627399356179
0.536411656211
0.424340897039
0.308822929724
0.221040618424
0.203885287334
0.204039161834
0.203431200792
0.204039161834
0.203459682098
0.204039161834
0.203829492556
0.204054706439
0.203927375767
0.20444296498
0.677027177693
0.609087758281
0.648611199185
0.667862549753
0.654645497978
0.60300312624
0.5114057786
0.396959002663
0.281371241193
0.209628487932
0.204039161834
0.203527942473
0.204039161834
0.203282034061
0.204039161834
0.203507991219
0.204039161834
0.203847831445
0.204039161834
0.20395286582
0.672861137131
0.548104040099
0.594798841755
0.615352483016
0.603518659382
0.553002625167
0.461728185256
0.348184244046
0.242387012744
0.204055261773
0.203779999001
0.204039161834
0.203292816069
0.204039161834
0.203307083536
0.204039161834
0.203641389175
0.204039161834
0.203890597434
0.204039161834
0.674380363408
0.468052211724
0.520649556404
0.536964823087
0.525860662269
0.477196518805
0.389377399224
0.284612589943
0.210891732444
0.203870870646
0.204039161834
0.203317427581
0.204039161834
0.203218878623
0.204039161834
0.203473802366
0.204039161834
0.205358912151
0.206458806441
0.204865997381
0.670933412529
0.396273989066
0.438901509049
0.443475496727
0.431070859871
0.38387984864
0.303971217862
0.224623102361
0.203917810002
0.204039161834
0.203303610402
0.204039161834
0.203198656876
0.204039161834
0.203403082403
0.204191566122
0.210226155838
0.21528691494
0.213436403594
0.20799962194
0.665930398239
0.386569772601
0.386705197578
0.383867535211
0.366008097222
0.318640725636
0.255243818768
0.209399550072
0.204039161834
0.203326087651
0.204039161834
0.203400746614
0.208442806396
0.210163347408
0.211947166866
0.21710019773
0.220319986752
0.219967678878
0.215505094169
0.210196052238
0.626491287651
0.400131193466
0.400524826088
0.393319934515
0.369593725348
0.320027052324
0.262431753117
0.226864975924
0.222640853769
0.225552703337
0.232232684251
0.240760817483
0.24280720139
0.23895021242
0.231970494405
0.225815928064
0.221466165932
0.218900583996
0.214486872216
0.209981212448
0.612467785556
0.502529276203
0.497498904527
0.4820671576
0.44664913534
0.398697774144
0.35962160618
0.345186720166
0.345531373156
0.347802767098
0.349612559802
0.342321644308
0.319930513895
0.288466797484
0.255591101584
0.228636740074
0.217750491509
0.213403816251
0.210174048269
0.20753172769
0.667634670878
0.683521477589
0.675037709085
0.656597971066
0.628952182725
0.60504920457
0.593509901894
0.59011944901
0.581076485067
0.557564498236
0.52514988483
0.484127015265
0.427004695795
0.359235152943
0.2904434132
0.234764916834
0.20942897546
0.202877498535
0.201450778668
0.200766557948
0.780176910288
0.79880066807
0.775330268209
0.764265910908
0.759060181897
0.75682430616
0.756160217322
0.750783474464
0.730783014625
0.688391186284
0.634279479412
0.575073934836
0.5035016247
0.418350595675
0.326131353956
0.244559052053
0.202506159301
0.196178724868
0.195997485123
0.195965087796
0.843725073845
0.818144753215
0.786301019695
0.780739031364
0.783357186377
0.786184107125
0.786376401202
0.779273994262
0.756264135707
0.713618570093
0.658828803121
0.595655626679
0.521084437885
0.432500147578
0.334372749121
0.245362591985
0.198607721907
0.195926845104
0.195837677835
0.195926845104
0.851840894123
0.815538408055
0.783437156726
0.776255739302
0.779272456511
0.783059852886
0.783698922645
0.77600978864
0.752296644568
0.710536723234
0.656535135058
0.592776871386
0.51689046739
0.426406101942
0.325792115897
0.234927150149
0.196129558365
0.195824509071
0.195926845104
0.19562998624
0.851865438192
0.805817183455
0.767140277427
0.754656248346
0.756412453762
0.761501225187
0.763381024616
0.753787640053
0.727598958851
0.685833734726
0.632265229208
0.567311720066
0.487909006609
0.392565566587
0.289481832959
0.209962259386
0.195847034828
0.195926845104
0.19553384868
0.195926845104
0.847934320881
0.784275765204
0.734229413311
0.709114537222
0.706046545675
0.710132536997
0.711258880176
0.697851151916
0.668159723399
0.62549765666
0.571793753882
0.504704033217
0.420765351729
0.322430431195
0.231047401722
0.196031151174
0.195926845104
0.195551926743
0.195926845104
0.19524715357
0.836646509929
0.748381817639
0.696335181279
0.648472988519
0.636201328746
0.632439517586
0.626123033007
0.607693202082
0.575653007812
0.532328445928
0.477837762455
0.408538581701
0.323940020891
0.239119912669
0.197317880966
0.195926845104
0.195587654714
0.195926845104
0.195242522151
0.195926845104
0.799653742569
0.712630303532
0.66700001283
0.597414040444
0.563427929585
0.540804136621
0.518467419174
0.491186635593
0.456462887048
0.413233991682
0.359503525109
0.294445989847
0.229800790852
0.197385801798
0.195926845104
0.195596676867
0.195926845104
0.195256546816
0.195926845104
0.196313166811
0.726055607365
0.686177378338
0.65174766086
0.581480117278
0.507324820841
0.450653764291
0.402404860062
0.359182642712
0.319502181619
0.280626821947
0.241222170506
0.208561691233
0.19605454142
0.195926845104
0.195596090042
0.195926845104
0.195419725476
0.197044496377
0.213424800968
0.23121525942
0.641745766047
0.656069573748
0.643436677441
0.584611204922
0.484485578123
0.38499635354
0.302961636123
0.243718438778
0.212618123175
0.200131969698
0.195984467287
0.195792797514
0.195926845104
0.195450486302
0.195926845104
0.195308956198
0.200134352728
0.228838806352
0.249661578371
0.273848191421
0.601853765959
0.617789933047
0.626377696512
0.582351580407
0.483230481398
0.363013020745
0.256450715729
0.199714369178
0.19575093478
0.195926845104
0.195248325645
0.195926845104
0.194965146285
0.195926845104
0.194937811756
0.195987018705
0.23493982384
0.260609912696
0.27942906701
0.314956458289
0.601544212966
0.569275000587
0.589945747558
0.562620363519
0.476784580634
0.356976905367
0.246890477846
0.196514669637
0.195926845104
0.195041830214
0.195926845104
0.194436362396
0.195926845104
0.19444070968
0.195926845104
0.221772292712
0.263611132207
0.277410537809
0.305450293869
0.341228337945
0.601490834125
0.501586088622
0.529658156243
0.515196859598
0.451728560452
0.344189152446
0.238919322622
0.195945575422
0.195458578844
0.195926845104
0.194309627516
0.195926845104
0.193965480292
0.195926845104
0.202576754751
0.258826672993
0.269049889612
0.284658874389
0.320240330922
0.345138710935
0.60050622729
0.433572607258
0.463298406445
0.451717721286
0.404590653727
0.314065974931
0.222397826184
0.195792161994
0.195926845104
0.194546728216
0.195926845104
0.193775658902
0.195926845104
0.194194162528
0.24992941939
0.266743409811
0.267953521761
0.285070844744
0.322131341162
0.343832725511
0.586593894998
0.422406085409
0.422356991306
0.413879272563
0.363602243187
0.27814509611
0.207022498392
0.195926845104
0.194868379439
0.195926845104
0.193775658902
0.195926845104
0.196155681689
0.242104099953
0.276403028551
0.266140875889
0.263167920824
0.282416042915
0.320051710306
0.3412879917
0.539357011444
0.422473523561
0.431870117364
0.423001677428
0.36332863089
0.276246026365
0.212758920221
0.197298542839
0.195926845104
0.194172214057
0.203781613455
0.224098512947
0.264139378689
0.294198060836
0.280482357134
0.261477829488
0.254628047638
0.27111986383
0.310772708661
0.337541446725
0.539056306152
0.486604891657
0.512504582123
0.493211277194
0.421930810463
0.338041322859
0.285034957776
0.266151925387
0.264968848627
0.282904680946
0.314449481102
0.348567957253
0.361776770102
0.332327375979
0.289247535845