/*--------------------------------*- C++ -*----------------------------------*\
| =========                 |                                                 |
| \\      /  F ield         | OpenFOAM: The Open Source CFD Toolbox           |
|  \\    /   O peration     | Version:  2312                                  |
|   \\  /    A nd           | Website:  www.openfoam.com                      |
|    \\/     M anipulation  |                                                 |
\*---------------------------------------------------------------------------*/
FoamFile
{
    version     2.0;
    format      ascii;
    arch        "LSB;label=32;scalar=64";
    class       volScalarField;
    location    "0.76/water";
    object      Ct2;
}
// * * * * * * * * * * * * * * * * * * * * * * * * * * * * * * * * * * * * * //

dimensions      [0 0 0 0 0 0 0];

internalField   nonuniform List<scalar> 
1496
(
1
1
1
1
1
1
1
1
1
1
1
1
1
1
1
1
1
1
1
1
1
1
1
1
1
1
1
1
1
1
1
1
1
1
1
1
1
1
1
1
1
1
1
1
1
1
1
1
1
1
1
1
1
1
1
1
1
1
1
1
1
1
1
1
1
1
1
1
1
1
1
1
1
1
1
1
1
1
1
1
1
1
1
1
1
1
1
1
1
1
1
1
1
1
1
1
1
1
1
1
1
1
1
1
1
1
1
1
1
1
1
1
1
1
1
1
1
1
1
1
1
1
1
1
1
1
1
1
1
1
1
1
1
1
1
1
1
1
1
1
1
1
1
1
1
1
1
1
1
1
1
1
1
1
1
1
1
1
1
1
1
1
1
1
1
1
1
1
1
1
1
1
1
1
1
1
1
1
1
1
1
1
1
1
1
1
1
1
1
1
1
1
1
1
1
1
1
1
1
1
1
1
1
1
1
1
1
1
1
1
1
1
1
1
1
1
1
1
1
1
1
1
1
1
1
1
1
1
1
1
1
1
1
1
1
1
1
1
1
1
1
1
1
1
1
1
1
1
1
1
1
1
1
1
1
1
1
1
1
1
1
1
1
1
1
1
1
1
1
1
1
1
1
1
1
1
1
1
1
1.04100015251
1
1
1
1
1
1
1
1
1
1
1
1
1
1
1
1
1
1
1.00007473682
1.42886104258
1
1
1
1
1
1
1
1
1
1
1
1
1
1
1
1
1
1
1.38088452186
1.49559498109
1
1
1
1
1
1
1
1
1
1
1
1
1
1
1
1
1
1.00000019445
1.42045897959
1.49503991579
1
1
1
1
1
1
1
1
1
1
1
1
1
1
1
1
1
1.00000000011
1.41612969114
1.49787524631
1
1
1
1
1
1
1
1
1
1
1
1
1
1
1
1
1
1
1.27456445379
1.49498222538
1
1
1
1
1
1
1
1
1
1
1
1
1
1
1
1
1
1
1
1.41391116142
1
1
1
1
1
1
1
1
1
1
1
1
1
1
1
1
1
1
1
1.0011175276
1
1
1
1
1
1
1
1
1
1
1
1
1
1
1
1
1
1
1
1
1
1
1
1
1
1
1
1
1
1
1
1
1
1
1
1
1
1
1
1
1
1
1
1
1
1
1
1
1
1
1
1
1
1
1
1
1
1
1
1
1
1
1
1
1
1
1
1
1
1
1
1
1
1
1
1
1
1
1
1
1
1
1
1
1
1
1
1
1
1
1
1
1
1
1
1
1
1
1
1
1
1
1
1
1
1
1
1
1
1
1
1
1
1
1
1
1
1
1
1
1
1
1
1
1
1
1
1
1
1
1
1
1
1
1
1
1
1
1
1
1
1
1
1
1
1
1
1
1
1
1
1
1
1
1
1
1
1
1
1
1
1
1
1
1
1
1
1
1
1
1
1
1
1
1
1
1
1
1
1
1
1
1
1
1
1
1
1
1
1
1
1
1
1
1
1
1
1
1
1
1
1
1
1
1
1
1
1
1
1
1
1
1
1
1
1
1
1
1
1
1
1
1
1
1
1
1
1
1
1
1
1
1
1
1
1
1
1
1
1
1
1
1
1
1
1
1
1
1
1
1
1
1
1
1
1
1
1
1
1
1
1
1
1
1
1
1
1
1
1
1
1
1
1
1
1
1
1
1
1
1
1
1
1
1
1
1
1
1
1
1
1
1
1
1
1
1
1
1
1
1
1
1
1
1
1
1
1
1
1
1
1
1
1
1
1
1
1
1
1
1
1
1
1
1
1.36449954638
1.85928868846
1.86853994171
1.86441047319
1.86839198547
1.38484392231
1
1
1
1.01607774695
8.6935999306
1
1
1
1
1
1
1
1
1
1.26294212733
1.83009240655
1.86321774993
1.87202034331
1.86592656582
1.8686015542
1
1
1
1.14697561367
8.69362000465
1
1
1
1
1
1
1
1
1
1.0074721415
1.49479311659
1.8750390919
1.86636333657
1.87165602716
1.86587835241
1
1
1
1.37137158214
8.69353614649
1
1
1
1
1
1
1
1
1
1.00065784551
1.3501834927
1.62857405008
1.87235985299
1.86684056282
1.85324658096
1
1
1
1.48332074316
8.69353489506
1
1
1
1
1
1
1
1
1.0000000049
1.00646946439
1.34961111954
1.41516231511
1.45678735072
1.47719802126
1.0000309162
1
1
1
2.23525720833
8.6934463669
1
1
1
1
1
1
1
1
1.00036031284
1.23043369425
1.41743598279
1.41867763295
1.09375574788
1
1
1
1
1.00000055368
2.64660190458
8.69348301316
1
1
1
1
1
1
1
1.00277706478
1.32294773335
1.44707912892
1.44983883045
1.31452645736
1
1
1
1
1
1.00000001509
2.03397458495
8.69345191138
1
1
1
1
1
1
1.04626753625
1.40570926266
1.47909188341
1.49239532925
1.42549132025
1
1
1
1
1
1.00000000011
1.00000000001
1.56612880101
8.64554657808
1
1
1
1
1
1.20172012143
1.4390658756
1.49295088448
1.49300322513
1.49351527797
1
1
1
1
1
1
1.0000019236
1
1.42789793968
8.22420057469
1
1
1
1.00000000001
1.32240852797
1.47035780795
1.49401126177
1.4933605375
1.49456091273
1.21973975116
1
1
1
1
1
1
1.00000214422
1
1.37764421213
7.69670700789
1
1
1
1.36791529352
1.4862783202
1.49442465242
1.49361403767
1.49719636311
1.46773497129
1
1
1
1
1
1
1
1.00000595516
1
1.16965443717
7.00018120972
1
1
1.38327469003
1.49262052119
1.49507152019
1.49411367777
1.49737573393
1.49386525173
1
1
1
1
1
1
1
1
1.00094422108
1
1.00493763213
5.9949025226
1
1.37529580618
1.4943418728
1.49563389572
1.49463567598
1.49775627975
1.49427457019
1.00000000001
1
1
1
1
1
1
1
1
1.01760770549
1
1.0000000289
4.58991412583
1.26472234709
1.49304341835
1.49602760532
1.49489648108
1.49807071086
1.49472593799
1.00105523734
1
1
1
1
1
1
1
1
1
1.01759447321
1
1
2.96845958192
1.47568929903
1.49612179979
1.49528880119
1.49817683156
1.49501054312
1.00157088202
1
1
1
1
1
1
1
1
1
1
1.00000567908
1
1
2.23718584479
1.49566047426
1.49559370672
1.49813300415
1.49538177643
1.00004148343
1
1
1
1
1
1
1
1
1
1
1
1
1
1
2.01141722197
1.49526176921
1.4979171773
1.49550965529
1.00026842726
1
1
1
1
1
1
1
1
1
1
1
1
1
1
1
2.18875868608
1.49757080101
1.49552330708
1.10565040041
1
1
1
1
1
1
1
1
1
1
1
1
1
1
1
1
3.66944919775
1.4953914493
1.41627129337
1
1
1
1
1
1
1
1
1
1
1
1
1
1
1
1
1
8.49735459192
1.49811693652
1.24105444089
1
1
1
1
1
1
1
1
1
1
1
1
1
1
1
1
1.00000345331
8.82613466683
1.49516305329
1.01269104526
1
1
1
1
1
1
1
1
1
1
1
1
1
1
1
1
1
8.76390888986
1.41866948029
1.00000000162
1
1
1
1
1.00000000001
1
1
1
1
1
1
1
1
1
1
1
1
7.47662817977
1.00026312827
1
1
1
1
1
1
1
1
1
1
1
1
1
1
1
1
1
1
5.20916224582
1
1
1
1
1
1
1.00000000026
1
1
1
1
1
1
1
1
1
1
1
1
4.1641364443
1
1
1
1
1
1
1.00000000702
1
1
1
1
1
1
1
1
1
1
1
1
3.1367670945
1
1
1
1
1
1
1.0000000077
1.00006899419
1
1
1
1
1
1
1
1
1
1
1
1.71705264753
1
1
1
1
1
1
1
1.00009646392
1.0004483117
1.00000927088
1
1
1
1
1
1
1
1
1
1.40615755255
1
1
1
1
1
1
1
1.00001611125
1.00314964099
1.00210311847
1.00047403856
1.00000346104
1
1
1
1
1
1
1
1.20458790757
1
1
1
1
1
1
1
1.00002842702
1.00413897797
1.00414839062
1.00383008167
1.00140715131
1.00000009638
1
1
1.00000000004
1.00000002441
1
1
1.03864548511
1
1
1
1
1
1
1
1.00063406921
1.00418999969
1.00413965138
1.00428339296
1.00370466383
1.00000009204
1
1
1.00000004121
1.30230719453
1
1
1.00157532956
1
1
1
1
1
1
1.00000000178
1.00406841563
1.00413784072
1.00437744013
1.00414171431
1.00056223991
1
1
1
1.00618527421
1.43995973107
1
1
1.00005169463
1
1
1
1
1
1
1.0010115536
1.00413625411
1.00442373867
1.00414057927
1.00116797156
1
1
1
1.00000154598
1.39023099755
1.89517284378
1
1
1.00001381045
1
1
1
1
1
1.00000044167
1.00413509677
1.00442251446
1.00413967985
1.00005416129
1
1
1
1.00000000002
1.29766504026
1.95645162163
2.3626818328
1
1
1.00003403157
1
1
1
1
1
1.00178127871
1.0042213969
1.00413908527
1
1
1
1
1
1.1920849806
1.71202033861
3.57591110376
2.54212455495
1
1
1.00468870408
1
1
1
1
1.00000000031
1.00073199272
1.00001075426
1
1
1
1
1
1.09068544092
1.60461288919
3.68177786909
3.69915062039
1.3827317104
1
1
1.17871922587
1
1
1
1
1.00000000001
1
1
1
1
1
1
1.01765052059
1.49947174169
3.50345008711
3.81332836395
2.8275807044
1
1
1
1.38651828305
1
1
1
1
1
1
1
1
1
1
1.00132879051
1.44435826133
3.22269612661
3.81010954176
3.80792782961
1.00000114923
1
1
1
1.43657251204
1
1
1
1
1
1
1
1
1
1.00490723225
1.41931008989
2.01906029438
3.27815600303
2.91491609187
1.02583618436
1
1
1
1
1.93061365677
)
;

boundaryField
{
    emptyPatch
    {
        type            empty;
    }
    minY
    {
        type            calculated;
        value           nonuniform List<scalar> 0();
    }
    maxY
    {
        type            calculated;
        value           nonuniform List<scalar> 
40
(
1
1
1
1
1
1
1
1
1
1
1
1
1
1
1
1
1
1
1
1
1
1
1
1
1
1
1
1
1
1.00490723265
1.41931012856
2.01906039821
3.27815626498
2.91491630933
1.02583618592
1
1
1
1
1.93061372394
)
;
    }
    water_to_cooler
    {
        type            calculated;
        value           nonuniform List<scalar> 
38
(
8.6936259061
8.69364943124
8.69357466254
8.69358805818
8.69350894102
8.69353127885
8.69347286492
8.64555171742
8.22420731976
7.69671973226
7.00020153164
5.99493306047
4.58996203001
2.96852851076
2.23728592987
2.01158946489
2.18906512106
3.66996744356
8.49740623025
8.82611139268
8.76385768035
7.47664706645
5.2092809591
4.16430652917
3.13696503748
1.71721468851
1.40636301949
1.20476755774
1.03869440918
1.00157802653
1.00005180072
1.00001384149
1.00003411262
1.00470001099
1.17914593545
1.38745486869
1.437660719
1.93245070803
)
;
    }
    water_to_heater
    {
        type            calculated;
        value           uniform 1;
    }
    procBoundary0to1
    {
        type            processor;
        value           nonuniform List<scalar> 
41
(
1
1
1
1
1
1
1
1
1
1
1
1
1
1
1
1
1
1
1
1
1
1
1
1
1
1.29124592278
1.72546320446
1.86053894144
1.86663240962
1.86207241756
1.0000000005
1
1
1
1.00005005322
8.69366453405
1
1
1
1
1
)
;
    }
}


// ************************************************************************* //
