/*--------------------------------*- C++ -*----------------------------------*\
| =========                 |                                                 |
| \\      /  F ield         | OpenFOAM: The Open Source CFD Toolbox           |
|  \\    /   O peration     | Version:  2312                                  |
|   \\  /    A nd           | Website:  www.openfoam.com                      |
|    \\/     M anipulation  |                                                 |
\*---------------------------------------------------------------------------*/
FoamFile
{
    version     2.0;
    format      ascii;
    arch        "LSB;label=32;scalar=64";
    class       volScalarField;
    location    "0.695/water";
    object      Tf.gasAndLiquid;
}
// * * * * * * * * * * * * * * * * * * * * * * * * * * * * * * * * * * * * * //

dimensions      [0 0 0 1 0 0 0];

internalField   nonuniform List<scalar> 
1497
(
300.341167441
300.278451963
300.229340475
300.188187136
300.151175713
300.116037945
300.082310055
300.051581461
300.027169123
300.011858078
300.004422582
300.001492973
300.000476776
314.674560665
306.592088951
302.983796
301.551523295
300.929310217
300.622527551
300.455930358
300.358819815
300.295723019
300.24915674
300.210399477
300.174490579
300.139117446
300.103832673
300.069760895
300.040037669
300.019066851
300.007698092
300.002802305
300.000941548
316.761040133
308.841518694
304.667022754
302.505425027
301.405144059
300.841379307
300.555956136
300.411777014
300.332806739
300.281212169
300.240490758
300.202731234
300.165213172
300.127452554
300.090133138
300.05551026
300.028609916
300.012496588
300.004814145
300.001675367
326.807370905
313.832348861
306.846096577
303.439461624
301.835116414
301.05797557
300.676831788
300.487872446
300.386575421
300.32277179
300.274345383
300.231522284
300.190297827
300.149559251
300.109481514
300.071477273
300.039629232
300.018462502
300.007428002
300.002668745
344.659174834
316.740471405
307.34335957
303.539890752
301.887709821
301.11558162
300.736980005
300.542620795
300.431981062
300.358928907
300.303048442
300.254890381
300.210046278
300.166950533
300.125218166
300.085133397
300.049691688
300.02431341
300.01016998
300.003769783
351.306096918
317.372567986
306.865990907
303.150019008
301.698465488
301.04946183
300.728708223
300.556189705
300.450726144
300.376718194
300.318537838
300.267896469
300.221247038
300.177063805
300.134679235
300.093786724
300.056480505
300.02856629
300.012316503
300.004688288
352.148202973
315.949385434
305.584126446
302.461752659
301.387015073
300.921306508
300.681582002
300.542500309
300.44971698
300.379812048
300.322223405
300.271068374
300.224067033
300.179906617
300.137700433
300.096801578
300.058988301
300.030272405
300.013256741
300.005120185
348.354336388
312.722257562
304.073746996
301.810028914
301.100948089
300.795991073
300.625712295
300.518794327
300.439503687
300.374711467
300.318213155
300.267386752
300.220772696
300.177194169
300.135523871
300.094881151
300.057436616
300.029348945
300.012814833
300.00492985
341.966807459
310.118959591
303.127332307
301.416223988
300.91665117
300.708318657
300.583380376
300.496460469
300.425917375
300.364693703
300.309690232
300.259687794
300.21380481
300.170918546
300.129615996
300.089094982
300.052808134
300.026431902
300.011288404
300.004230737
339.243911663
309.470960307
302.940364347
301.270288593
300.81869536
300.652696889
300.553318929
300.476961631
300.411768737
300.35322702
300.29961809
300.250461282
300.205159351
300.162474337
300.120855898
300.080838658
300.046578994
300.022550064
300.009244092
300.003300683
334.593875932
309.734132986
303.521872322
301.430855621
300.817081357
300.631323565
300.535781307
300.462613884
300.399552334
300.342406855
300.28962399
300.240816363
300.195344368
300.15199517
300.110374309
300.072048498
300.04032533
300.018714505
300.007245111
300.002424371
327.545486163
310.417148153
304.235941078
301.800309584
300.924894987
300.645700109
300.53010427
300.453241391
300.389651804
300.332520767
300.279521191
300.230092088
300.183882214
300.14057057
300.100355655
300.064469072
300.035210863
300.015614821
300.005670357
300.001795546
322.31288012
309.81968354
304.428233924
302.046213561
301.05133374
300.681703654
300.532825272
300.446950429
300.380474435
300.321839801
300.267905436
300.218117722
300.172371663
300.13046245
300.09242755
300.059062334
300.031806596
300.013627922
300.004738496
300.001459254
318.882208766
308.690730019
304.190072843
302.078090417
301.111248117
300.707475554
300.534662207
300.439103834
300.369273017
300.309588804
300.255745232
300.206856899
300.162716323
300.122936229
300.087230083
300.056089546
300.030452465
300.013025808
300.004454138
300.001365878
316.497319879
307.510133388
303.68646301
301.908875586
301.068766079
300.694462382
300.522592846
300.426444361
300.356839299
300.297846431
300.245235651
300.198083628
300.156128035
300.118574979
300.08523557
300.05600996
300.031133705
300.013522294
300.004671741
300.001472532
314.768910239
306.457787235
303.131232341
301.650732101
300.96271972
300.651562075
300.502737555
300.414879853
300.34803447
300.290538992
300.239248655
300.193807355
300.153622514
300.118484809
300.087009584
300.058473092
300.033244485
300.014744009
300.005197671
300.00169498
313.869206111
305.92644236
302.792866605
301.470012127
300.880210166
300.621142838
300.494485185
300.413523242
300.348260912
300.291009114
300.240442356
300.196031508
300.15722271
300.123120998
300.092111818
300.063055248
300.036642665
300.01660469
300.005972663
300.002002579
314.58361663
306.554562128
303.072896102
301.584289354
300.925923897
300.636580117
300.509039842
300.428185278
300.361667229
300.303304928
300.251908333
300.206955843
300.167661067
300.132561066
300.100169367
300.06949385
300.041131085
300.018998646
300.006949627
300.002375709
320.246789309
309.709735244
304.437509445
302.134251233
301.114872641
300.696066364
300.54788912
300.461228972
300.391320193
300.33004166
300.275586391
300.227162712
300.184092441
300.145518156
300.110199856
300.076975414
300.046046233
300.021498558
300.007939432
300.002753087
336.342596303
313.319247322
305.663094631
302.616421357
301.294063645
300.769420514
300.602992816
300.509512995
300.434515305
300.367481602
300.306456541
300.251482675
300.202686802
300.159479485
300.120493537
300.084223362
300.050472719
300.023617164
300.008763512
300.003084828
345.028338133
315.168967433
305.990759772
302.618553876
301.292014344
300.818926488
300.65057674
300.552715254
300.473388912
300.401045472
300.33385003
300.272863117
300.218898863
300.171507869
300.129130123
300.089933374
300.053561933
300.024956971
300.009323353
300.003373464
347.536405434
315.537849178
305.786881979
302.416712061
301.242369405
300.835074052
300.673992363
300.576306818
300.4964381
300.422419139
300.352298204
300.287818057
300.230534792
300.180212385
300.135145187
300.093351843
300.054919897
300.025447855
300.009697465
300.003688598
347.952142441
315.481711034
305.504763995
302.241623975
301.193372193
300.834800915
300.68158946
300.584699011
300.505153833
300.432017909
300.361726521
300.296228933
300.237603928
300.185664927
300.138533662
300.094399298
300.05473375
300.025440356
300.010125439
300.004137668
347.99913562
315.403517209
305.322900495
302.143356874
301.163675995
300.831975575
300.683003183
300.585624215
300.505905294
300.433355462
300.364334128
300.299788624
300.241323065
300.188508316
300.139432785
300.093540501
300.053664466
300.02547473
300.010876484
300.00483531
347.859697357
315.036496418
305.027828759
302.026866196
301.134160613
300.82777071
300.682246002
300.584208575
300.503669711
300.431015987
300.363043617
300.300046377
300.242450382
300.188938336
300.13837182
300.091843709
300.052822839
300.026253251
300.012267943
300.005949431
346.900198579
313.729345127
304.484848077
301.834486818
301.073720225
300.811824245
300.677921339
300.581880531
300.500105241
300.426759661
300.359590155
300.298195828
300.24124864
300.187030133
300.136386493
300.090697227
300.053331011
300.028380828
300.014662918
300.007718385
343.269417084
311.680151653
303.6559117
301.579991016
301.005011771
300.793200303
300.673503074
300.579385619
300.495786463
300.421315257
300.35479796
300.294760967
300.238083445
300.184072342
300.134573871
300.091186417
300.055982258
300.032362364
300.018416562
300.010494824
338.569741024
309.632342052
302.981392092
301.41674827
300.962457043
300.783275335
300.672681466
300.577194101
300.491286729
300.415591266
300.349606976
300.290441907
300.234190217
300.181507091
300.134289583
300.093859447
300.061366411
300.038548131
300.023921039
300.014745946
335.221703671
308.979811532
303.003561763
301.473061637
300.979619667
300.790365852
300.674506053
300.576246774
300.487959005
300.411192204
300.345442303
300.286445521
300.231155251
300.180805646
300.136735108
300.099600102
300.06965334
300.047327755
300.031718482
300.02094802
329.415451611
309.535267643
303.946108605
301.908063394
301.120838673
300.828120336
300.684203884
300.578206774
300.487155285
300.409439762
300.343137585
300.283923237
300.230460099
300.183328067
300.142945414
300.109088499
300.081185696
300.059147919
300.042464006
300.029364371
323.292383797
310.184531528
304.75806363
302.393251428
301.331775787
300.896232612
300.702789984
300.583166812
300.488682565
300.4095358
300.34216644
300.283896694
300.233375378
300.19014792
300.153610993
300.122729071
300.096481579
300.074726705
300.056130164
300.040166629
319.105938345
309.27293242
304.752015012
302.551861136
301.458139413
300.954089784
300.721686242
300.588366972
300.489676175
300.409407953
300.342943397
300.287348031
300.240772437
300.201804501
300.168889814
300.140668971
300.116134194
300.093439793
300.07241567
300.053295603
316.607700187
307.972245084
304.21221816
302.376300521
301.428123536
300.957710612
300.723897421
300.586197247
300.48771989
300.409857945
300.346612286
300.295030145
300.252998069
300.21819214
300.188512425
300.162988109
300.138535689
300.11430729
300.090628326
300.06827342
315.06542796
306.889840577
303.610115226
302.079600497
301.306523587
300.913712478
300.706442399
300.579092456
300.487148259
300.414095211
300.354993682
300.307794821
300.270210728
300.239020861
300.212356195
300.187272613
300.161950686
300.135799285
300.109457761
300.083977263
314.001585756
306.195675698
303.167472839
301.844299035
301.202307587
300.876458785
300.697697034
300.582608505
300.496555074
300.427095399
300.370864205
300.327031676
300.292914141
300.264158571
300.237757156
300.211424775
300.184343487
300.15615865
300.127284185
300.098776609
313.805798683
306.264873731
303.236896489
301.923463382
301.281353297
300.939658861
300.742079612
300.615641324
300.524996032
300.453842309
300.397563456
300.354884776
300.321698165
300.292084361
300.26292458
300.233850511
300.204319981
300.173856677
300.142517517
300.111239165
316.183224514
308.445845536
304.651590336
302.777444212
301.775437198
301.205496649
300.877278941
300.690076232
300.576851407
300.498055862
300.439487018
300.395251781
300.358006502
300.321993075
300.287006845
300.253466977
300.220604509
300.187522943
300.153794897
300.120337905
327.209784062
313.728592618
306.968527434
303.816500672
302.284423037
301.462347185
301.013261731
300.776140726
300.647045459
300.566352369
300.503403177
300.449052087
300.399228283
300.352149053
300.308766911
300.269131131
300.232077356
300.196166652
300.160408437
300.125670979
300.000143091
300.000039971
300.000009127
300.000001176
300.000000572
300.000000577
300.000004392
300.000009945
300.000014485
300.000017362
300.000018844
300.000019455
300.000019863
300.000020753
300.000023028
300.000028491
300.000039965
300.00006049
300.000090649
300.000101696
300.000298545
300.000091033
300.000025261
300.000005393
300.000000442
300.000000286
300.000002027
300.000005762
300.000009078
300.000011409
300.000012898
300.000013974
300.000015184
300.000017056
300.000020189
300.000026253
300.000038615
300.000061589
300.00009939
300.000109829
300.000551259
300.000177677
300.000055148
300.000015564
300.000003287
300.000000238
300.000000875
300.000003038
300.000005167
300.00000682
300.000008256
300.000009839
300.000011907
300.000014772
300.000018712
300.000025509
300.000038825
300.000067968
300.000109375
300.000119829
300.000906439
300.000305079
300.000101999
300.000033382
300.000010191
300.00000272
300.000001141
300.000001704
300.000002775
300.000003902
300.000005317
300.000007467
300.000010658
300.000014891
300.00001994
300.000027292
300.000041445
300.000075039
300.000121663
300.000131667
300.001319649
300.000461039
300.000162799
300.000058232
300.000020908
300.000007497
300.000002954
300.000001726
300.000001747
300.000002516
300.000004271
300.000007478
300.000012359
300.000018458
300.000024883
300.000032289
300.000046957
300.000086589
300.00013614
300.000145126
300.001683187
300.000604979
300.00022152
300.000083339
300.000032293
300.000012955
300.000005509
300.000002639
300.000001802
300.00000253
300.000005183
300.000010173
300.000017385
300.000025773
300.000033556
300.000040282
300.000055408
300.000105997
300.000153062
300.000157394
300.001862199
300.000677304
300.000250985
300.000095719
300.000037811
300.00001561
300.000006791
300.00000319
300.00000224
300.000003822
300.000008602
300.000016821
300.000027891
300.000040563
300.00005152
300.000059913
300.000072174
300.000131066
300.00017253
300.000172131
300.001779675
300.000639387
300.000232615
300.000086519
300.000033183
300.000013307
300.000005618
300.000002691
300.000002888
300.00000698
300.000016159
300.000031408
300.000051304
300.000069327
300.000083534
300.000096886
300.00011211
300.000169525
300.000191704
300.000188341
300.001479092
300.000510724
300.000176983
300.000062013
300.000022312
300.000008396
300.000003319
300.000001742
300.000003979
300.000012727
300.000030227
300.000054376
300.000082002
300.000102891
300.000118388
300.000138306
300.000163945
300.000204989
300.000212593
300.000208506
300.001091551
300.00035491
300.000115186
300.000038272
300.000014055
300.000006055
300.000002638
300.000001626
300.000007003
300.000022838
300.000046778
300.00007183
300.00008968
300.000113259
300.000139164
300.000167041
300.000197119
300.000230567
300.000234576
300.000230765
300.000754159
300.000232669
300.000073714
300.000027474
300.000014669
300.000009366
300.000004768
300.000003282
300.000013307
300.000035129
300.000057939
300.000077846
300.000105521
300.000133076
300.000162371
300.000195035
300.000228779
300.00025117
300.000260437
300.00025719
300.000539704
300.000165564
300.000059616
300.000033308
300.000025961
300.000018448
300.000008939
300.000005907
300.000021021
300.000043593
300.000066265
300.000088594
300.000118748
300.000149771
300.000182763
300.000215879
300.000260684
300.000281539
300.000293764
300.000291217
300.000435608
300.000145489
300.000071262
300.00005481
300.0000463
300.000030968
300.000013593
300.000009539
300.000027027
300.000049357
300.000076506
300.000101285
300.00012793
300.000162303
300.000198399
300.000249764
300.000289688
300.000319112
300.0003349
300.000333187
300.000423465
300.000167294
300.000105907
300.000090377
300.000073717
300.000044918
300.000018986
300.000014886
300.000033425
300.000065183
300.000087835
300.000114397
300.000140608
300.000179396
300.000226004
300.000285233
300.000327432
300.000365211
300.000385117
300.00038429
300.000485466
300.000224813
300.000162039
300.000138369
300.000105144
300.000059132
300.00002612
300.000022501
300.000043155
300.000085502
300.000100619
300.000128085
300.000160122
300.000207734
300.000274242
300.000322572
300.000376008
300.000421336
300.000445714
300.000445935
300.000602286
300.000312579
300.000236839
300.00019451
300.000135378
300.000071996
300.000035568
300.000034315
300.000071851
300.000089795
300.000113118
300.000142598
300.000188259
300.00025809
300.000315313
300.000369385
300.000434483
300.000488436
300.000518081
300.000519568
300.00075612
300.000422933
300.000324436
300.000250504
300.000160461
300.000084446
300.000049259
300.000057479
300.000098011
300.000094768
300.000124398
300.00016535
300.000235979
300.000298294
300.000355202
300.000425652
300.000503949
300.000567457
300.000603785
300.000606893
300.000935762
300.000549443
300.000415511
300.000298788
300.000180838
300.000099926
300.00007173
300.000092339
300.00011765
300.000107262
300.000143059
300.000210383
300.00026924
300.000329093
300.000404991
300.000491774
300.000584753
300.000659501
300.00070439
300.000709578
300.00112353
300.000682269
300.000501074
300.000338856
300.000201512
300.0001242
300.000108381
300.000128792
300.000116289
300.000133676
300.000190789
300.000237598
300.000289407
300.000366584
300.000463515
300.000570124
300.000675307
300.00076492
300.000820779
300.000828407
300.001312512
300.000815005
300.000579051
300.000378576
300.000233711
300.000168575
300.000160482
300.000166743
300.000153055
300.000183271
300.000217247
300.000249885
300.000314753
300.000413786
300.000530444
300.000658678
300.000777215
300.000885382
300.000954112
300.000964072
300.001509957
300.000948635
300.000659969
300.000435989
300.000296055
300.000240633
300.000229682
300.000213546
300.000215924
300.00022736
300.000233743
300.000269113
300.000347988
300.000470517
300.000610925
300.000754157
300.00089203
300.001024059
300.001107283
300.001119029
300.001740858
300.001101355
300.000768393
300.000537352
300.000408127
300.000348254
300.000316697
300.000294269
300.000278411
300.000261305
300.000260015
300.000296182
300.000390292
300.000536991
300.000703328
300.000863457
300.001025996
300.001187784
300.00128651
300.001299044
300.002049035
300.001304203
300.00093399
300.00071099
300.000579059
300.000497219
300.000442444
300.000396542
300.000351554
300.000312371
300.000296233
300.000331026
300.000443451
300.000618417
300.000813199
300.000996495
300.001190962
300.001386571
300.001499217
300.001510835
300.002496916
300.001597994
300.001196231
300.00097089
300.000818659
300.000710971
300.000623118
300.00054066
300.000459612
300.000386361
300.000343592
300.000374329
300.000510632
300.000722545
300.000952152
300.001159832
300.001393314
300.001625151
300.001747826
300.001756629
300.003182466
300.00205118
300.001588825
300.001328903
300.001153337
300.001013306
300.000883591
300.000753745
300.000619448
300.000488832
300.000405241
300.000430833
300.000601628
300.000860848
300.00113135
300.001361673
300.001632436
300.001899416
300.002025405
300.002029894
300.004304398
300.002785671
300.002142163
300.001809164
300.001596748
300.001420762
300.00124774
300.001060227
300.000844841
300.00062739
300.000485384
300.00051018
300.00073379
300.00105239
300.00135315
300.001606046
300.001912428
300.002198036
300.002319964
300.002317462
300.006168503
300.003950365
300.002940719
300.002443879
300.00215726
300.001945996
300.001734323
300.001479582
300.001151236
300.000806836
300.000588771
300.00062196
300.00090875
300.001280496
300.001607554
300.001885403
300.002223192
300.002503257
300.002614064
300.002601712
300.009104773
300.005806883
300.004156872
300.003317576
300.002872089
300.002615044
300.002370427
300.002037257
300.001556301
300.00103334
300.000719866
300.000769668
300.001112314
300.001521189
300.001866304
300.002168539
300.002524725
300.002791154
300.002890141
300.00286626
300.013445894
300.00869108
300.006059782
300.004610206
300.003823281
300.003466269
300.003191516
300.002766533
300.002083542
300.001318263
300.000883511
300.000944228
300.001319508
300.001754496
300.002104259
300.002425783
300.002789183
300.003047564
300.003137668
300.003099381
300.01946729
300.012876858
300.008934587
300.006554606
300.005098677
300.004509675
300.004197752
300.003676019
300.002753261
300.001679388
300.001086672
300.001131441
300.001514198
300.001963275
300.002317946
300.002650709
300.00300586
300.003270379
300.003356224
300.003304906
300.02733587
300.018456552
300.012905298
300.009301224
300.006825373
300.005754286
300.005388059
300.004767338
300.003580481
300.002138244
300.001341368
300.00132756
300.00169251
300.002148565
300.002517119
300.002856337
300.003191134
300.003468556
300.003554075
300.003499615
300.037116155
300.025389983
300.01775187
300.012851384
300.009191297
300.007244427
300.006772423
300.006024748
300.004549179
300.002706232
300.00166052
300.001534768
300.001859367
300.002319431
300.002714373
300.003056811
300.003365913
300.003651823
300.003741786
300.003683524
300.04861207
300.033540176
300.023520001
300.017030934
300.01205486
300.009039216
300.008355628
300.007404062
300.005600028
300.003364675
300.00203253
300.001761152
300.002029869
300.002484868
300.002918658
300.003259791
300.003543658
300.003833307
300.003922352
300.003854746
300.060849152
300.042797714
300.03020418
300.021669286
300.015159503
300.011121295
300.010113631
300.008841292
300.006640216
300.00404048
300.002418241
300.002014508
300.00222142
300.002662323
300.003129805
300.003469431
300.003728806
300.004014604
300.004096351
300.004014485
300.072663474
300.052164438
300.037169144
300.026403962
300.018167149
300.013430075
300.011983934
300.010238529
300.007562077
300.004623763
300.002781714
300.002287645
300.002440928
300.002867523
300.00334896
300.003685695
300.003930049
300.004190763
300.004258743
300.00416436
300.082906538
300.060416732
300.04338712
300.030507172
300.020929088
300.015889701
300.01386068
300.011476337
300.008263253
300.00502524
300.003087493
300.002563258
300.002685736
300.003098391
300.003575964
300.003901206
300.004133808
300.004352995
300.004402657
300.004300705
300.090569639
300.066709133
300.048065479
300.033548182
300.023608494
300.018307861
300.015582918
300.012424744
300.008671422
300.005223287
300.003337953
300.002833362
300.002935151
300.00332719
300.003791727
300.004100815
300.004319282
300.004490124
300.004522125
300.004415051
300.095163636
300.070719423
300.050875212
300.035891117
)
;

boundaryField
{
    emptyPatch
    {
        type            empty;
    }
    minY
    {
        type            calculated;
        value           nonuniform List<scalar> 0();
    }
    maxY
    {
        type            calculated;
        value           nonuniform List<scalar> 0();
    }
    water_to_cooler
    {
        type            calculated;
        value           nonuniform List<scalar> 
37
(
300.00002128
300.000022242
300.00002352
300.000024939
300.000026675
300.000028726
300.000031333
300.000034472
300.000038145
300.000042722
300.00004869
300.000056517
300.000066594
300.000079224
300.000094673
300.000113203
300.000135106
300.000160568
300.000189422
300.000221206
300.000255482
300.000292358
300.000332748
300.000377815
300.000428505
300.000484919
300.000545317
300.000607244
300.000668629
300.000727862
300.000783829
300.000836428
300.000882665
300.000921096
300.000951323
300.000971741
300.000983288
)
;
    }
    water_to_heater
    {
        type            calculated;
        value           nonuniform List<scalar> 
60
(
790.677977758
790.808755205
790.805324258
790.921543129
790.938051947
791.017167908
791.141701511
791.190771562
791.191374027
791.191783946
791.187327084
791.177928177
791.169075649
791.150914909
791.148398466
791.096801305
791.020488295
791.054645583
791.027388813
791.094280428
791.088758235
791.182845632
791.185111018
791.316628812
791.318636908
791.44784289
791.443801511
791.570706899
791.56657796
791.677210579
791.803335232
791.914878837
791.923491539
791.953766959
791.953576178
791.969003221
791.970894383
791.972253783
791.97019098
791.932912725
791.924431807
791.856579516
791.847402954
791.770135803
791.750377982
791.683426642
791.605270809
791.50911963
791.500201911
791.471019335
791.471100959
791.433467983
791.435751234
791.386614627
791.389926596
791.347345916
791.341296379
791.310014091
791.3310639
791.302806069
)
;
    }
    procBoundary1to0
    {
        type            processor;
        value           nonuniform List<scalar> 
41
(
346.850848482
317.024042949
307.606650942
303.93922501
302.309756916
301.494433862
301.067656757
300.842682551
300.720065113
300.635693223
300.563469558
300.496317035
300.433920741
300.376354464
300.324750973
300.279138295
300.238102455
300.199780538
300.162687617
300.127317251
300.025820556
300.020421563
300.016911591
300.012977656
300.008771176
300.005248757
300.003571957
300.00310525
300.003178249
300.00354229
300.003991713
300.004284831
300.004482121
300.004608977
300.004626911
300.004511747
300.097039208
300.072491468
300.052312987
300.025820556
300.03722928
)
;
    }
    procBoundary1to3
    {
        type            processor;
        value           nonuniform List<scalar> 
41
(
300.348080761
300.276656021
300.220611444
300.174531039
300.13441788
300.097997332
300.064955667
300.037230842
300.017708898
300.007008418
300.002401228
300.00074405
300.000217393
315.280007647
306.304727142
302.602217945
301.308537882
300.800517198
300.562227462
300.427800304
300.427800304
300.00005899
300.000014008
300.00000234
300.000000879
300.000000784
300.000001415
300.00000798
300.000015245
300.000020657
300.00002394
300.000025458
300.000025781
300.000025589
300.000025703
300.000027262
300.000032342
300.00004301
300.000062848
300.000087083
300.000095022
)
;
    }
}


// ************************************************************************* //
