/*--------------------------------*- C++ -*----------------------------------*\
| =========                 |                                                 |
| \\      /  F ield         | OpenFOAM: The Open Source CFD Toolbox           |
|  \\    /   O peration     | Version:  2312                                  |
|   \\  /    A nd           | Website:  www.openfoam.com                      |
|    \\/     M anipulation  |                                                 |
\*---------------------------------------------------------------------------*/
FoamFile
{
    version     2.0;
    format      ascii;
    arch        "LSB;label=32;scalar=64";
    class       volScalarField;
    location    "10/fluidRegion";
    object      htc.liquid.structure;
}
// * * * * * * * * * * * * * * * * * * * * * * * * * * * * * * * * * * * * * //

dimensions      [1 0 -3 -1 0 0 0];

internalField   nonuniform List<scalar> 
477
(
0
0
0
0
0
0
0
0
0
0
0
0
0
0
0
0
0
0
0
0
0
0
0
0
0
0
0
0
0
0
0
0
0
0
0
0
0
0
0
0
0
0
0
0
0
47273.1
48950.7
50800.4
52817.8
55008.3
57383.8
59960.1
62756.8
65797.4
69109.8
72727.4
76689.5
81043.5
85846.1
91166.1
97087.8
103715
111177
119638
129309
140463
153464
168806
187177
209565
237441
273328
319658
382227
465471
547171
604121
649204
685823
715034
736856
751505
759685
762470
761103
756797
750658
743952
740405
779486
802590
813045
818706
46052.7
46361.1
46673.7
46992.3
47313.2
47634.3
47953
48266.5
48572
48867
49148.8
49414.6
49662.1
49889.1
50093.3
50273.1
50426.8
50553.2
50651.3
50720.4
50760.3
50770.7
50752.1
50704.8
50629.1
50613.6
50948.6
61628.3
81718.4
112200
138471
159558
185156
210960
233950
252260
265104
272610
275513
274844
271676
267000
261936
259606
299839
322529
333271
339576
46142
46458.2
46779.2
47105.4
47433.6
47761.5
48086.6
48406
48717.2
49017.4
49303.9
49574.2
49825.9
50056.6
50264.3
50447.2
50603.7
50732.6
50832.9
50904
50945.5
50957.3
50939.7
50893.2
50819.5
50808.5
51156.2
62087.1
84229.8
117531
141713
161377
186070
211514
234352
252579
265369
272837
275715
275029
271850
267168
262100
259763
301392
324262
334998
341078
46052.7
46361.1
46673.7
46992.3
47313.2
47634.3
47953
48266.5
48572
48867
49148.8
49414.6
49662.1
49889.1
50093.3
50273.1
50426.8
50553.2
50651.3
50720.4
50760.3
50770.7
50752.1
50704.8
50629.1
50613.6
50948.6
61628.3
81718.4
112200
138471
159558
185156
210960
233950
252260
265104
272610
275513
274844
271676
267000
261936
259606
299839
322529
333271
339576
47642.9
49529.3
51620
53900.3
56377.2
59065.7
61986.1
65163.6
68628.6
72417.6
76574.3
81151.3
86212.2
91834.6
98114
105169
113151
122250
132715
144874
159171
176219
196889
222467
254921
297794
344836
391357
445028
510722
568664
611083
650659
685548
714093
735539
749930
757929
760597
759162
754826
748682
741968
746816
858.867
857.6
855.948
853.83
47658.6
49535.7
51620.2
53895
56366.7
59049.8
61964.5
65135.9
68594.1
72375.5
76523.6
81090.6
86140.1
91749.1
98012.8
105049
113008
122080
132511
144628
158871
175848
196425
221874
254145
296590
345120
392802
445727
509587
566898
609871
649628
684599
713195
734666
749066
757069
759740
758309
753980
747843
741137
746454
858.431
856.789
854.881
852.649
46142
46458.2
46779.2
47105.4
47433.6
47761.5
48086.6
48406
48717.2
49017.4
49303.9
49574.2
49825.9
50056.6
50264.3
50447.2
50603.7
50732.6
50832.9
50904
50945.5
50957.3
50939.7
50893.2
50819.5
50808.5
51156.2
62087.1
84229.8
117531
141713
161377
186070
211514
234352
252579
265369
272837
275715
275029
271850
267168
262100
259763
301392
324262
334998
341078
47658.6
49535.7
51620.2
53895
56366.7
59049.8
61964.5
65135.9
68594.1
72375.5
76523.6
81090.6
86140.1
91749.1
98012.8
105049
113008
122080
132511
144628
158871
175848
196425
221874
254145
296590
345120
392802
445727
509587
566898
609871
649628
684599
713195
734666
749066
757069
759740
758309
753980
747843
741137
746454
858.431
856.789
854.881
852.649
47675.2
49542.6
51620.7
53890
56356.4
59034.1
61943.1
65108.2
68559.5
72333.1
76472.3
81029.3
86066.9
91662.1
97909.4
104927
112862
121905
132300
144373
158559
175462
195939
221251
253326
295324
345420
394260
445467
506413
563645
607710
648032
683241
711955
733485
747915
755934
758617
757197
752877
746751
740050
747295
858.92
856.99
854.861
852.495
)
;

boundaryField
{
    inlet
    {
        type            zeroGradient;
    }
    outlet
    {
        type            zeroGradient;
    }
    fixedWalls
    {
        type            zeroGradient;
    }
    frontAndright
    {
        type            symmetry;
    }
}


// ************************************************************************* //
