/*--------------------------------*- C++ -*----------------------------------*\
| =========                 |                                                 |
| \\      /  F ield         | OpenFOAM: The Open Source CFD Toolbox           |
|  \\    /   O peration     | Version:  2312                                  |
|   \\  /    A nd           | Website:  www.openfoam.com                      |
|    \\/     M anipulation  |                                                 |
\*---------------------------------------------------------------------------*/
FoamFile
{
    version     2.0;
    format      ascii;
    arch        "LSB;label=32;scalar=64";
    class       volScalarField;
    location    "0.94/heater";
    object      T;
}
// * * * * * * * * * * * * * * * * * * * * * * * * * * * * * * * * * * * * * //

dimensions      [0 0 0 1 0 0 0];

internalField   nonuniform List<scalar> 
150
(
789.207336478
789.104275592
788.897085961
788.585809672
788.18662836
789.291559628
789.190089075
788.985829441
788.67673284
788.274070674
789.346719467
789.245163526
789.039979241
788.724991449
788.303279276
789.368606586
789.265490347
789.056956617
788.733602874
788.284396196
789.358422013
789.251735235
789.03670452
788.704426943
788.232602396
789.326512285
789.217055368
788.997274022
788.660524485
788.182239955
789.284617365
789.17323177
788.949967307
788.610297606
788.130362825
789.247579908
789.134066949
788.906219039
788.560831803
788.078391168
789.233717279
789.116840474
788.881191307
788.523847773
788.03280205
789.259117194
789.140144719
788.89945996
788.534741196
788.041455971
789.322867608
789.203966615
788.962706908
788.59736516
788.113540899
789.418813942
789.301121769
789.061468592
788.697415934
788.223187586
789.545664116
789.429813639
789.192822338
788.82993238
788.355096402
789.695270465
789.581639195
789.348006595
788.986541988
788.506646557
789.849650247
789.738425908
789.508565003
789.148403666
788.658632018
789.991697227
789.882688718
789.656567481
789.29827968
788.795393167
790.114955592
790.008304777
789.786596612
789.432774977
788.925413852
790.215041275
790.110512815
789.892987319
789.54439619
789.040505364
790.291601705
790.189021741
789.975498453
789.632210107
789.132595744
790.344363845
790.243722696
790.034374724
789.6970889
789.202715235
790.370893424
790.272352221
790.067849513
789.7384132
789.253880503
790.368423731
790.271708587
790.071640479
789.749761491
789.278408568
790.337740388
790.242579933
790.046615468
789.731898573
789.270786461
790.281342821
790.187068793
789.994228523
789.685928043
789.231294368
790.205159839
790.111335627
789.921400783
789.620702983
789.173676947
790.118153708
790.025629249
789.840400965
789.55038536
789.113691994
790.025710035
789.934421403
789.754064524
789.476510791
789.052243115
789.93676547
789.845523927
789.667650066
789.400969348
788.99503127
789.863345367
789.770752164
789.59233572
789.334216065
788.955919037
789.81576111
789.720897844
789.538914408
789.283156595
788.933531502
)
;

boundaryField
{
    emptyPatch
    {
        type            empty;
    }
    minY
    {
        type            zeroGradient;
    }
    maxY
    {
        type            zeroGradient;
    }
    minX
    {
        type            zeroGradient;
    }
    heater_to_water
    {
        type            compressible::turbulentTemperatureTwoPhaseRadCoupledMixed;
        refValue        nonuniform List<scalar> 
60
(
460.066292316
451.933578225
451.931515267
445.89517093
445.894571601
445.200290011
445.200811154
419.022676373
378.87672558
360.166554416
360.16754161
349.650608098
349.651494748
337.574067646
337.574798643
327.305445498
321.801790135
321.545933833
321.545927505
327.892791053
327.892144805
350.216317577
350.214655868
389.432514867
403.73379843
399.823530721
399.819997304
394.051273265
394.047939176
388.578642438
388.575729848
362.555106895
341.803706561
330.880309635
330.879126661
325.09830454
325.097538614
322.203043007
322.202540361
321.939148062
326.351091777
340.871281365
340.87102493
370.266793854
370.267030121
376.898834232
376.89975673
377.485763353
373.774569281
370.631939737
370.63318352
368.63684206
368.638072552
346.803403474
346.804327549
329.824233755
322.298704291
322.361149588
322.361390448
334.825302675
)
;
        refGradient     uniform 0;
        valueFraction   nonuniform List<scalar> 
60
(
0.000642759460464
0.000645027828673
0.000645036627036
0.00064428165577
0.000644284314752
0.000645367665693
0.000645365338812
0.00066823431943
0.000713032495719
0.000731506931401
0.000731494790114
0.000739714093279
0.000739700694723
0.000746569944927
0.000746555136491
0.000736668039968
0.000719648635572
0.00072150350984
0.000721503730557
0.000739185202179
0.000739202924036
0.000741608960565
0.000741633994169
0.000705638236068
0.000693317695134
0.00069374474456
0.000693769539168
0.000693612188325
0.000693637031689
0.000698498997452
0.000698522221225
0.000729874888772
0.000746789860368
0.000741639122371
0.000741668504523
0.000730634283662
0.00073065753003
0.000722618811057
0.000722635967924
0.000723119440987
0.000737124605276
0.000746041355392
0.000746046161594
0.000717626826015
0.000717624376597
0.00071670923395
0.00071670052006
0.000716773704276
0.000716906717901
0.000717007128539
0.000716994321647
0.000717158846704
0.00071714579866
0.000742926119386
0.000742911120757
0.000738990623951
0.000717557529732
0.000722842948595
0.000722834739513
0.000746445484673
)
;
        source          uniform 0;
        value           nonuniform List<scalar> 
60
(
787.976004168
787.970014042
788.057507858
788.053872682
788.082912831
788.082093815
788.06335733
788.038018221
787.941971257
787.920721995
787.870783934
787.859486414
787.807926597
787.795897919
787.744093334
787.740982423
787.699125092
787.698075687
787.706741667
787.703184814
787.775174565
787.790623058
787.8994351
787.942875209
788.089040753
788.086163773
788.237638721
788.233698624
788.385596484
788.379857598
788.516945613
788.485405825
788.593211156
788.587412953
788.70253745
788.703369258
788.795395683
788.797034328
788.867142035
788.866725788
788.914711543
788.921416598
788.945671484
788.979510168
788.971514164
788.976650689
788.937200405
788.937590263
788.877432148
788.87513715
788.815358169
788.813857625
788.752940825
788.72588081
788.669305695
788.658491183
788.624099145
788.621677788
788.599663791
788.597951226
)
;
        kappaMethod     solidThermo;
        Tnbr            T.liquid;
        region          solid;
        otherPhase      gas;
    }
    procBoundary0to1
    {
        type            processor;
        value           nonuniform List<scalar> 5(789.790568733 789.692375254 789.5036311 789.242893391 788.924166833);
    }
    procBoundary0to3
    {
        type            processor;
        value           nonuniform List<scalar> 5(789.103893399 788.998546118 788.78669407 788.469797592 788.069256865);
    }
}


// ************************************************************************* //
