/*--------------------------------*- C++ -*----------------------------------*\
| =========                 |                                                 |
| \\      /  F ield         | OpenFOAM: The Open Source CFD Toolbox           |
|  \\    /   O peration     | Version:  2312                                  |
|   \\  /    A nd           | Website:  www.openfoam.com                      |
|    \\/     M anipulation  |                                                 |
\*---------------------------------------------------------------------------*/
FoamFile
{
    version     2.0;
    format      ascii;
    arch        "LSB;label=32;scalar=64";
    class       volScalarField;
    location    "0.225/water";
    object      alpha.gas_0;
}
// * * * * * * * * * * * * * * * * * * * * * * * * * * * * * * * * * * * * * //

dimensions      [0 0 0 0 0 0 0];

internalField   nonuniform List<scalar> 
6000
(
0.173277709499
0.103216794326
0.0288399476401
0.00717807540812
0.00135637542789
0.000212464643091
2.70283994704e-05
1.96890980274e-06
4.08991608881e-08
3.53451171884e-10
1.7742585533e-12
7.33173241002e-15
1e-15
1e-15
1e-15
1e-15
1e-15
1e-15
1e-15
1e-15
0.613294019074
0.260567289575
0.107464844195
0.036401421156
0.0114976564456
0.00307809608972
0.000693546537135
0.000120763572068
1.1674058415e-05
2.47033000578e-07
8.2826706559e-10
1.41768187282e-12
2.67459843553e-15
1e-15
1e-15
1e-15
1e-15
1e-15
1e-15
1e-15
0.613295062351
0.346156198045
0.170618635943
0.0725585271759
0.0278605323046
0.00928814307537
0.00258739152662
0.000573283465517
8.33925082809e-05
4.30197252701e-06
2.08519207166e-08
2.70969336008e-11
2.82131137511e-14
1e-15
1e-15
1e-15
1e-15
1e-15
1e-15
1e-15
0.613294019074
0.423669466634
0.248341860299
0.126768837728
0.0569280889569
0.0218864100577
0.00696472028606
0.00177104205213
0.00032274713832
2.94590977584e-05
4.23846168504e-07
4.37567786354e-10
2.86211828748e-13
1.11175971983e-15
1e-15
1e-15
1e-15
1e-15
1e-15
1e-15
0.598883324091
0.468494831828
0.326242428341
0.199888916796
0.106536739527
0.047705223
0.0172669354661
0.00485997483737
0.00100069715212
0.000122033334327
4.39394279185e-06
6.87380829696e-09
3.34395489167e-12
2.33932189755e-15
1e-15
1e-15
1e-15
1e-15
1e-15
1e-15
0.569257483766
0.482548433531
0.383772001572
0.275823718263
0.174204650182
0.0929972131704
0.0399319886469
0.01297216925
0.00298141817079
0.000425286951905
2.52305808003e-05
1.45649048988e-07
6.30013324072e-11
2.15902131666e-14
1.00121381177e-15
1e-15
1e-15
1e-15
1e-15
1e-15
0.545107967979
0.485609074845
0.418906876557
0.336787825
0.243985211357
0.153403782951
0.079630145662
0.0316200083004
0.0086884667742
0.00145291680232
0.000114540846423
1.95760361401e-06
9.11334737746e-10
2.42302060768e-13
1.05204297773e-15
1e-15
1e-15
1e-15
1e-15
1e-15
0.544731934261
0.492379354481
0.438209505189
0.376201344519
0.299830011284
0.214996905566
0.132495363531
0.0651912890687
0.0227699275915
0.00481753829805
0.000495958563407
1.62825065939e-05
2.17196593324e-08
4.65279473516e-12
1.9167893893e-15
1e-15
1e-15
1e-15
1e-15
1e-15
0.552337658844
0.502328862036
0.455871422056
0.405576367143
0.343187927861
0.26904273774
0.188964791095
0.112062598387
0.0501637805376
0.0142510159004
0.00205106327587
0.000110057651918
1.06787108879e-06
1.7310192511e-10
2.4107346768e-14
1.00132641144e-15
1e-15
1e-15
1e-15
1e-15
0.577324035201
0.512877493947
0.472841483579
0.432606601144
0.380618502136
0.315397611784
0.242030091257
0.165008891351
0.091632312215
0.0352705741976
0.007457593608
0.000654778250257
1.61347543098e-05
1.26654040676e-08
1.60892929357e-12
1.15801378109e-15
1e-15
1e-15
1e-15
1e-15
0.578218378731
0.516853738079
0.487190882561
0.45746941587
0.41462471754
0.356428455137
0.288797339197
0.216311865062
0.141958187188
0.0717281913442
0.022337809645
0.00321219161887
0.000152587951067
1.35469398079e-06
1.35644312014e-10
1.38995486446e-14
1e-15
1e-15
1e-15
1e-15
0.582161359626
0.516376999569
0.493278155242
0.47163335978
0.437987433693
0.387721054536
0.326256270865
0.260652109123
0.192982197055
0.121165812285
0.0530730099129
0.0120752778058
0.00102249475351
2.20506769352e-05
3.35141468332e-08
3.67958120785e-12
1.46569598241e-15
1e-15
1e-15
1e-15
0.578714637772
0.513186108284
0.491316784111
0.470452809921
0.438944740334
0.39632676358
0.346646211741
0.292718214122
0.23697779916
0.173901134502
0.0989093691337
0.0331747963013
0.00462393679701
0.000184706690964
1.27804331077e-06
3.7942757531e-10
1.02804405174e-13
1.02657031897e-15
1.00083232342e-15
1e-15
0.582246373734
0.505154224898
0.487829999259
0.465180746773
0.433650676722
0.392713829008
0.350922099611
0.310967956402
0.269601268176
0.218898453455
0.14814277885
0.0666372598483
0.0141146360263
0.000945565875418
1.33032588498e-05
1.72279595008e-08
6.63656172185e-12
3.34049376212e-15
1.00633087916e-15
1.00301205866e-15
0.578345656764
0.492845296959
0.479335706402
0.453332907873
0.419123687745
0.380911844903
0.347231748408
0.319637942716
0.290622714127
0.250018235451
0.187265749975
0.102834199334
0.0302118595855
0.00308431269275
7.105897227e-05
2.21026556705e-07
1.31650076476e-10
5.85150282638e-14
1.02909324343e-15
1.00743564534e-15
0.581124755092
0.478324557517
0.463606418813
0.434199279838
0.397898903831
0.363999980139
0.340779650503
0.323965639737
0.303117853586
0.268868868824
0.213315987634
0.132961297159
0.0492884203026
0.00701029513392
0.000240516795256
1.33067385258e-06
1.11717298261e-09
5.57520470868e-13
1.20189952534e-15
1.0083587925e-15
0.578218378731
0.465588395896
0.443927348348
0.413919184033
0.381121393802
0.354449590966
0.339138878587
0.328117941086
0.311868756019
0.282039567242
0.23327326007
0.158459889304
0.0690411196785
0.0127873192696
0.000625013018703
5.56640887026e-06
5.72538736331e-09
2.51564691757e-12
1.63847069334e-15
1.00720348281e-15
0.578644997531
0.458725836432
0.428833751959
0.402810547871
0.377173091735
0.354958621745
0.342455153633
0.335079419481
0.321696285553
0.296842856215
0.256224554869
0.18741190508
0.0935091133654
0.0221101284119
0.00159313913151
2.4758913976e-05
3.28534695882e-08
5.28644015449e-12
1.35674536121e-15
1.00344498052e-15
0.572922847813
0.458711633301
0.431788948956
0.407950554436
0.384539436864
0.365243826808
0.354991373217
0.347827188581
0.336566521287
0.31877790451
0.287990692889
0.228654989986
0.133475270262
0.0419480728492
0.00476949906371
0.000139056667818
6.20964985745e-07
5.22809062042e-12
1.6316933592e-15
1.00022112433e-15
0.55146953572
0.468428745542
0.456528086025
0.438978040067
0.415217429588
0.392267284164
0.376701095721
0.365105051453
0.353597136255
0.339765672403
0.321078733851
0.283760770671
0.201791632364
0.0880770592459
0.0161868468349
0.000875551666678
1.00320426623e-05
2.51456893129e-09
2.2133800444e-14
1.00629642173e-15
0.547705726718
0.507798837124
0.513697701868
0.501688334779
0.468307004281
0.429816252246
0.401041094121
0.38022923495
0.360056056927
0.341186637707
0.332411032619
0.328318617405
0.284511629556
0.171562483536
0.050655897547
0.00493183310062
0.000118158410682
3.43756848341e-07
1.70416947107e-12
1.47302006601e-15
0.577071152807
0.56709208203
0.5750354028
0.563291002921
0.521841553253
0.467727434233
0.423263304217
0.389586553734
0.358905964248
0.33593402211
0.330833723641
0.330706909799
0.330003969091
0.260081958893
0.117949216421
0.0202687772897
0.00095059808645
9.20014200346e-06
6.58491947064e-10
4.61822863041e-14
0.633234320356
0.604999861547
0.606369168285
0.594543330464
0.556466720729
0.497437349924
0.44068865824
0.393446886669
0.353161619781
0.321158737816
0.319943655408
0.330149634061
0.330038185227
0.307072731214
0.192003443468
0.0539432861057
0.0045940162254
8.92851781576e-05
1.56367353312e-07
2.53742827551e-12
0.646246889198
0.613250580027
0.613632628334
0.605695959808
0.573058463056
0.513549927184
0.449366161119
0.392651384262
0.34146587703
0.303631221074
0.303403690882
0.319310467712
0.329898747273
0.320608089165
0.237635762714
0.0957721483196
0.0135183362551
0.000461088998808
2.69454312349e-06
9.01256268002e-11
0.643350175102
0.614051640918
0.613836005257
0.610284693586
0.57983834338
0.518663785304
0.449743290567
0.38509434062
0.323276699871
0.299937330299
0.299756141479
0.302917583588
0.322162690308
0.318243444488
0.25848046156
0.13017004694
0.0266512195592
0.0014380447144
1.50543626612e-05
5.85501276392e-09
0.647637143786
0.6121567861
0.613617735251
0.611318954979
0.580515871539
0.517685588231
0.443790866795
0.367934383043
0.30500857657
0.299689236284
0.299937330299
0.299565642201
0.304283933318
0.310714343925
0.269736061775
0.155642089716
0.0409628234335
0.00311822845411
4.8361197104e-05
8.46380636514e-08
0.643920418015
0.606524874631
0.613373143654
0.608888763275
0.575491173764
0.508415642636
0.426008021239
0.343032284638
0.299887614046
0.299937330299
0.299175234934
0.299937330299
0.299485258287
0.303784278538
0.281127177396
0.179482753052
0.0563961644529
0.00562765701026
0.000119458512618
4.00109411929e-07
0.648768772957
0.597046854411
0.606987118648
0.598006899295
0.558753157343
0.486237013731
0.39826688138
0.316785271985
0.299937330299
0.299218050984
0.299937330299
0.298728751634
0.299937330299
0.30557167145
0.300541488714
0.208770388592
0.0762938733244
0.00986958453799
0.000284779404222
1.44962367197e-06
0.643920418015
0.584879474434
0.594265479903
0.578853026228
0.53181388011
0.454369873842
0.366564110928
0.301575677602
0.299528553059
0.299937330299
0.298531044641
0.299937330299
0.298496402847
0.321860458397
0.334995998487
0.249141372248
0.106508169058
0.0179686525325
0.000707724349163
4.84794740469e-06
0.648857764787
0.571056131443
0.578187520665
0.555107585872
0.499329694197
0.418254180624
0.334784232548
0.299803108043
0.299937330299
0.298698861372
0.299937330299
0.297964338016
0.299937330299
0.349324028292
0.3627458493
0.292655969638
0.14857668406
0.0324369272683
0.00175281552096
1.59379733668e-05
0.643578207795
0.556781427749
0.558491749966
0.52732657108
0.464063983928
0.382820392431
0.309318591486
0.299937330299
0.298947731888
0.299937330299
0.297935929483
0.299937330299
0.309598550864
0.3627458493
0.363161836239
0.322847550338
0.192664754829
0.0534762561472
0.00398953233644
4.95802141754e-05
0.648316802002
0.541217461995
0.531476592502
0.492547635867
0.427299761649
0.352258867882
0.299974050109
0.299391899542
0.299937330299
0.298145177162
0.299937330299
0.297874100856
0.345661547606
0.363355233755
0.3627458493
0.340051884529
0.228352684094
0.0782448237614
0.00806172798035
0.000142506676771
0.643267388403
0.520778822114
0.494926077842
0.450072593838
0.390044281951
0.328463964584
0.299729079664
0.299937330299
0.29842765321
0.299937330299
0.297874100856
0.309659284129
0.363153672932
0.3627458493
0.363066167269
0.349557605422
0.255143057523
0.10462868491
0.0147018068417
0.000377054711183
0.645412930159
0.492669467762
0.456823983382
0.409731960263
0.361088649584
0.317220123439
0.299937330299
0.298764473715
0.299937330299
0.297925246958
0.299937330299
0.348798417341
0.3627458493
0.36320373472
0.3627458493
0.354324354168
0.275964002538
0.133600696161
0.0251249032678
0.000927454949148
0.643267388403
0.457184458224
0.42631276199
0.389022336317
0.353254694194
0.318307870667
0.299504945145
0.299937330299
0.303873304857
0.309815143162
0.323375303019
0.34752635637
0.358054580628
0.3627458493
0.36284343857
0.355089439861
0.297507093665
0.171011875129
0.041729606492
0.00212232589157
0.614288094001
0.41958758429
0.411116895241
0.388602123512
0.358025597195
0.331481930882
0.322173301223
0.329109045554
0.331049936
0.323413509555
0.319279613179
0.321378162394
0.334172556418
0.350201213514
0.356742625207
0.355802690757
0.330843921193
0.223166753224
0.0683858920183
0.00475337515619
0.54965091813
0.411583433279
0.410936620774
0.403456788128
0.381140058673
0.358114152712
0.352090222666
0.346855413749
0.331713153842
0.310813730954
0.292277055605
0.287111814073
0.299994859989
0.320741884705
0.340064126197
0.36173660303
0.3741965122
0.281758415696
0.110404240191
0.0112585977413
0.500164364973
0.41883991351
0.444436015101
0.455184387636
0.421715880209
0.3820132843
0.361966322624
0.34317057937
0.316068984176
0.284581109548
0.265841766683
0.262546753741
0.27165392835
0.289511873146
0.323461358187
0.371848711546
0.391440618061
0.332803531091
0.16988700863
0.0272006144897
0.494900962807
0.484611845278
0.532961127254
0.538877561886
0.478853558423
0.40827503282
0.366864477106
0.336212168042
0.300856384671
0.268183277082
0.251452939157
0.248289048655
0.25414145077
0.267900710749
0.310105638922
0.373318369695
0.391996729415
0.376375537936
0.234658551509
0.0590538993696
0.521583368646
0.588675249833
0.624641954708
0.619485848015
0.560196428751
0.466291830721
0.389311784458
0.340433700366
0.300225828143
0.264670885329
0.244033116691
0.239735657099
0.243886702925
0.253665195711
0.294023026672
0.367813503285
0.391440618061
0.391919847289
0.285393779509
0.105492169223
0.600016699308
0.660348336787
0.67773046477
0.67341060423
0.643241393947
0.566722638056
0.457706925754
0.373071393911
0.313432455197
0.267538399261
0.240768730192
0.234218315807
0.237438851967
0.243547222828
0.2733694915
0.35037792903
0.391995911481
0.391440618061
0.317636530226
0.155363762281
0.662678639236
0.690970905551
0.703874538664
0.704578475055
0.694218856186
0.652479958516
0.545758795938
0.431785344434
0.344962479469
0.278768514098
0.239978978696
0.230544717634
0.233291730985
0.237211298862
0.255039293166
0.325411109694
0.391440618061
0.392020871088
0.340446968716
0.202100916176
0.693334486505
0.705661240293
0.717487774077
0.720421207005
0.714211269075
0.685908174789
0.592037065834
0.472782420977
0.370945822788
0.289153298061
0.239525826791
0.228006917365
0.23071831229
0.23429690415
0.24494496579
0.302443215356
0.388708293762
0.391440618061
0.364257693206
0.248146081614
0.724764085226
0.720997375243
0.726021449426
0.728014510733
0.719162200668
0.691120033762
0.599952065355
0.482551559829
0.37676192004
0.289709271088
0.237064272525
0.226073789403
0.229154344249
0.233570759778
0.241612034146
0.288528669543
0.383324023474
0.392220418831
0.391440618061
0.296347106342
0.797111310686
0.739973718491
0.732674220847
0.731371699291
0.719520420121
0.687299368854
0.592988188918
0.476247032261
0.368894380844
0.280022533676
0.230710884824
0.224394736233
0.228250254045
0.23376363608
0.241491800777
0.283454409953
0.383255679227
0.391440618061
0.391980898451
0.335083166651
0.839489889144
0.755445767429
0.738090906193
0.732002388433
0.717727484364
0.672837138303
0.568237415436
0.449908608844
0.342053032173
0.258535693248
0.223274387906
0.222546243872
0.227969073412
0.235068994605
0.243150637083
0.282243345958
0.380109827226
0.3923503608
0.391440618061
0.36253029621
0.844694691709
0.767265415477
0.742302364144
0.731333923174
0.712514890954
0.652774489973
0.537152819879
0.413934097003
0.307060970767
0.236594734935
0.218321687375
0.22047092639
0.228227548788
0.237647108389
0.246797179724
0.281416946341
0.373922459598
0.391440618061
0.392029134662
0.379993736594
0.839672226472
0.775976778801
0.74506239269
0.729190958763
0.705192784832
0.636044387679
0.51469099419
0.385681618671
0.279185735845
0.222438558446
0.215313668941
0.218931016789
0.22895438942
0.240864182097
0.250844946884
0.279783949614
0.363476045307
0.392360908531
0.391440618061
0.39058043911
0.844579457242
0.780368855346
0.746173497297
0.725531392507
0.697252424223
0.624124111582
0.501613420817
0.368984724143
0.262855284346
0.215671810109
0.213119373621
0.217903053249
0.230014927155
0.244165533866
0.254149697192
0.276566399936
0.35155464045
0.391440618061
0.392397729719
0.391440618061
0.839672226472
0.781014041786
0.745532731199
0.720767129133
0.688493072232
0.61315918562
0.491394296511
0.358210225294
0.253666803145
0.212323556942
0.21136325135
0.217325629434
0.231369326108
0.247425759978
0.256482498225
0.272703744775
0.341029450872
0.39225314424
0.391440618061
0.391935884617
0.844295240737
0.779492406477
0.741663184672
0.713963696714
0.677095262614
0.59894083967
0.478212034796
0.346831436644
0.245911870727
0.209796413578
0.209783783805
0.217238244823
0.23330553161
0.250820176157
0.257739988976
0.269659261769
0.336954508477
0.391440618061
0.392396541648
0.391440618061
0.839030915056
0.774607391763
0.732304052483
0.702521379195
0.659874969911
0.577265699461
0.457179427656
0.329827319505
0.23605182229
0.20718055506
0.208417619879
0.21799950829
0.236513904415
0.254311996439
0.2578014377
0.2678165074
0.337451949378
0.392229585594
0.391440618061
0.39193875385
0.843636179298
0.764930091705
0.717141083734
0.683416533064
0.632395234255
0.543283289332
0.423798077691
0.303287623636
0.221978836746
0.20558136207
0.207064379409
0.220801735883
0.241672567002
0.256096310157
0.256443603199
0.26732768756
0.344652790791
0.391440618061
0.392391383741
0.391440618061
0.839041715073
0.749848141335
0.696553974889
0.654121068004
0.590788102404
0.493567801579
0.37528586519
0.265188153089
0.207872401643
0.205290386285
0.207318220845
0.226419077706
0.246684417068
0.255247381543
0.253162700031
0.269219489967
0.359981819831
0.392595733813
0.391440618061
0.391971862996
0.843292235655
0.729110012902
0.668687030323
0.611313086774
0.532149859887
0.426579380767
0.312000000641
0.223707015471
0.205395878925
0.205343800272
0.209077911087
0.233852731906
0.248001661746
0.250914909529
0.24877541455
0.27676854747
0.382214061087
0.391440618061
0.392688884453
0.391440618061
0.839643482411
0.705810789253
0.628476339985
0.550772669718
0.455288397984
0.344462049148
0.244659350109
0.205731890283
0.205343800272
0.20479532789
0.213178927489
0.238071251354
0.245398580523
0.243908732535
0.245951733406
0.295551668199
0.391440618061
0.393314835019
0.391440618061
0.392440514515
0.843608138054
0.673492759478
0.569354225921
0.468802709768
0.361754876712
0.259386420833
0.207721608751
0.205343800272
0.204846612274
0.205180111624
0.213583815566
0.237329014069
0.238899668052
0.236765406287
0.246402092767
0.320348168691
0.393005712388
0.391440618061
0.393561596814
0.391440618061
0.840220464534
0.615893635529
0.484253772893
0.364140863188
0.262414651739
0.209193520131
0.205343800272
0.204820147254
0.205180111624
0.204201844278
0.211750020002
0.232180448091
0.231588536945
0.232620208418
0.250667136762
0.334841982436
0.391440618061
0.394071334703
0.391440618061
0.393339718773
0.843163954233
0.538663063291
0.379380258181
0.253701151204
0.207656224484
0.205343800272
0.204663422366
0.205180111624
0.20397581783
0.204980676604
0.204239100319
0.220443016452
0.22646635453
0.232786141803
0.256625833205
0.335076375106
0.393011438357
0.391440618061
0.394389601053
0.391440618061
0.840220464534
0.437711551032
0.265581470497
0.205544613889
0.205343800272
0.204346171764
0.205180111624
0.203370740442
0.204980676604
0.203319780923
0.204980676604
0.205624866586
0.22155911713
0.233635562582
0.257731913972
0.328254820284
0.391440618061
0.393935962389
0.391440618061
0.394458767508
0.804160161808
0.300668382976
0.206201706145
0.205343800272
0.203628292337
0.205180111624
0.202335819988
0.204980676604
0.2024738592
0.204980676604
0.203222179299
0.204930766349
0.215772215362
0.231527209974
0.252742828206
0.310134450309
0.388366613346
0.391440618061
0.39448051725
0.391440618061
0.689538743717
0.207734562066
0.205343800272
0.202914995478
0.205180111624
0.201128653774
0.204980676604
0.201401810707
0.204980676604
0.202599591513
0.204930766349
0.203709619791
0.212778803694
0.222322518068
0.235267707269
0.2834181905
0.367199483447
0.392473873049
0.391440618061
0.394671952884
0.567885350171
0.212683500701
0.203646863608
0.205180111624
0.201128653774
0.204980676604
0.200965562578
0.204980676604
0.202301601114
0.204930766349
0.203534404156
0.204773609228
0.207533717857
0.207148262043
0.209532035143
0.246883321865
0.332299415262
0.390405690387
0.393032279864
0.391440618061
0.546192736272
0.36017915638
0.318293297521
0.296565167487
0.283820526097
0.271691568343
0.259400825765
0.240025035526
0.223737272486
0.212198944623
0.207696785873
0.204528236109
0.199611525533
0.195932668368
0.194232250917
0.208689990454
0.282913480669
0.37210556136
0.391440618061
0.393481580337
0.633419728693
0.661470114547
0.625877262264
0.594082761259
0.563539050269
0.531998964499
0.481937314956
0.404105114916
0.316868646844
0.254245507214
0.222333786705
0.20699508615
0.197623061245
0.192877688866
0.191943529456
0.192290692248
0.221243549786
0.324535556599
0.390323402404
0.391440618061
0.794913306968
0.835213683497
0.818273570399
0.803497745481
0.78588789155
0.764657511694
0.726700495176
0.6530712542
0.531564940715
0.392159279369
0.287475117051
0.229836576307
0.202621122272
0.192848018834
0.191795744076
0.191840198571
0.192315689115
0.247971186823
0.366866186343
0.392355051102
0.862444521505
0.862198834006
0.8577653086
0.849683448579
0.840287404384
0.828958704871
0.808491780897
0.76828795994
0.688686078645
0.564151940859
0.420485536114
0.30191057549
0.227280482368
0.195518880357
0.191840198571
0.191682990235
0.191823016782
0.194962407803
0.30979533821
0.391440618061
0.865507640102
0.864549738605
0.863540163264
0.854528174186
0.845129003631
0.834417562156
0.815929806066
0.781445181943
0.71912740392
0.625623228046
0.506921552884
0.380095331341
0.26978673257
0.203915051167
0.191676772835
0.191823016782
0.191548530643
0.191823016782
0.240487048459
0.3865073696
0.864563062899
0.864697204062
0.863662942434
0.852801598302
0.841908733116
0.830255640125
0.811007170195
0.776042520083
0.716485589555
0.629333879515
0.523219243232
0.407103676301
0.293672453773
0.21049391471
0.191823016782
0.191542496554
0.191823016782
0.191106278408
0.198809931616
0.371122157538
0.865575170341
0.864563062899
0.858867718193
0.841893990838
0.827002263844
0.812583931672
0.79043917765
0.752433869296
0.695328693007
0.616612297667
0.517705853448
0.405726660291
0.29353490621
0.209737361946
0.191647879642
0.191823016782
0.191105823982
0.191823016782
0.1910187978
0.363409669088
0.864563062899
0.862173072484
0.843004846564
0.81716515235
0.797619415244
0.779510991994
0.752689620331
0.709380891969
0.651395472154
0.577927156721
0.487564223064
0.382362688627
0.274865706753
0.200994585615
0.191823016782
0.191386808574
0.191823016782
0.190526357549
0.191823016782
0.367744270464
0.865126687635
0.848934494201
0.813997518916
0.780637809779
0.757729088167
0.73599649363
0.703941121083
0.655940611133
0.594850804392
0.5205811414
0.431980690743
0.330596653994
0.234193745291
0.192334619056
0.191674272805
0.191823016782
0.190985234486
0.191823016782
0.205039356621
0.385788112145
0.864563062899
0.821132181393
0.77457331496
0.737731197545
0.712321044092
0.685955634201
0.647905976204
0.595824155868
0.53121409262
0.453877102183
0.36342972938
0.266387375158
0.199366628087
0.191764274322
0.191840198571
0.191375721314
0.191823016782
0.190517052011
0.247179018325
0.391440618061
0.856388033554
0.778931823301
0.732889614597
0.69664917485
0.666432160339
0.63113483223
0.584642850243
0.526767632044
0.458114122918
0.377992029635
0.28873762374
0.21170897005
0.191794175289
0.191840198571
0.191506569805
0.191840198571
0.190989245934
0.191823016782
0.301290568518
0.392830858703
0.819798531361
0.731508432635
0.699388951347
0.666489680689
0.626361805909
0.575690304818
0.515747159217
0.448072799613
0.373165957935
0.292382185577
0.219788845049
0.192048047582
0.191840198571
0.191579671158
0.191840198571
0.191302405421
0.191840198571
0.196227173377
0.341990850489
0.391440618061
0.743558569725
0.695570388502
0.678590975777
0.648499581761
0.596482550988
0.526722564904
0.448226321228
0.365767078757
0.283345025345
0.216369321136
0.19219895656
0.19187903624
0.191608036964
0.191840198571
0.191379178016
0.191840198571
0.191083542117
0.221865677904
0.347749809728
0.392593830338
0.660504542854
0.668658520888
0.664406108405
0.635396072193
0.572479671047
0.485944538261
0.389520027051
0.292917678641
0.215573991018
0.192003680072
0.19187903624
0.191563389369
0.19187903624
0.191359826511
0.191840198571
0.191299330834
0.196823892636
0.240564586543
0.338792763591
0.391440618061
0.623561703382
0.645015223773
0.646784159221
0.616183755725
0.544705907958
0.447565151269
0.340610258045
0.241349454799
0.193368234613
0.19187903624
0.191544072438
0.19187903624
0.191283177924
0.19187903624
0.1912580062
0.191840198571
0.212633688079
0.244847742758
0.316476073857
0.389284822752
0.623521353463
0.622668282417
0.622798769807
0.586152311575
0.50846289489
0.40634115223
0.2974047265
0.210765588915
0.191921678348
0.191590762361
0.19187903624
0.191219587164
0.19187903624
0.191155938085
0.19187903624
0.197742545215
0.223707026089
0.24300792929
0.293539549415
0.374113939984
0.627020397011
0.591654767069
0.586854111141
0.542594245474
0.46091984095
0.357734607762
0.254406468965
0.195147662079
0.191715709584
0.191921678348
0.191188249114
0.19187903624
0.191074017183
0.19187903624
0.191219516413
0.212465868004
0.227597178947
0.235906018508
0.270092386377
0.347073255318
0.627890414315
0.543495886446
0.533101157231
0.482432125277
0.399385849619
0.299667847161
0.214014718016
0.191824828192
0.191921678348
0.191200704007
0.191921678348
0.19100277073
0.19187903624
0.191126606955
0.20266996011
0.224029463594
0.226023089115
0.225872429736
0.246431690936
0.314129098077
0.626821719516
0.471377896904
0.455123070993
0.40238133861
0.324095975371
0.238675719815
0.193167870696
0.191921678348
0.191239410959
0.191921678348
0.190954214931
0.191921678348
0.191112248746
0.200908222267
0.22367577522
0.224098019289
0.221949420696
0.215784350562
0.225262511387
0.276184056
0.626809932967
0.382289285029
0.358547303335
0.310689000314
0.249932605398
0.198394104509
0.191961253073
0.191203871443
0.191921678348
0.190954214931
0.191921678348
0.192747444083
0.208327329149
0.223712213792
0.223857271585
0.223817205578
0.217713545776
0.210790718358
0.211013497702
0.236930412844
0.589336237157
0.324242199265
0.305132318465
0.268035883834
0.225123762459
0.193416754664
0.191470690061
0.191961253073
0.190954214931
0.19524221763
0.206514772535
0.22242493402
0.230358329485
0.226485280975
0.223249446609
0.219553744495
0.214265290531
0.209491446129
0.206996486281
0.210948969508
0.523884990424
0.340479344575
0.320606326118
0.283770825417
0.242482033719
0.216386229894
0.212845178973
0.215890207635
0.224441978331
0.235810959898
0.243864783246
0.243600338097
0.232403637182
0.222719385421
0.217044335315
0.213862351141
0.211495189149
0.20866032998
0.206898381959
0.206900143056
0.536979479029
0.462085594139
0.44276299772
0.407520362427
0.370494124341
0.35421401493
0.351854352568
0.351202562674
0.338810740673
0.313052343777
0.282748676471
0.25460711075
0.232904678742
0.219346928545
0.211748941018
0.209665749121
0.208874203736
0.207638282901
0.206900143056
0.206843169119
0.646763568023
0.687669780455
0.674418165189
0.650606974824
0.626695530713
0.615350176412
0.609199412266
0.590477720519
0.537171714139
0.452990971631
0.363678913716
0.293797920895
0.249004508841
0.223941199144
0.211622572068
0.20759909005
0.207158424167
0.20692963089
0.206874864226
0.206772840179
0.788423345848
0.821476411827
0.803769102387
0.793416941391
0.78578621018
0.780168247527
0.772780764731
0.753330839173
0.705720853602
0.619488074667
0.509546851155
0.40242929
0.313925611921
0.251442188455
0.216737485689
0.207026631749
0.206900143056
0.206886817342
0.206821499228
0.206672754599
0.850897115132
0.844069662271
0.824085294401
0.821186240555
0.820724438568
0.819785838677
0.814026788068
0.798084155737
0.764266087331
0.702081819564
0.615706957789
0.515844850111
0.409777313864
0.310583402741
0.234943361513
0.207047463526
0.206860360829
0.206822797329
0.206721298767
0.206569497531
0.866293501769
0.843557107232
0.824840192044
0.823376238524
0.824733057812
0.824777131737
0.820022377159
0.804596983842
0.772946047376
0.719139822073
0.647560201209
0.562855112294
0.466054053559
0.361287550241
0.261761273804
0.208353264737
0.206780472211
0.206678261241
0.206587532764
0.206467934725
0.867066222732
0.839616459758
0.821316487387
0.820622046599
0.823177529608
0.823912529808
0.819195255446
0.803446807581
0.77155031618
0.719279922908
0.651902216115
0.572841651812
0.481467143423
0.378671663137
0.27557356592
0.211085758675
0.206678636164
0.206533869775
0.206469642684
0.206356245246
0.867137859105
0.832845309434
0.810224383728
0.808294762604
0.812553886858
0.814910826823
0.81044250114
0.79326108214
0.759851259945
0.710297523338
0.647160598168
0.571042895629
0.48114408363
0.378614879506
0.275373103421
0.2111974259
0.206605652836
0.206445476638
0.206355842356
0.206199880455
0.866925335007
0.824590945105
0.791508892226
0.782954150587
0.785849252472
0.788965923011
0.784780438914
0.765149161483
0.729391245012
0.682290941022
0.624470958474
0.553110783575
0.465380486667
0.363116977808
0.262417995238
0.208665582877
0.206518241805
0.206363719578
0.206256807325
0.206052653386
0.863560112416
0.812501192762
0.764622701987
0.744063761072
0.740562855504
0.741928260871
0.736797035985
0.714533267555
0.67822123807
0.632812461585
0.577531929028
0.50808044744
0.420939215689
0.320588150412
0.233089567069
0.206774092764
0.206402109527
0.206329207497
0.206171623176
0.205992357299
0.857948375455
0.79038371929
0.729907786108
0.689746983
0.67548348058
0.671982999089
0.663736253609
0.641327258623
0.606872640138
0.562700622211
0.507534190074
0.437642242696
0.351900920631
0.261971445435
0.209968442468
0.206464652539
0.206355073541
0.206301306134
0.206132194002
0.206009946361
0.850205087631
0.75166276927
0.692664097211
0.620673368066
0.59377970899
0.580734665028
0.567317131622
0.54533015635
0.513375100472
0.471179748244
0.417202273656
0.349912649718
0.275085692581
0.218410597517
0.206665417312
0.206563029179
0.206500609987
0.206482875544
0.207167166671
0.209663072429
0.83026174403
0.713745267439
0.652848837955
0.551555085496
0.499614269738
0.468614038363
0.445867335327
0.423159514
0.394731165804
0.357462630849
0.310718467937
0.258035565868
0.2131784443
0.203502885599
0.206703964229
0.213064992134
0.216319678781
0.217788590843
0.220453976904
0.22408231616
0.796918162903
0.695555164413
0.611866603925
0.498110293903
0.40928494831
0.348380333446
0.307847161361
0.281203087158
0.258848365194
0.234241156939
0.207125350828
0.186587497159
0.182993889969
0.199630447037
0.223317113283
0.236339505957
0.23712781777
0.234639804275