/*--------------------------------*- C++ -*----------------------------------*\
| =========                 |                                                 |
| \\      /  F ield         | OpenFOAM: The Open Source CFD Toolbox           |
|  \\    /   O peration     | Version:  2312                                  |
|   \\  /    A nd           | Website:  www.openfoam.com                      |
|    \\/     M anipulation  |                                                 |
\*---------------------------------------------------------------------------*/
FoamFile
{
    version     2.0;
    format      ascii;
    arch        "LSB;label=32;scalar=64";
    class       volScalarField;
    location    "0.895/water";
    object      T.gas;
}
// * * * * * * * * * * * * * * * * * * * * * * * * * * * * * * * * * * * * * //

dimensions      [0 0 0 1 0 0 0];

internalField   nonuniform List<scalar> 
6000
(
354.913228283
323.849618584
310.399746257
304.320681318
301.823184399
300.375167132
300.016102126
300.000097286
300.000000077
300
300
300
300
300
300
300
300
300
300
300
397.649153713
335.12385852
312.159762685
304.34087002
301.560668411
300.561039956
300.180530933
300.021413617
300.000414934
300.00000054
300
300
300
300
300
300
300
300
300
300
402.0104589
335.401542296
311.409808472
303.683923302
301.189656486
300.387897934
300.126524605
300.033144946
300.00272353
300.000026748
300.00000001
300
300
300
300
300
300
300
300
300
400.964453318
337.051840269
312.339784568
303.923600536
301.214983547
300.371179988
300.112484838
300.033485841
300.006127999
300.000232233
300.00000074
300
300
300
300
300
300
300
300
300
397.966240107
337.353573605
313.152890752
304.334287382
301.366758489
300.420175118
300.126511575
300.03724304
300.010673789
300.001077477
300.00001383
300.000000004
300
300
300
300
300
300
300
300
393.728510827
336.516114434
313.420447846
304.610863036
301.501777798
300.474983249
300.147860543
300.044937465
300.013361663
300.002866538
300.000111253
300.000000486
300
300
300
300
300
300
300
300
389.938040254
334.932051638
313.059425831
304.626545336
301.548822506
300.502138184
300.161203554
300.050948977
300.015655087
300.004786894
300.000544001
300.00000614
300.000000001
300
300
300
300
300
300
300
387.548608826
333.274849866
312.340606683
304.402859464
301.498577424
300.494563434
300.162481705
300.052949048
300.016593837
300.005150639
300.001307418
300.000046024
300.00000004
300
300
300
300
300
300
300
385.319560151
332.111247404
311.8370082
304.21534052
301.440949269
300.479268721
300.160130989
300.053582879
300.017002197
300.005159161
300.001654211
300.00018631
300.000000873
300
300
300
300
300
300
300
383.083607724
331.131684136
311.431865325
304.05519123
301.383667221
300.46227421
300.157054638
300.054492718
300.017808638
300.005253925
300.001588531
300.00040469
300.000009074
300.000000003
300
300
300
300
300
300
382.5588288
330.8060333
311.190164478
303.942045905
301.343136283
300.452830868
300.157644198
300.057206408
300.019654731
300.005756642
300.001601399
300.000500166
300.000045194
300.000000134
300
300
300
300
300
300
386.645561343
332.371198529
311.582058724
304.035604897
301.379484478
300.473453116
300.169925322
300.064254288
300.023276792
300.006947856
300.001796686
300.000497277
300.000125401
300.000002606
300.000000001
300
300
300
300
300
392.446253328
334.434425297
312.232742252
304.251355399
301.467399122
300.515622362
300.191186267
300.075013422
300.028499419
300.008858351
300.002202279
300.00054507
300.00015832
300.000017815
300.00000007
300
300
300
300
300
393.94717802
335.488680554
312.811066572
304.477618412
301.553102523
300.554246029
300.211298394
300.086012885
300.034174606
300.011173876
300.002775188
300.00063602
300.000165444
300.000051814
300.000001643
300.000000001
300
300
300
300
394.37086835
335.807020148
313.034176855
304.58482567
301.596451419
300.576016741
300.225067109
300.094492264
300.039057617
300.013422987
300.003420114
300.000751393
300.000178798
300.000054364
300.000008
300.000000039
300
300
300
300
394.646571042
335.627924518
312.93795927
304.558153638
301.593459794
300.581625163
300.23246134
300.100454288
300.042694997
300.015291206
300.004044545
300.000878402
300.000194505
300.00005337
300.000017249
300.000000476
300
300
300
300
394.743423321
335.034347817
312.506176133
304.375494758
301.534854677
300.568665374
300.23292039
300.103322212
300.045018542
300.016682745
300.004588654
300.001001189
300.000209634
300.000052146
300.000017709
300.000001579
300.000000003
300
300
300
394.755179276
333.880760426
311.681941834
304.00704455
301.407750434
300.532776779
300.225129901
300.102653156
300.045917661
300.017594446
300.005023694
300.001102951
300.000220614
300.000050045
300.000015281
300.000002582
300.000000013
300
300
300
394.452704136
333.252717798
311.181306408
303.730553269
301.293227384
300.49438557
300.214023866
300.100097427
300.046098948
300.01827898
300.005409929
300.001187997
300.000226875
300.000047054
300.000012774
300.000002899
300.000000032
300
300
300
394.15738517
333.249374704
311.128676341
303.661326795
301.247138339
300.473410624
300.206431039
300.098585675
300.046576748
300.019144773
300.005880098
300.00128852
300.000232783
300.000043751
300.000010323
300.000002674
300.000000047
300
300
300
393.79995801
333.62649498
311.366425767
303.753551186
301.269643472
300.475109946
300.205888866
300.099343849
300.048114266
300.020538253
300.006582928
300.00144255
300.000244537
300.000040808
300.00000796
300.000001822
300.000000035
300
300
300
392.063485551
333.452665449
311.469327994
303.838731952
301.297849946
300.47914338
300.205953197
300.100524333
300.050176816
300.022409992
300.00754123
300.001656337
300.000265732
300.000039386
300.000006119
300.000000787
300
300
300
300
388.69864316
332.369471703
311.179339521
303.740022064
301.250319321
300.45658228
300.198920747
300.10082282
300.052686508
300.024768486
300.008724901
300.001921113
300.000295005
300.000040655
300.000005213
300.000000233
300
300
300
300
385.92111206
331.796187675
311.04872989
303.62760849
301.172541609
300.423103024
300.191663022
300.103096858
300.056849723
300.028018732
300.010288209
300.002280943
300.000342168
300.000045312
300.000005412
300.000000106
300
300
300
300
385.68132541
331.907478621
311.166019404
303.637921105
301.151216094
300.415448724
300.196165326
300.11097493
300.063895239
300.032791958
300.012505101
300.002839706
300.000432869
300.000058228
300.000007059
300.000000228
300
300
300
300
388.961550299
333.278334279
311.755286703
303.886837008
301.253962999
300.45756722
300.217955298
300.125500606
300.074176864
300.039418354
300.015624232
300.00369257
300.000585931
300.000082992
300.000010562
300.000000567
300
300
300
300
395.423035325
335.762288799
312.720027843
304.331481575
301.457755229
300.541702664
300.254225228
300.145224059
300.087035464
300.047725831
300.019768837
300.004977133
300.000829015
300.000125217
300.000017022
300.000001287
300
300
300
300
400.539938381
337.880942625
313.598794071
304.741824845
301.653078165
300.628944666
300.293428735
300.166234691
300.100726094
300.05677877
300.024708352
300.006649487
300.001191508
300.000187203
300.000027073
300.00000263
300
300
300
300
402.742243862
339.316892923
314.340721754
305.082725193
301.807041708
300.698853984
300.326932738
300.18516483
300.113492501
300.065303274
300.029856386
300.008626013
300.001642388
300.000273435
300.000041123
300.000004702
300
300
300
300
403.82111089
340.009940119
314.754634351
305.27675698
301.899371889
300.744833691
300.351667222
300.20058223
300.124095186
300.072228537
300.034298515
300.010662525
300.002148148
300.000368167
300.000056588
300.000007003
300.000000114
300
300
300
404.351191186
340.177977478
314.861428482
305.336957971
301.935980791
300.769117862
300.368004384
300.211936725
300.131619374
300.07700397
300.037345901
300.012300015
300.002606778
300.000457313
300.000069432
300.000008992
300.000000538
300
300
300
404.579782283
339.844071539
314.646912722
305.262398073
301.922421837
300.77495477
300.37673443
300.218943688
300.135490689
300.079275875
300.038773869
300.013145221
300.002919805
300.000513724
300.000077341
300.000010249
300.000000798
300
300
300
404.427906493
338.935682049
314.02488441
305.010450257
301.844824664
300.758632241
300.376716043
300.221040229
300.135824209
300.078983072
300.038530216
300.013258845
300.00299146
300.00053436
300.000078526
300.00001041
300.00000077
300
300
300
404.457564978
338.50758991
313.638900655
304.792603914
301.757821436
300.73295419
300.370988176
300.218653434
300.133468239
300.076829895
300.037249217
300.012810057
300.002942564
300.000515528
300.000079134
300.000010298
300.000000493
300
300
300
404.290894807
338.389084565
313.452335082
304.652305141
301.6889242
300.708446909
300.363006031
300.212823994
300.129031262
300.073560264
300.035366851
300.012257693
300.002816454
300.000491432
300.000082149
300.000010492
300.000000184
300
300
300
404.331651518
338.299758993
313.31694766
304.565714381
301.647124701
300.691868596
300.355059842
300.205990203
300.123627399
300.069827481
300.033613741
300.011753462
300.002766825
300.000477482
300.000086501
300.000011293
300.000000001
300
300
300
404.212217783
338.026987393
313.095760457
304.475428922
301.618174774
300.681656825
300.346428729
300.199239399
300.118287749
300.066630669
300.03227846
300.011663622
300.002791785
300.000530434
300.000098554
300.000013044
300
300
300
300
404.187233935
337.253166957
312.605805392
304.287880993
301.564403587
300.665869001
300.336360745
300.192014587
300.113501642
300.064121675
300.031858008
300.011976193
300.00302207
300.000622591
300.000112637
300.000014668
300
300
300
300
403.981641741
337.144222416
312.51895102
304.225021534
301.538703444
300.654580275
300.329241261
300.186483962
300.110046488
300.063446735
300.032850124
300.013297239
300.003550378
300.000707125
300.000122131
300.000015101
300
300
300
300
404.135777498
337.52591625
312.795611985
304.343882189
301.573823002
300.660816928
300.328155412
300.183985334
300.110271496
300.065365376
300.035093785
300.014564979
300.003972144
300.000774001
300.000126434
300.000014386
300
300
300
300
404.270423018
338.090958171
313.224813257
304.569827503
301.659010147
300.682688676
300.328906447
300.183042442
300.111134237
300.067733786
300.037283743
300.015868407
300.004397603
300.000837947
300.000128352
300.000013018
300
300
300
300
404.88130274
338.494119674
313.524718671
304.747678438
301.730040683
300.69162772
300.325335863
300.182137323
300.113167803
300.070657556
300.039778131
300.017213671
300.004814897
300.000891628
300.000128068
300.000011197
300
300
300
300
405.149855329
338.328610003
313.326307089
304.665883568
301.670281609
300.661258694
300.314337495
300.180845046
300.115680664
300.074080131
300.042256003
300.01843432
300.005184809
300.000929748
300.000123347
300.000008894
300
300
300
300
404.033413411
337.498180859
312.766759316
304.291676438
301.485232325
300.596236335
300.295154608
300.178249806
300.118566906
300.077390381
300.044384003
300.019468768
300.005484103
300.000943601
300.000110787
300.00000596
300
300
300
300
394.732466314
333.05177468
310.954774908
303.475940263
301.19726211
300.497446466
300.268646955
300.175056921
300.121087764
300.079985514
300.045912929
300.020222596
300.005697908
300.000920763
300.00008953
300.00000297
300
300
300
300
380.117952726
327.171464922
308.370091552
302.420722793
300.842322809
300.392874595
300.244287458
300.172912866
300.123303165
300.081930363
300.047063712
300.020889098
300.00593801
300.000891893
300.000067945
300.000001627
300
300
300
300
370.330386128
323.782123383
305.727335249
301.459976383
300.565493656
300.327617913
300.234210021
300.175367743
300.127256841
300.085117884
300.049420006
300.022547484
300.006757594
300.001034858
300.000071942
300.000002932
300.000000857
300
300
300
371.465957335
321.58685265
304.091096803
301.068946629
300.481316197
300.321566367
300.244769247
300.187614766
300.137928314
300.093794441
300.056120617
300.027123857
300.009117068
300.001678351
300.000144689
300.000007083
300.000002968
300.000000757
300
300
398.86155171
328.049887046
306.324319405
301.731910668
300.689254368
300.398731936
300.28379674
300.214819362
300.159322211
300.110721037
300.068707931
300.03534547
300.013190974
300.00290638
300.000310458
300.000017687
300.000004188
300.000001895
300
300
474.220454696
348.307051656
316.493378396
305.472487387
301.731672137
300.679504577
300.37275226
300.261135921
300.192250476
300.135618247
300.087130118
300.047351076
300.019322691
300.004908996
300.000636961
300.000045911
300.000005453
300.000002233
300.000000044
300
526.192680718
370.034618422
325.753277501
309.662730918
303.524775034
301.230296725
300.509611519
300.318302017
300.230637677
300.164885304
300.108825047
300.061930795
300.027259125
300.007776221
300.001213931
300.00011502
300.000011328
300.000002329
300.000000008
300
549.274672915
382.575376895
330.844967826
311.783470445
304.386652261
301.605305496
300.670249631
300.378388541
300.265064692
300.192081691
300.129792517
300.076672406
300.035802459
300.011411497
300.002145328
300.000279513
300.00003396
300.00000441
300
300
558.620393631
387.903244169
332.149384511
312.093248177
304.544930229
301.734597356
300.770316898
300.433383521
300.294712892
300.21318198
300.147314117
300.089362238
300.043812008
300.015469894
300.003543562
300.000579957
300.000082211
300.000010659
300
300
561.670834002
386.575138299
329.848045045
310.748581544
304.001234172
301.586219454
300.77482161
300.458511815
300.313090459
300.226494819
300.158411734
300.097881975
300.049643103
300.018753198
300.004914463
300.00091347
300.000138535
300.000019648
300
300
557.5884036
378.635240428
325.206369738
308.515944117
303.115336021
301.312404274
300.727602579
300.457202905
300.318410208
300.231437914
300.162408024
300.10085366
300.051888996
300.020368688
300.005734772
300.001175498
300.000184279
300.000025896
300.000000369
300
545.329890859
368.103376846
319.914954395
306.558517576
302.438219932
301.160066606
300.674705864
300.441488245
300.313810232
300.229314644
300.160093601
300.098740085
300.050754767
300.020154772
300.005930481
300.001279557
300.000212144
300.000028532
300.000000529
300
531.44170767
357.692677276
316.392779249
305.297050121
302.084449334
301.055861763
300.630331433
300.422274031
300.304246156
300.222172573
300.15232151
300.092657285
300.047019145
300.018673221
300.005567524
300.001255041
300.000212724
300.000029718
300.000000351
300
528.174065257
354.238114686
314.908829696
304.905099886
302.032105906
301.024324041
300.606330698
300.407152757
300.293374604
300.210738743
300.141107323
300.084085618
300.041949956
300.01647056
300.004962306
300.001134117
300.000197953
300.000029933
300.000000057
300
508.740399322
352.197858509
316.393163829
305.782712654
302.325673252
301.094076302
300.614701402
300.401425159
300.28207375
300.196339854
300.128576605
300.07508527
300.036788018
300.014363705
300.004318678
300.001008133
300.000174842
300.000028106
300
300
485.408391376
355.846065499
320.418236975
307.684029145
302.997259042
301.297621348
300.66800975
300.405988846
300.270031161
300.182239758
300.116801514
300.067146197
300.032695556
300.012723549
300.003872702
300.000905168
300.000162805
300.000026421
300
300
467.213785238
362.907581595
325.260520725
310.03752521
303.939049791
301.620677032
300.752276658
300.413070081
300.259259723
300.169640258
300.107147852
300.061499775
300.030029282
300.011879829
300.00364509
300.000862414
300.000163123
300.000025013
300
300
462.796759261
367.936540985
328.789463244
311.914043548
304.769570907
301.879183842
300.799598277
300.410170296
300.246968005
300.158891383
300.100607258
300.058281389
300.029102394
300.011730256
300.003680891
300.000870704
300.000168265
300.000023889
300
300
474.031253732
372.481955828
330.495170146
312.674721268
304.934242639
301.840652075
300.76419167
300.385503287
300.231281335
300.150648038
300.09695722
300.057730682
300.029592787
300.012320898
300.003907955
300.000953471
300.000180048
300.00002267
300
300
487.799144645
376.62116117
331.278989936
312.305074284
304.394225326
301.600547876
300.667024039
300.345865751
300.216020686
300.14515269
300.096732332
300.059367778
300.031608495
300.01349674
300.004368486
300.001083779
300.000195103
300.000021455
300
300
490.068764025
377.321306605
330.328159217
310.660381019
303.613031052
301.2891212
300.552254687
300.308177207
300.20422499
300.144262804
300.099542014
300.063520882
300.034923077
300.015423963
300.005113855
300.00126259
300.000213808
300.000019966
300
300
455.004293648
366.73010159
325.749579031
308.667527503
302.816743781
300.98880252
300.455627294
300.279549334
300.200616957
300.148121805
300.106308657
300.070039048
300.040034079
300.018274541
300.006219232
300.001497147
300.00024792
300.000021732
300.000000192
300.000000187
414.906580841
350.478246417
319.623618762
306.563259336
302.061186878
300.74239552
300.385652479
300.27015003
300.206950363
300.159494996
300.11792725
300.080546925
300.047948035
300.022630544
300.007832315
300.001916612
300.000332477
300.000034085
300.00000127
300.000000859
391.504314236
340.143253623
315.436807059
304.984737715
301.419825879
300.554607327
300.361059085
300.282890356
300.227389752
300.179760438
300.136059568
300.095500952
300.058965472
300.029482155
300.01083504
300.002829899
300.00054264
300.000070918
300.000004329
300.000001386
388.281133665
340.921415018
317.377565173
305.936299596
301.525797626
300.580742298
300.396556175
300.319559413
300.262085705
300.21066425
300.162537568
300.117347104
300.075710598
300.040413047
300.016249468
300.004740437
300.001033917
300.000173143
300.000019513
300.000002665
406.180911801
352.811778411
324.481053371
309.698618821
303.141581079
301.016838943
300.523390969
300.382430662
300.310054563
300.251882181
300.197853354
300.146317007
300.098251625
300.05589409
300.024700933
300.008161281
300.002134105
300.000453493
300.000075312
300.000009401
433.143187711
363.113115726
329.637894837
312.918624314
305.075195162
301.937294962
300.86631097
300.502588074
300.37112195
300.296225217
300.235344962
300.178414331
300.12404324
300.074890909
300.036807293
300.014214647
300.004406842
300.001125853
300.00023728
300.000039875
451.40820688
368.208805521
331.770193355
314.526480385
306.337506258
302.720940693
301.259616281
300.696856205
300.458212872
300.344005643
300.270420724
300.208893441
300.150305528
300.095950024
300.05157592
300.022503554
300.007976749
300.002339371
300.000575571
300.000117955
470.497566525
372.64117633
332.752639511
315.209415389
307.057134733
303.290145845
301.611910169
300.888245614
300.552358759
300.391853035
300.300790187
300.233643001
300.172775166
300.114856967
300.065866752
300.031345171
300.012279786
300.004003622
300.001100474
300.000256789
520.681213185
379.949112084
333.083025932
315.077330098
307.187377381
303.528556914
301.81010125
301.008266956
300.623175578
300.430459162
300.324153972
300.251470712
300.189102716
300.129417794
300.077612076
300.03924089
300.016480067
300.005791061
300.001723438
300.000438765
543.109777098
385.558584799
333.486236662
314.740921615
307.026244151
303.535332345
301.872018584
301.062085185
300.659847913
300.452833632
300.338105065
300.261946551
300.198822632
300.138678161
300.085588807
300.044999334
300.01979632
300.007296068
300.002283038
300.000613022
551.145838381
387.497931799
332.820330164
313.89859485
306.546060444
303.3301015
301.804408107
301.046059754
300.659929573
300.456363488
300.341395508
300.264884252
300.202029739
300.142266042
300.089163178
300.04790768
300.021596636
300.008176929
300.002621511
300.000722887
554.463176195
384.649422906
329.409098154
311.883503682
305.554265841
302.873849157
301.604779204
300.962046663
300.623813396
300.440788681
300.333881612
300.260503948
300.199108908
300.140414153
300.088385905
300.04778714
300.021715048
300.008264817
300.002669685
300.000738287
553.355923984
374.105746925
323.074090683
308.901146209
304.190477721
302.247847729
301.316009621
300.827257031
300.560625238
300.410677496
300.317818805
300.250158203
300.190830863
300.133942734
300.083969106
300.045211591
300.02039305
300.007715807
300.002466057
300.000678538
544.023262891
359.393541167
315.964419189
305.776826136
302.804550766
301.600963715
301.005651717
300.678483702
300.490041617
300.375547951
300.297866076
300.236117685
300.178504263
300.124608094
300.077546939
300.041295732
300.018394579
300.006836932
300.002160875
300.000586838
532.88428861
349.102032393
310.971229417
303.501913838
301.748008337
301.096893014
300.758986357
300.558080961
300.430790234
300.344182026
300.278129462
300.219907264
300.165047453
300.114682828
300.070946441
300.03747717
300.016437049
300.006034199
300.001887083
300.000528482
534.060388633
347.052102565
308.883034317
302.379638811
301.169365903
300.801562089
300.607311476
300.480441518
300.389820315
300.319629025
300.259488983
300.204444394
300.153366934
300.10663878
300.066144225
300.034899496
300.015284478
300.005656117
300.001793918
300.000497628
533.170353541
357.236897041
311.320120694
302.585109962
301.026504714
300.678392208
300.532276058
300.436903441
300.362801624
300.300206569
300.244455662
300.193133609
300.145603743
300.102238288
300.064313148
300.034640947
300.015380099
300.005682459
300.001800157
300.000496147
498.555076953
357.825367427
314.173424895
303.615140982
301.222742792
300.673118896
300.504164838
300.413610853
300.345459529
300.287021824
300.234750072
300.186782389
300.142555955
300.102152002
300.065658219
300.035924261
300.016137536
300.005984719
300.0018872
300.00051889
441.126911363
348.917089774
314.519082014
304.271853979
301.452084892
300.709777173
300.498790211
300.403567096
300.336416756
300.280422512
300.230670143
300.185757935
300.144512317
300.105211307
300.068719891
300.038130971
300.017236944
300.006359349
300.001993412
300.000552551
405.086095188
339.585732188
313.288335291
304.306043327
301.535235124
300.741482721
300.50660526
300.40348344
300.33543727
300.280252749
300.233072158
300.190267656
300.149496994
300.110196022
300.072867563
300.040910162
300.018547728
300.006807219
300.002130038
300.00060412
389.444617123
335.659568626
313.310383385
304.89164341
301.908089618
300.907175814
300.565055225
300.422287113
300.345036581
300.288673867
300.241373931
300.198325996
300.157266035
300.117099156
300.078563961
300.044828955
300.020607866
300.007644447
300.002423224
300.000712459
391.188241523
340.705335016
318.115617066
307.821674068
303.309042949
301.452142306
300.727990234
300.466723637
300.369081478
300.307852272
300.257739781
300.212256683
300.168806499
300.126500907
300.085877947
300.049797826
300.023326223
300.008850559
300.002885527
300.000895469
417.006830098
358.230745667
327.462413789
312.289335271
305.254927546
302.172746937
300.958331389
300.5399413
300.408176028
300.338171346
300.282225724
300.231550907
300.183764717
300.138006229
300.094501852
300.055639385
300.02663004
300.010419044
300.00352445
300.001162363
457.016858828
369.306377452
330.642513495
313.324376143
305.625462409
302.333773666
301.055723904
300.604613701
300.450073849
300.37245631
300.309397543
300.252158456
300.199408432
300.15015599
300.103605872
300.061900643
300.030402728
300.012388411
300.004392488
300.001545326
470.469734786
371.325976294
329.240053483
311.904663614
304.76992966
301.994667117
300.985071
300.627880329
300.483260482
300.40269464
300.33370744
300.27043959
300.213105257
300.160901413
300.112103969
300.067978207
300.034491649
300.014805901
300.005572759
300.002090658
466.360793429
367.702165988
326.726501424
310.267454865
303.699371928
301.557143359
300.874401998
300.624464993
300.50504594
300.424459422
300.35250914
300.285377572
300.224657463
300.170048325
300.119488876
300.073679027
300.038929048
300.017791682
300.007187346
300.002863339
451.976087568
361.664105264
325.33137303
309.675494525
303.251061584
301.311862493
300.800533839
300.620412455
300.517505141
300.438430869
300.365757392
300.296977841
300.234327126
300.177784305
300.125368805
300.078599735
300.043355127
300.021184136
300.009218043
300.003885934
443.496461784
356.176306469
323.392178589
309.51040276
303.416607516
301.327571851
300.779313901
300.61813141
300.524603616
300.448367531
300.375686471
300.306402328
300.24260992
300.184114516
300.129688258
300.082611379
300.047624582
300.024863879
300.011651433
300.005161871
439.71153426
351.783203201
320.43839766
309.129015135
303.620446693
301.45443985
300.814319586
300.629222706
300.533408062
300.457495224
300.384886934
300.315378439
300.250083864
300.188765246
300.132950451
300.08629794
300.051993277
300.028967674
300.014509107
300.006728723
437.511865206
348.684304464
317.911805178
307.975312388
303.454772346
301.5121082
300.859298796
300.655196931
300.547180619
300.467681495
300.39452585
300.323895368
300.256024517
300.192372839
300.13569605
300.090027182
300.056862096
300.033619657
300.017902013
300.008676427
435.084119378
345.392654105
315.322463833
306.64324837
303.198089884
301.522788343
300.895067431
300.681967655
300.562342673
300.47822146
300.403341335
300.330296858
300.260234811
300.195215724
300.138595194
300.094362106
300.06231859
300.03901579
300.021905363
300.011065929
429.562477889
343.206239233
313.369609317
305.371852093
302.776986821
301.447005325
300.92083728
300.697436262
300.572381797
300.485611409
300.408024178
300.333719924
300.262885947
300.197712786
300.142179111
300.099313167
300.06854012
300.045115727
300.026770894
300.013972734
419.889512184
341.529809793
312.32411882
304.392372008
302.30756555
301.338264805
300.908640241
300.696518422
300.574130473
300.487118373
300.408121582
300.334057176
300.264016207
300.200298537
300.14616616
300.105198869
300.075366296
300.052351163
300.032819441
300.017444348
409.725487874
340.289570141
312.336623218
303.986943678
301.983334281
301.233792897
300.878398739
300.687529774
300.570970086
300.484664255
300.406149254
300.333252959
300.265260693
300.203393979
300.151439245
300.112021903
300.084207384
300.061194998
300.039661592
300.021507545
405.141800692
339.40618974
312.607247175
304.028327786
301.867602273
301.186832108
300.869499421
300.690130972
300.574259809
300.485971076
300.407015901
300.335365316
300.269252677
300.209971471
300.160408424
300.122830959
300.094918949
300.070663718
300.047097689
300.02639838
413.611313146
342.729357473
314.684249182
305.011455609
302.1789293
301.307740097
300.935598714
300.731926313
300.600027115
300.500816602
300.416587086
300.342635456
300.276665872
300.218586006
300.170694962
300.134719225
300.106715893
300.081096483
300.055433055
300.032142419
436.305426109
354.060226622
320.63883594
307.771249299
303.258981895
301.734813352
301.129498705
300.83381717
300.658507024
300.535948799
300.439394829
300.358923816
300.290071154
300.231371268
300.18404844
300.148454344
300.11918361
300.091441926
300.063584758
300.037842894
448.409939719
361.227774112
325.407632191
310.337375962
304.430443363
302.2251522
301.342385449
300.937343267
300.719139203
300.576967097
300.468563571
300.380191948
300.306811514
300.246401721
300.19847927
300.161063877
300.129482492
300.099268128
300.069470451
300.042118715
455.058407297
362.004191686
324.923303985
310.159266385
304.428746388
302.232137675
301.33925723
300.93463098
300.721525791
300.579664222
300.470408491
300.382568387
300.311171055
300.253141688
300.206644288
300.168670259
300.135249156
300.103126516
300.072003992
300.044188602
456.898600308
353.635838346
319.278601887
307.501581006
303.315210456
301.759955825
301.123053439
300.824114059
300.656939093
300.539320634
300.444928023
300.367182631
300.303097114
300.250352107
300.207068836
300.169976848
300.135865815
300.102865303
300.070823846
300.044210127
455.915193659
345.271191123
313.494644936
304.788201885
302.157318966
301.254745113
300.881585123
300.692160584
300.575040814
300.485493376
300.409595969
300.344405255
300.288812897
300.242006667
300.202116777
300.166354369
300.132381735
300.099024955
300.066491769
300.042829132
453.827709974
344.759850548
311.132491499
303.332648397
301.478290996
300.940554689
300.718374467
300.594045931
300.507997722
300.437683349
300.376224954
300.321821132
300.273349872
300.231371629
300.194240801
300.159663165
300.125920121
300.091251007
300.061190731
300.041627918
443.306282199
346.465787776
311.480532171
303.006401281
301.221601347
300.794046023
300.633338423
300.536813955
300.463922425
300.403052101
300.349916326
300.302518787
300.259072769
300.220369916
300.184924694
300.150708076
300.11622834
300.08283938
300.056945817
300.043208736
420.498178634
344.26078882
312.6034921
303.331112955
301.212807077
300.74803612
300.598034925
300.50953471
300.440519422
300.38213446
300.331974789
300.287675036
300.246993272
300.209642613
300.174512425
300.140258439
300.106519604
300.076484599
300.057098021
300.047141551
400.028742367
339.684273582
312.998599976
303.742817928
301.299353518
300.752993067
300.593190413
300.503299186
300.432342282
300.372278273
300.32141566
300.277085357
300.236965265
300.200051539
300.16518588
300.131560959
300.10041867
300.075808811
300.061097714
300.053204802
390.925301989
338.208950098
314.343786631
304.824042819
301.730270325
300.886268608
300.635609526
300.520628451
300.439965687
300.373914756
300.318546547
300.271807078
300.230951504
300.194029696
300.159785522
300.128219524
300.100964456
300.080954737
300.068970948
300.061264325
396.401942914
344.07159994
319.551207348
308.058362324
303.262800299
301.480067706
300.838216547
300.594614983
300.471144595
300.390012828
300.325888504
300.274233214
300.231814248
300.195159654
300.162402476
300.133507197
300.109433664
300.091443647
300.079748724
300.070940564
421.678658287
359.442488483
328.194339466
312.682347239
305.538956379
302.483772937
301.238571582
300.749344819
300.541617275
300.426458284
300.347844198
300.287932092
300.242574461
300.205945686
300.174447299
300.147019711
300.123917878
300.105766873
300.092683438
300.081894663
456.770914403
369.222151295
331.520554223
314.239352999
306.394493987
302.953040829
301.490472764
300.883776767
300.621850802
300.483864218
300.387534907
300.315654188
300.264007032