/*--------------------------------*- C++ -*----------------------------------*\
| =========                 |                                                 |
| \\      /  F ield         | OpenFOAM: The Open Source CFD Toolbox           |
|  \\    /   O peration     | Version:  2312                                  |
|   \\  /    A nd           | Website:  www.openfoam.com                      |
|    \\/     M anipulation  |                                                 |
\*---------------------------------------------------------------------------*/
FoamFile
{
    version     2.0;
    format      ascii;
    arch        "LSB;label=32;scalar=64";
    class       volScalarField;
    location    "0.75/water";
    object      T.gas;
}
// * * * * * * * * * * * * * * * * * * * * * * * * * * * * * * * * * * * * * //

dimensions      [0 0 0 1 0 0 0];

internalField   nonuniform List<scalar> 
1503
(
355.197952131
323.919599162
310.357617852
304.274664376
301.815060971
300.396710549
300.017620142
300.000102445
300.000000073
300
300
300
300
300
300
300
300
300
300
300
399.110354823
335.62473343
312.275222258
304.365249426
301.577316694
300.575753179
300.188302961
300.022057293
300.000408654
300.00000051
300
300
300
300
300
300
300
300
300
300
402.562235168
335.693929747
311.510594322
303.716208487
301.206226569
300.398440335
300.132052117
300.034400157
300.002738109
300.000026068
300.000000009
300
300
300
300
300
300
300
300
300
401.351990771
337.238326937
312.419807131
303.953093022
301.227878715
300.378467476
300.116294625
300.034963865
300.006246501
300.000229557
300.00000076
300
300
300
300
300
300
300
300
300
397.876964041
337.349924635
313.155350989
304.338917375
301.369977734
300.422812813
300.128353356
300.038105761
300.010900843
300.001058826
300.000013303
300.000000004
300
300
300
300
300
300
300
300
392.936655459
336.159743392
313.226022588
304.516650345
301.462839341
300.461005983
300.143487532
300.043677864
300.012954108
300.00265883
300.000096945
300.000000537
300
300
300
300
300
300
300
300
389.95934898
334.941074746
312.945261347
304.510056401
301.48469183
300.4752551
300.151541474
300.047777539
300.014624953
300.004427895
300.000463144
300.000005421
300.000000001
300
300
300
300
300
300
300
389.86741548
334.360331216
312.602340623
304.40291789
301.464987359
300.475003527
300.154821361
300.050535787
300.015886671
300.00491042
300.001210308
300.000040861
300.000000032
300
300
300
300
300
300
300
390.133005937
334.45155754
312.650265927
304.431847234
301.485117276
300.48610125
300.161376698
300.054361312
300.017513483
300.005346906
300.001695975
300.000205321
300.000001115
300
300
300
300
300
300
300
390.242895154
334.643756805
312.808813397
304.531944223
301.537321104
300.511412888
300.173371454
300.060303068
300.019965988
300.005991443
300.001807208
300.000537238
300.000018467
300.000000014
300
300
300
300
300
300
390.358749198
334.699202736
312.863205556
304.601682364
301.590743714
300.542948842
300.189552675
300.068225623
300.023347133
300.006940296
300.001964433
300.000622141
300.000096516
300.000000661
300
300
300
300
300
300
390.558333615
334.333870277
312.64688589
304.540535515
301.596323106
300.561419825
300.203924767
300.076396903
300.027261852
300.008180909
300.002190951
300.000637181
300.000220857
300.000009811
300.000000008
300
300
300
300
300
390.626858919
333.464346485
312.064867892
304.29989788
301.528284103
300.553274472
300.209050131
300.081918064
300.030668386
300.009531238
300.002465009
300.000656998
300.00021476
300.000036306
300.000000221
300
300
300
300
300
390.728769353
332.845547734
311.609010909
304.066821619
301.440254573
300.52999095
300.206703511
300.084271496
300.033052169
300.010757545
300.002760942
300.000678382
300.000199519
300.000065777
300.000001821
300.000000001
300
300
300
300
390.628434887
332.471438474
311.281001452
303.883898888
301.358045714
300.500825617
300.19951119
300.084157272
300.034448271
300.011752871
300.003038927
300.000696924
300.000183679
300.000065829
300.000005234
300.000000007
300
300
300
300
390.472199369
332.316594644
311.092248345
303.765288548
301.298004514
300.476334217
300.192210378
300.083357885
300.035470238
300.01266183
300.003324796
300.000717801
300.000168131
300.00005325
300.000008324
300.000000037
300
300
300
300
390.15333331
332.2615143
310.986967921
303.68998981
301.258666127
300.458923029
300.186649788
300.083136473
300.036784622
300.013760558
300.003696762
300.000753012
300.000154181
300.000040838
300.000009683
300.000000115
300
300
300
300
389.355856427
332.003944669
310.800966082
303.579318217
301.202601953
300.436025361
300.180513815
300.083574342
300.038774695
300.015319009
300.004268867
300.000827979
300.000145628
300.00003058
300.000008009
300.000000275
300
300
300
300
387.298263354
331.963307832
310.903230739
303.541010863
301.151786044
300.412719245
300.17585255
300.085711886
300.042007087
300.017623676
300.005172114
300.000989364
300.00015499
300.000026237
300.000005069
300.000000384
300
300
300
300
387.181313523
332.563911441
311.316054323
303.651899385
301.15667975
300.410436683
300.17992111
300.091793543
300.047154851
300.020837001
300.006440819
300.001265435
300.000196906
300.000030434
300.000004922
300.000000389
300
300
300
300
391.953441935
334.76820798
312.288861596
304.050804236
301.295756253
300.457694461
300.200491792
300.103686651
300.054596494
300.024979647
300.008112363
300.001674437
300.000269421
300.00004185
300.000006504
300.000000561
300
300
300
300
397.674233227
337.130841091
313.376345129
304.576301807
301.521661171
300.543491302
300.23443099
300.120082281
300.063758085
300.029860079
300.010061786
300.002189341
300.000367819
300.000058931
300.000009063
300.00000096
300
300
300
300
399.318826393
337.831288135
313.75920084
304.829236575
301.666049639
300.611938958
300.26564848
300.136153217
300.073237672
300.034960249
300.012105128
300.002748
300.000485817
300.000079402
300.000012156
300.000001351
300
300
300
300
399.781704329
337.993201904
313.882141261
304.915721275
301.727495978
300.648969195
300.286874831
300.149382929
300.082021561
300.039885439
300.014111397
300.003318947
300.000610398
300.000102393
300.000015638
300.000001743
300
300
300
300
399.815171312
337.878989205
313.832941046
304.898328082
301.734120065
300.66251934
300.299616691
300.159672236
300.089171135
300.044226497
300.016010341
300.00386479
300.000728954
300.000124469
300.000019269
300.000002235
300
300
300
300
399.971441276
337.559847882
313.633020515
304.814474335
301.71070724
300.66374439
300.307419167
300.16740526
300.094103063
300.047424529
300.017693301
300.004369285
300.000833476
300.000143784
300.000022627
300.000002815
300
300
300
300
399.829729235
337.038300067
313.266360817
304.672129579
301.671435818
300.66022858
300.312591167
300.172240845
300.097175216
300.049477619
300.019067926
300.004826258
300.000930258
300.000156239
300.000025166
300.00000337
300
300
300
300
399.794395476
336.173557799
312.685418223
304.435370729
301.602192835
300.647803887
300.313687218
300.173212686
300.098013129
300.05025695
300.019808416
300.005207741
300.00099469
300.000167713
300.00002785
300.000003765
300
300
300
300
399.506441612
335.815192197
312.410410931
304.282029168
301.545619859
300.634100032
300.311262121
300.171473858
300.09679305
300.04965116
300.019956197
300.005361927
300.001015596
300.000179554
300.000028465
300.000003835
300.000000044
300
300
300
399.424966676
335.700247519
312.32982165
304.231205542
301.522637089
300.626241681
300.306485929
300.168007378
300.094109013
300.048245339
300.019579386
300.005430596
300.001050196
300.000187936
300.000027573
300.000003329
300
300
300
300
399.280079478
335.632960722
312.328048769
304.251717006
301.53291705
300.627046469
300.301716471
300.163338164
300.090728519
300.046433673
300.019263502
300.005486399
300.001161431
300.000196121
300.000025965
300.000002122
300
300
300
300
399.308956799
335.404205603
312.242058365
304.255466463
301.545147563
300.628687461
300.297675991
300.158525857
300.087387181
300.045233242
300.01931914
300.006132421
300.001299536
300.000205885
300.000025156
300.000000988
300
300
300
300
399.246401339
335.04615354
311.979593799
304.15089657
301.509371571
300.612931155
300.288229305
300.152977149
300.085362125
300.045622047
300.020714689
300.00686149
300.001447872
300.000216471
300.00002403
300.000000168
300
300
300
300
397.203465903
334.921632992
311.888717286
304.041732568
301.429290479
300.564894733
300.264458344
300.143822022
300.083439907
300.046580401
300.022211917
300.007630153
300.001581888
300.00021712
300.000021542
300
300
300
300
300
388.962104654
332.527906324
311.167723127
303.647665187
301.19730684
300.459278107
300.226741833
300.13387239
300.082797474
300.048579914
300.024239636
300.008528045
300.001666754
300.000195247
300.000016462
300
300
300
300
300
379.128502616
329.200226375
309.661553659
302.76349616
300.80822463
300.337673541
300.19683037
300.129605115
300.085315625
300.052290779
300.027020862
300.009698085
300.001774592
300.000163332
300.000010709
300
300
300
300
300
375.278734877
326.955943009
307.324397069
301.677456804
300.541291424
300.284030083
300.191594649
300.135356119
300.092874005
300.058777174
300.031427807
300.01179002
300.00215701
300.000152526
300.00000766
300
300
300
300
300
380.677459424
325.985263902
305.507743917
301.304658666
300.47949318
300.286358093
300.205422396
300.150132517
300.105745272
300.068710104
300.038128827
300.015239952
300.003059137
300.000226638
300.000012237
300.000001128
300
300
300
300
300
300
300
300
300
300
300
300
300
300
300
300
300
300
300
300
300
300
300
300
300
300
300
300
300
300
300
300
300
300
300
300
300
300
300
300
300
300
300
300
300
300
300
300
300
300
300
300
300
300
300
300
300
300
300
300
300
300
300
300
300
300
300
300
300
300
300
300
300
300
300
300
300
300
300
300
300
300
300
300
300
300
300
300
300
300
300
300
300
300
300
300
300
300
300
300
300
300
300
300
300
300
300
300
300
300
300
300
300
300
300
300
300
300
300
300
300
300
300
300
300
300
300
300
300
300
300
300
300
300
300
300
300
300
300
300
300
300
300
300
300
300
300
300
300
300
300
300
300
300
300
300
300
300
300
300
300
300
300
300
300
300
300
300
300
300
300
300
300
300
300
300
300
300
300
300
300
300
300
300
300
300
300
300
300
300
300
300
300
300
300
300
300
300
300
300
300
300
300
300
300
300
300
300
300
300
300
300
300
300
300
300
300
300
300
300
300
300
300
300
300
300
300
300
300
300
300
300
300
300
300
300
300
300
300
300
300
300
300
300
300
300
300
300
300
300
300
300
300
300
300
300
300
300
300
300
300
300
300
300
300
300
300
300
300
300
300
300
300
300
300
300
300
300
300
300
300
300
300
300
300
300
300
300
300
300
300
300
300
300
300
300
300
300
300
300
300
300
300
300
300
300
300
300
300
300
300
300
300
300
300
300
300
300
300
300
300
300
300
300
300
300
300
300
300
300
300
300
300
300
300
300
300
300
300
300
300
300
300
300
300
300
300
300
300
300
300
300
300
300
300
300
300
300
300
300
300
300
300
300
300
300
300
300
300
300
300
300
300
300
300
300
300
300
300
300
300
300
300
300
300
300
300
300
300
300
300
300
300
300
300
300
300
300
300
300
300
300
300
300
300
300
300
300
300
300
300
300
300
300
300
300
300
300
300
300
300
300
300
300
300
300
300
300
300
300
300
300
300
300
300
300
300
300
300
300
300
300
300
300
300
300
300
300
300
300
300
300
300
300
300
300
300
300
300
300
300
300
300
300
300
300
300
300
300
300
300
300
300
300
300
300
300
300
300
300
300
300
300
300
300
300
300
300
300
300
300
300
300
300
300
300
300
300
300
300
300
300
300
300
300
300
300
300
300
300
300
300
300
300
300
300
300
300
300
300
300
300
300
300
300
300
300
300
300
300
300
300
300
300
300
300
300
300
300
300
300
300
300
300
300
300
300
300
300
300
300
300
300
300
300
300
300
300
300
300
300
300
300
300
300
300
300
300
300
300
300
300
300
300
300
300
300
300
300
300
300
300
300
300
300
300
300
300
300
300
300
300
300
300
300
300
300
300
300
300
300
300
300
300
300
300
300
300
300
300
300
300
300
300
300
300
300
300
300
300
300
300
300
300
300
300
300
300
300
300
300
300
300
300
300
300
300
300
300
300
300
300
300
300
300
300
300
300
300
300
300
300
300
300
300
300
300
300
300
300
300
300
300
300
300
300
300
300
300
300
300
300
300
300
300
300
300
300
300
300
300
300
300
300
300
300
300
300
300
300
300
300
300
300
300
300
300
300
300
300
300
300
300
300
300
300
300
300
300
300
300
300
300
300
300
300
300
300
300
300
300
300
300
300
300
300
300
300
300
300
300
300
300
300
300
300
300
300
300
300
300
300
300
300
300
300
300
)
;

boundaryField
{
    emptyPatch
    {
        type            empty;
    }
    minY
    {
        type            fixedValue;
        value           uniform 300;
    }
    maxY
    {
        type            inletOutlet;
        inletValue      nonuniform List<scalar> 0();
        value           nonuniform List<scalar> 0();
    }
    water_to_cooler
    {
        type            copiedFixedValue;
        sourceFieldName T.liquid;
        value           nonuniform List<scalar> 
37
(
300
300
300
300
300
300
300
300
300
300
300
300
300
300
300
300
300
300
300
300
300
300
300
300
300
300
300
300
300
300
300
300
300
300
300
300
300
)
;
    }
    water_to_heater
    {
        type            copiedFixedValue;
        sourceFieldName T.liquid;
        value           nonuniform List<scalar> 
61
(
788.769597937
788.721068908
788.455792079
788.456454379
788.328709561
788.328483632
788.265272833
788.266026442
788.250656381
788.251748917
788.24889036
788.247851233
788.2471969
788.246632452
788.245209898
788.244939861
788.239281469
788.238916434
788.227346751
788.227754826
788.213167031
788.212816894
788.198001013
788.198387014
788.183779034
788.183901161
788.170855953
788.170754588
788.159692579
788.160969792
788.152522433
788.152496656
788.143819484
788.141006723
788.137278244
788.137486706
788.134822902
788.134663774
788.133555318
788.133819129
788.133320342
788.133586343
788.132747483
788.132437455
788.13159879
788.131850737
788.132435671
788.13216463
788.134284345
788.134149599
788.136546013
788.1367105
788.141573552
788.141503935
788.150872981
788.154509862
788.176615963
788.17696306
788.198771948
788.194061454
788.229048387
)
;
    }
    procBoundary2to3
    {
        type            processor;
        value           nonuniform List<scalar> 
41
(
405.22738886
330.502404727
307.5318393
301.924400299
300.660106243
300.346412419
300.238349056
300.17462838
300.124751551
300.082849578
300.04765073
300.020320839
300.004574491
300.00040681
300.000027136
300.000003885
300.000000216
300
300
300
300
300
300
300
300
300
300
300
300
300
300
300
300
300
300
300
300
300
300
300
300
)
;
    }
}


// ************************************************************************* //
