/*--------------------------------*- C++ -*----------------------------------*\
| =========                 |                                                 |
| \\      /  F ield         | OpenFOAM: The Open Source CFD Toolbox           |
|  \\    /   O peration     | Version:  2312                                  |
|   \\  /    A nd           | Website:  www.openfoam.com                      |
|    \\/     M anipulation  |                                                 |
\*---------------------------------------------------------------------------*/
FoamFile
{
    version     2.0;
    format      ascii;
    arch        "LSB;label=32;scalar=64";
    class       volScalarField;
    location    "0.845/water";
    object      epsilonm;
}
// * * * * * * * * * * * * * * * * * * * * * * * * * * * * * * * * * * * * * //

dimensions      [0 2 -3 0 0 0 0];

internalField   nonuniform List<scalar> 
6000
(
16.6892062174
2.60411148062
0.335305104224
0.0403579618
0.00554429102355
0.000854815996942
0.000219674278219
0.000100580043455
6.74258455314e-05
5.55877573231e-05
5.06329427884e-05
4.83328620596e-05
4.71719756924e-05
4.65354622286e-05
4.61574309095e-05
4.59180004746e-05
4.57602094831e-05
4.5654742617e-05
4.5585060286e-05
4.55411714756e-05
552.575472729
105.124731198
17.5920791278
2.58933216202
0.325257380605
0.0392608534078
0.00557246905724
0.000898335881677
0.000220226911837
9.86429366609e-05
6.65680400651e-05
5.52251643961e-05
5.04771711411e-05
4.82711731223e-05
4.71505726558e-05
4.65257260956e-05
4.61451551532e-05
4.58981922765e-05
4.57337721892e-05
4.56264272165e-05
771.424724453
180.008104665
40.1773787012
8.19737339197
1.39978559092
0.19189175708
0.0244843327108
0.00369690916165
0.000681559828015
0.000199415812869
9.81917261253e-05
6.79345152007e-05
5.63504129892e-05
5.12474071817e-05
4.87961422978e-05
4.75247541599e-05
4.68060712832e-05
4.6363481446e-05
4.60741690546e-05
4.58826682594e-05
983.658810201
244.087047812
60.7411086119
14.8101284321
3.25931101605
0.57923759535
0.0805096705674
0.0109236264011
0.00177831114117
0.000398369438714
0.000150428460547
8.70043073495e-05
6.48452177854e-05
5.54771369467e-05
5.10772089419e-05
4.88635144523e-05
4.76713583246e-05
4.69759316078e-05
4.65381211004e-05
4.62506295528e-05
1068.14887936
280.92900422
75.1244758176
20.2900481658
5.23192695365
1.17439499503
0.203168708259
0.0281773342237
0.00415819303939
0.000769632021976
0.000231368380887
0.000113203661631
7.59044512328e-05
6.08799406158e-05
5.39485736297e-05
5.05004258069e-05
4.86856903581e-05
4.76677254292e-05
4.70529528375e-05
4.66589604645e-05
1037.04675386
290.866816654
83.4826075399
24.3426521889
6.95730886615
1.82712201871
0.396517927493
0.0646874004035
0.00928555364519
0.00147835651105
0.000357504594054
0.000148334386067
8.96310198645e-05
6.73794583641e-05
5.73559673474e-05
5.24057231953e-05
4.98226165644e-05
4.84048953013e-05
4.75771293419e-05
4.70627086634e-05
975.848277357
287.274099025
87.0057943113
26.7870067261
8.18499570282
2.39294232214
0.61811327346
0.125872935937
0.0200474609387
0.00293651756467
0.000566382916874
0.000196396348822
0.000106487600835
7.49705638328e-05
6.12550119322e-05
5.45556404795e-05
5.10728638283e-05
4.91800909238e-05
4.80992497751e-05
4.74461762632e-05
971.287979042
289.737377068
89.5058242215
28.262348934
8.99765163031
2.83263286054
0.839039748333
0.211719379523
0.0416076715944
0.00637102546649
0.000968432118303
0.000267820833908
0.000127854616605
8.3848346361e-05
6.56580836579e-05
5.69474703158e-05
5.24426704864e-05
5.0004022239e-05
4.86277691127e-05
4.78147223139e-05
1007.68509496
299.758705958
92.1950494633
29.317653069
9.59473277276
3.20380977817
1.05428096488
0.319109222614
0.0815846735919
0.0154943442959
0.00200069233645
0.000397051706957
0.000157901898727
9.47190991954e-05
7.07119645843e-05
5.96237816844e-05
5.39573586921e-05
5.08998205351e-05
4.91840302002e-05
4.81842693932e-05
1102.40542252
318.295229863
95.6315757786
30.4258175554
10.2054440279
3.56908115951
1.27350020604
0.445835432484
0.143778189621
0.0380302339556
0.00550843561324
0.000713682326732
0.000209201336579
0.000109456419191
7.6804023982e-05
6.26953611896e-05
5.56666137851e-05
5.18988483745e-05
4.97904652915e-05
4.85717555146e-05
1206.85281801
335.148340252
99.7576135604
32.0260354585
10.9861120832
3.980190472
1.51382356177
0.589695389095
0.228742744302
0.0821745531865
0.0177962788143
0.00181145793422
0.00032190914238
0.000132583769237
8.4720015036e-05
6.63534052237e-05
5.7632049653e-05
5.30294151708e-05
5.04652353277e-05
4.89895776175e-05
1216.44852673
341.189531211
102.748052484
33.4835922971
11.749722747
4.40205320228
1.7564252519
0.744123354211
0.328647686313
0.148723968273
0.0505615760673
0.00629780477178
0.000642889834166
0.000175332540044
9.59808804505e-05
7.09260239666e-05
5.99476560048e-05
5.4324694035e-05
5.12215782609e-05
4.94439639841e-05
1210.03646454
341.828617732
104.011613308
34.3732122651
12.3136991168
4.7563716765
1.97792577108
0.891169941283
0.430351751914
0.227061664565
0.108118908521
0.021702052933
0.00173475584546
0.000267802985741
0.000113564413967
7.69769446622e-05
6.27699810564e-05
5.58331450058e-05
5.20725568377e-05
4.99381352993e-05
1208.35596591
341.812829162
104.473406403
34.8294953333
12.6576549723
5.00752217172
2.15490429073
1.01225476837
0.521594087702
0.303623361418
0.180494243651
0.0578291456201
0.00511436233631
0.000476237483481
0.000142273880311
8.54298229893e-05
6.63748413378e-05
5.7639333718e-05
5.30424823584e-05
5.04805249908e-05
1207.55744722
342.570158652
104.707377932
34.96494069
12.8082697591
5.15670026528
2.27833969003
1.10376471792
0.594583503025
0.37064029168
0.251421629608
0.112276770987
0.0143591201524
0.000958601794823
0.00019178917654
9.80448811323e-05
7.12519573006e-05
5.9889404445e-05
5.41813493736e-05
5.10942743413e-05
1224.28783537
346.490033112
105.586338696
35.1522498045
12.9039476476
5.24793661207
2.35798191132
1.16689790899
0.648946616253
0.428356499373
0.314099806839
0.173284996836
0.0360311642956
0.0020081102472
0.000285124545987
0.000118661961571
7.82151981397e-05
6.28152007218e-05
5.55761710755e-05
5.18228966835e-05
1255.25700291
354.95769377
107.790625854
35.7661766925
13.1098075056
5.33713333274
2.40906695195
1.20923631767
0.694561261663
0.482831104738
0.37098943494
0.23344620544
0.0726694392232
0.00558088205035
0.000514239205458
0.000155797504063
8.86700003578e-05
6.67744300712e-05
5.73572862367e-05
5.27297735471e-05
1310.20515426
368.620419136
111.790880607
37.0085950285
13.484050642
5.43606589703
2.4387869322
1.23907610936
0.738110449169
0.534391245088
0.427710910101
0.295426651821
0.122289542465
0.0170188341621
0.00113396424476
0.000229144814924
0.000105250790691
7.23238153012e-05
5.97018741087e-05
5.38927069947e-05
1371.99857773
385.504135711
117.046670253
38.7974573656
14.022487759
5.54881006054
2.45297391226
1.2597896882
0.777337272348
0.579298046172
0.485342048492
0.363185654679
0.187475310885
0.0441235696231
0.00326718700724
0.000398321641332
0.00013362654444
8.03632919032e-05
6.2839452819e-05
5.53973856415e-05
1375.10084956
396.561500457
123.39274058
41.2370706346
14.6293258655
5.58931355584
2.41961098818
1.2609162198
0.80216981166
0.602369153242
0.511922259848
0.433531174297
0.271865373755
0.0975335016974
0.0116068220446
0.000841604210481
0.000185650290338
9.23051139379e-05
6.70580062213e-05
5.73342733437e-05
1344.7396758
411.0342593
132.077092635
43.7629715322
14.9331906791
5.47276285779
2.36815177594
1.25949155575
0.803966526649
0.597404290804
0.506542175444
0.456358621255
0.359425381212
0.180846014702
0.0374723702899
0.00215799191
0.000287906085296
0.000110331143612
7.26986809798e-05
5.97975727071e-05
1436.45435501
447.590350386
142.497072764
45.6840531456
15.1231276176
5.51349575786
2.40914445297
1.27260092792
0.79636453503
0.579538044081
0.484524585025
0.443078062085
0.387377485868
0.267169623695
0.0904739973373
0.0065927390748
0.000508620973406
0.000138382087019
8.02418535333e-05
6.29028172046e-05
1691.10151339
503.683881664
152.509300664
47.621436015
15.9380667814
5.93317581924
2.5743489576
1.32317371667
0.800144529264
0.568072245046
0.466632929637
0.422956004247
0.384059807686
0.312571216363
0.157827083797
0.0197669821194
0.00101406741213
0.000183733534677
9.04370235854e-05
6.68088526739e-05
2026.81906888
559.867433373
162.911362835
50.9139165086
17.4578705114
6.64326433783
2.85946874191
1.42105837555
0.827645285931
0.575394324106
0.464250415168
0.411762521228
0.380439605202
0.327178370325
0.213858821284
0.047034724819
0.00220478565042
0.000259672526838
0.000104415323782
7.17228662945e-05
2187.14326728
593.835666705
172.467864918
54.5258474298
19.0058654474
7.33334451068
3.15242295049
1.53529892086
0.875134064335
0.601818020769
0.476715547637
0.413200172481
0.383532590234
0.342249163815
0.256145685343
0.0858317989966
0.00494666423123
0.000391701521343
0.000124126034065
7.79472838615e-05
2237.84832411
610.613648298
178.807639999
57.0919132215
20.1272220919
7.85484134214
3.38962212353
1.64273140994
0.935989802515
0.64014537133
0.499432365867
0.427701131599
0.397183172282
0.367592387741
0.296524912917
0.130354583056
0.0112367831933
0.000639601230729
0.000153522352481
8.59871905064e-05
2253.63808
618.662848091
182.706126996
58.7462304111
20.881988478
8.2286131747
3.57803754458
1.749026574
1.00749561552
0.684161875722
0.530331806645
0.455620710428
0.426274578305
0.40932581928
0.346012382625
0.180328404228
0.0251844278203
0.00114447515703
0.000200070316608
9.66598295029e-05
2285.91138516
624.840160662
185.040383695
59.707436099
21.3816647321
8.51176812758
3.74447646872
1.86118473649
1.08312649846
0.730130980744
0.568220012105
0.495934422819
0.472935273771
0.470601636928
0.408097261725
0.240104526242
0.0518150660139
0.0022912239069
0.000279656835064
0.000111427824918
2325.92687467
635.598049635
187.971681471
60.748375846
21.8781649987
8.78588655013
3.90929132098
1.9744044517
1.15262679469
0.775109283597
0.611919029273
0.547374361778
0.535011764641
0.546913435072
0.481033419423
0.313933539178
0.0952649886365
0.00535525849089
0.000430924204573
0.000133092334129
2385.11348149
648.716370348
191.691992177
62.0041556147
22.4065919426
9.04722469935
4.06083602309
2.07182085423
1.20596827784
0.815926367024
0.659760028236
0.608350355775
0.608690814338
0.62423123629
0.55363965318
0.403791013778
0.157102208019
0.0138730814437
0.000737465604922
0.000166410968886
2425.78608395
661.728206158
195.895871002
63.4585419008
22.9608327096
9.2825881952
4.18402533563
2.13579057065
1.23763695442
0.850718623641
0.709964224795
0.676704988048
0.686455142459
0.685927984603
0.619793145327
0.473527874078
0.231602801428
0.0334369012696
0.00137245355898
0.000219509006167
2470.56704415
672.400442781
199.670535988
64.9005621088
23.5024988643
9.48024452239
4.26111783534
2.15417339359
1.24771354635
0.879172929029
0.760062982609
0.747764553291
0.756779941425
0.736404568257
0.680627854466
0.534099468995
0.305924615173
0.0669800608094
0.0028093297633
0.000310539711948
2505.47034058
679.761119343
202.399103563
66.1129771053
23.938730888
9.58651553976
4.24923230036
2.11443643538
1.23569201779
0.899182592349
0.803244274875
0.807503263294
0.806387607726
0.780154334367
0.734152724343
0.592987712281
0.374632850662
0.113025206636
0.00649523181736
0.000481321130055
2538.22968868
683.416441167
203.854020885
66.9906925237
24.2035541032
9.52780844187
4.10670521057
2.01601095564
1.20379232615
0.905333952683
0.826425337929
0.832973703844
0.831029942164
0.814942952889
0.777100934418
0.649994134836
0.442374860496
0.170081483246
0.0157847833709
0.000815243215478
2497.60803933
670.749656394
201.95274213
67.2168524377
24.1305159267
9.18679669877
3.81962113219
1.87490686591
1.15535242861
0.887946889467
0.809907151261
0.811441181155
0.828016325834
0.828722643965
0.802825179869
0.702621656864
0.51872998791
0.239160344747
0.0354352352375
0.0015049148978
2266.47336265
626.99798923
196.762375717
67.1090821757
23.586598763
8.52171938538
3.43998023369
1.72191467514
1.09213706008
0.838859870981
0.753554939295
0.755512278325
0.79124998152
0.80767690992
0.799193684013
0.744330353902
0.597405917721
0.321575751296
0.0694938451099
0.00315217915136
1864.75361441
576.25331066
195.21182591
67.3838274212
22.4441595867
7.74644243089
3.13337212809
1.60485529648
1.01955767337
0.767060750997
0.676623151203
0.674593740516
0.714089867564
0.740321139828
0.749302933366
0.751787239877
0.65990114024
0.408589058139
0.119120948181
0.00760778984415
1707.58005222
598.084837247
208.591354689
69.7010800964
22.4463140759
7.57066088724
3.03341014623
1.53805539561
0.950990318826
0.689971708941
0.587593932866
0.568037615126
0.595460349112
0.623586329286
0.643437874784
0.695393464513
0.665122769727
0.455658936747
0.17699217255
0.0188909481173
2068.99049233
732.879809165
242.531818574
77.2036189617
24.5152874991
8.34205037682
3.28537998842
1.58127533001
0.916694263957
0.624799771866
0.498983784847
0.454128618464
0.454613477089
0.476226810578
0.503620255573
0.577696505869
0.605195132437
0.452994016065
0.224216667647
0.0409700147105
3109.71250981
970.662256113
285.811963483
90.0881156132
30.5830700959
10.9812579677
4.20000198164
1.83641229681
0.960917767292
0.59916884648
0.440831312534
0.370023109733
0.341247755882
0.343219187937
0.370762746205
0.442612335471
0.507837711123
0.421523290235
0.250514288598
0.071801770518
4394.75064682
1191.07853886
359.626440607
120.533904149
44.6335969006
16.8267152802
6.10798410093
2.39440667907
1.1217153608
0.636558935322
0.430843571893
0.333641768589
0.279622218303
0.259669797709
0.274725563317
0.337877382426
0.41514065293
0.383782905316
0.255980670252
0.104710262189
4389.00512184
1204.73880658
395.770512906
150.842907798
63.910679651
26.9083428394
8.98867912395
3.23521577337
1.39827466331
0.738139200609
0.468562019509
0.34142146307
0.265699549407
0.225731737128
0.226982815759
0.278418830456
0.35458559978
0.358803766364
0.264195239726
0.137394881434
3830.16668569
1079.70116797
364.003141989
146.518243915
68.5666591845
33.4518046167
12.1317710265
4.29243227858
1.76942983201
0.889744325026
0.54129172837
0.379058981676
0.283052873245
0.226355791504
0.214374672099
0.252718424212
0.330227705414
0.355145333357
0.284353448823
0.172954933239
3495.64627534
984.042978846
330.814504951
136.109361153
67.2848719303
35.3290722898
13.5222263054
5.04005240198
2.1192092919
1.0574405539
0.63127490378
0.432099878057
0.316700062115
0.247239379918
0.22405405865
0.25283168944
0.333481002896
0.371583958826
0.316968452429
0.21497220137
3367.88382899
942.435087245
312.299424029
127.446099743
63.4059214876
33.0862918537
13.0555915802
5.2109758631
2.31385066319
1.18886461457
0.716019917693
0.487298659949
0.355566298051
0.277698755257
0.247461986367
0.27056605015
0.354094934722
0.402244838035
0.359477128373
0.261773350473
3383.32199074
944.943853942
307.478736424
122.236711501
58.850974727
28.0933237398
11.7505813371
5.07765795846
2.40250928805
1.28882128941
0.791908584875
0.539428564231
0.39527815655
0.312811244032
0.278877526737
0.299436016991
0.385788736858
0.440454390322
0.409271636724
0.307701152083
3527.15376388
987.073093653
318.588199454
122.826733225
55.7182926189
24.632959609
10.8777662716
5.00215362182
2.48698990992
1.38420055172
0.861956779088
0.586879775131
0.435174445159
0.351590895456
0.316338867121
0.336042199851
0.424271216401
0.482759026061
0.465526974414
0.360098649482
3730.10443281
1051.01107027
335.882671907
125.045643334
52.6779353303
23.4961217211
10.7671424396
5.12685064183
2.62348911187
1.48673348976
0.924566096618
0.630066304317
0.476596105318
0.39490767819
0.359584832029
0.379141487855
0.466887783525
0.528215665927
0.529412795809
0.426139251754
4019.64576271
1136.52152769
359.548987334
130.194947144
53.7284226207
24.1249578742
11.219184379
5.415652813
2.80882626827
1.58785132019
0.976017371063
0.670973530203
0.521790852806
0.444238766439
0.409270407659
0.428291243505
0.512321501082
0.57774210981
0.603041383832
0.512016522656
4402.04517118
1231.20063926
381.256250224
137.12292598
57.2060183166
25.5028281901
11.8456265354
5.75805642844
2.99078544245
1.66298624638
1.01439924091
0.711768564522
0.572717116153
0.500792597043
0.46571325236
0.483191039039
0.559765968999
0.632605998748
0.687472679053
0.61949711973
4960.54573478
1336.48266517
411.850264878
150.438569757
60.9039430129
26.599663891
12.2951224514
6.01442401335
3.09529479544
1.69065960686
1.03864289449
0.754087809744
0.630087088167
0.564212809258
0.528147447356
0.542851550824
0.607997882548
0.692631063548
0.781861142025
0.747174585754
5546.22070977
1431.22267893
447.542498158
158.440779494
62.240372657
26.7101380469
12.3569616998
6.04236617617
3.05826665545
1.6625494613
1.05003122056
0.798419809871
0.691981795655
0.631857284985
0.593416658909
0.603066480442
0.654746233874
0.755248448933
0.884671175243
0.892195443743
5862.0278555
1487.50733412
452.580214199
156.77670016
60.5252526835
25.8145132915
11.9418183682
5.75275077432
2.86988487897
1.58704414282
1.05321303126
0.842710362293
0.753006689464
0.697562973613
0.656392663136
0.65807308774
0.696882148305
0.814670727568
0.989811205142
1.04823556775
5782.63882299
1457.33005592
439.378418632
150.291025854
57.4727907017
24.3831974715
11.0616333974
5.18919644023
2.59165343653
1.49471347143
1.05501081239
0.88155894969
0.803903135935
0.752784254033
0.709757119857
0.700836948482
0.731050660066
0.859002807137
1.08065674215
1.19924910299
5479.69509688
1376.98292912
412.627915814
140.242093372
53.4516458692
22.2491618255
9.76674525744
4.5193659006
2.31710485318
1.41860268355
1.05599413188
0.904306237909
0.832876940506
0.786070785467
0.74471694997
0.723532907617
0.747053554916
0.872395901737
1.12814305159
1.31630674825
4872.51351338
1220.42913367
369.232397695
127.268666411
48.3119119131
19.5886181437
8.44863420418
3.9693738904
2.1373529478
1.37627985466
1.04709437197
0.898147041761
0.826586143533
0.784670968652
0.748760775282
0.718018050296
0.723704004341
0.843077094426
1.10086327618
1.36609286328
3745.9388193
1015.06257904
324.858957273
115.040325579
43.3167221327
17.3697706414
7.63582098654
3.77989794025
2.12218109476
1.36847849904
1.01721203074
0.852074674481
0.774548533639
0.735704798833
0.708111937569
0.674971038522
0.664769238736
0.76142417905
0.98805467822
1.30607066513
2811.77154444
888.727409378
307.546031334
110.173143285
41.8754111764
17.3871379163
8.10627495738
4.15650896976
2.2805422845
1.37943424829
0.957725216027
0.763786004406
0.674936880167
0.635304519879
0.615236231696
0.589631435387
0.572148873813
0.622240659957
0.81007715649
1.11798414692
2760.18067004
966.413529585
339.318034086
122.616965572
47.3493088042
20.8383790761
10.3583746141
5.34601435666
2.7191522109
1.45800328572
0.899180059186
0.65675519602
0.549374170037
0.50198463462
0.483311332283
0.469685368482
0.45439991139
0.471839365569
0.598351634209
0.850898557799
3555.87760578
1212.66698194
396.907474782
139.596827687
56.7051774455
27.6069208657
15.028981192
8.0066252863
3.81092555755
1.75642477185
0.91053357036
0.576594155858
0.438424880506
0.37658389418
0.350420974181
0.341188168532
0.332552794269
0.337974980063
0.403054681164
0.593932394195
4601.26159009
1395.27082641
444.255591486
159.312994152
67.8955016083
35.6062168021
21.2025566489
12.2398196646
5.8837598089
2.41337928643
1.05413589079
0.563434584694
0.377695088406
0.296567056793
0.256324673947
0.239870735926
0.233895780667
0.236787911143
0.273000162029
0.403798653422
4507.41420624
1254.55429279
411.053465017
158.651553076
74.4000828169
42.3961493598
27.5914105545
17.6846980904
9.12598686116
3.43684157136
1.33711909157
0.627932769086
0.375742992244
0.270604238494
0.213721437829
0.183839602901
0.173779347394
0.174743259136
0.197713127447
0.282590052478
3892.9034875
1090.80763952
359.16126542
143.219743839
71.6814659462
44.2526821521
31.3271022197
22.4608518301
13.3023715848
4.79901264789
1.74073841705
0.753814567006
0.419166367882
0.284738442226
0.210702880442
0.16642857249
0.148328278045
0.145903891693
0.160742411781
0.220322022072
3500.20052348
974.95801417
317.190143661
127.841165454
66.6262902765
43.5884670991
32.7781745073
25.1054529876
16.356906419
6.3244072561
2.26338147884
0.930084236524
0.491988908353
0.322233044048
0.230643891201
0.173129243012
0.14608661134
0.13919652725
0.147816414811
0.19361048532
3281.00611239
905.422926169
291.015928255
116.920511943
61.8111516172
41.710220068
32.5501159044
25.8691478128
17.5020372022
7.20697226043
2.69995561834
1.11899938316
0.5801954596
0.371822823987
0.262411615896
0.193441191361
0.157808746229
0.146283688457
0.149944097652
0.186414372203
3107.99339265
858.837590616
274.396729987
109.348041591
57.6619347631
39.2569197788
31.1382079736
25.0767094968
16.9508388496
7.32591697503
2.9057711612
1.25378656752
0.660099622658
0.423137296963
0.298683634791
0.220839138979
0.178292204087
0.162583859059
0.162427372529
0.191780940268
2963.96147029
821.493663599
262.673698902
103.994166054
54.2407105724
36.6752729984
29.0545998959
23.2352176337
15.2457605794
6.88716518223
2.90973546374
1.3279904028
0.725035796089
0.472407618506
0.337029881198
0.252652119344
0.205062702211
0.185639085429
0.182824416989
0.2074360594
2821.74766166
788.953261357
254.322991047
100.498674303
51.6273480385
34.2264258804
26.6457729216
20.7693384333
12.989589795
6.16973471353
2.78742654274
1.35581773131
0.776247266109
0.519304831074
0.377486253265
0.28878222983
0.237695068169
0.214996438705
0.210127439425
0.231480376951
2695.92904964
761.082071933
249.386454005
98.8603370034
49.7837877849
31.9515568962
24.0266323031
17.948492548
10.7244744432
5.377129581
2.59872101514
1.35246693128
0.817280130004
0.565237430889
0.421281324246
0.330257896072
0.276741994131
0.251276614217
0.243812945256
0.262337569471
2587.38167242
742.727579327
248.655922736
98.4418409754
48.1761966448
29.6032859026
21.1666770122
14.9410026953
8.76575031073
4.61678119779
2.38382751207
1.33121274719
0.852599525095
0.612482347773
0.470217896074
0.378577099122
0.323162286735
0.294524675317
0.282754971227
0.297371103624
2524.04885413
744.919801801
252.556525458
97.7920696009
45.9561210724
26.9032056271
18.1709250733
12.0372338531
7.13635859795
3.94214768311
2.17305368969
1.30405881234
0.887062728039
0.663803632586
0.526426800685
0.435334843077
0.377659035679
0.343955425701
0.324489084002
0.331369510331
2753.23478882
776.851697088
255.552609029
94.5962432666
42.8007113206
24.0252622034
15.3358512474
9.74393566085
5.8602524366
3.37962658377
1.98733723011
1.28186689608
0.925486364355
0.722679610887
0.592406103543
0.501816057022
0.440049482621
0.397255091253
0.363569328449
0.356825360611
3638.24850211
889.383152323
267.944970224
92.5914833341
40.0655461945
21.5764012476
13.0713022372
8.07507001852
4.88872790675
2.92904425173
1.83889517813
1.27336814831
0.973039625941
0.794208843842
0.671347992674
0.578712575325
0.508072838644
0.449185435086
0.390183082587
0.36642705997
4566.5616016
1076.96061363
308.158417218
100.681792693
40.533817461
20.16215408
11.4492356181
6.84700850129
4.15395499052
2.58867733164
1.73413656581
1.28410375572
1.03851621942
0.887372199526
0.768375538721
0.665329397043
0.575235822651
0.482428169379
0.395412160309
0.358462733747
4464.61356789
1152.22089007
336.778702802
109.976590789
42.2247459036
19.4371866064
10.3098269255
5.94928018312
3.62655832155
2.35801445292
1.67727174529
1.32120696296
1.13841717671
1.01765660183
0.891808532552
0.756699948822
0.615514825665
0.479664584483
0.377626597914
0.332289094229
3803.95576211
1092.15955757
337.40554908
113.5991395
43.0305189609
18.8925019867
9.52425084727
5.35757019606
3.30153342299
2.22960388404
1.67033056576
1.40372057116
1.29505698603
1.20752078234
1.05035132747
0.830422476095
0.598311854964
0.445820197665
0.341973746384
0.289700333477
3524.98529818
1059.85997036
337.877065614
115.40475647
43.9553933656
19.140945163
9.44796816348
5.22713015793
3.23279508064
2.23296069636
1.74228047527
1.55458537632
1.52452493694
1.46715611189
1.21574473785
0.834570620567
0.552209307961
0.396351594296
0.296420446675
0.23988405998
3952.1437328
1145.16551608
357.00991055
122.924142743
48.5833301478
21.8818549633
10.8518654261
5.89554923044
3.56073136717
2.43652739626
1.92551944979
1.77330881426
1.78932697486
1.67297099047
1.25937993756
0.803548261788
0.508371851152
0.345644227875
0.251417595354
0.194319316533
4198.4605712
1205.52501423
381.560250182
137.643160802
57.6529021816
27.2137306853
13.8402328097
7.4758170599
4.36158679242
2.86609052672
2.20290781288
1.98499321601
1.88690258107
1.62764630393
1.20619303843
0.782207842605
0.481852254065
0.308622457301
0.214611088301
0.161321778212
3930.27258599
1167.69472204
387.191955788
147.318883686
64.6903444744
31.7422109934
16.6909612251
9.16861559967
5.29510590068
3.3543573885
2.44207391149
2.03475220492
1.78616639202
1.51766253621
1.15841220874
0.771126050538
0.470478148374
0.290553891538
0.194505589023
0.142771371245
3530.28968408
1074.78618924
365.789116587
142.901509622
64.450181904
32.615248779
17.6916523771
9.94359396121
5.7822020262
3.60133671211
2.51211840156
1.97562897584
1.68369000146
1.44867090747
1.12967028669
0.759681988992
0.463811766432
0.284190665617
0.187466522738
0.135684780028
3179.26532517
972.165738795
332.823000682
130.857732667
59.5959979956
30.6816657376
17.0361832422
9.74310652631
5.70602148415
3.55008667201
2.44537527746
1.89110404392
1.60408980227
1.38442377284
1.08572458821
0.73162151921
0.449877895815
0.278871606465
0.185728314672
0.13507915737
2904.12782955
885.773063212
300.672221433
117.318070981
53.3143057992
27.6812864246
15.6017232347
8.97596370831
5.27087087406
3.30023525035
2.2843724053
1.77012274123
1.5011237398
1.28908659048
1.00531307363
0.676720842754
0.422771871106
0.269918452386
0.185463063889
0.137995876756
2746.74764215
830.294429656
277.518090848
106.196559714
47.4406596266
24.4468395075
13.7253370487
7.82285835353
4.59910982597
2.91558821146
2.04665970676
1.60290588792
1.36196008602
1.15924660702
0.892543377414
0.602916807361
0.388641575659
0.260206221044
0.186843671913
0.144317862759
2659.19157725
799.26258964
262.121838292
97.5559383313
42.2801211737
21.1996280577
11.5289619414
6.45299056804
3.8220580166
2.47380403376
1.77387597907
1.41160058958
1.20181019739
1.01057985237
0.769362983899
0.529198431216
0.357985438522
0.253994507093
0.190812506352
0.15439480792
2672.14496232
791.701490664
254.215871481
91.5759495105
38.0475333666
18.0357838973
9.30125017124
5.14878353763
3.10200314865
2.0603245293
1.51384159541
1.22467655989
1.04283672698
0.86689438032
0.659683321477
0.469498911238
0.336509006988
0.251891712047
0.198702572857
0.166833580664
2767.10583366
803.690962777
252.853866358
88.2695487868
34.6976776202
15.09092073
7.42092262756
4.11610376658
2.5332771001
1.72517988378
1.29664391529
1.06279304914
0.903791417702
0.746886715067
0.575413588795
0.427449159628
0.323265185817
0.253188819231
0.208238416602
0.17943304581
2933.278298
829.089639026
255.069517112
87.0227526348
31.9773654409
13.0782402964
6.18166547815
3.43143229592
2.14363209666
1.48623454297
1.13517180981
0.937115352848
0.795079831544
0.65691976074
0.516154614607
0.398828069262
0.313376267531
0.255532180483
0.216143815412
0.190201367538
3027.72105416
862.518482411
263.55314017
88.8340134131
31.7834615902
12.5019434249
5.76762241798
3.13121368013
1.94591880861
1.35196978367
1.03526610378
0.852283705132
0.71862776966
0.59361173254
0.474272068782
0.375520081076
0.304947604571
0.255229603006
0.220969479081
0.197600331548
3109.46585282
911.951730816
282.880671874
96.1967848656
34.6216222481
13.4918694916
6.13434699296
3.24931398958
1.9666218709
1.33586028682
1.00309883466
0.810496642563
0.672233118593
0.550138337822
0.441737742152
0.356530496528
0.295894684733
0.252858149148
0.223006843153
0.202026968537
3365.58777619
1011.83917043
317.048892225
110.581342042
40.8582274629
16.4252618833
7.52840119109
3.89620361105
2.25841088078
1.46081456679
1.04726831083
0.812694554768
0.653762381101
0.525299661693
0.421041875638
0.343538139771
0.289311036443
0.251526364597
0.225039469633
0.206297326506
3929.5396362
1191.87741883
366.442811867
131.398833121
53.0267147585
22.9519723703
10.6577368875
5.37419800292
2.95326906053
1.78489394323
1.19317129852
0.870122821595
0.668331005383
0.524301783774
0.417700561519
0.341729558994
0.290044182787
0.255275896332
0.23115017055
0.21414356446
4694.14337567
1303.41215804
410.072796465
156.793003955
69.2230412799
32.3206585019
15.5651069601
7.80354479321
4.13557532626
2.35666075953
1.46489389213
0.994977326061
0.724097320281
0.551378096448
0.434545999772
0.354731166947
0.301892840197
0.268047915297
0.245424081705
0.229575671471
4694.45305177
1230.65038485
403.726042058
161.239001403
74.3975018197
36.9420539612
18.9394733122
9.9015985334
5.31060970576
2.97934565443
1.78469349572
1.15580494373
0.805933292233
0.596819805919
0.464888204286
0.380322750756
0.326068798664
0.292485249892
0.270985110972
0.25618932438
3789.27761799
1046.62870765
353.318511389
141.714690018
65.2587482444
33.0170258259
17.7525469719
9.90688440463
5.6328425256
3.25243954486
1.96651000524
1.26557227267
0.871529226266
0.640214078694
0.499538570583
0.413259667289
0.360331044765
0.328353307937
0.308673135674
0.295681863465
3211.88169025
890.488206462
294.822175733
114.17916745
50.8204602468
25.5929700325
14.2096955079
8.3850764137
5.07128033811
3.09147991363
1.94036272191
1.27737699647
0.893088922012
0.666339531671
0.530424235954
0.44932210727
0.401213405494
0.373152912525
0.356522051293
0.346935206951
3204.30845885
837.083832518
258.745852953
93.4340298347
39.1822511434
19.1649507729
10.7804879158
6.61269908087
4.19048098578
2.68302197249
1.7567853813
1.19976434204
0.868514686293
0.67162681426
0.554634235025
0.486200912319
0.445971188762
0.42299005953
0.409577313847
0.405647270131
3763.9225885
914.315040875
273.360113647
94.7321648584
36.6742141933
16.2468238201
8.5874275853
5.18741917795
3.33699555446
2.2080012999
1.50691415319
1.07891778727
0.822056498157
0.669220124282
0.578678379274
0.524463365714
0.491253379027
0.470445498998
0.460242019025
0.466667642394
4624.17534802
1098.01658284
330.207409391
114.737564225
41.9625006128
16.5081937814
7.68140284392
4.29815976601
2.70458973405
1.81783932459
1.29157427922