/*--------------------------------*- C++ -*----------------------------------*\
| =========                 |                                                 |
| \\      /  F ield         | OpenFOAM: The Open Source CFD Toolbox           |
|  \\    /   O peration     | Version:  2312                                  |
|   \\  /    A nd           | Website:  www.openfoam.com                      |
|    \\/     M anipulation  |                                                 |
\*---------------------------------------------------------------------------*/
FoamFile
{
    version     2.0;
    format      ascii;
    arch        "LSB;label=32;scalar=64";
    class       surfaceScalarField;
    location    "0.215/water";
    object      phi;
}
// * * * * * * * * * * * * * * * * * * * * * * * * * * * * * * * * * * * * * //

dimensions      [0 3 -1 0 0 0 0];

oriented        oriented;

internalField   nonuniform List<scalar> 
11810
(
8.11815696169e-08
1.99892290986e-07
5.56557225996e-08
1.50883980845e-07
4.12833779475e-08
1.48057630403e-07
3.20541859803e-08
1.49863107734e-07
2.56136628786e-08
1.54065967881e-07
2.10752831679e-08
1.5946164095e-07
1.78445241418e-08
1.65808752175e-07
1.54438799064e-08
1.73011220042e-07
1.34630018064e-08
1.81020933319e-07
1.1677846438e-08
1.8967113734e-07
1.00259039464e-08
1.98820937842e-07
8.50802885987e-09
2.08428506979e-07
7.13463871956e-09
2.18506995956e-07
5.9102036981e-09
2.29086083206e-07
4.83046368928e-09
2.40199500481e-07
3.88361851586e-09
2.51880932932e-07
3.05299126831e-09
2.64162779554e-07
2.31943222968e-09
2.77076316861e-07
1.66299508606e-09
2.9065264023e-07
3.04925050583e-07
1.06216075865e-09
1.18090937574e-07
2.54521331439e-07
8.10259102276e-08
1.79965959981e-07
6.30979321691e-08
1.64393045596e-07
5.09156472241e-08
1.61811204309e-07
4.16307106901e-08
1.63319929336e-07
3.45663473067e-08
1.66522538984e-07
2.9125428456e-08
1.71249320785e-07
2.49207159509e-08
1.77215890399e-07
2.16989695961e-08
1.84242686419e-07
1.90953550244e-08
1.92274746667e-07
1.68117424071e-08
2.01104559907e-07
1.46966643078e-08
2.10543583438e-07
1.26979199936e-08
2.20505750586e-07
1.08093332135e-08
2.3097467165e-07
9.03979030071e-09
2.4196905517e-07
7.39751353442e-09
2.53523214393e-07
5.88333397098e-09
2.65676972267e-07
4.48879250815e-09
2.7847086614e-07
3.1964403616e-09
2.91945007306e-07
3.06141434654e-07
1.98006701618e-09
1.21262142848e-07
2.9948572188e-07
7.85472851714e-08
2.12477853988e-07
5.83391421936e-08
1.8245417086e-07
4.66782636163e-08
1.73107886545e-07
3.86426245406e-08
1.71302264383e-07
3.2867031513e-08
1.72291084758e-07
2.87699797867e-08
1.75345499903e-07
2.55977438925e-08
1.80388001658e-07
2.29518189398e-08
1.86888608477e-07
2.06851329558e-08
1.94541425677e-07
1.86419720033e-08
2.03147731087e-07
1.67036624588e-08
2.1248189047e-07
1.48046024983e-08
2.22404821135e-07
1.29212775468e-08
2.32857997077e-07
1.10566271872e-08
2.43833716517e-07
9.22551153307e-09
2.55354333776e-07
7.44367222575e-09
2.67458823636e-07
5.72043413916e-09
2.80194111062e-07
4.05495349472e-09
2.93610502076e-07
3.07761404403e-07
2.43499342757e-09
1.41763326434e-07
3.18430603416e-07
9.40333813458e-08
2.46127271764e-07
6.72323261516e-08
2.05781618691e-07
5.04296081697e-08
1.89235763759e-07
3.9076104352e-08
1.82547991565e-07
3.12776464257e-08
1.80074458964e-07
2.63067779981e-08
1.80314311603e-07
2.32636306088e-08
1.83430820989e-07
2.11221692883e-08
1.8903002882e-07
1.93619264116e-08
1.96301653883e-07
1.77525608431e-08
2.0475710379e-07
1.61816718372e-08
2.140527744e-07
1.45921084372e-08
2.23994392692e-07
1.29563417395e-08
2.34493763051e-07
1.12676758714e-08
2.45522392088e-07
9.53374988473e-09
2.57088262406e-07
7.76946445398e-09
2.69223120222e-07
5.98985364212e-09
2.81973728291e-07
4.20464906389e-09
2.95395719705e-07
3.09550674149e-07
2.41538894989e-09
1.53428218019e-07
3.22496744585e-07
1.11673574056e-07
2.71055856718e-07
8.08468556934e-08
2.31550246324e-07
5.91309470996e-08
2.09753110048e-07
4.33157935173e-08
1.98134289534e-07
3.214649389e-08
1.9120732844e-07
2.49479821589e-08
1.87507463223e-07
2.09665290401e-08
1.87411400951e-07
1.87793563313e-08
1.91217068443e-07
1.72703580209e-08
1.9781062438e-07
1.59590325112e-08
2.06068437285e-07
1.46720542529e-08
2.15339747292e-07
1.33447461903e-08
2.25321709897e-07
1.19473021916e-08
2.35891205308e-07
1.04666686135e-08
2.47003034833e-07
8.90182808304e-09
2.58653104866e-07
7.26060596638e-09
2.70864352505e-07
5.55524138298e-09
2.83679098133e-07
3.79782024616e-09
2.97153153244e-07
3.11351433997e-07
1.99706859956e-09
1.60033546927e-07
3.18465883883e-07
1.27449181567e-07
2.85664039138e-07
9.74915718159e-08
2.55273243678e-07
7.31596902096e-08
2.32318379473e-07
5.32316549194e-08
2.17651052871e-07
3.75859201897e-08
2.06773334117e-07
2.65378770881e-08
1.98541671256e-07
2.00759805415e-08
1.93870828821e-07
1.69654822556e-08
1.94327133651e-07
1.53342146692e-08
1.99441816358e-07
1.41281779675e-08
2.07274474089e-07
1.29895354133e-08
2.16478380853e-07
1.18177271018e-08
2.26493523613e-07
1.0575642766e-08
2.37133286341e-07
9.24589711728e-09
2.48332787751e-07
7.82181583584e-09
2.60077186773e-07
6.30509051961e-09
2.72381086749e-07
4.70343692927e-09
2.85280756383e-07
3.02757718684e-09
2.98829023723e-07
3.13090506662e-07
1.28851239823e-09
1.57768471376e-07
3.17336085995e-07
1.32474660626e-07
2.93465235843e-07
1.08829837998e-07
2.72304418983e-07
8.57219057374e-08
2.5329327755e-07
6.49194016152e-08
2.37872103738e-07
4.64008834171e-08
2.2515546852e-07
3.13951450493e-08
2.13518180301e-07
2.12625326275e-08
2.03997068994e-07
1.60775175179e-08
1.99510809174e-07
1.38241802537e-08
2.01694921582e-07
1.25390905765e-08
2.08559550287e-07
1.14364472077e-08
2.17581014191e-07
1.03239717732e-08
2.27606005096e-07
9.15120707915e-09
2.38306046514e-07
7.89850139964e-09
2.49585499889e-07
6.55738666729e-09
2.61418301256e-07
5.12674384315e-09
2.73811737037e-07
3.61132221434e-09
2.86796181009e-07
2.02002715253e-09
3.00420328321e-07
3.14746791458e-07
3.63747983777e-10
1.5477126699e-07
3.20453392672e-07
1.32851939765e-07
2.98793056639e-07
1.14715044914e-07
2.84065154975e-07
9.55265517956e-08
2.7028630567e-07
7.61062834707e-08
2.56626136198e-07
5.70551260123e-08
2.4402473861e-07
3.93671555932e-08
2.3115836819e-07
2.52678036081e-08
2.18083080012e-07
1.67114559095e-08
2.08063465199e-07
1.29431534244e-08
2.05462434649e-07
1.12768077852e-08
2.10225809376e-07
1.00788276581e-08
2.18778976952e-07
8.92167270913e-09
2.28763161277e-07
7.72794346627e-09
2.39499769463e-07
6.47579996722e-09
2.50837647443e-07
5.15637187086e-09
2.62737727547e-07
3.76724855694e-09
2.75200866104e-07
2.31094409524e-09
2.88252487644e-07
7.9384862278e-10
3.01937431049e-07
3.16314793295e-07
-7.74148209518e-10
1.56249408258e-07
3.22216948569e-07
1.37148018172e-07
3.01474659384e-07
1.22160383152e-07
2.92689117488e-07
1.06036763475e-07
2.84161237697e-07
8.78147651667e-08
2.74125160546e-07
6.89412671735e-08
2.62681260735e-07
4.99354863091e-08
2.50097934687e-07
3.25700804529e-08
2.35425664828e-07
1.977837758e-08
2.2084690496e-07
1.30940911178e-08
2.12144358436e-07
1.03450217485e-08
2.12974514505e-07
8.80126266927e-09
2.20322699624e-07
7.45977065499e-09
2.30104655753e-07
6.14667512144e-09
2.40812857557e-07
4.82593616297e-09
2.52158389919e-07
3.48277448948e-09
2.64080886581e-07
2.11009206936e-09
2.76573552831e-07
7.05445631785e-10
2.8965713442e-07
-7.29309682011e-10
3.03372192293e-07
3.17774432245e-07
-2.18894625188e-09
1.5635578404e-07
3.24043679594e-07
1.39779974396e-07
3.01711488518e-07
1.27703223031e-07
2.98351024781e-07
1.14116305816e-07
2.95436573099e-07
9.7296771052e-08
2.90171899164e-07
7.86172131806e-08
2.81113960946e-07
5.94951063368e-08
2.69136964545e-07
4.0675519942e-08
2.54212059635e-07
2.44242808561e-08
2.37083287542e-07
1.39554984882e-08
2.22607498441e-07
9.20663802576e-09
2.17722118201e-07
7.02585086555e-09
2.22503352383e-07
5.41833153715e-09
2.31712169096e-07
3.95822922099e-09
2.42272950177e-07
2.57135472639e-09
2.53545265077e-07
1.22822489e-09
2.65424012135e-07
-8.86007621587e-11
2.7789038097e-07
-1.39050647604e-09
2.90959039726e-07
-2.68540177348e-09
3.04667091074e-07
3.19066934323e-07
-3.9779019301e-09
1.55766599891e-07
3.26694335126e-07
1.40823411492e-07
3.00479278121e-07
1.30400591424e-07
3.02378221227e-07
1.17901079797e-07
3.05593205206e-07
1.01627076486e-07
3.056397695e-07
8.29373658277e-08
2.99534922898e-07
6.41606744465e-08
2.87817702279e-07
4.55748909137e-08
2.72755758469e-07
2.79031159943e-08
2.5473319496e-07
1.41352485096e-08
2.36364886399e-07
6.73940071755e-09
2.25114727734e-07
3.70051918803e-09
2.25541770507e-07
1.93389797397e-09
2.33478770164e-07
4.79743061849e-10
2.4372709384e-07
-8.11313346402e-10
2.54836321372e-07
-1.9933820919e-09
2.66606075711e-07
-3.1010048746e-09
2.78998004557e-07
-4.1601554404e-09
2.92018187892e-07
-5.19033301925e-09
3.05697270609e-07
3.20082474099e-07
-6.20587374739e-09
1.55308257213e-07
3.30571834244e-07
1.38758711688e-07
3.01421441838e-07
1.27648053035e-07
3.07357670321e-07
1.14723092501e-07
3.16248701545e-07
9.8415758062e-08
3.21149574864e-07
8.01462397098e-08
3.17531197796e-07
6.19979068549e-08
3.05864227453e-07
4.44220261493e-08
2.9028366387e-07
2.70175443793e-08
2.72109798803e-07
1.15317517727e-08
2.51834701023e-07
1.66125309044e-09
2.34978727246e-07
-2.29195624267e-09
2.29493682133e-07
-3.82099502149e-09
2.35007720563e-07
-4.84883939029e-09
2.4475492353e-07
-5.6779500083e-09
2.55665428668e-07
-6.38617858605e-09
2.67314297261e-07
-7.02160648765e-09
2.79633431071e-07
-7.61965255734e-09
2.92616230609e-07
-8.20725901031e-09
3.06284876227e-07
3.2067970679e-07
-8.80449333846e-09
1.5329072345e-07
3.36653565262e-07
1.31528989408e-07
3.08622299028e-07
1.16860025421e-07
3.16496471045e-07
1.02465775726e-07
3.28616952785e-07
8.64651025384e-08
3.36434548029e-07
6.98780450951e-08
3.33866760758e-07
5.35194914637e-08
3.22123817529e-07
3.75999841589e-08
3.06152165865e-07
2.13543880268e-08
2.88322319234e-07
5.61507112451e-09
2.6755212667e-07
-6.07234013733e-09
2.46655077319e-07
-1.1052385784e-08
2.34470719335e-07
-1.18934522764e-08
2.3584848877e-07
-1.18713100053e-08
2.44732758704e-07
-1.17518519679e-08
2.5554596606e-07
-1.16122588671e-08
2.67174696101e-07
-1.14906068153e-08
2.79511775777e-07
-1.1415513933e-08
2.92541132334e-07
-1.14076424479e-08
3.06277002261e-07
3.20752976353e-07
-1.14809165718e-08
1.49398827372e-07
3.4584205481e-07
1.20780662421e-07
3.22934780097e-07
1.01076100812e-07
3.31002874991e-07
8.47477666925e-08
3.43145572762e-07
7.02350503171e-08
3.503302114e-07
5.6954677535e-08
3.46927627006e-07
4.36495617152e-08
3.3533593564e-07
2.99462864945e-08
3.19801691741e-07
1.55823861069e-08
3.02647278036e-07
5.16090989223e-10
2.82589397259e-07
-1.27206841624e-08
2.59874223505e-07
-1.97885822316e-08
2.41532183207e-07
-2.04687833894e-08
2.36527702151e-07
-1.90844774237e-08
2.43348389034e-07
-1.77060906291e-08
2.5416757059e-07
-1.65296010782e-08
2.65998196614e-07
-1.55465504588e-08
2.78528719705e-07
-1.47537133073e-08
2.91748288987e-07
-1.41478865988e-08
3.05671170366e-07
3.20328184967e-07
-1.37231002279e-08
1.39938875127e-07
3.65268708847e-07
1.05306652784e-07
3.4335097579e-07
8.32658059933e-08
3.48012227302e-07
6.7898258019e-08
3.56857483043e-07
5.72754312616e-08
3.60405907566e-07
4.86875074348e-08
3.55316307645e-07
3.94236060817e-08
3.44507461232e-07
2.85747917215e-08
3.30591195438e-07
1.65603439001e-08
3.14615038107e-07
2.96320578061e-09
2.96148466042e-07
-1.14478450833e-08
2.74258068537e-07
-2.24404922819e-08
2.52511505844e-07
-2.55415908713e-08
2.39625586671e-07
-2.37495779312e-08
2.41556076538e-07
-2.14137405713e-08
2.51831716458e-07
-1.9467081715e-08
2.64051526332e-07
-1.78912455989e-08
2.76952875997e-07
-1.66390665152e-08
2.90496101588e-07
-1.56760479403e-08
3.04708144844e-07
3.1962393066e-07
-1.49718015552e-08
1.39549248268e-07
3.8468387365e-07
1.0457961251e-07
3.62059555849e-07
8.41008242755e-08
3.62799349029e-07
7.10292634187e-08
3.68062071175e-07
6.26384858251e-08
3.68182263356e-07
5.61981514061e-08
3.61531265519e-07
4.93480130693e-08
3.51250862461e-07
4.09643913945e-08
3.38904946492e-07
3.06130823996e-08
3.24910108471e-07
1.79824241434e-08
3.08731031997e-07
2.68690817605e-09
2.89514686869e-07
-1.30295422908e-08
2.68202967983e-07
-2.23535264659e-08
2.48940170605e-07
-2.30896290074e-08
2.42290697664e-07
-2.10314028283e-08
2.49773406815e-07
-1.91055171861e-08
2.62125625728e-07
-1.75799448714e-08
2.75427293279e-07
-1.64036664354e-08
2.89319813571e-07
-1.55292728091e-08
3.03833741354e-07
3.19009438824e-07
-1.49147896948e-08
1.49965958262e-07
3.93638279809e-07
1.21592708939e-07
3.72814162687e-07
1.04377646086e-07
3.73423122614e-07
9.26928241992e-08
3.77473316754e-07
8.40650454348e-08
3.76053755253e-07
7.69426954106e-08
3.6838642657e-07
6.99519063031e-08
3.58122415137e-07
6.20846792074e-08
3.46696929879e-07
5.26328107816e-08
3.34300806788e-07
4.04964939751e-08
3.20812492194e-07
2.48954757878e-08
3.05066611629e-07
6.44329502101e-09
2.86616245328e-07
-9.74930969006e-09
2.65111437172e-07
-1.63861338397e-08
2.48921918156e-07
-1.64549320645e-08
2.4984170132e-07
-1.55006548102e-08
2.61171320999e-07
-1.47361974981e-08
2.74662822807e-07
-1.42061920856e-08
2.88789796097e-07
-1.38811891282e-08
3.03508726639e-07
3.18855262758e-07
-1.37270246608e-08
1.54278245451e-07
3.99136007073e-07
1.30836693359e-07
3.78573969986e-07
1.17117826837e-07
3.80365134995e-07
1.0816331344e-07
3.83980213066e-07
1.01152630407e-07
3.82203170253e-07
9.45769774979e-08
3.74644621681e-07
8.7594104782e-08
3.64963265826e-07
7.97614064081e-08
3.5444321078e-07
7.07850205549e-08
3.43209832959e-07
5.9471075087e-08
3.32065916553e-07
4.47114194191e-08
3.197687534e-07
2.65196578757e-08
3.04756160389e-07
7.30789623598e-09
2.84286690217e-07
-5.56664690313e-09
2.61781880288e-07
-9.39240470047e-09
2.53665254856e-07
-1.01275924978e-08
2.61906400883e-07
-1.05750600266e-08
2.75110273511e-07
-1.10431399196e-08
2.89257862517e-07
-1.15454882129e-08
3.04011060581e-07
3.19378595874e-07
-1.20688335932e-08
1.55679299971e-07
4.02024144607e-07
1.35999314986e-07
3.80665679776e-07
1.23968694328e-07
3.85673271329e-07
1.16427777984e-07
3.89112857346e-07
1.10869277354e-07
3.8691707664e-07
1.05379993613e-07
3.79823412538e-07
9.90760323559e-08
3.71128650577e-07
9.17480628423e-08
3.61686539058e-07
8.26671599038e-08
3.52224154937e-07
7.10352413157e-08
3.43636649475e-07
5.70469714344e-08
3.33695572804e-07
4.02587490034e-08
3.21483888133e-07
2.16185233218e-08
3.02877403784e-07
5.59145814019e-09
2.77782623207e-07
-2.24248223534e-09
2.61492980729e-07
-5.03859530252e-09
2.64702060522e-07
-6.81883359413e-09
2.76890486956e-07
-8.33462281373e-09
2.90773635834e-07
-9.67685984725e-09
3.05353281717e-07
3.20568364499e-07
-1.08666432875e-08
1.55621209169e-07
4.06280678199e-07
1.37138708121e-07
3.8162078511e-07
1.26446308183e-07
3.89643222135e-07
1.19898500545e-07
3.93272151784e-07
1.15483708688e-07
3.9049701224e-07
1.11246829337e-07
3.83748539946e-07
1.06151072057e-07
3.76082203259e-07
9.9405641969e-08
3.68345514114e-07
8.8490936272e-08
3.63072116938e-07
7.51739113591e-08
3.56889877133e-07
6.11831127346e-08
3.47623244053e-07
4.54710484065e-08
3.3713102773e-07
2.82621019935e-08
3.20028484145e-07
1.21765251012e-08
2.93831843317e-07
2.02725539821e-09
2.71630451725e-07
-2.46226537906e-09
2.69190292427e-07
-5.27112459589e-09
2.79699294883e-07
-7.5373552489e-09
2.93039848907e-07
-9.44016254102e-09
3.07256070838e-07
3.22168527287e-07
-1.10403409998e-08
1.52580193337e-07
4.12701181769e-07
1.34177857933e-07
3.82947865802e-07
1.25462267715e-07
3.91915960655e-07
1.20979443223e-07
3.95503676167e-07
1.18260330311e-07
3.92451322601e-07
1.15498434128e-07
3.86231747834e-07
1.11449536168e-07
3.80004150415e-07
1.03160150441e-07
3.76556608316e-07
9.00710238429e-08
3.76092543322e-07
7.51657951301e-08
3.71733415721e-07
5.99098389092e-08
3.62817028683e-07
4.41518282711e-08
3.52823341595e-07
2.72330225149e-08
3.36885507582e-07
1.16466693123e-08
3.09375387187e-07
9.79798591529e-10
2.82280478701e-07
-4.17282227622e-09
2.74340439663e-07
-7.28510609364e-09
2.8281147191e-07
-9.70130856303e-09
2.95456031387e-07
-1.1647581668e-08
3.09202324479e-07
3.23732706101e-07
-1.3211778199e-08
1.50596243963e-07
4.22664958433e-07
1.30551703133e-07
3.86303357383e-07
1.23744884558e-07
3.92469508023e-07
1.21812949991e-07
3.95259900627e-07
1.20614154015e-07
3.92911008093e-07
1.18416778855e-07
3.88158584427e-07
1.13671423478e-07
3.84626062704e-07
1.02507809838e-07
3.8763994522e-07
8.88045061687e-08
3.89733395713e-07
7.37227077642e-08
3.86750082618e-07
5.73247752519e-08
3.79151049097e-07
4.02055950433e-08
3.69879623477e-07
2.1813741813e-08
3.55212543405e-07
5.41171137337e-09
3.25730030392e-07
-5.68963465301e-09
2.93361026926e-07
-1.07007633198e-08
2.79347811092e-07
-1.3225506566e-08
2.85336022629e-07
-1.50663896841e-08
2.97296892449e-07
-1.64518457128e-08
3.10587759461e-07
3.24752542515e-07
-1.7471700502e-08
1.46399579479e-07
4.36389531751e-07
1.2561366821e-07
3.9163617475e-07
1.20286327971e-07
3.9223959816e-07
1.20392929326e-07
3.93243220565e-07
1.20207815266e-07
3.92448647895e-07
1.17501150881e-07
3.90629952291e-07
1.10069074087e-07
3.91950459804e-07
9.85070027546e-08
3.9913252014e-07
8.57738446723e-08
4.02397243056e-07
7.16565060472e-08
4.00805851621e-07
5.60611983362e-08
3.94684564809e-07
3.60011032784e-08
3.89866789619e-07
1.51925410646e-08
3.75954459348e-07
-3.31805557342e-09
3.44189254257e-07
-1.61737677238e-08
3.06192018993e-07
-2.1156016437e-08
2.8432472515e-07
-2.23679412841e-08
2.86547616878e-07
-2.29672646591e-08
2.97896190286e-07
-2.32694823211e-08
3.108899552e-07
3.24807373334e-07
-2.33243328141e-08
1.48284236265e-07
4.48770028158e-07
1.28336769827e-07
3.96286052335e-07
1.21765664653e-07
3.93408765931e-07
1.20200515011e-07
3.93009654036e-07
1.18172658123e-07
3.93877722633e-07
1.1334896231e-07
3.95236439737e-07
1.04011651607e-07
4.01186411617e-07
9.37051788198e-08
4.09360181398e-07
8.2742317492e-08
4.13296891355e-07
7.08444905165e-08
4.12638982918e-07
5.58898311504e-08
4.09569606281e-07
3.53032267636e-08
4.10394104592e-07
1.27173388242e-08
3.98469945926e-07
-9.21705856241e-09
3.66066329423e-07
-2.63625992188e-08
3.23306425762e-07
-3.29855910747e-08
2.90939484518e-07
-3.29143485643e-08
2.86475723279e-07
-3.1937767749e-08
2.96919577078e-07
-3.09107795695e-08
3.09862944295e-07
3.23715576114e-07
-2.98190026144e-08
1.51237572357e-07
4.57265496411e-07
1.33126655586e-07
3.98575534953e-07
1.25150440913e-07
3.95733121703e-07
1.1961070993e-07
3.96701930352e-07
1.13185297549e-07
3.99707199192e-07
1.05201889438e-07
4.03006657471e-07
9.59189724321e-08
4.10363561387e-07
8.66627768712e-08
4.18549734595e-07
7.73391961681e-08
4.22557335196e-07
6.66038627477e-08
4.23310779051e-07
4.97606891782e-08
4.26363329066e-07
3.55132825062e-08
4.245660416e-07
1.83032461818e-08
4.15595880743e-07
-7.12623158648e-09
3.91424155637e-07
-3.06680687096e-08
3.46803664308e-07
-4.22076590598e-08
3.02464263191e-07
-4.23553729754e-08
2.8662185282e-07
-4.01436427343e-08
2.94707790263e-07
-3.79821345574e-08
3.07701413237e-07
3.2162576433e-07
-3.58923436255e-08
1.55896969051e-07
4.60372308915e-07
1.39112654312e-07
3.98682622975e-07
1.28590734259e-07
4.0015880933e-07
1.17666550148e-07
4.05614835396e-07
1.05868265576e-07
4.10859448984e-07
9.4065831212e-08
4.14583555769e-07
8.37911409221e-08
4.2053919313e-07
7.41794950086e-08
4.28090502272e-07
6.38509064892e-08
4.3281977946e-07
5.00090851464e-08
4.37103205776e-07
3.70845780146e-08
4.39215852948e-07
2.85896452361e-08
4.32980333582e-07
1.92579199699e-08
4.24843392068e-07
-9.69671926423e-10
4.11566948568e-07
-2.73868825628e-08
3.73156447026e-07
-4.59159226434e-08
3.20965789104e-07
-4.89788815158e-08
2.89680607199e-07
-4.64370186222e-08
2.92165766956e-07
-4.36190748286e-08
3.0488344602e-07
3.18885547546e-07
-4.08788797771e-08
1.61799719458e-07
4.57579565941e-07
1.43250114221e-07
4.00384629302e-07
1.2799613105e-07
4.09070212114e-07
1.10712355615e-07
4.20725263815e-07
9.28485551422e-08
4.28022603078e-07
7.63066201237e-08
4.30889327307e-07
6.21503759062e-08
4.34591084894e-07
4.93274782922e-08
4.40842022029e-07
3.65681825747e-08
4.45521894188e-07
2.54367947107e-08
4.48160861278e-07
2.03613235021e-08
4.44214421229e-07
1.50671457158e-08
4.38194840033e-07
8.75604281559e-09
4.31074954684e-07
-1.22394160488e-09
4.21459000093e-07
-2.31636145046e-08
3.95019106723e-07
-4.49928463541e-08
3.42749755158e-07
-5.28990455191e-08
2.97576497892e-07
-5.09996897701e-08
2.90265829179e-07
-4.78784463156e-08
3.01762175215e-07
3.15762428388e-07
-4.47553488791e-08
1.63393901346e-07
4.53016260663e-07
1.39685086876e-07
4.08171787946e-07
1.17293961029e-07
4.25453256299e-07
9.0890112789e-08
4.45065967549e-07
6.51843188448e-08
4.53072362737e-07
4.42036803345e-08
4.51655313374e-07
2.62742236083e-08
4.52425440761e-07
1.1198720844e-08
4.55849650877e-07
1.08064887347e-09
4.55568633619e-07
-1.33573825129e-09
4.50505953659e-07
-7.74204941535e-10
4.43584771183e-07
-1.31848504949e-09
4.38667035914e-07
-4.64530859492e-09
4.34320596106e-07
-9.78733892816e-09
4.26519708454e-07
-2.30024518117e-08
4.08145406884e-07
-4.20563271551e-08
3.61739845768e-07
-5.4621496725e-08
3.1012049441e-07
-5.44706535092e-08
2.90112997712e-07
-5.12257698843e-08
2.98517235401e-07
3.12353142406e-07
-4.78165067359e-08
1.63276628685e-07
4.47010410109e-07
1.32238795518e-07
4.23276825672e-07
9.76223267701e-08
4.54323297711e-07
5.58540253231e-08
4.85005356755e-07
2.00651251321e-08
4.88339234493e-07
-3.44466590015e-09
4.75009604881e-07
-1.98323938634e-08
4.68736846965e-07
-2.95416514703e-08
4.65495093997e-07
-3.20806531238e-08
4.58045397179e-07
-2.95192061397e-08
4.47884650817e-07
-2.47728662631e-08
4.38776189369e-07
-2.02889711796e-08
4.34112687024e-07
-1.91332855822e-08
4.33088266401e-07
-2.11248604417e-08
4.284255602e-07
-2.65028212079e-08
4.13435599333e-07
-4.01676825708e-08
3.75330489437e-07
-5.48920166356e-08
3.24809989384e-07
-5.73698812934e-08
2.92585371613e-07
-5.40600960465e-08
2.9520724497e-07
3.0859006744e-07
-5.02970443474e-08
1.617953803e-07
4.41726052323e-07
1.2370707205e-07
4.45292809779e-07
7.60650934298e-08
4.96447217276e-07
1.97559471689e-08
5.39775754129e-07
-2.33594282927e-08
5.31103241311e-07
-4.57597929808e-08
4.97311415947e-07
-5.5836841054e-08
4.78752135239e-07
-5.79777071611e-08
4.67577639165e-07
-5.51628493545e-08
4.55172203595e-07
-4.96827017457e-08
4.42347130747e-07
-4.45367252574e-08
4.33572386523e-07
-3.88438072343e-08
4.28356585764e-07
-3.2715232706e-08
4.26886439073e-07
-2.95602676115e-08
4.25190456733e-07
-2.99218839897e-08
4.13711634333e-07
-3.92116509557e-08
3.84540604365e-07
-5.37531081521e-08
3.39302827767e-07
-5.93868265907e-08
2.98206995743e-07
-5.62822827561e-08
2.92101955042e-07
3.04386304503e-07
-5.20785515093e-08
1.58806553618e-07
4.4002204994e-07
1.19417477729e-07
4.68595989313e-07
6.72242857466e-08
5.43185241296e-07
5.19617662074e-09
6.00433931187e-07
-3.94051650184e-08
5.75439828591e-07
-6.00649750889e-08
5.17896733678e-07
-6.58009277102e-08
4.8443240542e-07
-6.39861658863e-08
4.65707934642e-07
-5.88473763062e-08
4.49979059809e-07
-5.35712120489e-08
4.37018162367e-07
-5.02614247839e-08
4.30209463348e-07
-4.65273370675e-08
4.24564474417e-07
-3.97191743053e-08
4.20011575081e-07
-3.26954661367e-08
4.18090431992e-07
-3.00534984236e-08
4.10987066699e-07
-3.67104605874e-08
3.91115448751e-07
-5.039195553e-08
3.52923208554e-07
-5.93200044892e-08
3.07112870207e-07
-5.72109849003e-08
2.89990677976e-07
2.9983301294e-07
-5.26577594874e-08
1.54186799622e-07
4.44176915345e-07
1.19539662379e-07
4.87079360518e-07
7.35307187709e-08
5.83547230664e-07
1.23126053872e-08
6.60163264021e-07
-2.60282686828e-08
6.13479789423e-07
-4.4357391249e-08
5.36136496279e-07
-4.90093394482e-08
4.89025289036e-07
-4.68168508592e-08
4.63461122747e-07
-4.25727030611e-08
4.4568280095e-07
-3.92792806313e-08
4.33675407008e-07
-3.82913050665e-08
4.291715239e-07
-3.74275243433e-08
4.23646669259e-07
-3.35798242208e-08
4.16103257014e-07
-2.73510759807e-08
4.11792288667e-07
-2.43488210402e-08
4.0790686126e-07
-3.06329016396e-08
3.97316691366e-07
-4.39355791261e-08
3.66153656384e-07
-5.57517837397e-08
3.18893688298e-07
-5.58804753722e-08
2.901136809e-07
2.95331346101e-07
-5.1379023615e-08
1.49585465047e-07
4.54204532857e-07
1.1695656344e-07
5.03970639063e-07
7.73869476787e-08
6.17632758255e-07
2.81647403448e-08
7.07815660892e-07
3.13227977567e-09
6.38141936956e-07
-1.01130081041e-08
5.49254692434e-07
-1.44209351346e-08
4.93261283402e-07
-1.37398564664e-08
4.62722256989e-07
-1.18915311582e-08
4.43782571642e-07
-1.14026850615e-08
4.33138795535e-07
-1.29589803805e-08
4.30679242871e-07
-1.5105773536e-08
4.25741490771e-07
-1.54127582298e-08
4.16353514566e-07
-1.30746227251e-08
4.09390384006e-07
-1.2261858367e-08
4.07020150084e-07
-1.98666496463e-08
4.04836495516e-07
-3.3612063692e-08
3.79816750859e-07
-4.75399714228e-08
3.32770795657e-07
-5.12897098346e-08
2.93851250674e-07
2.91755540154e-07
-4.77146193986e-08
1.48822866347e-07
4.64928135473e-07
1.13002557337e-07
5.23996147119e-07
7.6354168522e-08
6.48976130776e-07
5.74330081794e-08
7.25118931826e-07
4.06455038238e-08
6.54444797265e-07
3.18086478573e-08
5.57912325402e-07
2.7690964169e-08
4.97285819308e-07
2.62611532042e-08
4.64085817312e-07
2.50209343841e-08
4.44967620578e-07
2.22963267074e-08
4.35814394706e-07
1.78800095641e-08
4.35046004615e-07
1.27800066688e-08
4.30789108283e-07
8.47576553031e-09
4.20601960687e-07
6.06768499235e-09
4.11737347127e-07
3.19736882262e-09
4.09818222288e-07
-5.42979440347e-09
4.13374246567e-07
-1.97725068479e-08
3.94067151735e-07
-3.49430168047e-08
3.47874339263e-07
-4.30059043055e-08
3.01891758915e-07
2.90359866231e-07
-4.16123329553e-08
1.47105393449e-07
4.77044706329e-07
1.06473675332e-07
5.48772552767e-07
8.28818964411e-08
6.67193446845e-07
7.34068098636e-08
7.32830105638e-07
6.8550138785e-08
6.58726506228e-07
6.62890796166e-08
5.5994701015e-07
6.40923447768e-08
4.99366968247e-07
6.1903112749e-08
4.66197966303e-07
5.88474427642e-08
4.4796264168e-07
5.36111510455e-08
4.40998719661e-07
4.68391807557e-08
4.4176573075e-07
3.93426559951e-08
4.38230964947e-07
3.18673272885e-08
4.28019982848e-07
2.52258588323e-08
4.18317452614e-07
1.83069454515e-08
4.16664094411e-07
8.57067060624e-09
4.23016771822e-07
-4.95302011797e-09
4.07488884099e-07
-2.06083102991e-08
3.63447362494e-07
-3.22455864853e-08
3.13493438002e-07
2.92068100541e-07
-3.39589370699e-08
1.44723835068e-07
4.91446634096e-07
9.79814409242e-08
5.79715442895e-07
7.59589345048e-08
6.83780382914e-07
7.25613277596e-08
7.34440538769e-07
8.34522712456e-08
6.47233969637e-07
8.92810864186e-08
5.53867022234e-07
9.04964362591e-08
4.98023097184e-07
8.9174911854e-08
4.67436060378e-07
8.54973219087e-08
4.51576789593e-07
7.84433928739e-08
4.47998320747e-07
7.01600248933e-08
4.49993994354e-07
6.12043972926e-08
4.47129166728e-07
5.16778628847e-08
4.37486601686e-07
4.20819402197e-08
4.27849870698e-07
3.17742326133e-08
4.26896048369e-07
2.01718342409e-08
4.34520254254e-07
7.22786589116e-09
4.20324677901e-07
-8.29362799873e-09
3.78874118902e-07
-2.17893541392e-08
3.26939477665e-07
2.96747091898e-07
-2.64785428733e-08
1.39385204711e-07
5.11480577986e-07
7.66398787342e-08
6.27178740789e-07
5.34402711657e-08
7.01835815345e-07
6.25159560213e-08
7.23715635936e-07
8.9001891981e-08
6.20142564487e-07
1.02729256864e-07
5.39876990933e-07
1.08021170901e-07
4.92597733597e-07
1.08302963735e-07
4.67069410384e-07
1.04269082161e-07
4.55546996555e-07
9.60530188544e-08
4.56158012558e-07
8.70163864403e-08
4.58972665023e-07
7.7533502414e-08
4.56551650526e-07
6.71450770971e-08
4.47811893085e-07
5.60062815306e-08
4.3892180586e-07
4.34148006498e-08
4.39407355197e-07
3.03568067157e-08
4.47473493665e-07
1.64980543138e-08
4.3406896869e-07
7.50290879896e-10
3.94516623844e-07
-1.36250704034e-08
3.41251561799e-07
3.03691959987e-07
-2.05872417919e-08
1.26268594312e-07
5.45707455355e-07
2.76614142726e-08
7.12896800083e-07
1.41520939724e-08
7.12118475174e-07
5.46862686516e-08
6.81937825388e-07
8.96103270433e-08
5.84651170833e-07
1.0867923747e-07
5.20554448636e-07
1.17224973359e-07
4.83922088537e-07
1.18894944738e-07
4.65316965376e-07
1.14426122248e-07
4.59953202471e-07
1.0621155293e-07
4.64313861751e-07
9.74897203142e-08
4.67633370651e-07
8.84254739789e-08
4.65551949402e-07
7.8341426607e-08
4.57828823032e-07
6.69599934707e-08
4.5023186714e-07
5.31992663367e-08
4.5308163345e-07
3.93447717627e-08
4.6121591163e-07
2.44770902889e-08
4.48814044691e-07
7.82989703859e-09
4.11047967428e-07
-7.71477866588e-09
3.56719263559e-07
3.12524602633e-07
-1.65737799198e-08
1.15313670749e-07
5.92049407177e-07
-5.77080676029e-09
8.22337299889e-07
3.47381916893e-09
7.00926105985e-07
5.59017156683e-08
6.28526118944e-07
9.10504304471e-08
5.49001470883e-07
1.11368474176e-07
5.00003422448e-07
1.2121386955e-07
4.73954465034e-07
1.23503808007e-07
4.6294851599e-07
1.18700910554e-07
4.64693717848e-07
1.11459828522e-07
4.71493125446e-07
1.03863400223e-07
4.75164904335e-07
9.58930909392e-08
4.73453952762e-07
8.68312634924e-08
4.66818624275e-07
7.59512379887e-08
4.61034865534e-07
6.20595763213e-08
4.66878157717e-07
4.81686903802e-08
4.74985847165e-07
3.2738439431e-08
4.6411194844e-07
1.45761080406e-08
4.2908256864e-07
-2.92090906753e-09
3.74123932569e-07
3.23423905665e-07
-1.38583070842e-08
9.02575932065e-08
6.67329398889e-07
1.03364551347e-08
8.96543096401e-07
2.89650409705e-08
6.81174914651e-07
7.00550640114e-08
5.86573604943e-07
9.94104902033e-08
5.19168985855e-07
1.17460649487e-07
4.81725657714e-07
1.26525026064e-07
4.64770848142e-07
1.2775912812e-07
4.61637915917e-07
1.22946180528e-07
4.69441629196e-07
1.16828534108e-07
4.77544560095e-07
1.10357145032e-07
4.81566521379e-07
1.0343280059e-07
4.80304617026e-07
9.53626988142e-08
4.74810806561e-07
8.49787931938e-08
4.71334616118e-07
7.20652151943e-08
4.79686171337e-07
5.8649600955e-08
4.88270850404e-07
4.25708115193e-08
4.80047671121e-07
2.21077124415e-08
4.49404040199e-07
1.84373837165e-09
3.94276967795e-07
3.36763764739e-07
-1.15493665552e-08
6.18252640113e-08
7.73082507143e-07
6.40084669969e-08
8.89451387196e-07
7.72769904929e-08
6.64888962729e-07
1.02419998329e-07
5.59803798959e-07
1.22172792039e-07
4.98701997124e-07