/*--------------------------------*- C++ -*----------------------------------*\
| =========                 |                                                 |
| \\      /  F ield         | OpenFOAM: The Open Source CFD Toolbox           |
|  \\    /   O peration     | Version:  2312                                  |
|   \\  /    A nd           | Website:  www.openfoam.com                      |
|    \\/     M anipulation  |                                                 |
\*---------------------------------------------------------------------------*/
FoamFile
{
    version     2.0;
    format      ascii;
    arch        "LSB;label=32;scalar=64";
    class       volScalarField;
    location    "0.495/water";
    object      alphat.gas;
}
// * * * * * * * * * * * * * * * * * * * * * * * * * * * * * * * * * * * * * //

dimensions      [1 -1 -1 0 0 0 0];

internalField   nonuniform List<scalar> 
1496
(
4.91030777283e-06
5.28076686087e-06
4.85526033367e-06
4.21608015944e-06
3.57108576101e-06
2.91023451204e-06
2.24767283836e-06
1.66586464401e-06
1.25070705213e-06
1.01430876784e-06
8.89420594011e-07
7.71884737713e-07
5.95303565853e-07
3.75438760141e-07
1.75354358909e-07
7.47371727686e-08
3.56336491459e-08
2.01959109876e-08
1.20198209298e-08
7.50003907464e-09
5.01111446223e-06
5.36995734571e-06
4.9038307963e-06
4.21812001812e-06
3.53437137841e-06
2.85137371963e-06
2.17648406789e-06
1.59447603031e-06
1.20260916875e-06
1.00300477606e-06
8.970807455e-07
7.69069994134e-07
5.78715758399e-07
3.64835338761e-07
1.80729956563e-07
8.27243083581e-08
4.33341307436e-08
2.74719503366e-08
1.8752631372e-08
1.29374718821e-08
5.02978782047e-06
5.3838549934e-06
4.91802429537e-06
4.21742360998e-06
3.50766966608e-06
2.80416124468e-06
2.11654433804e-06
1.53385827897e-06
1.16405528917e-06
1.00158899721e-06
9.15207988895e-07
7.7906788291e-07
5.78823447143e-07
3.70124771133e-07
1.97664700084e-07
9.66550387927e-08
5.43712414038e-08
3.65767623817e-08
2.68907574967e-08
2.02329261606e-08
4.92217385436e-06
5.28481283819e-06
4.85589232327e-06
4.17824685303e-06
3.46879090359e-06
2.75857929572e-06
2.06594777077e-06
1.48659643161e-06
1.14151303812e-06
1.01546681075e-06
9.44327154566e-07
8.0080164048e-07
5.92286553977e-07
3.85095453388e-07
2.18768800773e-07
1.15584789894e-07
6.83317113064e-08
4.73031325341e-08
3.59491845255e-08
2.85642332122e-08
4.63085644868e-06
5.03537011005e-06
4.67693894061e-06
4.05580619232e-06
3.37505192103e-06
2.67976618325e-06
2.00109055148e-06
1.44443014477e-06
1.14138635127e-06
1.05450589851e-06
9.8877352205e-07
8.31663641724e-07
6.14360573017e-07
4.06020861425e-07
2.41538635408e-07
1.37215793273e-07
8.48421190434e-08
5.9570177829e-08
4.5844029538e-08
3.72656567162e-08
4.24134168706e-06
4.64075335654e-06
4.35851469853e-06
3.81499452905e-06
3.18843122767e-06
2.53498396653e-06
1.90149041013e-06
1.40578797856e-06
1.17334510536e-06
1.12508030006e-06
1.05051264223e-06
8.70424615527e-07
6.42298087119e-07
4.32335411207e-07
2.67701886543e-07
1.61568416079e-07
1.03870651886e-07
7.33696624132e-08
5.64433144173e-08
4.61868858865e-08
3.85498542148e-06
4.18263344195e-06
3.94066628182e-06
3.4721763163e-06
2.91513308626e-06
2.32952516526e-06
1.77968754908e-06
1.3910965705e-06
1.25184335473e-06
1.22799426886e-06
1.1246485416e-06
9.15387246513e-07
6.77338195539e-07
4.66062836668e-07
3.01104631324e-07
1.91370228438e-07
1.26409824123e-07
8.93229099457e-08
6.80266535503e-08
5.53830059542e-08
3.44757452538e-06
3.7085935248e-06
3.48785834194e-06
3.09161008027e-06
2.61442296673e-06
2.11785515932e-06
1.68748425924e-06
1.43949444001e-06
1.38875355252e-06
1.35585676661e-06
1.20462819407e-06
9.6613030649e-07
7.21943310532e-07
5.12516766096e-07
3.48127548329e-07
2.30820130061e-07
1.54191067603e-07
1.08488102025e-07
8.15614869539e-08
6.53800693565e-08
3.08107493255e-06
3.28506391555e-06
3.10321213902e-06
2.78170759492e-06
2.38148716789e-06
1.98219676407e-06
1.69253305746e-06
1.58454244158e-06
1.57618968022e-06
1.49156622737e-06
1.28538115732e-06
1.02730588334e-06
7.84075289642e-07
5.78559516929e-07
4.12868428709e-07
2.84668795716e-07
1.92183768599e-07
1.33245814634e-07
9.84761638541e-08
7.73323660422e-08
2.80697417911e-06
3.02461506765e-06
2.91653131928e-06
2.64990209128e-06
2.29793230183e-06
1.98861829173e-06
1.83322508121e-06
1.81351709909e-06
1.77738668608e-06
1.62424185759e-06
1.37949763165e-06
1.11080563681e-06
8.67668294348e-07
6.65815898304e-07
4.9816445498e-07
3.57436154245e-07
2.46559195239e-07
1.69321647579e-07
1.21824833669e-07
9.31716690064e-08
2.81074166893e-06
3.09055217173e-06
3.01686617938e-06
2.72210568842e-06
2.36691539309e-06
2.12342158792e-06
2.05798750074e-06
2.05954699216e-06
1.9790985484e-06
1.77971368086e-06
1.50733616279e-06
1.22500523604e-06
9.78032972166e-07
7.76525840157e-07
6.05337532375e-07
4.52819097126e-07
3.22930873321e-07
2.23663185827e-07
1.56954595698e-07
1.16011200208e-07
3.14313126574e-06
3.41776451213e-06
3.25970329993e-06
2.86355440424e-06
2.47844540713e-06
2.27115633856e-06
2.25674925077e-06
2.28014513297e-06
2.19676474949e-06
1.98358370624e-06
1.69195680122e-06
1.38973259994e-06
1.12671970418e-06
9.12408958896e-07
7.33231016466e-07
5.71313137989e-07
4.23723291851e-07
3.00416109328e-07
2.10031274894e-07
1.50896992836e-07
3.4845555968e-06
3.61427845688e-06
3.28382142031e-06
2.83782744646e-06
2.46795496886e-06
2.28741550585e-06
2.31477822842e-06
2.40305733119e-06
2.3854030814e-06
2.21532549724e-06
1.93681925855e-06
1.61831246268e-06
1.3210149676e-06
1.07319596385e-06
8.75449634455e-07
7.0539225974e-07
5.43674175456e-07
3.96349742468e-07
2.79695415471e-07
2.000729386e-07
3.20440775755e-06
3.21538774523e-06
2.91478088383e-06
2.57423540357e-06
2.30097010172e-06
2.16908365533e-06
2.22122626322e-06
2.37001692858e-06
2.45305857743e-06
2.38411996092e-06
2.17223001808e-06
1.86503485375e-06
1.53253171736e-06
1.24289531287e-06
1.01744133488e-06
8.38328202604e-07
6.67581693895e-07
4.98580585013e-07
3.54653512111e-07
2.53846448978e-07
2.52432161252e-06
2.73117506518e-06
2.5686323914e-06
2.31593874128e-06
2.12028739718e-06
2.04741686638e-06
2.1282351601e-06
2.29978669071e-06
2.43202433578e-06
2.43822108298e-06
2.30483847049e-06
2.05018501116e-06
1.70585063799e-06
1.38160021859e-06
1.13481519962e-06
9.50844814415e-07
7.76635984845e-07
5.90238715042e-07
4.2104560956e-07
3.00795999181e-07
2.29544524519e-06
2.66338878071e-06
2.45552546735e-06
2.15817392508e-06
1.99292620345e-06
1.97547362973e-06
2.0895079945e-06
2.26554920064e-06
2.40213974654e-06
2.43095820583e-06
2.33186211266e-06
2.10974453331e-06
1.79285583138e-06
1.46298627722e-06
1.21081385847e-06
1.03070508858e-06
8.57512711443e-07
6.58543338252e-07
4.69922434901e-07
3.36340889902e-07
2.30853592435e-06
2.77862976627e-06
2.44334897727e-06
2.05714221163e-06
1.91665779963e-06
1.94080488652e-06
2.07089469114e-06
2.23370388865e-06
2.35109397323e-06
2.37290551458e-06
2.28075359531e-06
2.07538690269e-06
1.7844497537e-06
1.47893758385e-06
1.24732346467e-06
1.07905477479e-06
9.06016651271e-07
6.96847307481e-07
4.97555101245e-07
3.60742416306e-07
2.51786227374e-06
2.86750415534e-06
2.41289320001e-06
1.94925558673e-06
1.84928680796e-06
1.91220622068e-06
2.03207886893e-06
2.16016609674e-06
2.24666124496e-06
2.25161218831e-06
2.15675398953e-06
1.96243406932e-06
1.70252431063e-06
1.45005591147e-06
1.25815080891e-06
1.10409281278e-06
9.24291302311e-07
7.04086164746e-07
5.03761076614e-07
3.75702754389e-07
2.79826373371e-06
2.95635664889e-06
2.45463141316e-06
1.88944401194e-06
1.75917775054e-06
1.85935242239e-06
1.96720641451e-06
2.04465829979e-06
2.08722469768e-06
2.07209221336e-06
1.98014303158e-06
1.80533684125e-06
1.59165820848e-06
1.40753872025e-06
1.25998422367e-06
1.11278766831e-06
9.17019945349e-07
6.84567368353e-07
4.92312037232e-07
3.84368373823e-07
2.97940163671e-06
3.06047973183e-06
2.56359590676e-06
1.86678058005e-06
1.64376681502e-06
1.76396494284e-06
1.88801981477e-06
1.93103010032e-06
1.92732044023e-06
1.8870503129e-06
1.7996651575e-06
1.65984232325e-06
1.50918003889e-06
1.38557401164e-06
1.26541190416e-06
1.10824490499e-06
8.89434217482e-07
6.45158198476e-07
4.7105191599e-07
3.88848953887e-07
3.24636604591e-06
3.30792079745e-06
2.7027343505e-06
1.93465999342e-06
1.6202285153e-06
1.6907107092e-06
1.82342939365e-06
1.86386174471e-06
1.83762074393e-06
1.77767287206e-06
1.69398568715e-06
1.59501042216e-06
1.49742388085e-06
1.40263351363e-06
1.27955622724e-06
1.09575660748e-06
8.47518332754e-07
5.93690179615e-07
4.48287631542e-07
3.84372192246e-07
3.42036933622e-06
3.64645543208e-06
3.0177688118e-06
2.24092419146e-06
1.76346527022e-06
1.65597202579e-06
1.75450219974e-06
1.82475156573e-06
1.81970432572e-06
1.76981077609e-06
1.70023126344e-06
1.62674794695e-06
1.5505182774e-06
1.45174636012e-06
1.30209366479e-06
1.07865359368e-06
7.95002772378e-07
5.40450694912e-07
4.23876430148e-07
3.71112066027e-07
3.25539259561e-06
3.58048025196e-06
3.10532334928e-06
2.49941506416e-06
2.00701420472e-06
1.70415430562e-06
1.65663983904e-06
1.73843475532e-06
1.79203106998e-06
1.79082202669e-06
1.75586066168e-06
1.7033444438e-06
1.63030519613e-06
1.51452632873e-06
1.32918144208e-06
1.05778329583e-06
7.34815666491e-07
4.90983026189e-07
3.96455338787e-07
3.66061628632e-07
2.96740215353e-06
3.54206772248e-06
3.1435296581e-06
2.61806370186e-06
2.17131477472e-06
1.84646726574e-06
1.65435832934e-06
1.62366332975e-06
1.69813812653e-06
1.76376428882e-06
1.78652219234e-06
1.7680357493e-06
1.7043285788e-06
1.5765176091e-06
1.35818612391e-06
1.02643813288e-06
6.69731071058e-07
4.45493504431e-07
3.75119115021e-07
3.79416694553e-07
2.77477419266e-06
3.44460251041e-06
3.12510087536e-06
2.64635510134e-06
2.24643209478e-06
1.94591134882e-06
1.72984543741e-06
1.59734000355e-06
1.59686145442e-06
1.67751601553e-06
1.7550444286e-06
1.78502652883e-06
1.74747636627e-06
1.62141320574e-06
1.37770382788e-06
9.78147921961e-07
6.05464520054e-07
4.08287353575e-07
3.68693438183e-07
4.06824920783e-07
2.56378768667e-06
3.24838152554e-06
3.03360182048e-06
2.61642670399e-06
2.25899330298e-06
1.98650688548e-06
1.78214708099e-06
1.63257154505e-06
1.5651120794e-06
1.58862015196e-06
1.66653701473e-06
1.73508811889e-06
1.73523588033e-06
1.62587358167e-06
1.37288420182e-06
9.30450894733e-07
5.60509714606e-07
3.87059094742e-07
3.74060034949e-07
4.40127894558e-07
2.33051309264e-06
3.00655137578e-06
2.88069756412e-06
2.51737385153e-06
2.18711292223e-06
1.93368485697e-06
1.75007795178e-06
1.62860934481e-06
1.56989299422e-06
1.57366092525e-06
1.62831866735e-06
1.68679045307e-06
1.6880239473e-06
1.58206571977e-06
1.33178578309e-06
9.07373282294e-07
5.44323020342e-07
3.80270069246e-07
3.8699301639e-07
4.73311631413e-07
2.09978687644e-06
2.78099701015e-06
2.71127104876e-06
2.36982802776e-06
2.04664123167e-06
1.8041631945e-06
1.64502311054e-06
1.56782100654e-06
1.55072613159e-06
1.57801106318e-06
1.62875295414e-06
1.66041337714e-06
1.63164193248e-06
1.51013153131e-06
1.26758077731e-06
8.95444168156e-07
5.44258469366e-07
3.84996165973e-07
4.08208456048e-07
5.04521429711e-07
1.91740190713e-06
2.60133801243e-06
2.55668248412e-06
2.20874658513e-06
1.88260761395e-06
1.65516035587e-06
1.53059794878e-06
1.50373095521e-06
1.54031559573e-06
1.59267651712e-06
1.63185192373e-06
1.63073596349e-06
1.57081642441e-06
1.433824155e-06
1.19707744665e-06
8.57709904322e-07
5.39529889621e-07
3.99823701869e-07
4.38515604902e-07
5.34330243222e-07
1.79283908237e-06
2.47754206783e-06
2.42767693472e-06
2.05057830207e-06
1.7236160629e-06
1.52897551831e-06
1.45299258557e-06
1.47645438306e-06
1.5523411098e-06
1.60349448721e-06
1.6173599237e-06
1.58628920199e-06
1.50506426899e-06
1.3599583062e-06
1.13127382643e-06
8.22293855815e-07
5.32400012286e-07
4.2410989077e-07
4.76494208556e-07
5.61482250804e-07
1.72348468371e-06
2.40866468805e-06
2.32495981547e-06
1.9019868559e-06
1.58318824546e-06
1.43885229166e-06
1.42214082889e-06
1.49618735968e-06
1.5737870286e-06
1.5950365016e-06
1.57830813911e-06
1.5246599609e-06
1.43098063926e-06
1.28258464471e-06
1.06188409375e-06
7.76750895586e-07
5.25988607202e-07
4.56516079503e-07
5.19634423149e-07
5.8451105418e-07
1.68767437982e-06
2.3996981782e-06
2.26853803031e-06
1.77903231447e-06
1.46758181554e-06
1.38067397311e-06
1.42402456476e-06
1.53504048815e-06
1.58014546362e-06
1.55962155187e-06
1.51538208554e-06
1.44657724578e-06
1.34614018322e-06
1.19686006674e-06
9.81986906703e-07
7.11398702585e-07
5.22039848282e-07
4.96022027793e-07
5.63121955421e-07
6.02132012118e-07
1.67576134544e-06
2.4636852548e-06
2.31135341934e-06
1.71980109765e-06
1.38999077268e-06
1.35306996205e-06
1.44385693111e-06
1.56353980777e-06
1.55800982347e-06
1.49720203465e-06
1.43185681739e-06
1.35447991155e-06
1.25185836023e-06
1.10531962448e-06
8.99975352834e-07
6.51117608579e-07
5.27732150364e-07
5.40637769537e-07
6.02674088915e-07
6.13182438198e-07
1.74573822112e-06
2.69136539383e-06
2.47922101627e-06
1.74312019653e-06
1.36366763616e-06
1.35741519111e-06
1.47051471459e-06
1.56592131007e-06
1.50282918595e-06
1.40966345844e-06
1.33072064836e-06
1.24990816344e-06
1.14748020277e-06
1.0041874985e-06
8.03092249538e-07
6.08472000039e-07
5.46979535453e-07
5.874147616e-07
6.35331483236e-07
6.1748994754e-07
1.94095575197e-06
3.02601936067e-06
2.66241296918e-06
1.78834122719e-06
1.35595071598e-06
1.36959899693e-06
1.48344277733e-06
1.52843586493e-06
1.4174696404e-06
1.30244940403e-06
1.21750967302e-06
1.13668685938e-06
1.03523766513e-06
8.94784922526e-07
7.03475401427e-07
5.87131117394e-07
5.80175319714e-07
6.33097039891e-07
6.59322025076e-07
6.15181310178e-07
2.25351080327e-06
3.25176147718e-06
2.78788597801e-06
1.85152050094e-06
1.33700465967e-06
1.3425717684e-06
1.45449960216e-06
1.45653069813e-06
1.31538071921e-06
1.18911668756e-06
1.1029413635e-06
1.02225619267e-06
9.20291853118e-07
7.78867345153e-07
6.37621883262e-07
5.92407254094e-07
6.23749938608e-07
6.73239811977e-07
6.7261483682e-07
6.05866778804e-07
2.58336619107e-06
3.36187179401e-06
2.89276215842e-06
1.98520075087e-06
1.36102774193e-06
1.28525024391e-06
1.39526671088e-06
1.39289535184e-06
1.22144833052e-06
1.08411421713e-06
1.0003268367e-06
9.23151962973e-07
8.2010090463e-07
6.94871679053e-07
6.20778138004e-07
6.25699816693e-07
6.71172577831e-07
7.01264633002e-07
6.72804176206e-07
5.89478538917e-07
5.1308034026e-09
4.90706436899e-09
4.24780263671e-09
3.825035288e-09
5.19228738328e-09
1.25546364816e-08
3.58480772104e-08
8.59603709735e-08
1.58794244709e-07
2.19493226462e-07
2.75696192854e-07
3.47624237397e-07
5.27162255187e-07
8.78438181888e-07
4.37480484986e-06
4.85602335441e-06
5.353504352e-09
4.75060677598e-09
4.80267775661e-09
4.9174258792e-09
4.72575002842e-09
4.12857002606e-09
3.327780141e-09
2.97512143627e-09
4.4197251981e-09
1.15408470341e-08
3.50154267474e-08
8.90285349562e-08
1.68808230764e-07
2.35086264001e-07
2.9796155345e-07
3.8047212751e-07
6.90719277116e-07
2.13614265154e-06
5.10143893196e-06
5.00177838908e-06
9.1409294126e-09
7.12039338808e-09
6.06124431203e-09
5.3411926416e-09
4.6459360641e-09
3.79772985349e-09
2.87787241841e-09
2.43771992415e-09
3.51063160901e-09
9.13264147242e-09
3.05551031238e-08
8.76503397855e-08
1.72806896203e-07
2.44676003792e-07
3.14850307475e-07
5.02787824986e-07
9.20335583843e-07
3.67223010693e-06
5.7492486497e-06
5.50658332141e-06
1.49709366402e-08
1.09481276485e-08
8.12419383659e-09
6.3356253651e-09
5.14523766757e-09
4.02237627001e-09
2.89466420142e-09
2.23300796393e-09
2.77189187583e-09
6.4424373773e-09
2.41355847127e-08
8.39300851831e-08
1.73421059522e-07
2.49845851822e-07
3.28454301703e-07
5.47868958591e-07
1.08424163545e-06
4.2330120194e-06
6.55107354507e-06
6.34431715377e-06
2.26537946842e-08
1.70253332079e-08
1.19671737937e-08
8.47501979998e-09
6.3810310405e-09
4.83749351956e-09
3.45189350303e-09
2.49747703049e-09
2.5437267895e-09
4.62700462109e-09
1.8081676483e-08
7.98943630278e-08
1.74727754377e-07
2.54109757506e-07
3.4005762438e-07
5.04622157489e-07
1.00593175221e-06
4.10701259889e-06
7.37182474652e-06
7.49295095991e-06
3.09618980906e-08
2.46138388858e-08
1.75358007523e-08
1.17678042616e-08
8.34511419373e-09
6.33960169403e-09
4.67996896318e-09
3.39196027102e-09
2.97499808518e-09
4.02998391984e-09
1.41698405859e-08
7.70917200443e-08
1.79999547423e-07
2.61626154938e-07
3.51249090146e-07
4.4434845874e-07
8.08998143354e-07
2.7271630437e-06
7.76390828475e-06
8.80718922622e-06
3.91924740435e-08
3.22186906738e-08
2.37591614656e-08
1.59909165318e-08
1.11123244822e-08
8.6478639655e-09
6.70723075287e-09
5.06924233793e-09
4.05553049771e-09
4.43943973702e-09
1.27028401783e-08
7.38212863781e-08
1.86753821856e-07
2.73381966743e-07
3.6392917286e-07
4.56177672226e-07
7.06154526883e-07
1.43651892052e-06
6.72897573886e-06
1.00950807684e-05
4.70186412013e-08
3.93180852335e-08
2.97504014742e-08
2.07884394261e-08
1.47369236291e-08
1.1855366865e-08
9.60911111219e-09
7.57688472234e-09
5.61903298227e-09
5.53020253471e-09
1.26672283091e-08
6.78373546987e-08
1.88862584179e-07
2.84525116269e-07
3.75962832239e-07
4.66349248331e-07
5.63753796637e-07
1.01810589673e-06
4.64416835366e-06
1.10948600605e-05
5.48335877045e-08
4.58268288312e-08
3.54225250967e-08
2.58868024312e-08
1.92401347987e-08
1.60205460825e-08
1.33623835617e-08
1.0582794945e-08
7.46370621906e-09
6.97355357659e-09
1.2977792169e-08
6.12944444546e-08
1.84433608668e-07
2.90248192166e-07
3.83657030486e-07
4.72596052678e-07
5.61886068945e-07
9.01291241616e-07
2.68753471715e-06
1.11699030432e-05
6.3510554556e-08
5.2477846898e-08
4.1204106981e-08
3.14669677514e-08
2.46937843541e-08
2.11936882173e-08
1.77736490001e-08
1.34941197302e-08
9.43136682454e-09
8.46102551356e-09
1.31869949547e-08
5.5617695099e-08
1.75502345019e-07
2.88883868134e-07
3.85001136148e-07
4.73601947689e-07
5.57424566243e-07
6.60906771211e-07
1.56615181001e-06
9.39762651715e-06
7.43643840517e-08
6.02966256134e-08
4.78344447847e-08
3.79222909184e-08
3.12639742609e-08
2.73777351319e-08
2.22585083144e-08
1.6116337879e-08
1.15035156892e-08
9.76644768881e-09
1.31600481342e-08
5.09066321808e-08
1.65125100566e-07
2.82219106685e-07
3.80973996097e-07
4.70783146449e-07
5.51680709376e-07
6.23199446151e-07
1.09825007738e-06
7.44778399741e-06
8.94748546186e-08
7.04803603319e-08
5.60023486152e-08
4.58347425125e-08
3.92322873614e-08
3.42122483488e-08
2.60495064305e-08
1.86614081034e-08
1.37368049702e-08
1.08570031828e-08
1.29226098121e-08
4.67487914725e-08
1.56492644865e-07
2.75443469383e-07
3.7687836536e-07
4.69004097772e-07
5.49323038296e-07
6.09908946958e-07
9.27001803666e-07
6.16811258058e-06
1.12232667272e-07
8.51424574461e-08
6.71157417015e-08
5.59447879006e-08
4.88623186396e-08
4.09052146318e-08
2.9241143933e-08
2.16465219356e-08
1.61781266731e-08
1.1940900288e-08
1.26410763712e-08
4.32137035898e-08
1.51087023383e-07
2.7305304463e-07
3.77947357117e-07
4.7268339923e-07
5.52655418596e-07
6.04399336483e-07
8.38664888146e-07
5.35745533262e-06
1.47137120845e-07
1.0860438949e-07
8.32751288538e-08
6.88528502538e-08
6.00059627885e-08
4.66383632661e-08
3.30046798186e-08
2.55755010514e-08
1.90350828627e-08
1.33455761189e-08
1.25054293378e-08
4.05125213964e-08
1.48752043413e-07
2.75540419964e-07
3.83736177449e-07
4.78377384426e-07
5.53670701326e-07
5.94619775608e-07
6.50177144212e-07
4.83057504407e-06
1.87946155147e-07
1.38271194729e-07
1.03488739622e-07
8.42718387952e-08
7.11042400977e-08
5.2264746634e-08
3.85909236914e-08
3.05658528344e-08
2.2550075205e-08
1.53282659954e-08
1.26656452432e-08
3.82574047261e-08
1.46722738322e-07
2.78536667066e-07
3.88885699328e-07
4.8121536263e-07
5.49296823395e-07
5.78265162255e-07
5.62403784999e-07
4.00691536037e-06
2.24701499261e-07
1.67479206382e-07
1.25427975456e-07
1.00380131209e-07
8.02533326418e-08
6.00377852772e-08
4.62735100325e-08
3.65775412852e-08
2.66630585062e-08
1.79159101956e-08
1.33074505793e-08
3.71680641145e-08
1.46164066544e-07
2.832148091e-07
3.95612361364e-07
4.86393280319e-07
5.49164656555e-07
5.68899661964e-07
5.40506578753e-07
2.5051992321e-06
2.54829714244e-07
1.94049398058e-07
1.46385215401e-07
1.13290523146e-07
8.94011268081e-08
7.09485954161e-08
5.5364802975e-08
4.3186009319e-08
3.10109549905e-08
2.08692490811e-08
1.4441072649e-08
3.75870417936e-08
1.47429933376e-07
2.88038916036e-07
4.01311735883e-07
4.90942014772e-07
5.50977222671e-07
5.65625894456e-07
5.29240086181e-07
1.46087860431e-06
2.80104439157e-07
2.17691738571e-07
1.61712085309e-07
1.23424101634e-07
1.01303237395e-07
8.35893146675e-08
6.48562988798e-08
4.9607370872e-08
3.51484438071e-08
2.38380694813e-08
1.59156626565e-08
3.8660395106e-08
1.47461920347e-07
2.87421248048e-07
3.9933006092e-07
4.87466376717e-07
5.47643220681e-07
5.62377701626e-07
5.21948609718e-07
9.67811620957e-07
3.01958058995e-07
2.33993947402e-07
1.70645994822e-07
1.35593648826e-07
1.15375843896e-07
9.60835258981e-08
7.35708689068e-08
5.51031397146e-08
3.87680900272e-08
2.65626547181e-08
1.75848475705e-08
3.91011231369e-08
1.42461070304e-07
2.76320403982e-07
3.84234091131e-07
4.70356534369e-07
5.32294354583e-07
5.52652224367e-07
5.14598914694e-07
7.63077098435e-07
3.17252108936e-07
2.39456141679e-07
1.80925752482e-07
1.51036861451e-07
1.29732218147e-07
1.07264984153e-07
8.06843172452e-08
5.93456929623e-08
4.17800123394e-08
2.8965616106e-08
1.91373354524e-08
3.76602633235e-08
1.30871669731e-07
2.56148744179e-07
3.79010560084e-07
4.36499630995e-07
4.99759086947e-07
5.30064041538e-07
5.02946452911e-07
6.7135807715e-07
3.20231871969e-07
2.43069761739e-07
1.96851266724e-07
1.68088059436e-07
1.43495978804e-07
1.16756409144e-07
8.59543927655e-08
6.23827969447e-08
4.43265065309e-08
3.09949121908e-08
2.02398826274e-08
3.40275924873e-08
1.12435224807e-07
2.7200460075e-07
4.25457895739e-07
3.98256697309e-07
4.50850811435e-07
4.9170406733e-07
4.83693020166e-07
6.20458444255e-07
3.15945737465e-07
2.56333002283e-07
2.17023410741e-07
1.85713652096e-07
1.56229879386e-07
1.24467953328e-07
8.96157241499e-08
6.45134650354e-08
4.64789879025e-08
3.25113247364e-08
2.07407394968e-08
2.88389371425e-08
9.0289033184e-08
2.53621875179e-07
3.85254918522e-07
4.12894768581e-07
3.93794714477e-07
4.41247978985e-07
4.55814317045e-07
5.8827726086e-07
3.22357891013e-07
2.79045440542e-07
2.39998033027e-07
2.03507224123e-07
1.67712587229e-07
1.30332144656e-07
9.1890267252e-08
6.60462528392e-08
4.81744852435e-08
3.32742181244e-08
2.04672439676e-08
2.32427252828e-08
8.25823625926e-08
2.19614319829e-07
4.04505778831e-07
3.88889335647e-07
3.37974347381e-07
3.88465514489e-07
4.18174194603e-07
5.54434966905e-07
3.44586158177e-07
3.0859912989e-07
2.65413270459e-07
2.21374790699e-07
1.77802697105e-07
1.34263109932e-07
9.28238355999e-08
6.71060809636e-08
4.89527304213e-08
3.28750200043e-08
1.91733570519e-08
1.84879780134e-08
6.83231057608e-08
2.49447341718e-07
5.26115929006e-07
3.32621681929e-07
2.90741673856e-07
3.44524075263e-07
3.8239912916e-07
5.16377779847e-07
3.78682110714e-07
3.44058569647e-07
2.93427162029e-07
2.39256026257e-07
1.86248660496e-07
1.36080082482e-07
9.25728002158e-08
6.72641315701e-08
4.78209643095e-08
3.06088348896e-08
1.66477041377e-08
1.82621744248e-08
5.76579601687e-08
3.74674759849e-07
6.56226289845e-07
2.84189626541e-07
2.56455462116e-07
3.15055556305e-07
3.55805115116e-07
4.65745375168e-07
4.20623651528e-07
3.84458999306e-07
3.2339982426e-07
2.56210258263e-07
1.92062947845e-07
1.3516488111e-07
9.09904440135e-08
6.49694787552e-08
4.38394447721e-08
2.59884162688e-08
1.52870175707e-08
1.51769284198e-08
8.63932973158e-08
4.67211963867e-07
6.63255807928e-07
2.50306763307e-07
2.38972246688e-07
3.02978944637e-07
3.47139501923e-07
4.56963298856e-07
4.65347798433e-07
4.25675242155e-07
3.51567323719e-07
2.68915057612e-07
1.92745348144e-07
1.30119903686e-07
8.62576687135e-08
5.82088346984e-08
3.63892612753e-08
2.00218607673e-08
1.31331777064e-08
2.22092179292e-08
1.81921562195e-07
5.0210872013e-07
6.06687091681e-07
2.29232350543e-07
2.41970079576e-07
3.09658761433e-07
3.56071795399e-07
4.96189924744e-07
5.05188320218e-07
4.5902709861e-07
3.70042438462e-07
2.71464031486e-07
1.84671150422e-07
1.18988631448e-07
7.55522472839e-08
4.69173726594e-08
2.62611604487e-08
1.77481886737e-08
1.62787779009e-08
8.6231413497e-08
3.08469274808e-07
6.31996669159e-07
4.01186183595e-07
1.97118469077e-07
2.68249139023e-07
3.36973883115e-07
3.91951080053e-07
5.57424494104e-07
5.34253616297e-07
4.76389884202e-07
3.71325439044e-07
2.58815724302e-07
1.65469262544e-07
1.00379422933e-07
5.91301778311e-08
3.31783417999e-08
2.23510798191e-08
1.82442042804e-08
7.90805712626e-08
2.62065848785e-07
5.45813934783e-07
7.87763937968e-07
2.44921714001e-07
2.4160818007e-07
3.18783578021e-07
3.86917568195e-07
5.20651934594e-07
6.49851204484e-07
5.51672345729e-07
4.75963046266e-07
3.54083205126e-07
2.31221745706e-07
1.36811881441e-07
7.65168715858e-08
4.09670591965e-08
2.4199842626e-08
1.8953540612e-08
7.6164109457e-08
2.77708812972e-07
5.32949829765e-07
8.32214249912e-07
3.03896591185e-07
2.24891239658e-07
3.01554624145e-07
3.85216972583e-07
4.56370472167e-07
6.87323280431e-07
7.98911051395e-07
5.59076899234e-07
4.6109123758e-07
3.22854195766e-07
1.94383923038e-07
1.04411845271e-07
5.25086932972e-08
2.52735914333e-08
1.90212887327e-08
4.81270930914e-08
2.50776759568e-07
5.00053681944e-07
7.80364830848e-07
3.29087175583e-07
1.96310356657e-07
2.63629685641e-07
3.52030155702e-07
4.47012378139e-07
5.80660965594e-07
8.29384251657e-07
1.01453315881e-06
5.58621253286e-07
4.37303607903e-07
2.84824397137e-07
1.56102206848e-07
7.4665318774e-08
3.25592270153e-08
1.68407264148e-08
1.864704708e-08
1.14601602469e-07
3.61223127908e-07
6.05116852577e-07
3.74454904714e-07
1.86432394994e-07
1.96897279601e-07
2.65771231847e-07
3.61099184029e-07
5.38536592628e-07
7.61298048607e-07
9.48152569802e-07
1.34387752611e-06
5.51169546386e-07
4.11593828669e-07
2.47665727881e-07
1.2332417767e-07
5.1657239137e-08
1.86827737573e-08
1.10238082441e-08
1.90886634874e-08
1.2783404827e-07
3.27286951668e-07
4.01401356187e-07
1.28320175526e-07
1.19485871874e-07
1.58003817357e-07
2.19706100493e-07
4.08987458877e-07
5.86041199367e-07
7.81134965226e-07
1.04704766486e-06
2.26791036171e-06
5.38078940558e-07
3.84927436115e-07
2.18122703481e-07
1.01626030104e-07
3.81681727283e-08
1.11659158972e-08
6.430877601e-09
1.45213382611e-08
8.71410171993e-08
1.88495788046e-07
1.08524861197e-07
5.2537051252e-08
6.94747523781e-08
9.4142585825e-08
1.85697357325e-07
3.06319093879e-07
4.82312252978e-07
7.33530208851e-07
1.23261997204e-06
6.26403154352e-06
5.21781052143e-07
3.59789344667e-07
1.96902433706e-07
8.9501414918e-08
3.25161624329e-08
8.9966075479e-09
4.31171256242e-09
7.7007364142e-09
4.26651207417e-08
7.81961119413e-08
3.05876830778e-08
2.18895322747e-08
2.93545637907e-08
4.62414490472e-08
9.32708874653e-08
1.86407571508e-07
3.67757215667e-07
6.27146241377e-07
1.23020592422e-06
6.52256519597e-06
5.03272584854e-07
3.37967955298e-07
1.83472829568e-07
8.41236620865e-08
3.158023281e-08
9.53044977405e-09
4.3009245063e-09
4.00263399748e-09
1.53494049589e-08
3.01703142657e-08
1.41107087338e-08
8.07973197714e-09
1.15644819079e-08
1.54959069188e-08
4.57902137048e-08
1.07522794737e-07
3.29163563009e-07
6.87061420258e-07
1.94290972859e-06
5.96506854359e-06
4.82302995619e-07
3.19009507528e-07
1.75112471505e-07
8.26420280495e-08
3.31466759495e-08
1.14876140832e-08
5.44158203417e-09
3.22304902236e-09
6.11778805323e-09
1.16285571444e-08
6.24707376089e-09
3.3882035149e-09
4.73361678339e-09
7.09760462868e-09
1.45891657706e-08
9.42962410134e-08
5.86478293051e-07
1.96517345451e-06
4.52722751058e-06
7.26838660786e-06
4.59133762816e-07
3.0192394422e-07
1.68461545304e-07
8.20222354884e-08
3.52032197272e-08
1.3823822661e-08
6.507638336e-09
3.54457131287e-09
3.45552050526e-09
3.66299174321e-09
1.9229007605e-09
2.01661720007e-09
2.60095385557e-09
4.16056223074e-09
7.26909038812e-09
1.21963285115e-08
9.28285265161e-08
1.57795668149e-06
4.65761379323e-06
8.75806657399e-06
)
;

boundaryField
{
    emptyPatch
    {
        type            empty;
    }
    minY
    {
        type            zeroGradient;
    }
    maxY
    {
        type            calculated;
        value           nonuniform List<scalar> 
40
(
2.58327876692e-06
3.36202893823e-06
2.89276739269e-06
1.98516740937e-06
1.36099911577e-06
1.28522346365e-06
1.39524440266e-06
1.39288251539e-06
1.22143908747e-06
1.08410602804e-06
1.00031940049e-06
9.23145420678e-07
8.20095644702e-07
6.94870452617e-07
6.20773522532e-07
6.25688545803e-07
6.71169153388e-07
7.0127857611e-07
6.72813903088e-07
5.89479284854e-07
4.59131970181e-07
3.01920702419e-07
1.68458847182e-07
8.20212065918e-08
3.52030564019e-08
1.3823852763e-08
6.50768567043e-09
3.54460920591e-09
3.45556595443e-09
3.66304386214e-09
1.92296233799e-09
2.01671217871e-09
2.60099400658e-09
4.16057213082e-09
7.26914471878e-09
1.2196470242e-08
9.28277234406e-08
1.57793031231e-06
1.67999769867e-08
1.68107815299e-08
)
;
    }
    water_to_cooler
    {
        type            compressible::alphatWallBoilingWallFunction;
        phaseType       vapor;
        relax           constant 1;
        partitioningModel
        {
            type            Lavieville;
            alphaCrit       0.2;
        }
        otherPhase      liquid;
        dmdt            uniform 0;
        dDep            uniform 1e-05;
        qQuenching      uniform 0;
        alphatConv      uniform 0;
        value           nonuniform List<scalar> 
38
(
6.97617609274e-10
7.03326915835e-10
7.02873629686e-10
7.07646473454e-10
7.05567562827e-10
7.07211756373e-10
7.04012211438e-10
7.05501892724e-10
7.01197648054e-10
7.02834376451e-10
6.97912654558e-10
6.98663485236e-10
6.93537829317e-10
6.94095189265e-10
3.72595200092e-10
1.16030148063e-10
5.50367215047e-11
3.45638645081e-11
2.62769428333e-11
2.24909876541e-11
2.04006703044e-11
1.88984739271e-11
1.74200323168e-11
1.64884894998e-11
1.64225163141e-11
1.6418438201e-11
1.64139334961e-11
1.69022243248e-11
1.83697232599e-11
2.06427768385e-11
2.32278056295e-11
2.76500848187e-11
4.10689082155e-11
1.10442773933e-10
2.6283457576e-10
2.69799429121e-10
2.93634421836e-10
2.94435192156e-10
)
;
    }
    water_to_heater
    {
        type            compressible::alphatWallBoilingWallFunction;
        phaseType       vapor;