/*--------------------------------*- C++ -*----------------------------------*\
| =========                 |                                                 |
| \\      /  F ield         | OpenFOAM: The Open Source CFD Toolbox           |
|  \\    /   O peration     | Version:  2312                                  |
|   \\  /    A nd           | Website:  www.openfoam.com                      |
|    \\/     M anipulation  |                                                 |
\*---------------------------------------------------------------------------*/
FoamFile
{
    version     2.0;
    format      ascii;
    arch        "LSB;label=32;scalar=64";
    class       volScalarField;
    location    "0.15/water";
    object      alpha.gas_0;
}
// * * * * * * * * * * * * * * * * * * * * * * * * * * * * * * * * * * * * * //

dimensions      [0 0 0 0 0 0 0];

internalField   nonuniform List<scalar> 
750
(
0.578455674155
0.552453426868
0.510402396038
0.469536644626
0.433161168541
0.401766206159
0.374188652605
0.349771897556
0.328133159701
0.308772261181
0.290847611155
0.273396903535
0.256484317302
0.241368429168
0.228930193934
0.21778763194
0.205739747112
0.191622612043
0.176958277688
0.166096345043
0.308133733885
0.361512483346
0.330366889535
0.33313865678
0.325442542971
0.315881149408
0.300390918405
0.282254670069
0.27511243472
0.274677089222
0.288248282632
0.295734808227
0.295679595785
0.281679666709
0.244443880178
0.226447811823
0.242632439268
0.283239000024
0.288760885981
0.267093122724
0.28205014643
0.339222648772
0.305011415289
0.308291291264
0.300619303598
0.294355700224
0.288153329456
0.284069980223
0.280049402711
0.27410828491
0.267094344186
0.264828012282
0.267307838782
0.276085407386
0.286069216632
0.292149222408
0.295348925712
0.295110000457
0.293115300024
0.294157989445
0.279627546172
0.33312316646
0.296078996674
0.29727248794
0.28830479628
0.279425872569
0.270241951462
0.264570042274
0.260759215618
0.252781379506
0.23751505553
0.24756377825
0.336233926837
0.331977733193
0.339917219249
0.331977733193
0.33812678901
0.331977733193
0.335449375945
0.331977733193
0.240221186957
0.241557989497
0.207923753771
0.20189675112
0.190854943083
0.18394839762
0.177514751317
0.172635772344
0.16865483532
0.16545676817
0.162218860717
0.158778088244
0.15909505822
0.160200706082
0.162206347076
0.165457434006
0.170138556128
0.176727249004
0.185000739397
0.195749859989
0.241274713033
0.265107719173
0.231414684937
0.22060582302
0.20602939821
0.19574703937
0.186521842695
0.17893058034
0.172365401856
0.166675472419
0.160895105827
0.154822646126
0.154882553254
0.153769768809
0.154882553254
0.153447331109
0.154882553254
0.153569918504
0.154882553254
0.153848532628
0.492944501977
0.505293622486
0.484023022414
0.45993704515
0.429796918687
0.40012684621
0.372714321588
0.34949169903
0.331055857652
0.316919060148
0.305147804321
0.293559257638
0.280830627346
0.265459943488
0.243653236041
0.213288390723
0.181125689489
0.17390537786
0.183369396534
0.206458580216
0.748148261144
0.744863867819
0.738391662478
0.729159619295
0.718903041344
0.70908549287
0.700603042607
0.693235919734
0.685919069161
0.677341870302
0.664567691557
0.636315739393
0.56681599758
0.46561560657
0.377857219798
0.333738920574
0.323913934091
0.320184445634
0.301609596407
0.251760718532
0.842001511547
0.836529191
0.831004483108
0.827293543079
0.825694589455
0.825466262795
0.826252537223
0.827747026648
0.828944035631
0.827378097123
0.822521341864
0.797551218623
0.684151351981
0.427650275168
0.260496561823
0.212162872586
0.194039508335
0.173766332601
0.151144859506
0.137075910557
0.843105700385
0.843103602081
0.842792632106
0.842622078938
0.843356035223
0.84520560767
0.846448338255
0.846451583274
0.845510383672
0.83736779625
0.814390970689
0.771657578089
0.692259279743
0.51993340373
0.278157874249
0.146226166864
0.11035887655
0.102330960048
0.0996986956719
0.0979428856016
0.843035892835
0.842146428226
0.84074514316
0.840745143222
0.84081124021
0.842227928106
0.842788639372
0.841830821356
0.837558237705
0.821237475855
0.780118866211
0.714231448133
0.660170448215
0.599245567727
0.487207486721
0.353898608155
0.203109233681
0.1123954769
0.085355617384
0.0772999621234
0.844863854895
0.844343760936
0.84391485579
0.844059088886
0.845422571589
0.846928845205
0.846959150383
0.846431154839
0.842549732219
0.828461201862
0.796350395396
0.746684879974
0.688321147704
0.626537975967
0.534349618341
0.401920183726
0.269448212648
0.168013198155
0.101510926021
0.0655872817502
0.844865460386
0.843565319288
0.842936403737
0.842068814162
0.841260975263
0.840709409947
0.840152617577
0.838974356456
0.834818002299
0.823055234174
0.799485194556
0.765691292117
0.723916200841
0.671468862039
0.600501766476
0.507699717455
0.40077471513
0.295132990097
0.202093634815
0.125145356043
0.782098296454
0.782587088194
0.777436341423
0.764800863831
0.747513319163
0.731428426277
0.720174008513
0.713904050979
0.710742506319
0.707971090327
0.701383182838
0.685744347987
0.664777177367
0.647843657035
0.635977403376
0.621823375536
0.595719573606
0.548858519874
0.478230379956
0.401188859305
0.710597926262
0.695364611059
0.668122564941
0.629226856951
0.579880110802
0.516438562523
0.435836308063
0.350264799517
0.297759915628
0.332618166965
0.489691576943
0.643348638778
0.685342941625
0.695241564723
0.700622177074
0.702734151851
0.701467615064
0.692991700468
0.67853097188
0.659047403119
0.706133358986
0.677009868135
0.625210668834
0.557043608901
0.480123429951
0.397290367607
0.319276128373
0.277209039706
0.273070460462
0.275729946775
0.271811506148
0.297356497995
0.580852997507
0.706022588686
0.702948770031
0.706409918579
0.702948770031
0.705437610464
0.702948770031
0.703612443602
0.726441998658
0.713086792245
0.688766424967
0.651445316649
0.603237494987
0.544729954617
0.474398141213
0.390206482425
0.306763677767
0.273946618653
0.2738790855
0.271310698287
0.273254873733
0.41663442469
0.679087681846
0.702948770031
0.704459287737
0.702948770031
0.703833801606
0.702948770031
0.814764616721
0.804756906889
0.792498700802
0.771450916767
0.7426979997
0.713308507233
0.686160013172
0.618592481446
0.401611222077
0.2738790855
0.271966650384
0.272111368779
0.271300434076
0.317341866777
0.522567912416
0.591477135774
0.60758282174
0.605289666367
0.584893612403
0.559102233216
0.83574529869
0.84030148104
0.827081244996
0.803596310459
0.774765708126
0.745994884914
0.712945817874
0.672760344855
0.595465931544
0.452456433922
0.320114227103
0.272317287119
0.273254444481
0.287611475053
0.321541799509
0.345934237955
0.353064758472
0.346719613564
0.340128665738
0.342902173771
0.837833576884
0.847553164649
0.839270819863
0.826596763129
0.804882665717
0.776653259221
0.73638842909
0.681015416188
0.652748901662
0.63680275918
0.603180944374
0.536271154614
0.430734126934
0.323726998986
0.258490150867
0.232896146524
0.225944969136
0.22517330687
0.235934777197
0.250000188947
0.849360869934
0.85384193749
0.854412575687
0.855351737231
0.853288353447
0.846619694936
0.835121587722
0.81802632746
0.804945096119
0.797322763961
0.780310509014
0.736792103407
0.653507751306
0.537055707902
0.367678254075
0.229872738914
0.172486320932
0.159497446274
0.159089506419
0.167657065138
0.853772810379
0.854974474544
0.858012069957
0.864026595247
0.870364848739
0.874045952886
0.875228834237
0.874808753739
0.873285422694
0.871025464453
0.866945073515
0.85863217311
0.842459282055
0.818202742587
0.77728073761
0.710538802232
0.581010545368
0.321694996869
0.129072437195
0.0895207586791
0.853660140518
0.852801026162
0.854950023063
0.860618649415
0.868689184199
0.876005425518
0.879065650919
0.878998206303
0.879110244361
0.878998206303
0.879103847109
0.878998206303
0.879019086929
0.878532032169
0.876776683899
0.871936907525
0.859263651064
0.824929266557
0.743336112876
0.566780267091
0.845928250006
0.844075050484
0.844450392905
0.847581369324
0.855018122218
0.864353527849
0.871352565785
0.875548974993
0.878390670544
0.879074465541
0.878998206303
0.879073527386
0.878998206303
0.879043339214
0.878998206303
0.879007248328
0.878795044196
0.874448751784
0.835108117325
0.689524702382
0.826904387936
0.826498196731
0.827609603425
0.830988540115
0.837703008382
0.847065204574
0.856458642196
0.8635943401
0.868086349712
0.870284226704
0.870918741124
0.870893367902
0.870480150829
0.869487818954
0.868068443457
0.86625470402
0.862678330455
0.847534158326
0.780049890275
0.640439531247
0.818580697927
0.818608705411
0.820308037128
0.824692764405
0.831961587859
0.841142491349
0.849960107628
0.856205495869
0.859543417244
0.860930356021
0.861275994516
0.861058641479
0.860098377254
0.858136507061
0.855454319118
0.852000480333
0.845477294313
0.825982837533
0.77476614386
0.696028797342
0.848041284481
0.842545392008
0.839259653892
0.840120981328
0.84414211368
0.850559580802
0.856375878331
0.859508408576
0.860689340205
0.860984832008
0.86101767231
0.860798593946
0.8599787428
0.858264085757
0.855894860747
0.852976234842
0.848320351244
0.836092367981
0.80008243522
0.726915521332
0.857554508096
0.856801686924
0.85730825086
0.857609454168
0.859053154126
0.860823498366
0.86085509056
0.860887199237
0.860919697488
0.860951908691
0.860983271354
0.860948459395
0.860913689412
0.860878706784
0.860394377954
0.859095378819
0.856794017875
0.851947523818
0.833514494908
0.755770255156
0.849106121874
0.843293467843
0.840648703089
0.840183149157
0.841678535993
0.844452080817
0.846948652503
0.84832906963
0.848918260671
0.849526907726
0.850691182397
0.852779751717
0.855612735139
0.85804273526
0.858663058365
0.857458386225
0.853789466683
0.841662280653
0.795767870528
0.660830396603
0.726165057843
0.724961790056
0.722500693693
0.720220615614
0.71929576147
0.719552691157
0.720754191426
0.723340886735
0.727806642928
0.73455179073
0.744254070516
0.757203966855
0.773122751916
0.789640710814
0.802143072219
0.805871927502
0.793201236553
0.74798507346
0.656756311485
0.547939649726
0.471988587606
0.465143860131
0.445048196988
0.446632023642
0.440779106497
0.444732469072
0.435588773677
0.442815232424
0.428374712898
0.442649526141
0.423550001505
0.440890823286
0.421677756104
0.438922671513
0.51677765033
0.656298065337
0.656090310982
0.631597032335
0.598615994721
0.566507397323
0.685509580581
0.67687587676
0.656132313635
0.618401970806
0.560651607102
0.491999924121
0.443827119809
0.44050067932
0.442649526141
0.433095098936
0.440890823286
0.424874827974
0.438922671513
0.418045416365
0.438723986506
0.416413799555
0.438723986506
0.417757490387
0.520758741028
0.684402008114
0.822205712056
0.824970611485
0.808663462323
0.773892582175
0.731082327582
0.696115101433
0.672110407951
0.64698292555
0.607150018708
0.545580331811
0.474817173091
0.440890823286
0.438397380763
0.438922671513
0.436515651004
0.57400428064
0.717983426462
0.775384054535
0.816242982694
0.831455090173
0.866809210945
0.869071097412
0.869090087525
0.870151395571
0.870077707552
0.868314198237
0.863990945676
0.854683159212
0.838594088513
0.811856233362
0.772064787814
0.729606946734
0.704836212249
0.699863672057
0.730953915885
0.799141830616
0.841573811965
0.865392920092
0.88336986609
0.894136351495
0.880223191665
0.879693609084
0.880363308919
0.884550838024
0.892510622466
0.901114837754
0.906830890595
0.908502637647
0.907447813193
0.904642088021
0.900272144971
0.894694459132
0.888698363802
0.885191068675
0.886873861117
0.891482269767
0.89633416097
0.902161030718
0.909797462207
0.919813895389
0.880570956078
0.880569748351
0.882334097905
0.887228536291
0.89511032123
0.903989695131
0.911334151057
0.915612232212
0.916850293846
0.916730472266
0.916340551455
0.915989660827
0.915866679453
0.915947653863
0.916441367194
0.917149711675
0.918074369161
0.919223553746
0.921453982347
0.926347818373
0.880570954875
0.880362573956
0.881794192253
0.886131594198
0.893698324708
0.902893955554
0.911227444855
0.916843385238
0.919103646707
0.919428118587
0.919309784686
0.919166205953
0.919240743758
0.919584158317
0.920331502398
0.921385069701
0.922420975881
0.923072191579
0.923817781942
0.925999812059
0.135729027702
0.234472862167
0.316000379106
0.332121857836
0.28537229331
0.191494973417
0.206549984759
0.160984715192
0.117298040033
0.0841353457775
)
;

boundaryField
{
    emptyPatch
    {
        type            empty;
    }
    minY
    {
        type            fixedValue;
        value           uniform 1e-15;
    }
    maxY
    {
        type            inletOutlet;
        phi             phi.gas;
        inletValue      nonuniform List<scalar> 0();
        value           nonuniform List<scalar> 0();
    }
    maxX
    {
        type            zeroGradient;
    }
    water_to_heater
    {
        type            zeroGradient;
    }
    procBoundary0to1
    {
        type            processor;
        value           nonuniform List<scalar> 
38
(
0.0615365400455
0.0459833503852
0.0409122269762
0.222401482431
0.506601559948
0.663546314848
0.657602078744
0.518073756733
0.375280808224
0.292233163859
0.197571884303
0.0894170950431
0.104163588817
0.188227298054
0.304749825149
0.476171829188
0.501911190347
0.433405375883
0.302192144483
0.353607640914
0.443832854117
0.62269657425
0.815723708531
0.91420986818
0.940389162519
0.94305770287
0.940592995079
0.0913818744296
0.21389036589
0.288101793153
0.30155176541
0.379866718924
0.368430856604
0.265304495419
0.173320578941
0.100539998411
0.057387685211
0.0615365400455
)
;
    }
    procBoundary0to3
    {
        type            processor;
        value           nonuniform List<scalar> 
20
(
0.87876240677
0.878167486911
0.879109218847
0.882590823953
0.889754504163
0.899780475256
0.909896176963
0.917006502407
0.920264891868
0.920938947257
0.92082515241
0.920658159272
0.920702973767
0.921022217479
0.921725797218
0.922638133532
0.923349629563
0.923690539028
0.924066401432
0.924174060346
)
;
    }
}


// ************************************************************************* //
