/*--------------------------------*- C++ -*----------------------------------*\
| =========                 |                                                 |
| \\      /  F ield         | OpenFOAM: The Open Source CFD Toolbox           |
|  \\    /   O peration     | Version:  2312                                  |
|   \\  /    A nd           | Website:  www.openfoam.com                      |
|    \\/     M anipulation  |                                                 |
\*---------------------------------------------------------------------------*/
FoamFile
{
    version     2.0;
    format      ascii;
    arch        "LSB;label=32;scalar=64";
    class       surfaceScalarField;
    location    "0.88/water";
    object      phi;
}
// * * * * * * * * * * * * * * * * * * * * * * * * * * * * * * * * * * * * * //

dimensions      [0 3 -1 0 0 0 0];

oriented        oriented;

internalField   nonuniform List<scalar> 
2916
(
1.93327958093e-07
8.03651744393e-07
2.05539710239e-07
8.45044006298e-07
2.28098967146e-07
8.63686809871e-07
2.68617622164e-07
8.47473440774e-07
2.88239013795e-07
8.19176630867e-07
2.92045811254e-07
7.80015296861e-07
2.86610345396e-07
7.38155747043e-07
2.765797665e-07
7.00146265771e-07
2.64814331345e-07
6.70313587102e-07
2.5280879088e-07
6.53186790143e-07
2.42011163017e-07
6.47531328608e-07
2.3215480408e-07
6.43143082416e-07
6.32800053639e-07
2.23482777388e-07
1.51554440491e-07
3.00432030992e-07
1.43601841787e-07
4.31200350382e-07
1.4215276028e-07
5.19277002728e-07
1.43698640671e-07
5.82800277555e-07
1.46323402993e-07
6.39813311103e-07
1.48958355169e-07
6.95226590314e-07
1.52181924057e-07
7.48685712756e-07
1.60455830628e-07
7.95174279584e-07
1.83572715351e-07
8.21762300618e-07
2.30368027986e-07
8.16736110971e-07
2.67620233051e-07
8.10065029996e-07
2.92071785192e-07
7.94569384565e-07
3.04118118805e-07
7.67817010896e-07
3.05992911971e-07
7.36140594057e-07
3.01187240438e-07
7.04831515549e-07
2.92157652341e-07
6.79248597587e-07
2.80294300296e-07
6.64973027924e-07
2.68792555065e-07
6.58954153027e-07
2.57607486482e-07
6.5423954902e-07
6.42119154021e-07
2.48194680391e-07
1.48041047056e-07
3.01614707717e-07
1.32374004169e-07
4.28895105343e-07
1.28683999033e-07
5.16300419315e-07
1.2793377805e-07
5.80940328201e-07
1.27532212067e-07
6.39153362201e-07
1.28256764626e-07
6.94039725807e-07
1.33955963372e-07
7.4273450924e-07
1.53255949451e-07
7.75695975169e-07
1.95911574927e-07
7.78947152577e-07
2.3073869257e-07
7.81757921241e-07
2.60971388024e-07
7.79683234733e-07
2.85386779384e-07
7.70007047707e-07
3.00794124188e-07
7.52267695826e-07
3.07703164372e-07
7.2910187436e-07
3.07580803574e-07
7.0484449717e-07
3.0093182334e-07
6.85811844685e-07
2.89812596347e-07
6.76017343354e-07
2.78010319362e-07
6.70677689518e-07
2.67009377996e-07
6.65150177074e-07
6.51147384842e-07
2.57889347587e-07
1.57163634156e-07
2.92547740853e-07
1.09721880766e-07
4.59952587399e-07
1.03403887375e-07
5.18834991836e-07
1.05018745988e-07
5.78064098735e-07
1.07123012281e-07
6.36448510815e-07
1.12285230036e-07
6.88549934795e-07
1.28491104471e-07
7.2631372883e-07
1.64423736166e-07
7.39591829929e-07
1.95712196025e-07
7.47505410485e-07
2.25689850527e-07
7.51636915792e-07
2.52558873226e-07
7.52674741422e-07
2.74284549379e-07
7.48146238998e-07
2.89605947614e-07
7.36818564208e-07
2.98375159509e-07
7.20219141685e-07
3.00249285373e-07
7.02877365419e-07
2.93879110441e-07
6.92106082934e-07
2.83949069966e-07
6.85874493814e-07
2.72173677794e-07
6.82373948961e-07
2.62747299805e-07
6.74489421581e-07
6.58952922038e-07
2.54856995718e-07
1.07937400803e-07
3.39062293018e-07
8.11674561589e-08
4.78037158383e-07
6.87584559774e-08
5.30197943892e-07
7.35932657244e-08
5.72917193392e-07
8.30133637564e-08
6.2671050222e-07
1.01625101994e-07
6.69689366484e-07
1.32172353922e-07
6.95572515308e-07
1.61801799665e-07
7.0980358616e-07
1.90783132618e-07
7.18383156965e-07
2.1679607338e-07
7.25493204318e-07
2.39325576953e-07
7.30020206331e-07
2.57809697429e-07
7.29543424373e-07
2.71607182221e-07
7.22911980799e-07
2.79887251725e-07
7.11845497102e-07
2.80657688666e-07
7.02030732672e-07
2.7456499226e-07
6.98129375279e-07
2.6505453464e-07
6.95315865928e-07
2.55633341169e-07
6.91717058868e-07
2.47666121247e-07
6.8237806523e-07
6.64781153447e-07
2.41763632185e-07
6.41221896226e-08
4.38308171805e-07
4.77308539291e-08
4.87429557076e-07
4.43437762082e-08
5.32016841503e-07
5.03393104096e-08
5.6646559397e-07
6.67291189036e-08
6.10016741242e-07
9.24851542982e-08
6.43709662969e-07
1.22325457463e-07
6.65563019491e-07
1.51634764695e-07
6.80357216764e-07
1.77187353912e-07
6.92710062471e-07
1.99134197133e-07
7.03435524248e-07
2.17917489104e-07
7.11132487619e-07
2.33475702562e-07
7.13888364448e-07
2.45054770866e-07
7.11246818678e-07
2.50914897266e-07
7.05913555054e-07
2.49341347463e-07
7.03542899346e-07
2.44265407144e-07
7.03146016418e-07
2.36222381863e-07
7.03294556511e-07
2.29919261751e-07
6.97953829332e-07
2.2478046166e-07
6.87452191308e-07
6.67692517896e-07
2.21810309051e-07
1.0270915685e-07
4.97434198647e-07
7.21547280226e-08
5.05487154276e-07
5.63409254802e-08
5.43776230477e-07
4.91218969971e-08
5.72498090604e-07
5.87860638898e-08
5.9994717366e-07
8.10793731967e-08
6.21218668789e-07
1.07026826068e-07
6.39488071043e-07
1.30951843503e-07
6.56333125085e-07
1.5166847015e-07
6.71906615296e-07
1.69716431594e-07
6.85307486366e-07
1.85505549602e-07
6.95268571441e-07
1.98478244919e-07
7.00847728533e-07
2.07240342289e-07
7.02425798938e-07
2.09965148693e-07
7.03138585306e-07
2.08146544124e-07
7.05314753275e-07
2.04332816897e-07
7.0691271757e-07
2.00659631952e-07
7.06916937485e-07
1.98182051937e-07
7.0038098775e-07
1.9803643496e-07
6.8754938333e-07
6.6748723632e-07
1.98199956251e-07
1.26992890569e-07
5.30571819719e-07
8.13408571012e-08
5.37639025911e-07
5.39321015752e-08
5.66609134884e-07
3.42080430953e-08
5.90897104188e-07
3.62400782989e-08
5.97551329242e-07
5.1748956777e-08
6.05575837908e-07
7.0935882017e-08
6.20227800993e-07
8.94932675174e-08
6.37721055969e-07
1.06530350569e-07
6.54821152773e-07
1.22297882443e-07
6.69494818653e-07
1.36586060589e-07
6.80938106538e-07
1.48005945673e-07
6.89389305592e-07
1.54873710527e-07
6.95523506147e-07
1.5701477695e-07
7.00965640427e-07
1.57421510863e-07
7.04876692099e-07
1.57473624989e-07
7.06827653141e-07
1.60000047118e-07
7.04356259591e-07
1.64402334788e-07
6.95945401337e-07
1.69886304965e-07
6.82035186036e-07
6.64046227877e-07
1.73301129983e-07
1.32168419155e-07
5.56793390296e-07
8.36358813704e-08
5.73007979323e-07
4.10757622596e-08
6.04982826781e-07
9.0341599953e-09
6.21909930809e-07
5.20848333311e-10
6.05876022066e-07
5.78268031253e-09
6.00264819723e-07
1.65874880379e-08
6.09400929897e-07
2.96812993543e-08
6.24611112256e-07
4.37583760828e-08
6.40728864481e-07
5.79607704718e-08
6.55277383503e-07
7.16416547521e-08
6.67242264042e-07
8.36150802376e-08
6.77401132623e-07
9.19542690843e-08
6.87169856751e-07
9.79384120641e-08
6.94967083728e-07
1.03208145802e-07
6.99592033846e-07
1.10289966029e-07
6.99730503305e-07
1.2045343708e-07
6.94177424936e-07
1.31859025025e-07
6.84525171501e-07
1.41932192223e-07
6.71948664445e-07
6.56752819901e-07
1.49212978845e-07
1.30963392664e-07
5.85937832361e-07
7.99714149579e-08
6.12961740712e-07
2.2735852874e-08
6.59615965255e-07
-1.60426487051e-08
6.60630207708e-07
-3.50312010506e-08
6.2505443859e-07
-4.06073447776e-08
6.05914727591e-07
-3.75503042939e-08
6.06370902549e-07
-2.90763781811e-08
6.16153372799e-07
-1.75826209644e-08
6.2924698481e-07
-4.68137609539e-09
6.42384947557e-07
8.50451287062e-09
6.54062486786e-07
2.16860141627e-08
6.64223886204e-07
3.44218123563e-08
6.74437031954e-07
4.63891454303e-08
6.83002070581e-07
5.86546111841e-08
6.87328517901e-07
7.29947568131e-08
6.85391776679e-07
8.84504115436e-08
6.78722400696e-07
1.03422236706e-07
6.69553677923e-07
1.16618987193e-07
6.58751978525e-07
6.45113027366e-07
1.28258885307e-07
1.48200493794e-07
6.08455901787e-07
8.4778745402e-08
6.68268356397e-07
2.80245678667e-08
7.15920415923e-07
-8.0518881937e-09
6.97672983109e-07
-3.76351990374e-08
6.55243422595e-07
-5.8855022361e-08
6.27381072263e-07
-6.81369695034e-08
6.1575255161e-07
-6.59921247394e-08
6.14057360149e-07
-5.69172519281e-08
6.20206040689e-07
-4.4333800502e-08
6.29827915071e-07
-3.01095445471e-08
6.39860145594e-07
-1.5184247866e-08
6.49316924066e-07
1.0597133873e-09
6.58209140973e-07
1.75045261378e-08
6.66572255752e-07
3.4459997351e-08
6.7038705732e-07
5.15191843475e-08
6.68344891441e-07
6.79407754673e-08
6.6231203602e-07
8.35267825532e-08
6.53978545046e-07
9.84996614701e-08
6.43790123874e-07
6.30449699605e-07
1.13174354057e-07
2.26391074117e-07
5.43670274925e-07
1.67588797132e-07
7.08221692863e-07
1.27793769694e-07
7.4820538751e-07
9.08775773084e-08
7.3202326641e-07
4.60737992084e-08
6.99429687786e-07
1.83347684499e-09
6.71579244396e-07
-3.19084821766e-08
6.49563272208e-07
-4.78596697023e-08
6.30070755086e-07
-4.91169459457e-08
6.21511947092e-07
-4.21791173019e-08
6.22928898497e-07
-3.05489945756e-08
6.28262165946e-07
-1.60973000719e-08
6.34892438917e-07
-1.62666653511e-10
6.42298214661e-07
1.59443060522e-08
6.50487497817e-07
3.17175392673e-08
6.54635049338e-07
4.66451506314e-08
6.53437333482e-07
6.10925076151e-08
6.47885110611e-07
7.55277347807e-08
6.39563823592e-07
9.01509798606e-08
6.29188627119e-07
6.15552836439e-07
1.05069297285e-07
1.59458083309e-07
4.77016489698e-07
1.90447093638e-07
6.53635047137e-07
2.18779479194e-07
7.06005659387e-07
2.16601628055e-07
7.27567813259e-07
1.7447583857e-07
7.38879774415e-07
1.11428572302e-07
7.337679767e-07
5.90011205289e-08
7.01819605131e-07
2.53398991332e-08
6.63759580196e-07
8.85270996468e-09
6.38055203261e-07
4.05575632555e-09
6.27775847687e-07
6.60485896434e-09
6.25754130134e-07
1.42166139291e-08
6.273139948e-07
2.45792010078e-08
6.31963858815e-07
3.53168180157e-08
6.39777349558e-07
4.5763595902e-08
6.44215116376e-07
5.5979956081e-08
6.43248946704e-07
6.63669631633e-08
6.37525928191e-07
7.71934038846e-08
6.28767409511e-07
8.85928782842e-08
6.17819401956e-07
6.03592931257e-07
1.00585790781e-07
1.26332105715e-07
4.27794662943e-07
1.49330433224e-07
6.069439321e-07
1.72566593662e-07
6.69193226381e-07
1.87615492439e-07
7.06030914812e-07
1.87115905184e-07
7.36651296513e-07
1.64734787526e-07
7.55165687841e-07
1.1732917479e-07
7.48985607362e-07
9.19241300925e-08
6.89163051293e-07
7.49428820619e-08
6.55086991718e-07
6.48005646499e-08
6.37973439927e-07
6.00167687519e-08
6.30586295022e-07
5.91916916172e-08
6.28177858308e-07
6.11931467431e-08
6.29993306792e-07
6.44002316234e-08
6.36600029973e-07
6.80946926548e-08
6.40552590728e-07
7.22187397189e-08
6.3915709742e-07
7.68178283966e-08
6.32962166243e-07
8.20689201846e-08
6.23552613967e-07
8.79769167529e-08
6.1195149421e-07
5.97063796808e-07
9.45464525268e-08
9.16741046598e-08
4.16891834009e-07
9.62082732186e-08
5.83616924176e-07
1.08035005384e-07
6.48075625641e-07
1.20568671074e-07
6.89409850927e-07
1.26662578481e-07
7.28838995308e-07
1.27370324618e-07
7.53825999891e-07
1.31122163857e-07
7.45072719635e-07
1.26853013726e-07
6.93425584603e-07
1.18741425681e-07
6.63240352458e-07
1.10434252509e-07
6.46331928385e-07
1.03303214126e-07
6.37764748654e-07
9.75550543321e-08
6.33965031792e-07
9.3074803743e-08
6.34504584547e-07
8.96475924515e-08
6.40059182953e-07
8.71563955069e-08
6.43076859345e-07
8.53275700106e-08
6.41023598351e-07
8.40535979121e-08
6.34275694642e-07
8.32723685128e-08
6.2437804691e-07
8.2986956202e-08
6.12283000407e-07
5.97144065141e-07
8.29570821767e-08
5.82564894044e-08
4.43090831054e-07
4.1944070463e-08
5.91927888307e-07
4.01724208792e-08
6.47698065932e-07
4.92716536334e-08
6.79074394976e-07
6.50694998827e-08
7.12350518501e-07
9.93423166875e-08
7.19232614033e-07
1.37648554311e-07
7.06669644087e-07
1.45806057161e-07
6.85270217917e-07
1.43652669045e-07
6.6543313133e-07
1.37195923577e-07
6.52836781111e-07
1.29264904729e-07
6.45741213071e-07
1.20855497314e-07
6.42412745631e-07
1.12079755485e-07
6.43311877226e-07
1.03730668474e-07
6.48440158006e-07
9.64273606332e-08
6.50418442834e-07
8.97667762338e-08
6.47724407408e-07
8.34310415156e-08
6.40657559573e-07
7.72973752112e-08
6.30561309625e-07
7.11356072918e-08
6.18499121791e-07
6.03799997128e-07
6.45363872969e-08
3.08573853649e-08
5.08643670226e-07
-2.20354313334e-08
6.47070768564e-07
-3.98239518351e-08
6.68329034114e-07
2.01955170406e-09
6.37858839256e-07
5.68042937745e-08
6.57394160843e-07
1.02332810295e-07
6.73572790292e-07
1.31316099008e-07
6.77653627714e-07
1.46567286146e-07
6.70039506683e-07
1.5012949322e-07
6.61913090337e-07
1.46804644901e-07
6.56208416289e-07
1.39778674096e-07
6.52810554848e-07
1.29900073167e-07
6.5232769915e-07
1.17520302855e-07
6.5572337798e-07
1.05792447358e-07
6.60206112666e-07
9.50506479572e-08
6.61199655703e-07
8.48007534049e-08
6.58021299997e-07
7.46519864619e-08
6.50857156968e-07
6.42629460522e-08
6.4100714877e-07
5.32539363095e-08
6.29569656897e-07
6.16280331237e-07
4.08398382594e-08
3.15886519846e-08
6.14642002726e-07
1.76265665957e-10
6.79938882879e-07
1.06429847409e-08
6.60231439472e-07
2.9474487726e-08
6.19646334848e-07
6.15808617755e-08
6.25365837833e-07
9.46828365473e-08
6.40459160319e-07
1.2195897226e-07
6.50391123888e-07
1.38120723092e-07
6.5391328307e-07
1.44644763027e-07
6.55432951567e-07
1.43908184711e-07
6.56988263143e-07
1.36921481328e-07
6.59835167012e-07
1.24765487968e-07
6.64516779353e-07
1.10474395412e-07
6.70051909977e-07
9.71248684117e-08
6.73594410448e-07
8.45478848346e-08
6.7382413268e-07
7.22712591967e-08
6.70348465032e-07
5.97832302454e-08
6.6340305206e-07
4.6750704378e-08
6.54103403729e-07
3.25301076906e-08
6.43858754287e-07
6.33225145401e-07
1.56615678609e-08
1.15436395963e-07
6.47195077596e-07
9.9052327938e-08
6.82254804355e-07
8.0168782985e-08
6.75825575245e-07
7.26268317947e-08
6.26705692756e-07
8.70678842336e-08
6.10919561604e-07
1.08273465365e-07
6.19269402769e-07
1.25850172164e-07
6.3284415542e-07
1.36454554068e-07
6.43347688854e-07
1.39833161717e-07
6.5209372171e-07
1.35168881096e-07
6.61687573094e-07
1.24036285034e-07
6.71000399828e-07
1.09499797049e-07
6.7909160789e-07
9.49201530692e-08
6.84671035238e-07
8.12241865339e-08
6.87339207318e-07
6.8174742846e-08
6.86924640793e-07
5.52462296458e-08
6.83335857436e-07
4.20044530641e-08
6.76709843434e-07
2.80116910246e-08
6.68165741248e-07
1.17082306286e-08
6.60244570051e-07
6.5370892244e-07
-8.69973793371e-09
1.71133116719e-07
6.26439459131e-07
1.63245197003e-07
6.69669042746e-07
1.40904189953e-07
6.90372847799e-07
1.22023698583e-07
6.43287595412e-07
1.21484166341e-07
6.10986537361e-07
1.2968458392e-07
6.11014614748e-07
1.36800854086e-07
6.25750755657e-07
1.38779175591e-07
6.41403958485e-07
1.32626672491e-07
6.58279087511e-07
1.20376215674e-07
6.73970686377e-07
1.04953387476e-07
6.86465779518e-07
8.94852931063e-08
6.94601498758e-07
7.49306674528e-08
6.99277798704e-07
6.14605222531e-08
7.00863111408e-07
4.86398368118e-08
6.99806713603e-07
3.60799906475e-08
6.95963092839e-07
2.29006561354e-08
6.899598829e-07
8.2013153155e-09
6.82955190197e-07
-8.73784572419e-09
6.77271493686e-07
6.76249746563e-07
-3.11652181065e-08
1.69231036552e-07
6.10476667413e-07
1.72299343862e-07
6.4691143649e-07
1.63430215296e-07
6.89647601003e-07
1.48068884713e-07
6.55021686075e-07
1.4063295703e-07
6.17433571671e-07
1.39306470712e-07
6.12167679367e-07
1.37264477608e-07
6.27791295619e-07
1.28218374069e-07
6.504779043e-07
1.13350211576e-07
6.73181131574e-07
9.63471990186e-08
6.9102165121e-07
7.98471524402e-08
7.03012468805e-07
6.4307982859e-08
7.10198706867e-07
5.01952214986e-08
7.13450615816e-07
3.72720077515e-08
7.13854083131e-07
2.53653914986e-08
7.11790357296e-07
1.27692442785e-08
7.08632386061e-07
-3.07879810097e-10
7.03135341397e-07
-1.38939408274e-08
6.96640484446e-07
-2.94993372649e-08
6.92996136324e-07
6.96915967448e-07
-5.00223899515e-08
1.54865499303e-07
6.10893715878e-07
1.48419765775e-07
6.363625288e-07
1.49805918593e-07
6.79218544088e-07
1.4026620505e-07
6.60708246436e-07
1.30390066989e-07
6.26147116739e-07
1.22209291963e-07
6.20124308679e-07
1.1170707784e-07
6.38282305582e-07
9.53671059372e-08
6.66849523772e-07
7.78504418333e-08
6.90750781305e-07
6.09286339714e-08
7.07996528895e-07
4.49288729345e-08
7.19077066872e-07
3.03634169553e-08
7.24831705035e-07
1.72597226554e-08
7.26628702091e-07
5.41185494461e-09
7.2578885323e-07
-7.18372753267e-09
7.24455207483e-07
-1.93681808227e-08
7.20913708752e-07
-3.05859924437e-08
7.1445935087e-07
-4.02625349915e-08
7.06437675031e-07
-5.06869160424e-08
7.03560988833e-07
7.11781045088e-07
-6.53800541884e-08
1.43663332533e-07
6.23607654335e-07
1.20329686419e-07
6.45416478804e-07
1.14238819722e-07
6.78039444723e-07
1.00034026142e-07
6.7180994595e-07
8.61489686524e-08
6.39119117664e-07
7.32414734832e-08
6.32879177144e-07
5.89708466757e-08
6.52566992422e-07
4.33510174842e-08
6.82526743559e-07
2.78670060579e-08
7.06295554873e-07
1.2852953023e-08
7.2308324638e-07
-1.10356132413e-09
7.33108432244e-07
-1.42045613503e-08
7.38009937263e-07
-2.71737794933e-08
7.39690865144e-07
-3.94353764185e-08
7.38124116726e-07
-5.06298876898e-08
7.35758312481e-07
-5.86215990226e-08
7.29023572957e-07
-6.43027586719e-08
7.20265630732e-07
-6.86431715008e-08
7.10911376081e-07
-7.24396683965e-08
7.07513570735e-07
7.17173700799e-07
-7.7635990274e-08
1.43948503936e-07
6.35078452398e-07
1.17063619096e-07
6.59076613406e-07
8.62181312548e-08
7.03361571023e-07
5.46553356546e-08
7.01364315756e-07
3.0424580362e-08
6.62913541997e-07
1.23389394851e-08
6.50979501596e-07
-2.86564992912e-09
6.67852081542e-07
-1.60977247993e-08
6.95842422785e-07
-2.93681194492e-08
7.1965618442e-07
-4.30913766992e-08
7.36900363343e-07
-5.74656074275e-08
7.47569247346e-07
-7.22738335282e-08
7.52932622245e-07
-8.50540064732e-08
7.52576295205e-07
-9.37725822916e-08
7.46976807988e-07
-9.58987645965e-08
7.38021490596e-07
-9.49449212805e-08
7.28202970459e-07
-9.33569468709e-08
7.18811549255e-07
-9.13700097878e-08
7.0906641114e-07
-8.82171369896e-08
7.04526429761e-07
7.13133963711e-07
-8.3969040708e-08
1.52279843234e-07
6.42256778039e-07
1.2033888087e-07
6.81242306478e-07
7.8322120473e-08
7.42764257529e-07
4.12441239243e-08
7.37911998171e-07
7.36198444084e-09
6.96832035458e-07
-2.07079352931e-08
6.79229235359e-07
-4.30962813482e-08
6.90400799359e-07
-6.11057893267e-08
7.13979698296e-07
-7.95185685827e-08
7.38190602411e-07
-9.80516261549e-08
7.55548812064e-07
-1.16577244294e-07
7.66240020929e-07
-1.30849736123e-07
7.6735744938e-07
-1.36388364413e-07
7.58285638769e-07
-1.32381275457e-07
7.43136015855e-07
-1.22835331983e-07
7.28627445385e-07
-1.1296675818e-07
7.1847600388e-07
-1.04054783281e-07
7.10040122563e-07
-9.61957703651e-08
7.01355315902e-07
-8.69286265528e-08
6.95431356408e-07
7.01329285967e-07
-7.49045965599e-08
1.64503686647e-07
6.54928141594e-07
1.41647589049e-07
6.98226648424e-07
1.48096438202e-07
7.32081474589e-07
1.33859416236e-07
7.4845516516e-07
9.53840532497e-08
7.33222698935e-07
4.94273676291e-08
7.24476291126e-07
4.95902568023e-09
7.34824487532e-07
-3.71050818909e-08
7.56217117776e-07
-7.78718401916e-08
7.79181940588e-07
-1.11918774505e-07
7.89840704078e-07
-1.32298282974e-07
7.86872926731e-07
-1.37200176673e-07
7.72516851333e-07
-1.30504712341e-07
7.51829521881e-07
-1.18349469737e-07
7.311887842e-07
-1.04569616384e-07
7.1502426524e-07
-9.07969022652e-08
7.04859517253e-07
-7.88379729723e-08
6.98229389527e-07
-6.9115473919e-08
6.91785330386e-07
-5.82046289417e-08
6.84691359804e-07
6.86534739654e-07
-4.3192151423e-08
2.92212251376e-07
5.21223265766e-07
2.77598913972e-07
6.79484257164e-07
2.81262002752e-07
7.08374150707e-07
2.84473200322e-07
7.34483226218e-07
2.55585711448e-07
7.56704197517e-07
2.00573148064e-07
7.77287403208e-07
1.35343965727e-07
7.99522879525e-07
6.75424556331e-08
8.241871977e-07
5.3502480531e-09
8.41748854551e-07
-3.93104032854e-08
8.34902363232e-07
-5.7898444237e-08
8.05845675991e-07
-5.82598691559e-08
7.73233432166e-07
-5.07402868453e-08
7.44622963636e-07
-4.14795300844e-08
7.22192543153e-07
-3.21440591086e-08
7.05905172404e-07
-2.23827895784e-08
6.95273513947e-07
-1.36580504623e-08
6.89660274952e-07
-7.03760244202e-09
6.85320897165e-07
9.57381198871e-12
6.77810195398e-07
6.75922445924e-07
1.08248655478e-08
1.1092423631e-07
4.57798695272e-07
1.51742881522e-07
6.13765062826e-07
1.92668582544e-07
6.50162613654e-07
2.23944571837e-07
6.93629959308e-07
2.35304900446e-07
7.40570141723e-07
2.24021894567e-07
7.86589609566e-07
1.94672902727e-07
8.28368970867e-07
1.52892384566e-07
8.66131137002e-07
1.09400851278e-07
8.85633877761e-07
7.22039936489e-08
8.72533057906e-07
6.06946377833e-08
8.1777439638e-07
5.97518293852e-08
7.745656361e-07
6.29438162254e-08
7.41780270822e-07
6.684619793e-08
7.18592502654e-07
7.03844299573e-08
7.02615926436e-07
7.36000520714e-08
6.92252248333e-07
7.63760237389e-08
6.87046065371e-07
7.78851095794e-08
6.83972037249e-07
7.93725234455e-08
6.76489361798e-07
6.7267341312e-07
8.28183333205e-08
5.5011032659e-08
4.16402536958e-07
9.02255491641e-08
5.61247073861e-07
1.22710011915e-07
6.04618901683e-07
1.55665387956e-07
6.53442439423e-07
1.79959877516e-07
7.12680320774e-07
1.92168364268e-07
7.72872131853e-07
1.95731712985e-07
8.24413099012e-07
1.92026714829e-07
8.69982991181e-07
1.84729784994e-07
8.93292616045e-07
1.76897242566e-07
8.80781661856e-07
1.71690830771e-07
8.23392506045e-07
1.70842034832e-07
7.75803815885e-07
1.71696190275e-07
7.41280234871e-07
1.72803899363e-07
7.17794335836e-07
1.73341845097e-07
7.02333604031e-07
1.7300009645e-07
6.92792323179e-07
1.71679190024e-07
6.88529080518e-07
1.6961983783e-07
6.86193896422e-07
1.67456292689e-07
6.78820485544e-07
6.7490623136e-07
1.65418612024e-07
2.75496153939e-08
4.04652043015e-07
5.03453249414e-08
5.28561922232e-07
8.07913435921e-08
5.66249968999e-07
1.16845444777e-07
6.12571156695e-07
1.50481247722e-07
6.76536889702e-07
1.76774450968e-07
7.45480760838e-07
1.96695590216e-07
8.04200900926e-07
2.14922370745e-07
8.51891684095e-07
2.31882783149e-07
8.76658847083e-07
2.46891521025e-07
8.66161088662e-07
2.54269497874e-07
8.16407883617e-07
2.57514667616e-07
7.72935505467e-07
2.59880886557e-07
7.39258997973e-07
2.61851923682e-07
7.16125417645e-07
2.63103561242e-07
7.01330127154e-07
2.62874779448e-07
6.93211710611e-07
2.60286994295e-07
6.9127602026e-07
2.57779282607e-07
6.88863924952e-07
2.55164210361e-07
6.81605803156e-07
6.79355588035e-07
2.50913544807e-07
-2.05270156468e-08
4.48054644276e-07
-2.74224277932e-08
5.37053316448e-07
1.60407211825e-08
5.22803923656e-07
6.45338839887e-08
5.618541415e-07
1.12198887166e-07
6.27543811426e-07
1.53151652018e-07
7.0393126011e-07
1.87889247683e-07
7.69350522731e-07
2.22052099639e-07
8.17902139681e-07
2.5519553399e-07
8.43832374126e-07
2.89312249386e-07
8.32411307925e-07
3.07766719229e-07
7.98327596108e-07
3.18198996647e-07
7.62863920592e-07
3.25705020256e-07
7.32082344758e-07
3.31980531126e-07
7.10132926603e-07
3.36844848045e-07
6.96689477046e-07
3.38445597275e-07
6.917787599e-07
3.37838658397e-07
6.92038464673e-07
3.38234022267e-07
6.88635143313e-07
3.3864041242e-07
6.81373419057e-07
6.8396360113e-07
3.342365957e-07
-1.66091767664e-08
4.86657096688e-07
3.74689861563e-09
5.19310989664e-07
2.72961826533e-08
4.97848293939e-07
5.59369881297e-08
5.31980073103e-07
9.43525367858e-08
5.88510090651e-07
1.39114239086e-07
6.58947304884e-07
1.82510017538e-07
7.25996260927e-07
2.27060260352e-07
7.73562500383e-07
2.7483907485e-07
7.963585246e-07
3.15068886427e-07
7.92523315823e-07
3.39998021617e-07
7.73748606393e-07
3.58122777081e-07
7.45073662088e-07
3.72275573405e-07
7.1822750893e-07
3.84168721778e-07
6.98484197131e-07
3.93006153594e-07
6.88033059548e-07
3.97510906515e-07
6.87423592486e-07
4.02786222681e-07
6.8692364742e-07
4.09573301485e-07
6.82014637224e-07
4.15196781313e-07
6.7591747705e-07
6.85677712938e-07
4.13709434797e-07
-2.99362740057e-08
5.39964637043e-07
1.38309594164e-08
4.8171424516e-07
3.66135409083e-08
4.7543101609e-07
6.44687833678e-08
5.0372307471e-07
9.73580517032e-08
5.55412774958e-07
1.38241437706e-07
6.18051806785e-07
1.8700819751e-07
6.77358649902e-07
2.38773642288e-07
7.22021569393e-07
2.86551527629e-07
7.48863885915e-07
3.24966391064e-07
7.54421912215e-07
3.56912116551e-07
7.42118868992e-07
3.81905154726e-07
7.20376312364e-07
4.0171638179e-07
6.98670368508e-07
4.17506116095e-07
6.82889925875e-07
4.2925492776e-07
6.76432281873e-07
4.40142176192e-07
6.76687855803e-07
4.53879895521e-07
6.7334267329e-07
4.68532097257e-07
6.67525070876e-07
4.79696629909e-07
6.6494535148e-07
6.74995124536e-07
4.90643131598e-07
-1.34976319386e-09
5.62204832833e-07
2.53316332559e-08
4.56378253106e-07
4.68934951114e-08
4.54053438678e-07
7.25442678017e-08
4.77924643707e-07
1.04016177881e-07
5.2391231033e-07
1.43233465538e-07
5.78927269283e-07
1.88155761448e-07
6.32613285604e-07
2.35571523395e-07
6.74839044711e-07
2.82647916206e-07
7.02056349559e-07
3.25258510729e-07
7.12097290475e-07
3.61431837244e-07
7.06226213329e-07
3.90504799202e-07
6.91557895568e-07
4.12882000798e-07
6.76503934206e-07
4.29956254556e-07
6.65978292716e-07
4.45323332648e-07
6.61209778987e-07
4.63799826829e-07
6.58362904558e-07
4.84943532298e-07
6.5235817261e-07
5.07104761568e-07
6.45551255716e-07
5.28256379962e-07
6.44020707877e-07
6.49737474546e-07
5.5379151218e-07
3.62135457619e-08
5.37303427053e-07
5.29982183309e-08
4.31640134776e-07
7.03195151026e-08
4.34753338396e-07
9.07805472084e-08
4.57001647393e-07
1.16203116919e-07
4.98447250879e-07
1.4868733016e-07
5.46548918414e-07
1.87407800058e-07
5.94067871431e-07
2.29790480108e-07
6.32670510228e-07
2.7359164424e-07
6.58492471572e-07
3.15094582126e-07
6.70841301194e-07
3.51150242245e-07
6.70408190868e-07
3.80185323383e-07
6.62734853481e-07
4.030370555e-07
6.53832281968e-07
4.22765819281e-07
6.46408972535e-07
4.43209364951e-07
6.40921686472e-07
4.67828477757e-07
6.33912658027e-07
4.94914909204e-07
6.25463962294e-07
5.22769022985e-07
6.17917927174e-07
5.52007215344e-07
6.15035077923e-07
6.19967284274e-07
5.82061177341e-07
8.47639219589e-08
4.48057384904e-07
9.07701975363e-08
4.08831810929e-07
1.01881091763e-07
4.19293699012e-07
1.14015962376e-07
4.43871868577e-07
1.29864274847e-07
4.82445530853e-07
1.51984301658e-07
5.2449765426e-07
1.80971800553e-07
5.65224981452e-07
2.14920861724e-07
5.98901262104e-07
2.51620065534e-07
6.2199045262e-07
2.8782980232e-07
6.34836078105e-07
3.20089350404e-07
6.38348686632e-07
3.47681954154e-07
6.35331837753e-07
3.72568651255e-07
6.29127618764e-07
3.97242803744e-07
6.21912473118e-07
4.23733834561e-07
6.14622284758e-07
4.52552096569e-07
6.05297833705e-07
4.83356093152e-07
5.94875539198e-07
5.12910530887e-07
5.88602613187e-07
5.37093661039e-07
5.91101293787e-07
6.11543861956e-07
5.45793342776e-07
1.21525057568e-07
3.63260943998e-07
1.22946800079e-07
3.91871195572e-07
1.27683757278e-07
4.10143562572e-07
1.30242297561e-07
4.40198459289e-07
1.35388214791e-07
4.7707488518e-07
1.45770021476e-07
5.14144287902e-07
1.63439471385e-07
5.47665483168e-07
1.87690345163e-07
5.74796327457e-07
2.15448049449e-07
5.94398380999e-07
2.44332589969e-07
6.06130900472e-07
2.72665128399e-07
6.10205535789e-07
2.99952017732e-07
6.08239118216e-07
3.27266977118e-07
6.02006944895e-07
3.55341847142e-07
5.94034633521e-07
3.85970566117e-07
5.84196309919e-07
4.18247022548e-07
5.73228671802e-07
4.46880977282e-07
5.66453963938e-07
4.69493059203e-07
5.66201692705e-07
4.65151542352e-07
5.95675002448e-07
6.94086934581e-07
3.82956011589e-07
1.36155738497e-07
1.35795266657e-07
1.34206301039e-07
1.30378237727e-07
1.28750676879e-07
1.31236712911e-07
1.3965425611e-07
1.54961315936e-07
1.74408682815e-07
1.96907486801e-07
2.21726058205e-07
2.48113870017e-07
2.75787190611e-07
3.05363329503e-07
3.35444079937e-07
3.62296760248e-07
3.79962263826e-07
3.68790544777e-07
2.56745740887e-07
-2.3760042584e-07
2.15801208941e-07
5.85413454122e-07
2.09812907682e-07
5.10442685938e-07
2.05391765559e-07
4.439265874e-07
2.06374172131e-07
3.81752151624e-07
2.14421102753e-07
3.28351008562e-07
2.1857529794e-07
2.84308509584e-07
2.15910410961e-07
2.3934168684e-07
2.1088034388e-07
1.92813336224e-07
2.03491140311e-07
1.51098228171e-07
1.93291995507e-07
1.15047078844e-07
1.81451415916e-07
8.16932236727e-08
1.68339151485e-07
4.73853084196e-08
1.44062044336e-07
3.14972740888e-08
1.05062720324e-07
4.56589437696e-08
7.82642816321e-08
4.09627018404e-08
5.19650908084e-08
3.69778521856e-08
2.93414971508e-08
2.96638163735e-08
1.78791422035e-08
-6.7938446309e-10
8.27380743758e-09
-6.66708279001e-08
-7.86616124501e-08
2.40755950387e-07
5.92768323795e-07
2.34267289299e-07
5.16865967628e-07
2.28384647625e-07
4.49750905293e-07
2.23819331207e-07
3.86260321493e-07
2.24649832535e-07
3.27460926129e-07
2.29447691058e-07
2.79434940401e-07
2.27884209557e-07
2.40809140557e-07
2.20080092794e-07
2.00526228419e-07
2.098851337e-07
1.61209996001e-07
1.96834612557e-07
1.28012090631e-07
1.82883842933e-07
9.55702029934e-08
1.65817474928e-07
6.43935948036e-08
1.39777796964e-07
5.74579886065e-08
1.09266043059e-07
7.60712565578e-08
7.7542956295e-08
7.25873254343e-08
4.6988028142e-08
6.74402013349e-08
2.3418886633e-08
5.31464499862e-08
1.78649278639e-08
4.79260061794e-09
8.67700676476e-09
-5.75305752168e-08
-6.99859478932e-08
2.50890092983e-07
5.99690166908e-07
2.44603417587e-07
5.23093373786e-07
2.38517014003e-07
4.55781541133e-07
2.326238858e-07
3.92102634685e-07
2.28127611069e-07
3.31907528865e-07
2.28673134905e-07
2.78834076371e-07
2.29634140433e-07
2.3977662647e-07
2.21627909073e-07
2.08447857253e-07
2.08813504119e-07
1.73943087273e-07
1.93504838141e-07
1.4324720944e-07
1.77677157401e-07
1.11333990301e-07
1.57488430004e-07
8.45302440955e-08
1.32133517223e-07
8.27537618164e-08
1.00771578134e-07
1.07334235087e-07
6.60000540634e-08
1.0726875348e-07
3.42221470029e-08
9.91331400832e-08
1.74844023255e-08
6.98007570028e-08
1.72056592829e-08
4.99935186629e-09
8.48636197001e-09
-4.88502247929e-08
-6.15004257172e-08
2.48853511317e-07
6.05624244816e-07
2.42980239748e-07
5.28913264078e-07
2.37122684544e-07
4.61591606796e-07
2.31310444476e-07
3.97866405299e-07
2.25210391669e-07
3.3796348726e-07
2.20864750337e-07
2.83138627412e-07
2.20096229557e-07
2.40493058606e-07
2.14298661936e-07