/*--------------------------------*- C++ -*----------------------------------*\
| =========                 |                                                 |
| \\      /  F ield         | OpenFOAM: The Open Source CFD Toolbox           |
|  \\    /   O peration     | Version:  2312                                  |
|   \\  /    A nd           | Website:  www.openfoam.com                      |
|    \\/     M anipulation  |                                                 |
\*---------------------------------------------------------------------------*/
FoamFile
{
    version     2.0;
    format      ascii;
    arch        "LSB;label=32;scalar=64";
    class       volScalarField;
    location    "0.82/water";
    object      alpha.gas;
}
// * * * * * * * * * * * * * * * * * * * * * * * * * * * * * * * * * * * * * //

dimensions      [0 0 0 0 0 0 0];

internalField   nonuniform List<scalar> 
1496
(
0.546044462566
0.591769521626
0.700533182468
0.734003114055
0.726240711915
0.684802500368
0.590811951837
0.453613417446
0.313298290353
0.208265410862
0.168351075765
0.166698962094
0.166389008222
0.166698962094
0.166052560117
0.184248165118
0.236786560767
0.282701882885
0.324444907647
0.316512227039
0.541156410637
0.556818186049
0.677530122083
0.733647008487
0.726812632663
0.689161918038
0.606506780124
0.482351239661
0.343505969097
0.227167459713
0.172329275411
0.166603905746
0.166698962094
0.166254256876
0.166698962094
0.192600840546
0.246767271734
0.289576022205
0.324527751021
0.318408260353
0.544997194924
0.543002681135
0.654843772914
0.728237984086
0.72403232455
0.688900569174
0.611055191457
0.496235762212
0.364224618725
0.244622348637
0.177317148255
0.166698962094
0.166501145144
0.166698962094
0.166241234563
0.193585221845
0.246712251802
0.289810033686
0.323094563995
0.316095676799
0.540557749262
0.544171970591
0.626673371243
0.71063113804
0.713587771151
0.683804285928
0.608826205553
0.496394541557
0.367060056724
0.248146892191
0.178478439889
0.166656843859
0.166698962094
0.166410676389
0.166698962094
0.191401255105
0.24411468547
0.288516947241
0.31471783545
0.304925354084
0.544171970591
0.540739820738
0.60041415132
0.683693943791
0.693795125778
0.667024775511
0.595202217145
0.48658150491
0.360451030594
0.243881873777
0.176817895009
0.166698962094
0.166549473806
0.166698962094
0.166404639549
0.185118211983
0.23779056086
0.283578927131
0.293990074466
0.28072486469
0.54184234993
0.543194272301
0.587210990383
0.658072972193
0.666076478105
0.63641580893
0.562958270716
0.456665029269
0.335285276367
0.226163659008
0.171456586146
0.16663269861
0.166698962094
0.166443126496
0.166698962094
0.180235920608
0.232078600097
0.272442924133
0.267313537152
0.249393985999
0.555246590381
0.541542050913
0.584436758119
0.636168652365
0.633030958478
0.592490619812
0.512273953014
0.405588180059
0.289493473598
0.196435741505
0.167033127616
0.166698962094
0.166512468156
0.166698962094
0.166439994626
0.180639244144
0.229948958343
0.255886028691
0.245213413552
0.238069386294
0.596272575273
0.542244661452
0.583371104481
0.611244828926
0.592526324605
0.535533532255
0.446669043198
0.338809220858
0.232345760041
0.172282012946
0.166698962094
0.166528890353
0.166698962094
0.16642877228
0.166698962094
0.183156392875
0.228673264438
0.242288254481
0.238069386294
0.237989827787
0.65890178958
0.541778190096
0.57845601141
0.574960069595
0.536648601005
0.464299519114
0.368894429298
0.264016457584
0.18365878579
0.166698962094
0.166544772705
0.166698962094
0.16641780033
0.166698962094
0.167227382227
0.190764966462
0.228842779878
0.239669510628
0.237993898224
0.238069386294
0.663108240618
0.53514004263
0.550949189053
0.51925294101
0.46029030243
0.378422605496
0.282522151827
0.195895114403
0.166854832682
0.166575331735
0.166698962094
0.166377359586
0.166698962094
0.166453932455
0.173006354714
0.202573346583
0.230853087546
0.242915711948
0.24362671201
0.244285096374
0.65890178958
0.497946483784
0.488824377555
0.436635802234
0.366230904866
0.282538927045
0.201134016675
0.167257075478
0.166541207909
0.166698962094
0.166241775238
0.166698962094
0.166376611106
0.167860750028
0.184655593724
0.212666911332
0.235554479891
0.257367608777
0.256055854963
0.246232661246
0.660789634629
0.418290510367
0.396520663168
0.335667329502
0.265214924428
0.196180002653
0.166992618895
0.166455804758
0.166698962094
0.165946433742
0.166698962094
0.166128488103
0.166698962094
0.175004595082
0.194801932768
0.216432453599
0.244955206538
0.261930503661
0.257867947198
0.239945856656
0.655347078721
0.322733451862
0.299674386189
0.247451590837
0.194193790172
0.16672017601
0.166343066811
0.166698962094
0.165439521628
0.166698962094
0.165549255503
0.166698962094
0.171857800692
0.184988895682
0.195459119109
0.216408621478
0.247734020157
0.261909011943
0.255132928008
0.223199516339
0.599232045356
0.277377563665
0.263441386882
0.227185071537
0.185518755352
0.166428091985
0.166698962094
0.165164873885
0.166698962094
0.167665012692
0.176135691729
0.180573503686
0.186261138567
0.189138432161
0.192027081899
0.212046199878
0.24164160798
0.253157578068
0.242782270384
0.198853743119
0.540542426177
0.307112326069
0.287140309126
0.253394622702
0.215885187671
0.198559829013
0.200025679109
0.210903637026
0.2269549803
0.242051349273
0.243211169077
0.231120332605
0.211755563397
0.196642726954
0.191950577286
0.197075257098
0.210908359413
0.217843226111
0.210582441375
0.168215374764
0.556632369626
0.466935651008
0.449179611961
0.425197921142
0.399300387342
0.391833025962
0.407080481991
0.436590470521
0.460170025132
0.464934737465
0.441602232698
0.390402287308
0.322513258197
0.258678608644
0.217370378882
0.19743419992
0.178982214392
0.16375327667
0.157440492708
0.132938286402
0.675704067791
0.728164054868
0.725408438358
0.714341072379
0.695414144853
0.688315102793
0.697074892251
0.712031756661
0.719695951425
0.713816295556
0.689915639225
0.644383520974
0.573227589191
0.47572133885
0.365296937474
0.266285131857
0.198402257731
0.154789654598
0.126760960866
0.124518847472
0.826075922495
0.867535857414
0.854101914005
0.840358022397
0.822385941799
0.810118719703
0.805916461367
0.805749933267
0.80491369496
0.800312569943
0.789438460648
0.769225998216
0.734608778112
0.675551215757
0.583736495659
0.457735253626
0.317024584875
0.196484150365
0.130243644094
0.123940252478
0.886125364453
0.884790750708
0.868509696882
0.850264015332
0.831610884036
0.818430285881
0.812341845793
0.810356638078
0.808549567685
0.804260399793
0.795283324553
0.779687298224
0.754810929028
0.71518616154
0.655533076025
0.569662951885
0.450932806908
0.304566460977
0.165504693425
0.124414257814
0.894558727375
0.881693199138
0.863687498928
0.841332110522
0.820885374171
0.807464790739
0.801118802065
0.798263702646
0.795486904071
0.79035032606
0.781030567001
0.76595873053
0.742662169673
0.706270291349
0.651615717372
0.572922851844
0.468242355576
0.344705400354
0.215126329817
0.126659271417
0.89459883264
0.865864048557
0.842472226565
0.813715069099
0.790204171447
0.775008328883
0.766099613662
0.759816720858
0.753474863971
0.744928417277
0.732662903478
0.715703234154
0.692386578906
0.658771784055
0.608216025273
0.533539066622
0.434310411048
0.324859438097
0.22124564554
0.152994804197
0.884494269067
0.827202060964
0.80606568966
0.778134926048
0.755325599616
0.735744748171
0.71738185313
0.700377590895
0.684870551437
0.668871293667
0.650498410567
0.628404341032
0.600597110418
0.562280072785
0.504836067746
0.4216690435
0.328823416094
0.268978569997
0.231518608893
0.261856643211
0.841707371967
0.774457813163
0.766911995822
0.750406462318
0.733401410997
0.708126074478
0.672812044916
0.636731424719
0.605393473063
0.576932001747
0.548369592
0.517010373017
0.479338293568
0.428138258317
0.352941007921
0.263786738848
0.236348263579
0.244887584821
0.347305761887
0.540731802599
0.77521820212
0.73261749868
0.735774319614
0.73364599712
0.723124858349
0.693294366132
0.640579093586
0.580819992335
0.526610390913
0.479017157315
0.434808929103
0.389959177267
0.339180790309
0.272458194036
0.194427807908
0.178820775709
0.213018138631
0.384177614129
0.607822555639
0.685165121317
0.736265529598
0.705631481319
0.714811582752
0.722000048766
0.71471171658
0.681440678081
0.615090644147
0.53333713923
0.453938770449
0.382862616888
0.31866220228
0.257846599498
0.199103425238
0.143795269776
0.133676839782
0.172017753621
0.399109177214
0.637547711737
0.686837970313
0.687281051816
0.72418812294
0.686768401302
0.697150682791
0.707771927291
0.701282925541
0.664154881042
0.587717606403
0.489424632252
0.388992112412
0.296356964008
0.213650092793
0.151211625735
0.124345353109
0.121205984747
0.130043280374
0.337375191517
0.63623713197
0.684240455063
0.687176755525
0.685824686081
0.71977511807
0.659744402288
0.672756464254
0.683653619955
0.675999556365
0.634580355795
0.551309478067
0.442853702783
0.329321557119
0.223417301979
0.141724217932
0.121179630251
0.121205984747
0.120224064868
0.199477833923
0.559878342054
0.654027970919
0.660979182742
0.651510815824
0.637673325557
0.71659490489
0.612778635931
0.631886413441
0.642627987408
0.632452540856
0.5870257593
0.500112144552
0.387811046503
0.270376662464
0.164565021986
0.121358249454
0.121205984747
0.12026053664
0.121205984747
0.352206140805
0.587692602276
0.604148560014
0.57713360591
0.548798258161
0.519774575549
0.710994672103
0.553548693555
0.570434042259
0.579659157271
0.566323974301
0.517670114056
0.430533004062
0.321177399003
0.208959911804
0.127930461776
0.121205984747
0.12033833331
0.121205984747
0.14646422813
0.428675189632
0.537416305709
0.494937395392
0.448124631474
0.41251820548
0.384298625736
0.705318249027
0.509307550618
0.497274881692
0.496059524645
0.477434351203
0.426266330255
0.343582414178
0.244981600751
0.149241935345
0.121205984747
0.120458496359
0.121205984747
0.119277670307
0.206504760588
0.425076066507
0.435459975905
0.381244330345
0.343762979493
0.327598474323
0.324670485293
0.706669062969
0.495718778221
0.434502333444
0.405953064381
0.374889313159
0.321931697608
0.249712509653
0.168088302356
0.121482954948
0.120740768432
0.121205984747
0.119151647373
0.121205984747
0.262104644832
0.392409971664
0.360236459087
0.326607485183
0.316441128793
0.31621286176
0.323202397974
0.705646998026
0.481853601673
0.400137299417
0.343135805156
0.292057809938
0.233881684014
0.173495826471
0.123483878051
0.120828161699
0.121205984747
0.119132965818
0.121205984747
0.143060123429
0.313874679331
0.354813566551
0.334212771631
0.322553502481
0.318249713221
0.323851493582
0.360724371262
0.674046805492
0.453874184832
0.388977696039
0.331588185504
0.267687294834
0.200518247937
0.143250342076
0.120859969817
0.121205984747
0.119047357899
0.121205984747
0.119013549741
0.22911208721
0.344718674583
0.342328992777
0.332350204663
0.326859131497
0.329821714129
0.349875737329
0.40581312219
0.593840191529
0.427958131432
0.391341917079
0.341819259302
0.274602483402
0.203031898756
0.144481448113
0.121205984747
0.119163277085
0.121205984747
0.119010018922
0.188456901929
0.320865212447
0.352850937712
0.341544643001
0.334845319821
0.33482550943
0.341178028329
0.361041915505
0.407574275812
0.515576285634
0.438634751933
0.434628762358
0.409952589144
0.341114148827
0.256598954465
0.192756521499
0.156157037674
0.149506255811
0.170190130911
0.245871111011
0.349780649536
0.389830703184
0.366879378812
0.347943316164
0.339452368179
0.337814843855
0.340058442757
0.355547288516
0.387446985714
0.508181260704
0.510216688064
0.562429733443
0.570451808001
0.525056501468
0.450697654446
0.393992561298
0.363276907102
0.361655214245
0.41922696061
0.496658902785
0.531568887934
0.490518469702
0.431095793562
0.385730853595
0.353115176138
0.336205853834
0.332010308888
0.337434008221
0.35243172731
0.508181260704
0.596815487537
0.681762101176
0.698713678773
0.686237554054
0.659673077408
0.633131591043
0.614955541516
0.61182089108
0.63105282649
0.647269272143
0.646280424709
0.60409076993
0.534852131968
0.456531891609
0.383115416733
0.332760400746
0.312215282901
0.30937419162
0.317499558826
0.478121503639
0.482889578034
0.45850480966
0.448621875982
0.519314502349
0.638627875517
0.686207549397
0.654113019803
0.522697874919
0.379434625561
0.312670205646
0.357595700344
0.393501871293
0.343048660774
0.127232368552
0.00049149817598
0.268444316087
0.231668581637
0.236667732951
0.275278069123
0.320564827737
0.331687253877
0.327737871218
0.363039112776
0.506242067293
0.619575251832
0.644033846907
0.589317972093
0.462159622678
0.371249480123
0.358007516236
0.403639143253
0.394402542926
0.258064719871
0.0407610231921
5.37506220578e-05
0.272658188705
0.230439941202
0.22285789168
0.215628058058
0.202072098778
0.198448290398
0.226508189376
0.348003926929
0.520810583906
0.611022523099
0.6133463412
0.541871447507
0.438200243702
0.394939970508
0.428432723955
0.416478335538
0.313620853641
0.129751441777
0.0030886251708
3.66978867027e-05
0.280588779003
0.242906327838
0.237396945864
0.22480061567
0.184952215245
0.156492830246
0.195402537554
0.362682539404
0.547897337587
0.608399977409
0.608268928954
0.522867873916
0.442393963191
0.435516021227
0.435415543068
0.360150996003
0.163840668943
0.0289688607639
5.45030692623e-05
3.65700217519e-05
0.27823837865
0.270341473383
0.288712568443
0.268426499476
0.195270335391
0.156418900391
0.20130690443
0.412836073063
0.573018901418
0.607919948303
0.608995163856
0.52864096914
0.45025112131
0.435044300167
0.409260911494
0.225032648347
0.0439320598951
0.00152483481502
3.65598118422e-05
3.66300805389e-05
0.269522225463
0.294063667705
0.321704045881
0.300407525759
0.212181942193
0.160172691136
0.251373456797
0.495003014336
0.58428744676
0.606691295024
0.607899949577
0.556174891202
0.473545528283
0.419563780062
0.283634479402
0.0774291454576
0.00405094698936
0.000208141377272
3.66119557501e-05
3.6507315942e-05
0.256333097377
0.302369648892
0.321728858345
0.29827565971
0.214939024996
0.199081833739
0.364833240738
0.556726866083
0.584475959998
0.605806271473
0.608648037263
0.598337112284
0.532627079098
0.423401328143
0.146089524706
0.0101046897276
0.000538522113859
0.000937499533033
0.000254527176974
3.66121857259e-05
0.250841971491
0.301579895353
0.318795012196
0.283678591821
0.21681997907
0.269080030213
0.484655523389
0.573821588699
0.584788545896
0.603717576238
0.60753222812
0.607713180967
0.578339481965
0.441953112042
0.126205301809
0.00518477315016
0.000533309571672
0.00445096489512
0.00582768243176
3.6552673689e-05
0.252556573508
0.298135525586
0.297429747577
0.24744254401
0.226861137684
0.358052911379
0.543972623223
0.573682140427
0.575699062547
0.57305802786
0.582688409832
0.581465025925
0.563230864158
0.45023433322
0.144274036916
0.00873640905951
0.00237808610401
0.0261799061823
0.0520594081447
3.66461259645e-05
0.257606195216
0.280706161042
0.25613503181
0.20546662204
0.244711919406
0.447297118341
0.551729595593
0.560465565676
0.523804238969
0.485078944117
0.484168755211
0.49674190985
0.517797152891
0.467356621287
0.259919150307
0.059510015391
0.073137241666
0.225713239587
0.123513329818
0.000181600002169
0.254435042012
0.244437889109
0.196822902555
0.185648243028
0.289878778966
0.498139768672
0.538766970795
0.503527862955
0.430402628488
0.426788339314
0.427263592386
0.500413442301
0.556127295487
0.560191356216
0.519716384956
0.42065996295
0.482049895926
0.480225949027
0.152348141108
0.000973450235377
0.23415749178
0.193741356966
0.148714176741
0.181712082925
0.371993782037
0.49869545405
0.487574127124
0.428838790986
0.427954417281
0.445156524309
0.55540663022
0.639274936257
0.67763766627
0.686999108899
0.686790539785
0.687250449069
0.686790539785
0.557674010706
0.217296099474
0.0031421463899
0.200427930066
0.143288398876
0.134836506751
0.213026386246
0.421765250394
0.47966845002
0.450578846071
0.442000679084
0.500864705014
0.594116778217
0.65367556636
0.686790539785
0.687919157314
0.686790539785
0.688001683266
0.686790539785
0.687292189692
0.51529189828
0.192121247298
0.00320845211089
0.163672460317
0.124860513225
0.132755433017
0.249881027317
0.437253396942
0.466411875929
0.461760887821
0.520944035619
0.594322536271
0.600708982662
0.605844089295
0.623018450009
0.633432296653
0.646341011171
0.654149883567
0.649551868599
0.616187862533
0.369758516371
0.0919570297263
0.00133635108251
0.13072000398
0.12454373165
0.129731438381
0.250387995247
0.439817692875
0.471333176852
0.481095664144
0.561365494095
0.594297557103
0.594094195502
0.548924405608
0.512467381743
0.496298212724
0.497304140422
0.50057290374
0.483688574368
0.442760345283
0.184528112064
0.0189769377621
0.00119235501911
0.124440884454
0.12460637841
0.124545598469
0.223302505132
0.425860551102
0.473302236988
0.477611069021
0.551697358812
0.594224090466
0.593991036823
0.567808478646
0.52841849604
0.481654523987
0.403128151061
0.330210682243
0.282804251288
0.25379891841
0.108432752833
0.0111939768148
0.00119228274005
0.124518847472
0.12407816489
0.12460637841
0.161919410619
0.370979522173
0.470470467191
0.467930357483
0.52929720527
0.588753536481
0.59374535354
0.594063721707
0.58991206984
0.564371569603
0.493744222754
0.392446662607
0.279857227482
0.198500114911
0.142718389698
0.0216328421151
0.00119235501911
0.123929432653
0.124506504577
0.123849037046
0.12460637841
0.302722182121
0.463486954947
0.463466398792
0.516821130232
0.585207644286
0.59461979328
0.593261681594
0.594881585301
0.592885101871
0.589801779292
0.512990992516
0.359814967323
0.211328819726
0.183983000797
0.0543267686033
0.0013904943554
0.124414257814
0.123785969243
0.124506504577
0.123812074063
0.29572248413
0.461380019358
0.462772583587
0.520920384308
0.587624098601
0.593261681594
0.594909966511
0.592885101871
0.594472335295
0.59249218411
0.525359880192
0.360663783674
0.205045623396
0.187517270279
0.074772187799
0.0030754359411
0.123785969243
0.124414257814
0.123737964668
0.136549234478
0.365478105639
0.46030993364
0.46547263043
0.534396528007
0.591294684595
0.594423115586
0.592885101871
0.595038352016
0.59249218411
0.592469781046
0.499649913248
0.310582325462
0.168027396212
0.18440163573
0.0826202499753
0.00482941372533
0.124414257814
0.123694780788
0.146766943376
0.321371452069
0.476329593429
0.444652984071
0.461764674763
0.541441161598
0.592673605961
0.592885101871
0.594736976112
0.59249218411
0.593855781468
0.590619320406
0.44631904285
0.239600024041
0.128119235201
0.180348761657
0.0926068342151
0.0069434117328
0.154665859691
0.220717437565
0.409045817962
0.585768984529
0.530055847235
0.41762790184
0.44564437831
0.534180727009
0.591156573271
0.593739551098
0.59249218411
0.594103985311
0.592017198966
0.564576809517
0.380250182292
0.176257119323
0.0972776599953
0.182908860155
0.108475442169
0.00911419982679
0.386541308293
0.551408362041
0.66702462006
0.681503139508
0.565704364067
0.408211771362
0.416305381182
0.504705935952
0.585358701974
0.59249218411
0.593923705531
0.592017198966
0.592796376696
0.515997643688
0.308654531154
0.123421073213
0.0654684944465
0.19533933731
0.13323049002
0.0107950805074
0.659982723393
0.68759792043
0.686837970313
0.687113012389
0.57450149271
0.407485536271
0.386487556414
0.466475786702
0.574190568629
0.592958753183
0.592017198966
0.593192647991
0.591593219714
0.451518458482
0.232447041667
0.0790252511761
0.0283714435167
0.196851357691
0.173893392833
0.0125900048017
0.687968367842
0.686837970313
0.687478652674
0.670724692902
0.548505887221
0.390326130992
0.364972641871
0.449650052726
0.567772366656
0.592017198966
0.592714071424
0.591593219714
0.556627326894
0.357544023928
0.152224411153
0.0402008849279
0.00607452763845
0.198452613325
0.242163452626
0.0174372456427
0.686837970313
0.687411315265
0.676733784346
0.608256848263
0.469536486079
0.350649977198
0.355006608096
0.460724348907
0.569111587438
0.591777142212
0.591593219714
0.587802055907
0.46122212787
0.234478783925
0.0738751302688
0.0114091448806
0.00168948871895
0.185460747931
0.38021479851
0.0395371854972
0.680284919899
0.661496132388
0.608359654529
0.499009162775
0.373621055158
0.349046067397
0.367042826809
0.5062786398
0.572186587461
0.582464566853
0.588346768043
0.523021106658
0.314216428987
0.106962474712
0.0174526374892
0.00108166622493
0.000942557312392
0.189818768481
0.537085433952
0.0859838216399
0.612875171706
0.562125041724
0.479359282543
0.384374546806
0.349046067397
0.349006308501
0.437159215075
0.558997984399
0.566244618128
0.560843001088
0.543726939898
0.380574853082
0.145253106682
0.0212815448925
0.00110964327864
0.000299726681498
0.00185275128471
0.219333588218
0.539921991822
0.107262371652
0.479272122812
0.421659161766
0.364621870697
0.349046067397
0.349006308501
0.39841484724
0.549787096277
0.565921100029
0.550436701765
0.516358617882
0.423597478127
0.19129558614
0.0274273619773
0.00109173691646
0.000276415519491
0.000277024047078
0.00479980983037
0.208339678274
0.539879389196
0.10856462057
0.359447841026
0.345961646812
0.345544135387
0.353002023487
0.404252181292
0.534645857042
0.565921100029
0.56681044357
0.544525064966
0.461113352875
0.23871621351
0.0384850012858
0.00125996413735
0.000306417378577
0.000275201339468
0.00027471839874
0.00334708019581
0.122773677762
0.421459484606
0.109358088057
0.328729883917
0.349578320959
0.383391593922
0.448133767458
0.536319530408
0.565921100029
0.567581431133
0.565912257131
0.55975610546
0.463822390309
0.111496867511
0.00317312349976
0.000348773644343
0.000286718029817
0.00027471839874
0.000272883655319
0.000734993271417
0.0274835760853
0.227224276631
0.11303548432
0.360070702326
0.428815733364
0.504804878474
0.559168659676
0.565921100029
0.567306259128
0.565921100029
0.566884491801
0.565921100029
0.502489441141
0.140345810081
0.00452797441792
0.000301432303634
0.000274692912255
0.000272227637316
0.000273227424295
0.000272664846743
0.00134982250977
0.106244139852
0.116751839628
0.443556246554
0.527235455251
0.566286134305
0.565921100029
0.566773871417
0.565921100029
0.567215974591
0.565921100029
0.56634095368
0.559146316229
0.274265542949
0.022690758399
0.000425214602214
0.000271916757548
0.000273227424295
0.00027060211475
0.00027242655144
0.000272073015761
0.044641614164
0.133479184091
0.481135412005
0.543233190821
0.565921100029
0.566304532793
0.565921100029
0.566484684829
0.565921100029
0.565990031826
0.559789314704
0.558223662156
0.394431231569
0.0702638064806
0.00163373846892
0.000273227424295
0.000269971651846
0.000271712949972
0.000269220752127
0.00027242655144
0.00961900065634
0.183107185626
0.469611638252
0.522090039607
0.548811240518
0.554337439424
0.554695204094
0.547570306452
0.533308189421
0.510704263971
0.488361075226
0.490442045602
0.381512866478
0.101959048772
0.00414232363395
0.000269288739687
0.000271712949972
0.000269164909307
0.000271128162745
0.000267968017748
0.00386112665974
0.238822987829
0.423576386903
0.456956652448
0.479865571983
0.487849018394
0.480418021088
0.456659935207
0.423612031818
0.382195049879
0.348721153377
0.354509546258
0.304364233971
0.0954771976879
0.00499780477153
0.000271879801867
0.000269151419245
0.000270439441256
0.000268158662212
0.000271684546431
0.0138693587499
0.322156667421
0.365788224854
0.37492157513
0.377524716314
0.367990134952
0.345374320182
0.311313185091
0.27462029547
0.243909094351
0.242216776747
0.292334235432
0.315012214667
0.110507152328
0.0054092467625
0.000269758067074
0.000271151948584
0.000268902534911
0.000271546800881
0.00277889245011
0.266147038022
0.324407439459
0.319443868422
0.30348137368
0.27263891705
0.234647776442
0.199987762341
0.169184295792
0.155210599886
0.184272403519
0.273735569272
0.375447703621
0.451959390359
0.323436957945
0.0957854350762
0.0224499616435
0.0102810918367
0.00764445058795
0.018287830141
0.231044769597
0.525057928262
0.325492067589
)
;

boundaryField
{
    emptyPatch
    {
        type            empty;
    }
    minY
    {
        type            fixedValue;
        value           nonuniform List<scalar> 0();
    }
    maxY
    {
        type            inletOutlet;
        phi             phi.gas;
        inletValue      uniform 1;
        value           nonuniform List<scalar> 
40
(
0.508181260704
0.596815487537
0.681762101176
0.698713678773
0.686237554054
0.659673077408
0.633131591043
0.614955541516
0.61182089108
0.63105282649
0.647269272143
0.646280424709
0.60409076993
0.534852131968
0.456531891609
0.383115416733
0.332760400746
0.312215282901
0.30937419162
0.317499558826
0.319443868422
0.30348137368
0.27263891705
0.234647776442
0.199987762341
0.169184295792
0.155210599886
0.184272403519
0.273735569272
0.375447703621
0.451959390359
0.323436957945
0.0957854350762
0.0224499616435
0.0102810918367
0.00764445058795
0.018287830141
0.231044769597
0.525057928262
0.325492067589
)
;
    }
    water_to_cooler
    {
        type            zeroGradient;
    }
    water_to_heater
    {
        type            zeroGradient;
    }
    procBoundary0to1
    {
        type            processor;
        value           nonuniform List<scalar> 
41
(
0.54436074963
0.635482191909
0.718288463788
0.734058840091
0.723120105206
0.673404973126
0.564869095372
0.422629584154
0.292434628321
0.200426425115
0.167053010441
0.166576480111
0.166698962094
0.16621820845
0.166698962094
0.1675396315
0.206681590709
0.259460191106
0.317579303185
0.310440500024
0.608643272404
0.608637533738
0.581729404788
0.566638312716
0.599520015279
0.681307137324
0.728879510383
0.71785450437
0.597371244114
0.425317495614
0.30687575677
0.298940405423
0.366167280703
0.365907073994
0.220909301729
0.00220167966486
0.272698548602
0.257305860663
0.319777073001
0.424329245487
0.424329245487
)
;
    }
}


// ************************************************************************* //
