/*--------------------------------*- C++ -*----------------------------------*\
| =========                 |                                                 |
| \\      /  F ield         | OpenFOAM: The Open Source CFD Toolbox           |
|  \\    /   O peration     | Version:  2312                                  |
|   \\  /    A nd           | Website:  www.openfoam.com                      |
|    \\/     M anipulation  |                                                 |
\*---------------------------------------------------------------------------*/
FoamFile
{
    version     2.0;
    format      ascii;
    arch        "LSB;label=32;scalar=64";
    class       volScalarField;
    location    "0.95/water";
    object      alphat.gas;
}
// * * * * * * * * * * * * * * * * * * * * * * * * * * * * * * * * * * * * * //

dimensions      [1 -1 -1 0 0 0 0];

internalField   nonuniform List<scalar> 
1497
(
1.4342228106e-06
1.30262185287e-06
1.18049465319e-06
1.04580550514e-06
8.9948287834e-07
7.48714506919e-07
6.03471082402e-07
4.70917248551e-07
3.43963057769e-07
2.16737758742e-07
1.12389398325e-07
5.31206794677e-08
2.90241297649e-08
2.33994716416e-06
2.89117592691e-06
2.96437774282e-06
2.66850850106e-06
2.22744679227e-06
1.82517838007e-06
1.53841955239e-06
1.35971600815e-06
1.23955293941e-06
1.13097555796e-06
1.01097259081e-06
8.77410846107e-07
7.37533684972e-07
6.00973610109e-07
4.73200106093e-07
3.4696225138e-07
2.19100474367e-07
1.14400771602e-07
5.45008972142e-08
2.96650691164e-08
2.41045916826e-06
3.01046154916e-06
3.041698437e-06
2.65284298464e-06
2.14494098769e-06
1.72367472894e-06
1.4493951511e-06
1.28609992834e-06
1.17702624779e-06
1.07762164271e-06
9.66509143886e-07
8.41995443204e-07
7.12207102786e-07
5.85192298948e-07
4.62829579223e-07
3.366793311e-07
2.08844808807e-07
1.07827468203e-07
5.18562046918e-08
2.88553776507e-08
2.53198768981e-06
3.16062796642e-06
3.08703401121e-06
2.59022050083e-06
2.03352665479e-06
1.61615674978e-06
1.36440484382e-06
1.2198014883e-06
1.12200458761e-06
1.02952102069e-06
9.23499472228e-07
8.04913960736e-07
6.83266394711e-07
5.64250348822e-07
4.45065793627e-07
3.16859095118e-07
1.89744731861e-07
9.58047642702e-08
4.68132647689e-08
2.72049552493e-08
2.59546278107e-06
3.18174278249e-06
3.014700157e-06
2.46863956942e-06
1.90743363622e-06
1.51315721169e-06
1.2890471291e-06
1.16461423482e-06
1.07886670956e-06
9.92369846795e-07
8.89266087503e-07
7.74446921309e-07
6.58556891483e-07
5.44271105444e-07
4.24051868438e-07
2.91161123928e-07
1.66088675623e-07
8.195358535e-08
4.12485396524e-08
2.54388156048e-08
2.59861740925e-06
3.06252561937e-06
2.86370908117e-06
2.33251669206e-06
1.7976754364e-06
1.43150230556e-06
1.23308942303e-06
1.12799279506e-06
1.05311198693e-06
9.70527780893e-07
8.68324649377e-07
7.55376318886e-07
6.42376056037e-07
5.28401617067e-07
4.02280149054e-07
2.62943683084e-07
1.4222845426e-07
6.93993234657e-08
3.65641032651e-08
2.40530517953e-08
2.62222074019e-06
2.96290940897e-06
2.74609525859e-06
2.24139181391e-06
1.73233018276e-06
1.38814094294e-06
1.21035096615e-06
1.11956130744e-06
1.04990636129e-06
9.66664286551e-07
8.62804087663e-07
7.49668919339e-07
6.36343324921e-07
5.17844799547e-07
3.81607800432e-07
2.36144989373e-07
1.22232489831e-07
6.0072152677e-08
3.33814629056e-08
2.32254219898e-08
2.69430023957e-06
2.96553847656e-06
2.71813972427e-06
2.22245809393e-06
1.72354518289e-06
1.39451555671e-06
1.22930513863e-06
1.14194845918e-06
1.06829316754e-06
9.79381415729e-07
8.72090671672e-07
7.57235464164e-07
6.40528551407e-07
5.13468080371e-07
3.65523228001e-07
2.15918389403e-07
1.08947048607e-07
5.45655959766e-08
3.17263703462e-08
2.29288490432e-08
2.8629581081e-06
3.10729997515e-06
2.81401544947e-06
2.27976481704e-06
1.76785664599e-06
1.4418662723e-06
1.27540195997e-06
1.17981946353e-06
1.09645275911e-06
1.00135417834e-06
8.92130348947e-07
7.76039956468e-07
6.54464573198e-07
5.17931433608e-07
3.60372271931e-07
2.07444960392e-07
1.03497281282e-07
5.26253633209e-08
3.13634825498e-08
2.30680841373e-08
3.13623058679e-06
3.36485216093e-06
3.00832948137e-06
2.40136074218e-06
1.85897753359e-06
1.51644925819e-06
1.33121845346e-06
1.2187474969e-06
1.12461019558e-06
1.02534168824e-06
9.16390357503e-07
8.00693387549e-07
6.76486310925e-07
5.34542447463e-07
3.72056579253e-07
2.14347788181e-07
1.05906933543e-07
5.36895950752e-08
3.20167653621e-08
2.35656784984e-08
3.40588441554e-06
3.59586538939e-06
3.21006580263e-06
2.57070683288e-06
2.00201361892e-06
1.62088203398e-06
1.39744765526e-06
1.25935840448e-06
1.15247921973e-06
1.04970871715e-06
9.42802524323e-07
8.30222047606e-07
7.07152606662e-07
5.64223017678e-07
3.98577943745e-07
2.33560526674e-07
1.15600705486e-07
5.71797659937e-08
3.34652087477e-08
2.44093144121e-08
3.22799976955e-06
3.48576564204e-06
3.22692799089e-06
2.69884428788e-06
2.15318423379e-06
1.73341563546e-06
1.46676833388e-06
1.30064116927e-06
1.17925842244e-06
1.07219999882e-06
9.68725515511e-07
8.62694974914e-07
7.45354014111e-07
6.0475168972e-07
4.35515860706e-07
2.59701596745e-07
1.28821488441e-07
6.2421713747e-08
3.55564725872e-08
2.56263085078e-08
2.7099027413e-06
3.30346102961e-06
3.20174321807e-06
2.76240241978e-06
2.25124658603e-06
1.81991650164e-06
1.52056198281e-06
1.32939442514e-06
1.19511406739e-06
1.08489217477e-06
9.87461887292e-07
8.92015760909e-07
7.84502653267e-07
6.48378293432e-07
4.74927823491e-07
2.87051106539e-07
1.42935471352e-07
6.83836595726e-08
3.81658916595e-08
2.72587042828e-08
2.48725140834e-06
3.22039044928e-06
3.20927770518e-06
2.79109050321e-06
2.27975308011e-06
1.85190076829e-06
1.54655528044e-06
1.33735577636e-06
1.19267888578e-06
1.08266202532e-06
9.94777432346e-07
9.13315191581e-07
8.17832796044e-07
6.86625969125e-07
5.08651470633e-07
3.10363344473e-07
1.55889664784e-07
7.45059964296e-08
4.12325286741e-08
2.9384979168e-08
2.3956086005e-06
3.23538091005e-06
3.27007790901e-06
2.80973288651e-06
2.25804088438e-06
1.82963450572e-06
1.53707025121e-06
1.32973253753e-06
1.18071651205e-06
1.07327918611e-06
9.96231589367e-07
9.28970263804e-07
8.44162903261e-07
7.15244356034e-07
5.3136492521e-07
3.25618978193e-07
1.65790915263e-07
8.04207261367e-08
4.4885330549e-08
3.21536466169e-08
2.41509224996e-06
3.37095858031e-06
3.39455799984e-06
2.8301268585e-06
2.2072121405e-06
1.7704287228e-06
1.49474394175e-06
1.3020941325e-06
1.16125951403e-06
1.06348832019e-06
9.9947363922e-07
9.44679810974e-07
8.66036831652e-07
7.33604123561e-07
5.41609372169e-07
3.32345864784e-07
1.72936168995e-07
8.66069622459e-08
4.94907581926e-08
3.57800942211e-08
2.52532745291e-06
3.60596735392e-06
3.55368612551e-06
2.86383417942e-06
2.15981632478e-06
1.69414533456e-06
1.42433024942e-06
1.25182711348e-06
1.13320684648e-06
1.05638517771e-06
1.00998506744e-06
9.65579981615e-07
8.85604455619e-07
7.42119097088e-07
5.41431423338e-07
3.33702908431e-07
1.79518392436e-07
9.41419809764e-08
5.55871480596e-08
4.05248896976e-08
2.64432233925e-06
3.79605817337e-06
3.66165289242e-06
2.92239510287e-06
2.15269687977e-06
1.62074079062e-06
1.33382190339e-06
1.18489758985e-06
1.10191701219e-06
1.05772444849e-06
1.03267234125e-06
9.92609749582e-07
9.00598123226e-07
7.41400798784e-07
5.3531524842e-07
3.34558125742e-07
1.88381564675e-07
1.04349569793e-07
6.38241530275e-08
4.66469775009e-08
2.83904682867e-06
3.79314989068e-06
3.65101448401e-06
2.96100577767e-06
2.18214936033e-06
1.58364893277e-06
1.25656572615e-06
1.12205874775e-06
1.08044421747e-06
1.07478951524e-06
1.06679612894e-06
1.01886201793e-06
9.07459379521e-07
7.34750480024e-07
5.29325735691e-07
3.39854786533e-07
2.02225559571e-07
1.18648033625e-07
7.49008790304e-08
5.448981336e-08
3.0494401853e-06
3.68043003995e-06
3.55079391482e-06
2.95912388194e-06
2.22321427278e-06
1.59505560249e-06
1.22526069298e-06
1.09297757392e-06
1.0873512121e-06
1.11115166528e-06
1.10438687676e-06
1.03790186551e-06
9.07356306229e-07
7.27368689394e-07
5.29319181878e-07
3.53506879685e-07
2.23385342442e-07
1.38456559485e-07
8.98479829306e-08
6.46357223137e-08
3.11458469275e-06
3.56800954321e-06
3.42888724875e-06
2.907109758e-06
2.22734270338e-06
1.61333705238e-06
1.23704915351e-06
1.11694793145e-06
1.13473015686e-06
1.16354676561e-06
1.13912446864e-06
1.04875101969e-06
9.03584483393e-07
7.24709641861e-07
5.39913239096e-07
3.78418342766e-07
2.54006554151e-07
1.65895976422e-07
1.10228568929e-07
7.81519566074e-08
3.05646347609e-06
3.44762306717e-06
3.30112274201e-06
2.82182187274e-06
2.193732561e-06
1.62557908706e-06
1.28822430193e-06
1.19665930917e-06
1.2174280175e-06
1.22297701062e-06
1.16619937505e-06
1.05229466689e-06
9.01148893046e-07
7.323961666e-07
5.65400584762e-07
4.17618796804e-07
2.96855450427e-07
2.03722359741e-07
1.3842880997e-07
9.69822110235e-08
3.0130988442e-06
3.38144166566e-06
3.2179662272e-06
2.77172157827e-06
2.18684333882e-06
1.67533915493e-06
1.39255094258e-06
1.31947074295e-06
1.31445033042e-06
1.2754431327e-06
1.18295425286e-06
1.05480985047e-06
9.087778735e-07
7.5654227045e-07
6.07506113947e-07
4.72306634735e-07
3.55437319681e-07
2.56366920734e-07
1.78222019558e-07
1.23986225686e-07
3.09361167535e-06
3.45800925464e-06
3.28829428777e-06
2.84005053371e-06
2.26862119526e-06
1.79446052457e-06
1.53952995193e-06
1.45218638256e-06
1.40117256351e-06
1.31654181076e-06
1.19944689504e-06
1.06640099268e-06
9.29263928774e-07
7.9433752182e-07
6.65479606116e-07
5.46143900055e-07
4.34328085957e-07
3.28337185422e-07
2.34592212962e-07
1.6318617509e-07
3.34335729879e-06
3.71663973044e-06
3.52669502035e-06
3.02137510423e-06
2.42714836775e-06
1.95437276803e-06
1.69206654518e-06
1.57366101924e-06
1.47836125838e-06
1.35583303867e-06
1.21948829296e-06
1.08263362931e-06
9.56180500072e-07
8.44210655799e-07
7.41492472395e-07
6.40021502084e-07
5.33574429382e-07
4.21617578985e-07
3.11740672262e-07
2.19226446299e-07
3.67573125907e-06
3.98159230111e-06
3.72169209337e-06
3.16690285709e-06
2.56759040295e-06
2.09318558911e-06
1.8201735443e-06
1.67793393554e-06
1.54421076194e-06
1.3853959118e-06
1.23243845108e-06
1.09710878045e-06
9.88889951435e-07
9.04726194811e-07
8.28608131882e-07
7.44586364394e-07
6.45544729621e-07
5.31256886099e-07
4.08762121796e-07
2.94409195759e-07
3.55906382027e-06
3.81224052211e-06
3.58447126111e-06
3.10519857248e-06
2.57994564546e-06
2.15362725755e-06
1.89514434259e-06
1.74348413905e-06
1.58105769193e-06
1.3956568605e-06
1.23691318652e-06
1.11034595936e-06
1.02107010906e-06
9.60743739088e-07
9.0815573842e-07
8.42645191771e-07
7.55138666824e-07
6.44129637145e-07
5.15730792696e-07
3.84083966408e-07
2.64578028151e-06
3.50372627664e-06
3.43956415354e-06
3.00176810066e-06
2.52454415653e-06
2.15561337004e-06
1.92477767158e-06
1.76582090172e-06
1.58961802455e-06
1.39458700985e-06
1.2338065196e-06
1.1145328451e-06
1.03877171818e-06
9.96313435434e-07
9.64718522634e-07
9.19566845279e-07
8.47809012819e-07
7.45469943802e-07
6.17827929629e-07
4.76992722033e-07
2.22820155356e-06
3.30274755196e-06
3.36077685089e-06
2.93001398033e-06
2.47988142974e-06
2.15435479557e-06
1.93971091381e-06
1.76657826704e-06
1.57912866642e-06
1.38550838199e-06
1.22149936698e-06
1.10624784331e-06
1.04013302358e-06
1.01204474833e-06
9.9910436712e-07
9.74014343595e-07
9.19296769443e-07
8.27799681244e-07
7.04395678241e-07
5.60239052596e-07
2.08320760007e-06
3.22473326496e-06
3.33211326188e-06
2.89475118564e-06
2.46243362573e-06
2.16176849643e-06
1.94709330496e-06
1.75552315551e-06
1.55779244249e-06
1.3657517265e-06
1.20359536317e-06
1.09237297498e-06
1.03423579814e-06
1.01833997207e-06
1.02090296923e-06
1.01255656855e-06
9.71890501553e-07
8.88823808002e-07
7.69153126506e-07
6.2306508693e-07
2.04307654832e-06
3.24815232032e-06
3.3504709315e-06
2.87145723758e-06
2.43907980477e-06
2.15055258989e-06
1.93167582343e-06
1.72665804811e-06
1.5235949217e-06
1.33526005551e-06
1.1810176176e-06
1.07716766633e-06
1.02784699803e-06
1.02292671933e-06
1.0376597025e-06
1.04086282309e-06
1.00728231591e-06
9.26713943027e-07
8.07715465334e-07
6.5788677477e-07
2.0878576065e-06
3.34351211357e-06
3.34879486834e-06
2.82486560437e-06
2.38202819337e-06
2.097883275e-06
1.88066339445e-06
1.67589412724e-06
1.4779344739e-06
1.29992478473e-06
1.15729016114e-06
1.06432418708e-06
1.02533663192e-06
1.02998553766e-06
1.05246175644e-06
1.05905045575e-06
1.0228632162e-06
9.38151574268e-07
8.15346094708e-07
6.57687853474e-07
2.14698872863e-06
3.31975192951e-06
3.26134713335e-06
2.72966856091e-06
2.27413026707e-06
1.99099740384e-06
1.78901734276e-06
1.60242612286e-06
1.42208842182e-06
1.26075710534e-06
1.13427827733e-06
1.05569913711e-06
1.02806536166e-06
1.03919100202e-06
1.06176419178e-06
1.06089717673e-06
1.01324480935e-06
9.18565410044e-07
7.85594932493e-07
6.15424582491e-07
2.12686732856e-06
3.20766274985e-06
3.16545316972e-06
2.60577692908e-06
2.12547989656e-06
1.84234683475e-06
1.66542736554e-06
1.50965655675e-06
1.35677911346e-06
1.21900875684e-06
1.11323954934e-06
1.05148637304e-06
1.03398469328e-06
1.04524099587e-06
1.0570751166e-06
1.03852740856e-06
9.72694400126e-07
8.61562898435e-07
7.10179017116e-07
5.27719169899e-07
2.05475307296e-06
3.12032455047e-06
3.05362526558e-06
2.48880404216e-06
1.99786335854e-06
1.70626586408e-06
1.54514504746e-06
1.41890421728e-06
1.29489888245e-06
1.1819128157e-06
1.09693638247e-06
1.04981977936e-06
1.03645462318e-06
1.03814649688e-06
1.02893776158e-06
9.84576897639e-07
8.93790355237e-07
7.58683122832e-07
5.87611359354e-07
4.00203158786e-07
1.95866377057e-06
2.86736201334e-06
2.8567324607e-06
2.34793470658e-06
1.89251278189e-06
1.61345555356e-06
1.46280234612e-06
1.35457721056e-06
1.25042943194e-06
1.15535346232e-06
1.08436187688e-06
1.0432042124e-06
1.02313247071e-06
1.00500055726e-06
9.67023838465e-07
8.91329109251e-07
7.71958097123e-07
6.14008452721e-07
4.31653702481e-07
2.48889989621e-07
1.77458069794e-06
2.48175161478e-06
2.54835020679e-06
2.1715235613e-06
1.81107723703e-06
1.57335581197e-06
1.43071264434e-06
1.32495335996e-06
1.22533382119e-06
1.1349154096e-06
1.06548457515e-06
1.01787020501e-06
9.80405661788e-07
9.35908120458e-07
8.6733283602e-07
7.62761207198e-07
6.19539328461e-07
4.45822682678e-07
2.59559719392e-07
1.08925403538e-07
1.50710985169e-06
2.08178356288e-06
2.24694904155e-06
2.03779250284e-06
1.78789271743e-06
1.5891043806e-06
1.4389802943e-06
1.31679741266e-06
1.20552782095e-06
1.10597330926e-06
1.0267891034e-06
9.64573710814e-07
9.06243554841e-07
8.37203488501e-07
7.43666676026e-07
6.15764324357e-07
4.53290605271e-07
2.70099976054e-07
1.06727637614e-07
3.17860417028e-08
2.26208669116e-08
2.63782411151e-08
4.01629512016e-08
6.26736696533e-08
8.70743510199e-08
1.06689780439e-07
1.21465732509e-07
1.33849422924e-07
1.46026016166e-07
1.65178553804e-07
2.07863653829e-07
2.7836195355e-07
3.16520903343e-07
2.76303312536e-07
2.34936966458e-07
2.17192194305e-07
2.2060676564e-07
2.44376259133e-07
2.49803068674e-07
3.50016600855e-07
2.25194522751e-08
2.47416125921e-08
3.51567589934e-08
5.30259156028e-08
7.41512390953e-08
9.27398073772e-08
1.06747372394e-07
1.1868313148e-07
1.32719499232e-07
1.58717297782e-07
2.10903293798e-07
2.75506515016e-07
2.84654991904e-07
2.44650413735e-07
2.19693297873e-07
2.10973640144e-07
2.23818655841e-07
2.56982756215e-07
2.61960957752e-07
3.90217216576e-07
2.20686587998e-08
2.35223842752e-08
3.16475458785e-08
4.59040220822e-08
6.3701972409e-08
8.10577868462e-08
9.49272886315e-08
1.07033509783e-07
1.23992082466e-07
1.58031864837e-07
2.15909183694e-07
2.66885132006e-07
2.56973246624e-07
2.24589790105e-07
2.09205058101e-07
2.06868435179e-07
2.25727589305e-07
2.64868638696e-07
2.76274791802e-07
5.31263128621e-07
2.14468199104e-08
2.26269093261e-08
2.92402020894e-08
4.08851642873e-08
5.59440856022e-08
7.19411916746e-08
8.61922343244e-08
9.95537126076e-08
1.20765829099e-07
1.62479887029e-07
2.20657454543e-07
2.5421083092e-07
2.33697701671e-07
2.10407211645e-07
1.99937416157e-07
2.01358515732e-07
2.26552830445e-07
2.78098317279e-07
2.95926982184e-07
7.6944561627e-07
2.08800400482e-08
2.20231172047e-08
2.76672013539e-08
3.75716897531e-08
5.07649848001e-08
6.5774328993e-08
8.06421839537e-08
9.66040517854e-08
1.23931367464e-07
1.71165256088e-07
2.23701479228e-07
2.39092088803e-07
2.14778921603e-07
1.99618652955e-07
1.89489439451e-07
1.93069269788e-07
2.29973942377e-07
2.97270058933e-07
3.23142743758e-07
1.18048413154e-06
2.05102277007e-08
2.16890409297e-08
2.67574965631e-08
3.56577978082e-08
4.78839796964e-08
6.2593529609e-08
7.8749502549e-08
9.91671134214e-08
1.33738678697e-07
1.82373961824e-07
2.23392484179e-07
2.21512190612e-07
2.00368722188e-07
1.90282261587e-07
1.77527588451e-07
1.84597756886e-07
2.38797635247e-07
3.23060369023e-07
3.59703622348e-07
1.90261833927e-06
2.03748543522e-08
2.1605411705e-08
2.64141932235e-08
3.49506770365e-08
4.70702574666e-08
6.23732363417e-08
8.10900255569e-08
1.07842623758e-07
1.48032151441e-07
1.92577632528e-07
2.16219838635e-07
2.0270689378e-07
1.9037818474e-07
1.79677202256e-07
1.6468545698e-07
1.7966450756e-07
2.56133991546e-07
3.56494638113e-07
4.04760409674e-07
2.85222069541e-06
2.04603797737e-08
2.17713220345e-08
2.66115657557e-08
3.53707884552e-08
4.82376937747e-08
6.52270703141e-08
8.78033423349e-08
1.20761202669e-07
1.61549572059e-07
1.95769122685e-07
2.00081855192e-07
1.88837257609e-07
1.81127451544e-07
1.65950074912e-07
1.50669469393e-07
1.80641528929e-07
2.81530044588e-07
3.9376523079e-07
6.14778998837e-07
3.68447605103e-06
2.07583836028e-08
2.22188130762e-08
2.7389404841e-08
3.69182272261e-08
5.12630080542e-08
7.07833640607e-08
9.75239209534e-08
1.32750871362e-07
1.6813072599e-07
1.86954567242e-07
1.84204938799e-07
1.79084468782e-07
1.69407756244e-07
1.48877789095e-07
1.36635202898e-07
1.88368386639e-07
3.08872765309e-07
4.27354932377e-07
8.44026649306e-07
4.29312405717e-06
2.12943170818e-08
2.30095979244e-08
2.88076997912e-08
3.95590760211e-08
5.580615462e-08
7.7923683933e-08
1.06982849178e-07
1.38836513896e-07
1.64585903864e-07
1.73271878538e-07
1.73158336026e-07
1.68735607117e-07
1.53904181191e-07
1.29923462348e-07
1.2545485975e-07
1.99476687355e-07
3.28482390137e-07
6.22801598291e-07
2.4653898386e-06
4.8037108119e-06
2.21214152582e-08
2.42047332656e-08
3.08658508634e-08
4.30746885425e-08
6.12066264172e-08
8.51989354359e-08
1.1283304725e-07
1.36296730937e-07
1.54825310152e-07
1.62466797596e-07
1.63410063777e-07
1.55237500729e-07
1.35538573367e-07
1.11431005291e-07
1.19125765424e-07
2.11085617378e-07
4.3735997109e-07
1.11969952371e-06
4.51848408075e-06
5.29343857443e-06
2.32980506074e-08
2.58273830662e-08
3.34477443983e-08
4.70470788944e-08
6.66025614706e-08
9.06061783734e-08
1.10392877192e-07
1.28003510621e-07
1.45364752403e-07
1.53520533116e-07
1.51499165333e-07
1.38700663579e-07
1.16178676932e-07
9.66482794891e-08
1.17053231639e-07
2.1993420657e-07
6.00166430822e-07
3.08042735873e-06
4.95142650424e-06
5.79003538478e-06
2.48734996924e-08
2.78517488522e-08
3.63316603642e-08
5.0909382318e-08
7.08629901701e-08
9.03758785734e-08
1.00841718351e-07
1.18959339903e-07
1.37134069308e-07
1.43297717598e-07
1.37168675528e-07
1.2051705169e-07
9.81335705396e-08
8.63591746069e-08
1.18277621638e-07
3.07988015474e-07
1.93774099213e-06
3.51765215894e-06
4.97255209364e-06
6.23288009528e-06
2.68966867789e-08
3.02124635683e-08
3.92308813524e-08
5.40594540908e-08
7.18505628883e-08
8.33208678959e-08
9.12750489868e-08
1.11224944207e-07
1.28029171484e-07
1.3114062199e-07
1.21342394012e-07
1.02540827061e-07
8.35827007261e-08
7.96536279742e-08
1.42506683591e-07
7.08387145027e-07
2.6337044423e-06
3.28404209235e-06
4.55702310004e-06
6.64039520696e-06
2.94248531618e-08
3.28371439425e-08
4.18459643121e-08
5.52751760188e-08
6.81554290723e-08
7.4706175672e-08
8.37809810639e-08
1.03126128386e-07
1.1732649718e-07
1.17616682385e-07
1.05190360919e-07
8.65754075715e-08
7.23576349552e-08
7.68701337039e-08
2.08493652141e-07
1.58849233781e-06
2.49754704346e-06
2.54107434723e-06
3.2506018745e-06
6.99278737712e-06
3.25258359043e-08
3.55676017782e-08
4.34638666367e-08
5.38809145832e-08
6.25229603784e-08
6.76622053432e-08
7.72163496292e-08
9.40435961122e-08
1.05501675506e-07
1.03722724004e-07
9.00141805291e-08
7.32525052188e-08
6.53072101491e-08
1.08829980029e-07
7.2807531128e-07
1.60333740099e-06
2.29064307008e-06
1.43308171828e-06
1.4778806621e-06
6.93286546258e-06
3.62331639337e-08
3.81143491443e-08
4.38968527182e-08
5.11818044247e-08
5.73854836095e-08
6.21040011316e-08
7.08395204928e-08
8.44715538921e-08
9.34132582324e-08
9.03667055872e-08
7.68330632586e-08
6.28706354723e-08
6.53295967358e-08
2.7051376558e-07
9.73765584629e-07
1.48456292654e-06
2.06951894022e-06
6.81577654761e-07
7.41752147748e-07
5.85928631133e-06
4.05434709943e-08
4.04851685773e-08
4.38512869395e-08
4.87712805685e-08
5.34266850155e-08
5.75063922691e-08
6.46651383792e-08
7.51129701321e-08
8.18002640047e-08
7.81260421502e-08
6.55856111086e-08
5.7371532115e-08
1.17045690867e-07
6.69443334565e-07
9.30179251361e-07
1.38219287942e-06
1.8859160888e-06
4.2526432904e-07
5.75477408665e-07
4.06635088477e-06
4.56322648112e-08
4.3192851738e-08
4.43764192794e-08
4.73894845761e-08
5.06329986339e-08
5.3711924828e-08
5.89443911906e-08
6.6420819069e-08
7.11755444524e-08
6.76353384725e-08
5.72306425074e-08
7.82567594913e-08
4.77347773594e-07
6.71001808543e-07
8.84949551979e-07
1.30093740107e-06
1.75653720299e-06
3.57364341815e-07
3.62391473325e-07
1.95587368479e-06
5.2112399178e-08
4.70703869061e-08
4.61305568375e-08
4.72594210391e-08
4.89831316511e-08
5.07485023409e-08
5.39501395294e-08
5.87014078531e-08
6.18928239165e-08
5.89518592574e-08
5.20533853229e-08
2.02211704709e-07
5.52985180399e-07
6.40063453789e-07
8.45855780033e-07
1.23887467133e-06
1.68264211351e-06
3.33884346522e-07
3.11192050502e-07
7.96061346514e-07
6.10211209069e-08
5.28726088949e-08
4.94951842152e-08
4.85322521489e-08
4.85165196153e-08
4.87225118699e-08
4.99058397067e-08
5.22148568685e-08
5.42305454094e-08
5.21786643222e-08
6.87763367226e-08
4.2540194637e-07
5.28788564351e-07
6.1179160243e-07
8.11889943867e-07
1.19250795186e-06
1.64658406177e-06
4.32163481399e-07
2.83811221423e-07
5.22961778841e-07
7.36550685707e-08
6.13748538102e-08
5.49011313075e-08
5.14413442556e-08
4.93733295215e-08
4.77880404568e-08
4.69805737798e-08
4.7168017687e-08
4.84192500677e-08
4.78502745446e-08
1.00765276133e-07
4.51427593577e-07
5.05956893012e-07
5.87390914943e-07
7.84074900663e-07
1.16193746495e-06
1.63013864143e-06
1.78163548789e-06
2.76073968806e-07
3.66271272747e-07
9.17447544997e-08
7.36402670757e-08
6.30286478832e-08
5.63931028955e-08
5.18068486208e-08
4.8132485151e-08
4.53010013954e-08
4.36952928271e-08
4.47835504704e-08
4.58013707941e-08
2.15714876827e-07
4.4392489674e-07
4.87065412862e-07
5.67613890849e-07
7.66030280179e-07
1.1456772499e-06
1.61376377308e-06
1.68805504524e-06
2.76903974359e-07
3.26130916833e-07
1.17718564605e-07
9.12369140452e-08
7.49140942276e-08
6.40045207071e-08
5.61584424156e-08
4.99405741804e-08
4.49409515455e-08
4.18612157028e-08
4.31694864433e-08
5.97431098794e-08
3.08727471422e-07
4.33775632144e-07
4.71886163259e-07
5.52834024928e-07
7.5885885011e-07
1.13846960357e-06
1.58946483117e-06
6.04291867901e-07
2.77259689169e-07
3.68846505304e-07
1.54800241765e-07
1.16226089543e-07
9.18659952478e-08
7.5033866365e-08
6.27668875723e-08
5.32987222168e-08
4.58763567922e-08
4.16465666449e-08
4.278561923e-08
6.30836241797e-08
3.42439113295e-07
4.26440169489e-07
4.59747503088e-07
5.42796566069e-07
7.62228482813e-07
1.13941313071e-06
1.56993896161e-06
3.03817579829e-07
2.72406152371e-07
5.55583975506e-07
2.05811545105e-07
1.50314150676e-07
1.1502086056e-07
9.01209646583e-08
7.18068232942e-08
5.80978734687e-08
4.80742129214e-08
4.26704243746e-08
4.30258631763e-08
6.59456096321e-08
3.51272641284e-07
4.21421747123e-07
4.49717949335e-07
5.38728721982e-07
7.78299929927e-07
1.15609046753e-06
1.58099239646e-06
2.03558712896e-07
2.55480632219e-07
1.23208658372e-06
2.70219418682e-07
1.93400163705e-07
1.44489155858e-07
1.09313406417e-07
8.32130721622e-08
6.42201061847e-08
5.11129626487e-08
4.41855865864e-08
4.34745299498e-08
6.84991835737e-08
3.49775159156e-07
4.16782987936e-07
4.41359995669e-07
5.44958891026e-07
8.14961764914e-07
1.19955718645e-06
1.37035407678e-06
1.93833888539e-07
2.4199218488e-07
1.57209617485e-06
3.42293337634e-07
2.42980116626e-07
1.78243095737e-07
1.31243791319e-07
9.59566466934e-08
7.06468004083e-08
5.40293107399e-08
4.54733017549e-08
4.38164746126e-08
6.89933125299e-08
3.32491659106e-07
4.09454855142e-07
4.35034734815e-07
5.68739097707e-07
8.82329672361e-07
1.28770115143e-06
2.54713775525e-07
1.80090727525e-07
2.41848562183e-07
1.81951919106e-06
4.10490874239e-07
2.91635529433e-07
2.10495613953e-07
1.5154057522e-07
1.0708781676e-07
7.55687199257e-08
5.57515050543e-08
4.59910562534e-08
4.38023964911e-08
6.74877584266e-08
2.89940292414e-07
3.92397404371e-07
4.31094126413e-07
6.14677046893e-07
9.83095383468e-07
9.69786116144e-07
1.71422137007e-07
1.72085546642e-07
2.50251254195e-07
2.37283544886e-06
4.62639116765e-07
3.29437834928e-07
2.34224735662e-07
1.64460743142e-07
1.1258230827e-07
7.67274089348e-08
5.52905837501e-08
4.54483067456e-08
4.33475238915e-08
6.41353072324e-08
2.25371833064e-07
3.61309850657e-07
4.27283155449e-07
6.82290712585e-07
1.08315961256e-06
1.66326213727e-07
1.60465896451e-07
1.82249561241e-07
2.61198600212e-07
2.55822080551e-06
4.8919327973e-07
3.47050189027e-07
2.41985788204e-07
1.64466897346e-07
1.08777728336e-07
7.23569158331e-08
5.22249149343e-08
4.39720140906e-08
4.25860610837e-08
6.09841169365e-08
1.55492037121e-07
3.17387536241e-07
4.2473239163e-07
7.51623500164e-07
2.52797071343e-07
1.5765614266e-07
1.61137449169e-07
2.03951504955e-07
2.70485789779e-07
2.51027290399e-06
4.82609082895e-07
3.36835663734e-07
2.27254385202e-07
1.4771449212e-07
9.42430164124e-08
6.2576700847e-08
4.731351958e-08
4.22643314443e-08
4.18770547414e-08
5.58390443636e-08
9.50753300688e-08
2.5990218522e-07
3.84665062376e-07
3.53443073599e-07
1.38300737338e-07
1.50724478486e-07
1.78800235673e-07
2.32784301404e-07
2.72816145686e-07
2.28499337845e-06
4.37623835341e-07
2.93504523968e-07
1.86604978337e-07
1.14171394995e-07
7.14192795059e-08
5.03499664847e-08
4.2703648563e-08
4.13701758173e-08
4.1510905553e-08
4.18619636127e-08
5.89830624164e-08
1.07844791301e-07
9.12745056285e-08
9.47282456785e-08
1.26679796027e-07
1.57758960527e-07
2.05705519991e-07
2.63588348657e-07
2.64176720386e-07
1.9606106155e-06
3.52983835278e-07
2.17437150961e-07
1.25405367573e-07
7.30288220093e-08
4.91354811809e-08
4.16583539208e-08
4.11967920833e-08
4.17290193028e-08
4.06760440615e-08
3.88314721743e-08
3.64794070998e-08
3.27199466437e-08
4.0178826657e-08
7.83160196664e-08
1.21109696463e-07
1.71378336535e-07
2.41288512532e-07
2.86106108796e-07
2.51278403058e-07
1.68562111064e-06
2.36072579685e-07
1.24795548566e-07
6.5991331822e-08
4.32337320524e-08
3.87056413602e-08
4.03600904902e-08
4.1146979667e-08
3.89731238548e-08
3.54265397446e-08
3.25147634324e-08
2.92531892576e-08
2.58586641736e-08
2.69836394078e-08
6.28443184234e-08
1.21025735616e-07
1.97387761953e-07
2.78705626023e-07
2.96354194099e-07
2.49502386326e-07
1.53822665905e-06
1.15978584885e-07
5.37205542784e-08
3.53294672621e-08
3.45902994055e-08
3.77807436627e-08
3.82025291865e-08
3.47259200723e-08
2.98173325566e-08
2.6017461973e-08
2.39211448894e-08
2.16093243886e-08
1.9480958218e-08
1.88522998521e-08
5.4798520233e-08
1.31859076543e-07
2.18371336972e-07
2.82557231945e-07
3.08250957887e-07
2.62958859537e-07
1.49314717993e-06
4.16772825174e-08
2.71281303585e-08
2.91993329214e-08
3.29687355161e-08
3.27930330763e-08
2.92345763334e-08
2.50501576007e-08
2.15012847738e-08
1.90466770949e-08
1.75943523681e-08
1.63550743933e-08
1.54276748418e-08
1.63527763176e-08
5.89667520725e-08
1.40684796047e-07
2.20539744062e-07
2.83626625381e-07
3.20884374705e-07
2.83202328038e-07
1.45643276141e-06
1.87460823495e-08
2.25988068051e-08
2.66352472504e-08
2.70202266724e-08
)
;

boundaryField
{
    emptyPatch
    {
        type            empty;
    }
    minY
    {
        type            zeroGradient;
    }
    maxY
    {
        type            calculated;
        value           nonuniform List<scalar> 0();
    }
    water_to_cooler
    {
        type            compressible::alphatWallBoilingWallFunction;
        phaseType       vapor;
        relax           constant 1;
        partitioningModel
        {
            type            Lavieville;
            alphaCrit       0.2;
        }
        otherPhase      liquid;
        dmdt            uniform 0;
        dDep            uniform 1e-05;
        qQuenching      uniform 0;
        alphatConv      uniform 0;
        value           nonuniform List<scalar> 
37
(
2.18898257002e-11
2.53336938855e-11
3.42830894189e-11
4.94543920902e-11
8.30359155418e-11
1.79794477481e-10
5.31719714087e-10
1.69204144848e-09
2.64306779534e-09
2.53193184775e-09
2.43212065917e-09
2.36623358724e-09
2.31773892012e-09
2.2753026427e-09
2.24791670923e-09
1.46220115483e-09
4.33345083239e-10
1.61253084705e-10
6.19607420569e-11
2.66929432356e-11
1.73870120438e-11
1.74726518413e-11
1.82317388522e-11
1.71870014906e-11
1.83522505262e-11
4.89878401835e-11
7.73697340193e-11
1.00138167066e-10
1.61616030574e-10
1.8998846304e-10
1.90267177446e-10
1.90933639442e-10
1.90274178503e-10
1.89152585373e-10
1.88003775746e-10
1.88147571013e-10
1.6921394878e-10
)
;
    }
    water_to_heater
    {
        type            compressible::alphatWallBoilingWallFunction;
        phaseType       vapor;
        relax           constant 1;
        partitioningModel
        {
            type            Lavieville;
            alphaCrit       0.2;
        }
        otherPhase      liquid;
        dmdt            uniform 0;
        dDep            uniform 1e-05;
        qQuenching      uniform 0;
        alphatConv      uniform 0;
        value           nonuniform List<scalar> 
60
(
7.363715036e-07
7.363715036e-07
7.14518470533e-07
7.14518470533e-07
7.25116239148e-07
7.25116239148e-07
7.08274942614e-07
6.90917676494e-07
4.79285914e-07
4.79285914e-07
2.33559262938e-07
2.33559262938e-07
9.63284137258e-08
9.63284137258e-08
6.03739304835e-08
1.14395526773e-07
7.78240399897e-07
7.78240399897e-07
3.2605696437e-06
3.2605696437e-06