/*--------------------------------*- C++ -*----------------------------------*\
| =========                 |                                                 |
| \\      /  F ield         | OpenFOAM: The Open Source CFD Toolbox           |
|  \\    /   O peration     | Version:  2312                                  |
|   \\  /    A nd           | Website:  www.openfoam.com                      |
|    \\/     M anipulation  |                                                 |
\*---------------------------------------------------------------------------*/
FoamFile
{
    version     2.0;
    format      ascii;
    arch        "LSB;label=32;scalar=64";
    class       volScalarField;
    location    "0.245/water";
    object      alpha.gas;
}
// * * * * * * * * * * * * * * * * * * * * * * * * * * * * * * * * * * * * * //

dimensions      [0 0 0 0 0 0 0];

internalField   nonuniform List<scalar> 
1496
(
0.871596209112
0.803481306113
0.772951738517
0.753895967141
0.745126735368
0.730711445265
0.702703386641
0.651817392735
0.574849674463
0.483875615102
0.392027235953
0.305625336525
0.227816649373
0.163029363855
0.131324947772
0.132685650664
0.165114813197
0.252530183702
0.289327497975
0.275841272319
0.853584519241
0.776987742487
0.748564339062
0.731738664324
0.72428407369
0.709197008517
0.679498417702
0.628222287184
0.555294804694
0.468973540995
0.379721185839
0.294203266896
0.216266526033
0.151160696357
0.124818754286
0.13192465195
0.187809042761
0.283974137064
0.296508423965
0.273224306171
0.816993909296
0.757327076909
0.730718768142
0.715453006021
0.705822392116
0.68615766054
0.648376150978
0.589855363474
0.514621941684
0.429605305028
0.342599499454
0.260375395576
0.186576050143
0.13004830391
0.118206828985
0.137100894833
0.228623854269
0.305606759951
0.299164084591
0.264407052961
0.777989607141
0.746082769449
0.721406980924
0.705815752881
0.692431992237
0.666071182752
0.617516132301
0.547631280981
0.463736573361
0.373825229372
0.286201899274
0.208181117787
0.143391619377
0.109982282265
0.113039303719
0.159054439357
0.277742803552
0.310375042712
0.296533444929
0.251573298456
0.754344956586
0.740648217697
0.717397145894
0.699962105636
0.682376492728
0.649384957932
0.591900235769
0.512074854002
0.418345820369
0.32018084481
0.229088775492
0.154719603473
0.10796087472
0.10069355825
0.115127927345
0.202274242553
0.307458814361
0.310462002234
0.287738527348
0.234542357565
0.746759072397
0.738583995386
0.714204417021
0.694502618206
0.672867659802
0.634505703295
0.571253541365
0.485390513983
0.38497496181
0.280407589706
0.186407383699
0.118835364069
0.0959173850312
0.0983042472901
0.131077744941
0.255309531825
0.312359023421
0.308310438251
0.271495072231
0.213224371498
0.746304455055
0.737351602279
0.708821948442
0.686928328152
0.661623756904
0.618881475739
0.551891366856
0.462960480497
0.359600329815
0.253046760845
0.160094715319
0.103398688381
0.0942377053369
0.100325268193
0.161166976604
0.289120058913
0.312437899704
0.298026732423
0.246883522351
0.187871837578
0.751954443506
0.73416830149
0.698086934393
0.674531382548
0.64582559302
0.598993937136
0.528987285321
0.438507546394
0.334898179278
0.230333893463
0.142480039491
0.0970636670061
0.094020774224
0.107035252804
0.19795220526
0.29886383467
0.307811074408
0.276571606791
0.214663423387
0.158625786907
0.786505104225
0.719634422508
0.67513566489
0.651555311132
0.619964023492
0.56931192172
0.496775877672
0.405876439591
0.304409302544
0.205354943895
0.126219872881
0.0932782549795
0.0935099550516
0.11880501179
0.227088970307
0.29928309877
0.291590499808
0.241539170628
0.177309456614
0.125557059984
0.854608825777
0.665306202373
0.632426273637
0.608819825081
0.575542647304
0.52245110732
0.448964879555
0.359676249076
0.263649218988
0.173827405242
0.108420913933
0.090334838023
0.0939001377588
0.135069577693
0.24346793347
0.285594137869
0.259930459268
0.198190622028
0.137306836521
0.0903655101991
0.860858144938
0.569424056107
0.565960356025
0.541160203821
0.506430618093
0.453364503068
0.382090456749
0.298275940545
0.212070491435
0.135924806267
0.0924712252255
0.0878607830946
0.096024356641
0.152133527025
0.243754435106
0.252546491601
0.215473653083
0.151908685732
0.096316667619
0.0683534283149
0.861020690867
0.514600645117
0.484396746861
0.449683471386
0.414401403732
0.364434132121
0.299631723182
0.22638253539
0.154596717173
0.100415309735
0.0839141142569
0.0851689793814
0.100711122903
0.162879330739
0.223159432998
0.21229378399
0.166559107572
0.106465314757
0.0687478064932
0.0681622071764
0.860858144938
0.522474502799
0.413361868844
0.355607511795
0.314441454529
0.267389523827
0.212013861101
0.15354984408
0.103640588056
0.0809822918989
0.0796552354075
0.0842207998024
0.107422625461
0.16409725066
0.186623185297
0.168144368558
0.119653178524
0.0724860198655
0.0669120926425
0.068065286817
0.830142662955
0.538325041603
0.371987197487
0.280889834365
0.224147997434
0.176250466584
0.131620830673
0.094900378931
0.0764970095914
0.0744070677841
0.0769166724709
0.0859022874734
0.113579797771
0.152829139686
0.151140469122
0.125005063875
0.0799595944604
0.0665577307103
0.06660668648
0.155312366201
0.746975107049
0.529310916401
0.339429279935
0.219038674558
0.146461493063
0.102265734805
0.0783670388348
0.0695333514814
0.0688610209162
0.0711681315079
0.0769783404036
0.0901803440498
0.116452329888
0.129997620813
0.119408328882
0.0867410941526
0.0666261249521
0.0665137690909
0.12579421334
0.416094971586
0.692676665882
0.494248866977
0.283861703572
0.148152795798
0.0839206619712
0.0654755028081
0.0628997942597
0.0633785624548
0.0656199855144
0.0700494965758
0.078439061101
0.0951492713337
0.112317254362
0.108822414928
0.0887402818184
0.0660598147641
0.0657323340695
0.099980989308
0.352359321537
0.562184317867
0.690448836429
0.411051066631
0.182298687045
0.0764966968114
0.0594518413094
0.0588507648555
0.0594712424941
0.0607079859031
0.063863615894
0.0694558284278
0.0810391206358
0.0968699183754
0.0998260634106
0.0883257945618
0.0652616195983
0.0647032071694
0.0787481099104
0.256223973173
0.515063842307
0.562968592744
0.721038243689
0.249903675076
0.079354626322
0.056993416323
0.0573155915327
0.0575855071777
0.0580035825536
0.0591613869084
0.0620486933955
0.0694220004798
0.083723304736
0.091972591536
0.0852822635164
0.0687714171231
0.0604188897752
0.0669738951803
0.158969422068
0.401370845702
0.525292779378
0.557675123866
0.708306501287
0.109923597124
0.0565649881361
0.0569018483916
0.0559588621631
0.0573155915327
0.0569567120151
0.0580035825536
0.0603863891705
0.0710806961139
0.0829256517144
0.0810067780247
0.0690119319255
0.0582498924917
0.0603407964149
0.0956339479361
0.2528378884
0.425304913879
0.50682748932
0.5245538936
0.612965914516
0.061236800078
0.0566182598245
0.0548238154244
0.0569018483916
0.0546216856307
0.0573155915327
0.0568364794566
0.0622539357116
0.0726898545619
0.0751655158052
0.0670040924562
0.0577175156778
0.0548403591252
0.0640863796453
0.133100535795
0.288467324563
0.415628292023
0.46464907094
0.46951968747
0.482988750242
0.0565732811098
0.0538905358142
0.0566182598245
0.0535302042537
0.0569018483916
0.0539040537481
0.0606202970011
0.067590931283
0.0691862175402
0.0629382120041
0.0562053091856
0.053178690343
0.0530096495456
0.0689587292073
0.151712731337
0.291671710737
0.396287356912
0.428564144116
0.41346736201
0.397830718905
0.0571211955643
0.0566182598245
0.0537609424358
0.0598633835643
0.0689729219754
0.076982552588
0.0773405795698
0.0657651041052
0.0580169494925
0.0540741956581
0.0521390335174
0.0512151284214
0.051292591999
0.0690914924963
0.154302048761
0.29104327759
0.391870179824
0.422053969848
0.377960488994
0.417516527725
0.222131276271
0.189628560409
0.197552657941
0.21366509496
0.221718512858
0.173755416601
0.10193752466
0.06405092852
0.0532310509895
0.0509404022923
0.0505975851895
0.0504731050501
0.0504903284038
0.0633774648711
0.145872681121
0.288231697164
0.400883983824
0.433074014924
0.369370845367
0.614765018257
0.684617388682
0.63305485824
0.619984899476
0.61037542209
0.586880348236
0.503960807361
0.348674589371
0.16493015317
0.068762448974
0.0512807239251
0.0504672669652
0.0503632415244
0.0504672669652
0.0542686070514
0.120276257267
0.27927923895
0.433891794003
0.484875176909
0.377730098513
0.865462208657
0.922258944019
0.899568099927
0.876364676602
0.849121458209
0.824819536859
0.792919189538
0.733869083089
0.593792836979
0.323295805058
0.102636951076
0.0526304056667
0.0504672669652
0.0503569924198
0.0505013150276
0.0847029157026
0.244824377474
0.458590573871
0.565833095047
0.423675638786
0.938093020584
0.941826458475
0.940687066749
0.924880891815
0.901343343894
0.879077664963
0.861191797296
0.842588659865
0.808561596225
0.703909102324
0.419220205533
0.129035920028
0.0543454167433
0.0504671952614
0.0503806821682
0.0575055294826
0.17955067559
0.438920099015
0.586938730191
0.503644310219
0.942541356396
0.942755219838
0.942541356396
0.934568054623
0.91517478455
0.893168872246
0.875640126065
0.860923923667
0.843060843732
0.809789061152
0.706934246582
0.413933475279
0.124822158742
0.0536006002548
0.0504661653297
0.0504391274282
0.0991196627684
0.364557422081
0.586928590349
0.565394461142
0.943507883033
0.942528628874
0.943050966096
0.940419953655
0.922607229659
0.900344413638
0.882267791767
0.868244882472
0.853288214612
0.830387055725
0.783673721246
0.651193777953
0.344874911979
0.103761173634
0.0506614340008
0.0504498310337
0.0543626309685
0.233796763783
0.561854960429
0.595853361383
0.942541356396
0.942957991498
0.942541356396
0.942945785452
0.927118196341
0.904361460148
0.885627528058
0.871858823909
0.85831645229
0.838859474677
0.803540256431
0.727596524907
0.546712725906
0.26053023865
0.0775078530723
0.050287495272
0.0504347443473
0.112291779555
0.492761603144
0.624938095092
0.943446314457
0.942541356396
0.943032856043
0.942541356396
0.929146839436
0.905875375243
0.886681451517
0.872935950391
0.860059774747
0.842306588356
0.810935697124
0.748465312513
0.625216871694
0.419173799331
0.176093136877
0.0537252862767
0.0502190994691
0.0698963804852
0.449484495758
0.669874073616
0.942541356396
0.942900564679
0.942541356396
0.942785488398
0.929685258707
0.905872909524
0.886139272903
0.872163347751
0.859423547908
0.842173133547
0.811991022614
0.753013505038
0.645242119017
0.481562291369
0.277952035476
0.0871299613698
0.0504208370129
0.0729132351029
0.470810902712
0.681824064348
0.943165521796
0.942541356396
0.942767678212
0.942541356396
0.929058888912
0.90400289919
0.882608543013
0.867749145933
0.854871282411
0.837954267283
0.808293934702
0.750179932188
0.645588418994
0.491308145588
0.308489155732
0.122268574191
0.0502061625248
0.116836824253
0.561547989833
0.683279584836
0.942541356396
0.942674869677
0.942541356396
0.941182749463
0.92474298141
0.897131375372
0.873277873711
0.85692553035
0.843045608961
0.82489489271
0.793215507028
0.733894929884
0.633020654845
0.484970734106
0.306480119826
0.125522361539
0.069744519948
0.246227788523
0.659718572515
0.682127019117
0.942858146787
0.941918222395
0.939377947581
0.931707345368
0.910568078945
0.880795554402
0.855521727992
0.837880776783
0.822117600709
0.800315574974
0.761909780433
0.695714447229
0.593212720542
0.450741091058
0.27971986119
0.125008824963
0.128250811709
0.455003793622
0.682264184066
0.683170045923
0.942541356396
0.935432300431
0.924399472604
0.905841090012
0.878652636953
0.848269478246
0.823778091468
0.805745363624
0.787651529911
0.760460861709
0.712690596557
0.635557715691
0.523184095168
0.374066964961
0.222255430393
0.137164667305
0.258933978949
0.627124462053
0.682954164119
0.682209680697
0.941426459093
0.921408856574
0.89757877766
0.865639495633
0.830680392767
0.798164128323
0.771834848522
0.749948089942
0.725389692629
0.68933042171
0.632002172479
0.545549099655
0.423626943059
0.273294027348
0.207782954446
0.204643796683
0.475775284908
0.681563453318
0.682466288113
0.682607485002
0.93914784139
0.911173493888
0.879058353765
0.837861336607
0.796243009478
0.75907401421
0.72462927321
0.686437843484
0.64117022151
0.582401662407
0.501528743389
0.394701528685
0.267448734297
0.184654997752
0.203734159621
0.397316082678
0.64760952319
0.682466288113
0.682705473734
0.671738571203
0.089135126099
0.0778769890165
0.139053003021
0.41174141085
0.559411335174
0.559693049057
0.558827394533
0.558257161241
0.495019333995
0.351960617705
0.206469386721
0.105951639385
0.0456055372966
0.0110126794731
0.000310020606375
2.45507067478e-09
0.240985363156
0.204119990958
0.170113740849
0.128207564213
0.0841871467225
0.0761838671708
0.142071589245
0.421488610118
0.559552150534
0.558827394533
0.558257161241
0.555627016879
0.461272229878
0.307731262989
0.174954088403
0.0895520069471
0.0395174491584
0.00999649095402
0.000245978774425
2.51742018665e-10
0.228905615014
0.189240911109
0.154879506064
0.115721359177
0.0773064385533
0.0731718011983
0.153119538493
0.445582564151
0.558827394533
0.558257161241
0.557766416899
0.536660314922
0.418196202668
0.2645416624
0.146631932023
0.0744662610855
0.0329715999026
0.00817491365164
0.000131682351409
8.90793388676e-15
0.214865178683
0.174218205042
0.139317380906
0.101607752413
0.0683067026194
0.0699243362888
0.181516335385
0.479440565488
0.558257161241
0.557766416899
0.557758449129
0.507476608769
0.372619290286
0.226015080935
0.122651200886
0.0615161882976
0.0268866086523
0.00611105793614
4.35704479609e-05
8.92225589276e-15
0.199518328619
0.158605784315
0.122733758534
0.084353502171
0.0676013644563
0.0711097304025
0.237597451574
0.510660178501
0.55727616743
0.557721978148
0.553515829079
0.474555619455
0.330352371073
0.193846221368
0.102838167801
0.0504337448684
0.0213829188187
0.00411308495532
9.57600435456e-06
8.90793389e-15
0.182487069987
0.141527081673
0.103821017884
0.0696025136704
0.0675858667573
0.0864013312284
0.332477402456
0.526151060061
0.546195930718
0.554127086696
0.535583500679
0.441293242608
0.297464529851
0.170092590314
0.087137668838
0.0408827960715
0.0163341427262
0.00237722237842
2.5150839698e-06
8.9222558921e-15
0.163061545603
0.121849328438
0.0825127407575
0.0675858667573
0.0675978891944
0.143898924602
0.441063903204
0.521163601594
0.527955650281
0.539128076173
0.512639495094
0.418598163198
0.281145533086
0.158496812079
0.077821677474
0.0339716850962
0.011987411752
0.00113791249295
4.62565693645e-07
8.90793389457e-15
0.140199194038
0.0982337952219
0.0687362613688
0.0675978891944
0.0732277987563
0.286734890621
0.49463757307
0.503555718423
0.506788672512
0.518475281029
0.496925805988
0.411799180704
0.280198975821
0.158393908013
0.0765711056194
0.0319199195784
0.00972159003126
0.000600641155724
9.63795871535e-08
8.92225589208e-15
0.112978064592
0.0752790355051
0.0675978891944
0.0675858667573
0.15573175434
0.450832865385
0.494822426033
0.48462302193
0.486563202422
0.502047321504
0.490100855269
0.412222697258
0.281373554385
0.15931819862
0.0772477692388
0.0322095548299
0.00964926604428
0.000531628229877
7.40788372203e-08
8.90793389458e-15
0.0840274437534
0.0675978891944
0.0675858667573
0.0977992710489
0.368359759779
0.483471549424
0.484044581388
0.460956194881
0.467624888399
0.494602131489
0.488322227312
0.412239476416
0.280737396431
0.15910478215
0.0780852166564
0.0332012662232
0.0100744493966
0.000557363459508
9.12238141617e-08
8.92225589229e-15
0.0679683039292
0.0675858667573
0.0794886128889
0.281009803223
0.480378536187
0.4827200631
0.456098227651
0.429288906021
0.450935507753
0.49447580301
0.487683689484
0.408639801238
0.274776773158
0.155321132427
0.0771220970585
0.033561566802
0.0107930553417
0.000637820866068
1.38261678988e-07
8.90793389972e-15
0.0678945558338
0.0740324432287
0.22358002797
0.473310005597
0.480599798182
0.458321597575
0.407536502547
0.395226457591
0.44369409268
0.494417628457
0.485388572235
0.396627125817
0.258851617444
0.144858497547
0.07303138016
0.0327042196509
0.0108184740377
0.000631184005179
1.39357180856e-07
8.92225589721e-15
0.0708302543456
0.199448039547
0.466135601613
0.474544411383
0.457709658798
0.393218500135
0.34774819543
0.368291940801
0.449905834715
0.494320841624
0.477656636965
0.371193134605
0.231477622183
0.127687661242
0.065277856271
0.0301776455344
0.0103427805034
0.000555799351275
1.0023167858e-07
8.90793389974e-15
0.184961494917
0.457165126697
0.51923595367
0.473404518676
0.389286695973
0.31275030269
0.302906153027
0.367770925131
0.466396652798
0.494229106883
0.458938340606
0.330815406555
0.196198254756
0.106971081396
0.0553446115677
0.0262264322384
0.00910671977717
0.000393190650637
3.6222120262e-08
8.922255901e-15
0.455585323111
0.558188523435
0.519391739405
0.43086863466
0.316156580633
0.263523750997
0.291993653275
0.38663770853
0.480038630854
0.494129644205
0.423446230362
0.278745478784
0.158652866406
0.0860370395865
0.0448821952231
0.0215076285136
0.00714640179057
0.000193339835022
1.17298429322e-09
8.90793389975e-15
0.56472743328
0.564875137232
0.504692781634
0.376165798794
0.270748635454
0.261831086249
0.298836252447
0.420146379051
0.479991213755
0.478356589868
0.366296778743
0.221351822485
0.122665675596
0.0663940568839
0.034645557326
0.0164401718995
0.00465719348836
4.93087041411e-05
9.32948774382e-15
1.49539592519e-14
0.564875137232
0.554741285848
0.462523659744
0.328230064944
0.261831086249
0.26176650366
0.325632445438
0.452576282617
0.479938595359
0.434075802518
0.292018393548
0.165833353549
0.0905321056331
0.0487471583962
0.0250981282311
0.0113261141063
0.00218562999641
4.20146259867e-06
9.32949921541e-15
1.55675058607e-14
0.563288096584
0.512148326463
0.39512576523
0.283932208538
0.26176650366
0.263031923809
0.380304698084
0.463528637349
0.467922443777
0.364115316288
0.215959451536
0.117900467734
0.0637806892115
0.0338482326807
0.0168475729967
0.00652106996266
0.000574994172042
1.34216038219e-07
9.3294877438e-15
1.68031040988e-14
0.535383056307
0.436989229786
0.325620930829
0.263316448849
0.261831086249
0.312926160461
0.43867190602
0.463562432881
0.422829675339
0.276390243443
0.150130969213
0.0803197325308
0.043029089695
0.0221986277424
0.0102933945427
0.00271166338186
5.761007333e-05
8.11873795005e-15
9.65312164222e-15
1.74014356739e-14
0.47159504453
0.354418210401
0.279041090497
0.263277023928
0.283587651884
0.391601144699
0.44569814629
0.447243808276
0.34103258757
0.191147928075
0.0995152812027
0.0526984330903
0.0276626039819
0.0135348815145
0.0052345045684
0.000603435430886
1.49768850176e-06
8.11678964616e-15
1.19784022625e-14
1.74294073581e-14
0.391624933083
0.293163221707
0.260049583547
0.278795104123
0.355227478891
0.43570623243
0.445316923641
0.388431522117
0.240815579832
0.123011838351
0.0627317700521
0.0324652334388
0.0161910033421
0.00696393295321
0.001623347677
3.93636346718e-05
6.25974907786e-10
8.11873794401e-15
1.23330529556e-14
1.74014356739e-14
0.32169874245
0.264079099021
0.260267247398
0.32784130404
0.408686335251
0.436119506015
0.425099560955
0.305836100631
0.154021369657
0.0697962184029
0.0335439709336
0.0163226830427
0.00708851437833
0.00202254695945
0.000152619919585
3.62742528241e-07
8.11873794401e-15
8.11678964108e-15
1.13353632298e-14
1.74130074752e-14
0.279543153308
0.248090353643
0.264460930287
0.358261228357
0.417846637063
0.4347924296
0.393900368138
0.271742120997
0.139715695609
0.0554175772553
0.018706196244
0.00599061078632
0.00162913779653
0.000219464293598
6.46202638147e-06
1.23846110505e-07
2.3096119435e-09
4.09966588285e-12
1.13380507312e-14
1.73995743637e-14
0.265329821961
0.237136418985
0.258819940177
0.353839018668
0.413048709531
0.4279442511
0.390604771368
0.290354036705
0.168626272748
0.0743298116984
0.0250820587264
0.00810523829186
0.00354033185074
0.00168972791292
0.000436542020848
6.61187538011e-05
4.5551864779e-06
3.97725875999e-08
1.14905482345e-12
1.74015116505e-14
0.266451722558
0.230966378924
0.235990702587
0.316070299627
0.382458720828
0.407667233868
0.392967161132
0.337354896829
0.247844738056
0.161428222957
0.0938794308085
0.063665266819
0.0638140161609
0.0516003465881
0.0234371425796
0.00798030790885
0.00128345100406
3.5180714954e-05
1.04115574593e-08
1.49399798168e-13
0.286783670561
0.229130850656
0.217359038821
0.243775517649
0.304291668707
0.348176840169
0.360942988785
0.335125451538
0.32940171167
0.328738564325
0.317937791808
0.323083362565
0.339535440966
0.318096056692
0.248652885572
0.159746537065
0.0547051031484
0.00568389874705
1.06672064299e-05
3.21445566423e-10
0.341708558172
0.244299418887
0.211756930893
0.199738844004
0.213243553385
0.244475060596
0.263399227339
0.316376393906
0.454777485904
0.466134346943
0.464635755027
0.466733021095
0.464623880808
0.467109971343
0.464537566963
0.432783422047
0.328436593427
0.117604608358
0.00131554106287
7.60815554816e-08
0.415780895631
0.28288210671
0.222012689642
0.195267963672
0.192948377123
0.193067590693
0.193933109189
0.388830246571
0.468085489902
0.464683832466
0.465830979729
0.464635755027
0.466616762741
0.464623880808
0.467606455744
0.464537566963
0.450994438087
0.320194113407
0.0189690233166
3.60460087901e-06
0.478682823359
0.335537934253
0.248312904527
0.19707642823
0.193034575504
0.192467421754
0.209551883218
0.46716098135
0.464758458606
0.466602371222
0.464683832466
0.44857120755
0.452164514886
0.466354675673
0.464537566963
0.467533991632
0.464470748481
0.372610840972
0.0425260798289
3.02513841349e-05
0.530295439696
0.393324047776
0.281490998726
0.199101313055
0.192350067194
0.193034575504
0.270402210637
0.464758458606
0.468033766848
0.464758458606
0.450284980176
0.376724743133
0.360535448405
0.430865595363
0.466808560818
0.464470748481
0.466036610238
0.377612707341
0.0470234246188
3.88781190393e-05
0.581974929395
0.453148792539
0.313184158806
0.197057988048
0.192997107769
0.191808803794
0.351214120835
0.467976343219
0.464758458606
0.46584913782
0.420182103792
0.306390640586
0.304109685388
0.362463265597
0.464470748481
0.466312303094
0.464470748481
0.377667078269
0.0414800593384
2.30430530563e-05
0.630091663789
0.504712912635
0.336383354654
0.192997107769
0.191821479583
0.192997107769
0.413952117972
0.464683832466
0.466268312276
0.464683832466
0.388930965256
0.304102977636
0.304157867939
0.331986428194
0.444101877199
0.464470748481
0.465353130144
0.380418867959
0.0306727976812
9.18186713006e-06
0.658307976039
0.535785620376
0.352131931016
0.192788128243
0.192997107769
0.192156783155
0.447372138628
0.466499098633
0.464683832466
0.404832665793
0.339884513417
0.344221335247
0.345272261929
0.345564045991
0.395149960972
0.452704917892
0.464412216662
0.386095958237
0.0221080510107
9.17856486003e-06
0.667923142762
0.549626197656
0.362808173294
0.193034575504
0.191810751911
0.210773374876
0.460839795455
0.464635755027
0.403863253705
0.29286172005
0.312344008511
0.345742845658
0.344848662422
0.341682019787
0.346053302174
0.407808754758
0.461632990973
0.398888346684
0.044488191102
1.56138837403e-05
0.669556011238
0.553264782748
0.366769684861
0.196290490315
0.193034575504
0.239864898265
0.45931802769
0.462827039382
0.340729715228
0.223019608933
0.259345428251
0.344656825357
0.345571205672
0.341503799735
0.320284949044
0.369128227858
0.454458108718
0.470435739751
0.113236144195
0.000223829444999
0.66582719024
0.546860134709
0.361341338706
0.199264538002
0.192268671316
0.271244423691
0.459483047756
0.441397875438
0.318522372035
0.215891473141
0.216587877864
0.298276453392
0.344656825357
0.344942247033
0.315042890367
0.352966226486
0.478009416963
0.478016718789
0.181300683483
0.00186885530947
0.641004466073
0.512056628936
0.336976073249
0.198761584626
0.194777133903
0.314023989565
0.456207119689
0.421025647737
0.313765522882
0.216260958609
0.215891473141
0.239374581655
0.314358835464
0.325001788981
0.293448194427
0.335039049975
0.47798838859
0.477987614466
0.260210829039
0.00842664863674
0.580922156722
0.430088471349
0.282064734599
0.207735213913
0.24006231495
0.367515126666
0.433497531014
0.39431175702
0.308983332626
0.231969651767
0.221669554333
0.241432521982
0.271480309784
0.266940951201
0.248649433372
0.309620493625
0.477959613072
0.47796638561
0.332673404551
0.0205388744275
)
;

boundaryField
{
    emptyPatch
    {
        type            empty;
    }
    minY
    {
        type            fixedValue;
        value           nonuniform List<scalar> 0();
    }
    maxY
    {
        type            inletOutlet;
        phi             phi.gas;
        inletValue      uniform 1;
        value           nonuniform List<scalar> 
40
(
0.93914784139
0.911173493888
0.879058353765
0.837861336607
0.796243009478
0.75907401421
0.72462927321
0.686437843484
0.64117022151
0.582401662407
0.501528743389
0.394701528685
0.267448734297
0.184654997752
0.203734159621
0.397316082678
0.64760952319
0.682466288113
0.682705473734
0.671738571203
0.580922156722
0.430088471349
0.282064734599
0.207735213913
0.24006231495
0.367515126666
0.433497531014
0.39431175702
0.308983332626
0.231969651767
0.221669554333
0.241432521982
0.271480309784
0.266940951201
0.248649433372
0.309620493625
0.477959613072
0.47796638561
0.332673404551
0.0205388744275
)
;
    }
    water_to_cooler
    {
        type            zeroGradient;
    }
    water_to_heater
    {
        type            zeroGradient;
    }
    procBoundary0to1
    {
        type            processor;
        value           nonuniform List<scalar> 
41
(
0.874808847288
0.828503683841
0.797689768699
0.776360139768
0.762854054099
0.744946093251
0.713789503075
0.659343245483
0.578512141255
0.484509791318
0.391453217023
0.305312031687
0.22886576772
0.167439603268
0.136986662377
0.136368806807
0.156363028187
0.226453588183
0.278649053235
0.274599975792
0.0922124955173
0.078729288805
0.139612622741
0.411955705505
0.559904955274
0.559411335174
0.55963712276
0.558827394533
0.518382092972
0.390381434919
0.237083304947
0.121096766327
0.0495025379472
0.0110668139881
0.00029906995375
1.61439282718e-09
0.250435097848
0.218652189628
0.185343068604
0.139472869862
0.139472869862
)
;
    }
}


// ************************************************************************* //
