/*--------------------------------*- C++ -*----------------------------------*\
| =========                 |                                                 |
| \\      /  F ield         | OpenFOAM: The Open Source CFD Toolbox           |
|  \\    /   O peration     | Version:  2312                                  |
|   \\  /    A nd           | Website:  www.openfoam.com                      |
|    \\/     M anipulation  |                                                 |
\*---------------------------------------------------------------------------*/
FoamFile
{
    version     2.0;
    format      ascii;
    arch        "LSB;label=32;scalar=64";
    class       volScalarField;
    location    "0.715/water";
    object      d.gas;
}
// * * * * * * * * * * * * * * * * * * * * * * * * * * * * * * * * * * * * * //

dimensions      [0 1 0 0 0 0 0];

internalField   nonuniform List<scalar> 
1496
(
0.00499449798065
0.00499446854473
0.00499437348204
0.00499440247592
0.00499451087808
0.00499459896083
0.00499465674462
0.00499472518485
0.00499478727434
0.00499488499514
0.00499511902639
0.00499523395597
0.00499519069028
0.00499515154808
0.00499512771728
0.00499510909702
0.00499509209661
0.00499507978237
0.00499507614186
0.0049950799096
0.00499453518626
0.00499459509421
0.00499451581822
0.00499458484668
0.004994694515
0.00499475562261
0.00499483034886
0.00499489604848
0.00499499200361
0.0049952071697
0.0049953050479
0.00499525189805
0.00499521858452
0.00499520582017
0.00499519779137
0.00499518566738
0.00499517289522
0.00499516660515
0.0049951733394
0.00499518497661
0.00499456105386
0.00499471813818
0.00499469547897
0.00499477968073
0.00499484002712
0.00499491581957
0.00499498120256
0.00499507603111
0.00499524424272
0.0049953629339
0.00499532928528
0.00499529614057
0.00499528736489
0.00499528264781
0.00499527405996
0.00499526352362
0.00499525855874
0.0049952693436
0.00499529617725
0.0049953201672
0.00499457987297
0.00499477936619
0.00499484990801
0.00499489527398
0.00499497948143
0.00499504573513
0.00499513617933
0.00499524287747
0.00499537364145
0.00499542507641
0.00499539232929
0.00499538344066
0.00499538437964
0.00499538558463
0.00499538729074
0.00499539534655
0.00499541911123
0.00499546066305
0.0049955082799
0.00499553509652
0.00499473621147
0.00499500419729
0.00499506386232
0.0049951149007
0.00499516722782
0.00499523774109
0.00499534339877
0.00499546013174
0.00499560396306
0.00499559758998
0.00499559944123
0.00499562261407
0.00499564915753
0.00499567523301
0.00499570516759
0.0049957423475
0.00499578695158
0.00499583110734
0.00499586486781
0.0049958722634
0.00499556068346
0.00499583827991
0.00499588324338
0.00499590261317
0.00499596580728
0.00499612383427
0.0049962381441
0.0049963389856
0.00499633900721
0.00499632579278
0.00499633915786
0.00499635828342
0.00499637268592
0.00499638304205
0.00499638877255
0.00499639095524
0.00499638577614
0.00499637502189
0.0049963642952
0.00499634165445
0.00499770311167
0.0049980518538
0.00499807331689
0.00499808184979
0.00499810609674
0.00499807358846
0.00499800273405
0.00499790421249
0.00499780234839
0.00499772477594
0.00499764770098
0.00499756438924
0.00499748434584
0.00499741308938
0.00499734701722
0.00499728643926
0.00499722120746
0.00499714622378
0.00499706564002
0.00499698040064
0.00499834980821
0.0049983587061
0.00499835907175
0.00499835926599
0.00499835937361
0.00499835964737
0.00499836002658
0.00499836333779
0.00499837139379
0.0049983815831
0.00499838406118
0.00499836824458
0.00499832977756
0.00499828603469
0.00499824663544
0.00499820930858
0.00499816478042
0.00499809022164
0.00499796090809
0.00499778917516
0.00499836424469
0.00499836454772
0.00499836470855
0.00499836486315
0.0049983650105
0.00499836510401
0.0049983651428
0.00499836509243
0.00499836513174
0.00499836522022
0.0049983653311
0.00499836540459
0.00499836919473
0.00499837667344
0.00499838108865
0.00499837934988
0.00499837290954
0.00499836475484
0.00499834573921
0.00499828003317
0.00499837051595
0.00499837053321
0.00499837052685
0.00499837051853
0.00499837050601
0.00499837049508
0.00499837049235
0.00499837049236
0.00499837048181
0.00499837045604
0.00499837040323
0.00499837028802
0.00499836994959
0.00499836930928
0.00499836831423
0.00499836703598
0.00499836551049
0.00499836375004
0.00499836181904
0.00499835820103
0.0049983772468
0.00499837724893
0.00499837723857
0.00499837721522
0.00499837717652
0.00499837712787
0.0049983770652
0.00499837698016
0.00499837687795
0.00499837675294
0.00499837661115
0.00499837645171
0.00499837629849
0.00499837602206
0.00499837547983
0.00499837468235
0.00499837368203
0.00499837250278
0.00499837108986
0.00499836925212
0.00499838444465
0.00499838445594
0.00499838445758
0.0049983844468
0.00499838442254
0.00499838438862
0.00499838434232
0.00499838428738
0.00499838422094
0.00499838414611
0.00499838405522
0.00499838394939
0.00499838382494
0.00499838367781
0.00499838337574
0.00499838289025
0.00499838225213
0.00499838148656
0.0049983806916
0.00499837866025
0.00499839187969
0.00499839188075
0.00499839187683
0.0049983918673
0.00499839185471
0.00499839184066
0.0049983918273
0.00499839181426
0.00499839180085
0.00499839178589
0.00499839176828
0.0049983917472
0.00499839171857
0.00499839166965
0.00499839152291
0.00499839121353
0.00499839073309
0.00499839006206
0.00499838912273
0.0049983859241
0.00499839913001
0.00499839914114
0.00499839914998
0.00499839915615
0.00499839916398
0.00499839917594
0.00499839919442
0.00499839921757
0.00499839924774
0.00499839928166
0.00499839932547
0.00499839937348
0.00499839943457
0.00499839950238
0.0049983995268
0.0049983994544
0.00499839930127
0.00499839911545
0.00499839841975
0.00499839434553
0.00499840616136
0.00499840616304
0.00499840616575
0.00499840617305
0.0049984061891
0.00499840621475
0.00499840624982
0.00499840629581
0.00499840635155
0.00499840641938
0.00499840649806
0.00499840659233
0.0049984067009
0.00499840683346
0.00499840695554
0.00499840701886
0.0049984070297
0.00499840699528
0.00499840509089
0.00499840107996
0.00499841269435
0.00499841270312
0.00499841271254
0.00499841272716
0.0049984127555
0.00499841279541
0.00499841284467
0.00499841290377
0.00499841297285
0.00499841305248
0.00499841314271
0.00499841324412
0.00499841335981
0.00499841349069
0.00499841362395
0.00499841373143
0.00499841381849
0.00499841390517
0.00499841221823
0.004998407993
0.0049984187986
0.00499841879805
0.00499841879504
0.0049984187991
0.00499841882661
0.00499841887458
0.00499841893279
0.00499841899732
0.00499841906668
0.0049984191419
0.0049984192195
0.00499841930291
0.00499841938608
0.00499841947745
0.00499841956957
0.00499841965767
0.00499841974032
0.00499841982018
0.00499841701194
0.00499841194452
0.00499842441606
0.00499842441638
0.00499842440809
0.00499842440363
0.00499842442451
0.00499842447335
0.00499842453899
0.00499842460538
0.00499842466944
0.00499842472696
0.0049984247826
0.00499842482884
0.00499842487359
0.00499842491
0.0049984249563
0.0049984250344
0.00499842516234
0.00499842481389
0.00499841974436
0.00499841249784
0.00499842979294
0.00499842978101
0.00499842975752
0.00499842973291
0.00499842972558
0.00499842974338
0.00499842978574
0.00499842983533
0.00499842987473
0.00499842990198
0.00499842991016
0.0049984299035
0.00499842987547
0.00499842983578
0.00499842981832
0.00499842985447
0.00499842996436
0.00499842766189
0.00499841984527
0.00499841400817
0.0049984351328
0.00499843511333
0.00499843507446
0.00499843501962
0.00499843495878
0.00499843490272
0.00499843486398
0.00499843484072
0.00499843481545
0.00499843477386
0.00499843471251
0.00499843462881
0.00499843452564
0.00499843441395
0.00499843433719
0.00499843431276
0.00499843434502
0.00499842836165
0.0049984199717
0.00499842712626
0.00499844087594
0.00499844084241
0.0049984407739
0.00499844065932
0.00499844050235
0.00499844031346
0.00499844011419
0.00499843992801
0.0049984397581
0.00499843959458
0.00499843943084
0.00499843926749
0.00499843911005
0.00499843898071
0.00499843890969
0.00499843891564
0.00499843687066
0.00499843133791
0.0049984405824
0.00499847406397
0.00499844758565
0.00499844753858
0.00499844743384
0.00499844722923
0.0049984469124
0.0049984465049
0.00499844603821
0.00499844557049
0.00499844514886
0.00499844478203
0.00499844446488
0.00499844419503
0.00499844397483
0.00499844380055
0.00499844382508
0.00499844252747
0.00499844050014
0.00499845487316
0.00499848239736
0.00499852746071
0.00499845637304
0.00499845631553
0.00499845617241
0.00499845586045
0.00499845530691
0.00499845444939
0.00499845322561
0.00499845215148
0.00499845126332
0.0049984505633
0.00499845003279
0.00499844967907
0.00499844956852
0.00499844964235
0.00499844860858
0.0049984486109
0.00499846545616
0.00499849165512
0.00499853128559
0.0049985376546
0.00499846995287
0.00499846997727
0.0049984699186
0.0049984697319
0.00499846934421
0.00499846863825
0.00499846824296
0.00499846834071
0.00499846838941
0.00499846851192
0.00499846891994
0.0049984697232
0.00499847019302
0.00499846915572
0.00499846561413
0.00499847808061
0.00499850457703
0.0049985417956
0.00499855369907
0.00499853971889
0.00499848668031
0.00499848682349
0.00499848693485
0.0049984870276
0.00499848710914
0.00499848734191
0.0049984891267
0.00499849052095
0.00499849147924
0.00499849156067
0.00499849024543
0.0049984871553
0.00499848274502
0.00499847955364
0.00499848778631
0.00499851926859
0.00499855979196
0.00499856827254
0.00499855199402
0.00499855103156
0.00499850325567
0.00499850341636
0.0049985035119
0.00499850358864
0.00499850367628
0.00499850419412
0.00499850664011
0.00499850762291
0.00499850650617
0.00499850372909
0.00499849982963
0.00499849566361
0.00499849294299
0.00499849973501
0.00499853349746
0.00499857851429
0.00499858236982
0.00499856276905
0.0049985619816
0.00499856136365
0.00499851920914
0.0049985192834
0.00499851924335
0.00499851913727
0.00499851894914
0.0049985200611
0.00499852322295
0.00499852452299
0.00499852301159
0.00499851912025
0.00499851464045
0.00499851374621
0.0049985215663
0.00499854695637
0.00499858735891
0.00499859777465
0.0049985718422
0.00499857126333
0.00499857085827
0.00499857047983
0.00499853481857
0.00499853490257
0.00499853492628
0.00499853497673
0.00499853459134
0.00499853622063
0.00499853916956
0.00499854065705
0.00499853974264
0.00499853846034
0.00499854195338
0.00499855155191
0.00499856654165
0.00499858697498
0.00499861383827
0.00499858113902
0.00499857874453
0.00499857867
0.00499857855606
0.0049985783889
0.00499855030742
0.0049985501359
0.00499854956287
0.00499854933209
0.00499854900722
0.00499855120744
0.00499855367404
0.00499855483813
0.00499855563214
0.00499856151962
0.00499857233981
0.0049985809584
0.00499858737964
0.00499861014876
0.00499861306241
0.00499858554251
0.00499858543636
0.00499858541907
0.00499858539444
0.00499858523798
0.00499857312423
0.00499857243095
0.00499857037466
0.00499857091674
0.00499857141296
0.00499857231944
0.0049985726
0.00499857133996
0.00499857197086
0.00499858004252
0.0049985881107
0.00499858853498
0.00499859727782
0.00499862835811
0.00499860833718
0.00499859067613
0.00499859090019
0.00499859112425
0.00499859125818
0.00499859128966
0.00499861906463
0.00499860754816
0.00499859989359
0.00499859573952
0.00499859569749
0.00499859655834
0.0049985959573
0.00499859404963
0.00499859797189
0.00499860882213
0.00499861137052
0.00499861694916
0.00499863744183
0.00499865161986
0.00499862334273
0.0049986077918
0.00499860435958
0.00499860335764
0.00499860347571
0.00499860405525
0.00499867134072
0.00499862121862
0.00499861337347
0.00499861389207
0.00499861864989
0.00499862344501
0.0049986260852
0.00499863072572
0.00499864537312
0.0049986582869
0.00499866761819
0.00499867779738
0.00499870456181
0.00499869908295
0.00499867257985
0.00499865583798
0.00499864773065
0.00499864342382
0.00499863930403
0.00499863221327
0.00499872697276
0.00499863916762
0.00499863634519
0.0049986449772
0.00499865746081
0.00499866970524
0.00499868404739
0.00499870668522
0.00499872993539
0.0049987479044
0.00499875955554
0.00499878721484
0.00499881124249
0.00499878763766
0.00499876796356
0.00499875292783
0.00499874186467
0.00499873566714
0.00499873095747
0.00499872574356
0.00499878209841
0.00499871105329
0.00499870939792
0.00499872594216
0.00499874821123
0.00499877400253
0.00499880637065
0.00499883343796
0.0049988585179
0.00499887446844
0.00499890127644
0.00499895105044
0.00499895153597
0.00499893537385
0.00499892830845
0.00499892765122
0.00499892912617
0.00499893540337
0.00499894624301
0.00499896651045
0.00499883374847
0.00499881675897
0.00499882228995
0.00499884852353
0.00499888348298
0.00499892206651
0.00499895310683
0.00499898534048
0.00499900946113
0.00499904006409
0.00499909345727
0.00499913248488
0.00499912950824
0.00499913158018
0.00499914868869
0.0049991752509
0.00499920447735
0.00499923930215
0.00499928637809
0.00499935115978
0.00499901878666
0.00499904104164
0.00499903327854
0.00499906223033
0.00499910072061
0.00499913738216
0.00499917351871
0.00499920823662
0.0049992441476
0.00499929387351
0.00499934918087
0.00499938125211
0.00499938449569
0.00499940552893
0.00499944285419
0.00499948685839
0.00499953317265
0.00499958470283
0.00499964309058
0.00499971265581
0.00499950993468
0.00499953841795
0.00499948497137
0.0049994840888
0.00499949997503
0.00499952147056
0.00499955376694
0.0049995846782
0.00499963068692
0.00499967135054
0.00499971161849
0.00499972029581
0.00499974075972
0.00499977360887
0.00499981130285
0.00499984531404
0.00499987323097
0.00499989715656
0.00499991872809
0.00499995032393
0.00499494105798
0.00499493664857
0.00499493612738
0.00499493764289
0.0049949379347
0.00499493625965
0.00499493350933
0.00499493578694
0.00499500288858
0.00499501133896
0.00499498448438
0.00499497346104
0.00499497762978
0.00499498316473
0.00499498119526
0.00499497568635
0.00499507976466
0.00499507334866
0.00499506355323
0.0049950503055
0.00499504359039
0.00499504562766
0.00499505207415
0.004995060032
0.00499506625953
0.0049950706514
0.00499507598581
0.00499513926006
0.00499517239834
0.00499514377704
0.00499512784289
0.00499512548587
0.00499513246469
0.00499513943449
0.00499513887319
0.00499513310239
0.00499518569252
0.00499517440049
0.00499516053823
0.00499514999098
0.00499515422371
0.00499516635464
0.00499518367664
0.00499520092666
0.00499521535807
0.00499522866882
0.0049952771698
0.00499533788441
0.00499532128844
0.00499530670771
0.00499529952988
0.00499530351304
0.00499531196479
0.00499531867799
0.00499531883928
0.0049953138158
0.00499531946132
0.00499530251988
0.00499528656761
0.00499528632214
0.00499530466539
0.00499533184361
0.00499536238249
0.00499539016078
0.0049954139386
0.00499545560847
0.00499554726159
0.0049955446343
0.00499552335589
0.00499551226365
0.00499551190346
0.00499551987105
0.00499552944443
0.00499553500364
0.0049955347403
0.00499553064116
0.00499552600571
0.00499550206464
0.00499548750715
0.00499549962429
0.0049955324526
0.00499557636322
0.00499562008397
0.00499565883712
0.00499570353504
0.00499579771212
0.00499581391176
0.00499578276699
0.00499576778725
0.0049957635899
0.00499576868432
0.00499577882461
0.00499578946685
0.00499579448465
0.00499579346644
0.00499579008546
0.00499584929639
0.00499581462829
0.004995800453
0.00499581980971
0.00499586539783
0.0049959192886
0.00499596982043
0.00499602090239
0.00499609972454
0.00499613926965
0.00499610610929
0.00499608204575
0.00499606893926
0.00499606721062
0.00499607068513
0.00499607876391
0.00499608831103
0.00499609338004
0.00499609223009
0.00499608911464
0.00499630337686
0.00499626130736
0.00499624307755
0.00499625884856
0.00499630031065
0.00499634665788
0.00499639349646
0.00499645187186
0.00499650571129
0.00499649412661
0.00499646088013
0.00499643553484
0.00499641982028
0.00499641041808
0.00499640325208
0.00499640262405
0.00499640727618
0.00499640991093
0.00499640830438
0.00499640537962
0.00499690488663
0.00499684583538
0.00499680613938
0.00499679022423
0.00499679893077
0.00499681895843
0.00499684645681
0.00499688105058
0.00499689613411
0.0049968698016
0.00499683942488
0.00499681200114
0.00499678623727
0.00499676098129
0.00499673527957
0.00499671650623
0.0049967111201
0.00499670704317
0.00499670165051
0.00499669752541
0.00499763913618
0.00499753874822
0.00499745715218
0.00499737940548
0.0049973201513
0.00499728752354
0.00499727119376
0.0049972642318
0.00499725587212
0.00499723114498
0.00499720256891
0.00499716933192
0.00499713034328
0.00499708610624
0.00499703758867
0.00499699063506
0.00499696491459
0.00499695111981
0.00499693815436
0.00499693087805
0.00499816007526
0.00499805538879
0.0049979657739
0.00499786927465
0.0049977661894
0.00499768289989
0.00499762174853
0.0049975836437
0.00499756177421
0.0049975392892
0.00499751400274
0.00499748086615
0.00499743843103
0.00499738641182
0.00499732424171
0.00499725314412
0.00499719419116
0.00499718829061
0.00499716025914
0.00499715381455
0.00499831965086
0.0049982621418
0.00499819640914
0.00499812057973
0.00499803222405
0.00499794627687
0.00499787757729
0.00499784349961
0.00499781732904
0.0049977976604
0.00499777958375
0.00499775939014
0.0049977360133
0.00499771013678
0.00499768189512
0.00499765845436
0.00499766624678
0.00499768427704
0.00499767805919
0.00499766608397
0.00499835069466
0.00499832112032
0.00499827676291
0.00499821908958
0.00499815366882
0.00499808807655
0.00499804121974
0.00499802590434
0.00499800481133
0.00499799036145
0.00499798256039
0.00499798350548
0.00499799485493
0.00499801971062
0.00499806434042
0.00499814063942
0.00499820338756
0.00499823546939
0.00499826266134
0.00499824366976
0.00499836700923
0.00499834690783
0.00499831186092
0.00499826362629
0.00499820845061
0.00499815764205
0.00499813410673
0.00499812951595
0.00499811281994
0.00499810098285
0.00499809737821
0.00499810377255
0.00499811985207
0.00499814528093
0.00499818352291
0.0049982420809
0.00499825829223
0.00499826333053
0.00499829617457
0.0049982880615
0.00499837662936
0.00499835451718
0.00499831686429
0.00499826977254
0.00499821975575
0.00499818081285
0.00499817793897
0.00499817680609
0.0049981630535
0.00499815494902
0.0049981548321
0.00499816378263
0.00499817979739
0.00499820200257
0.00499823279544
0.00499827490355
0.00499828502374
0.00499828472623
0.00499832124271
0.004998303289
0.0049983808276
0.00499835186956
0.00499830916425
0.00499825974661
0.00499821298196
0.00499818945608
0.00499820228252
0.00499819694855
0.00499818676701
0.00499818261108
0.00499818531204
0.00499819473906
0.00499820940765
0.00499822839624
0.00499825326102
0.00499828154017
0.00499829920823
0.00499829908355
0.00499833044034
0.00499830043069
0.00499838481533
0.00499835232147
0.0049983111268
0.0049982655289
0.00499823471551
0.00499824437809
0.00499824118776
0.00499822890857
0.00499822250517
0.00499822095283
0.00499822387242
0.00499823041137
0.00499824019414
0.00499825319244
0.00499826964462
0.00499828679901
0.00499831418189
0.0049983136418
0.00499833569155
0.00499830894365
0.00499839226265
0.00499837003831
0.00499834491683
0.00499832834103
0.00499835130895
0.00499834547308
0.00499832001808
0.00499830630707
0.00499829890572
0.00499829367387
0.00499829040516
0.00499828958982
0.00499829165178
0.00499829658118
0.00499830344578
0.0049983105912
0.00499833963583
0.00499834279898
0.00499835408285
0.00499832845
0.00499840192758
0.00499839887757
0.00499840494537
0.00499844830765
0.0049984577795
0.00499844491475
0.00499843641346
0.00499841742636
0.00499839973816
0.00499838534149
0.00499837318449
0.00499836355645
0.00499835657728
0.00499835218236
0.00499834956254
0.00499834775224
0.00499836488776
0.0049983652531
0.00499838323509
0.00499835853259
0.0049984118247
0.00499842423479
0.00499846549411
0.00499848233863
0.00499846136514
0.00499846071617
0.00499846074616
0.00499845636843
0.00499844656097
0.00499843486193
0.00499842251914
0.00499841045329
0.00499839932555
0.00499838942383
0.0049983807419
0.00499837336865
0.00499838150263
0.00499838158616
0.00499841503308
0.00499839486154
0.00499842430386
0.00499846499092
0.00499849964126
0.00499847426022
0.00499847344795
0.00499847294492
0.00499847259751
0.00499847041146
0.00499846368151
0.00499845400088
0.00499844263537
0.00499843077906
0.00499841902433
0.00499840795953
0.00499839936456
0.00499839437469
0.00499839685714
0.00499839698841
0.00499842807199
0.00499841727638
0.00499846628179
0.00499851359375
0.00499848681566
0.00499848592327
0.00499848538259
0.00499848496344
0.00499848467013
0.00499848249446
0.00499847527684
0.00499846495405
0.00499845374567
0.00499844225561
0.00499843102056
0.00499842100698
0.00499841340531
0.00499841233086
0.00499841243898
0.00499841180477
0.00499842801174
0.00499842552943
0.00499852365543
0.0049985024674
0.00499849794078
0.00499849762377
0.00499849723564
0.00499849679416
0.00499849641817
0.00499849346117
0.00499848462899
0.00499847389031
0.00499846386307
0.00499845518768
0.00499844852883
0.00499844437127
0.00499844445597
0.00499844075176
0.00499844014389
0.00499845598704
0.00499846236919
0.00499845949463
0.00499852100808
0.00499851220656
0.00499851125891
0.00499851047874
0.00499850968433
0.00499850868699
0.00499850739069
0.00499850177721
0.00499849028884
0.0049984788641
0.00499846901415
0.00499846147993
0.00499845635114
0.00499845483981
0.00499846103328
0.00499845035267
0.00499845044561
0.00499845924161
0.00499846249345
0.00499846163254
0.00499852635771
0.00499852530204
0.00499852447919
0.00499852380405
0.00499852321133
0.00499852282019
0.00499852169579
0.00499851405387
0.00499849899563
0.00499848660071
0.00499847732946
0.00499847098883
0.00499846996905
0.00499847497897
0.00499846852948
0.00499846122148
0.00499846114973
0.00499846563731
0.00499846586178
0.00499846555726
0.00499853864869
0.00499853778666
0.00499853702352
0.004998536252
0.0049985353325
0.00499853422584
0.0049985285481
0.00499851746402
0.00499850402729
0.00499849463909
0.00499848886076
0.00499848737804
0.00499849204022
0.0049984890778
0.00499846953583
0.00499846924708
0.00499846900921
0.00499846772404
0.00499846795298
0.0049984676685
0.00499855026484
0.00499854961369
0.00499854904354
0.00499854850092
0.00499854813019
0.00499854836177
0.00499854295313
0.00499852901566
0.00499851750414
0.00499851255391
0.00499851080022
0.00499850793759
0.00499850121985
0.00499848565273
0.00499847440075
0.00499847437409
0.00499847157529
0.00499847129293
0.00499847221349
0.00499847182812
0.00499856080736
0.00499856029687
0.00499855973739
0.00499855915153
0.00499855845987
0.0049985593695
0.00499855641544
0.00499854808514
0.00499854530445
0.0049985490741
0.00499854857652
0.00499853637208
0.00499851842125
0.00499850022636
0.00499849150764
0.00499848766691
0.00499848127652
0.00499848231442
0.00499848452093
0.00499848490854
0.00499857011058
0.00499856967285
0.00499856925712
0.00499856883177
0.00499856822587
0.00499857075602
0.00499857288616
0.00499857393551
0.00499858250373
0.00499859930894
0.00499859658157
0.00499857807046
0.00499856022472
0.00499854373081
0.0049985313791
0.00499852335013
0.00499851864767
0.00499852047795
0.0049985217785
0.00499852228967
0.00499857806962
0.0049985776665
0.004998577137
0.00499857658652
0.00499857926746
0.00499858626748
0.0049985930161
0.00499860376256
0.00499862537856
0.00499865494527
0.0049986459451
0.00499862591969
0.00499861340283
0.00499860070998
0.0049985862377
0.00499857687658
0.00499857567251
0.00499857816484
0.00499857963001
0.00499858042724
0.00499858491374
0.00499858435903
0.00499858406075
0.00499858486179
0.00499858946924
0.00499859812546
0.00499861264438
0.00499863148605
0.00499866598168
0.00499871013068
0.00499869346613
0.00499867409546
0.0049986658981
0.00499866251825
0.00499865388499
0.0049986504397
0.00499865428702
0.00499865756699
0.00499865971923
0.00499866080101
0.00499859130987
0.00499859174592
0.00499859159664
0.00499859014276
0.00499859670478
0.00499861043056
0.00499863338233
0.00499865862211
0.00499872043923
0.00499878781077
0.00499876029725
0.00499874543829
0.00499874678428
0.00499875116372
0.00499874167942
0.00499875054373
0.00499875829247
0.00499876369802
0.00499876691919
0.00499876830165
0.0049986025954
0.00499859602336
0.00499858893448
0.00499859144556
0.0049986054509
0.00499863436119
0.00499866942418
0.00499871459431
0.00499887976061
0.00499893874452
0.00499891607322
0.00499892507784
0.00499894436
0.00499893432351
0.00499891559799
0.00499889898898
0.00499890459557
0.004998908547
0.00499891042056
0.00499891087988
0.00499862148111
0.00499861326651
0.00499861340335
0.00499863153984
0.0049986538146
0.00499869080423
0.00499875048487
0.00499895003977
0.00499910170039
0.00499909559497
0.00499909860605
0.00499911156763
0.0049991129555
0.00499911085315
0.00499911105962
0.00499909079146
0.00499907590205
0.00499907056623
0.00499906791432
0.00499906619183
0.00499872413447
0.00499873598737
0.0049987533719
0.00499878142911
0.00499882682707
0.0049989187911
0.00499907886881
0.00499917595842
0.00499918333227
0.00499919086943
0.00499920214284
0.00499920315509
0.00499920372407
0.00499920437954
0.00499920620095
0.00499920442567
0.00499919444255
0.00499918776373
0.00499918496456
0.00499918351757
0.00499900593172
0.00499905006695
0.00499912617194
0.00499927173597
0.00499931616916
0.00499929061092
0.00499926639052
0.00499925308718
0.00499926530237
0.00499929138317
0.00499930107625
0.0049993024058
0.00499930314153
0.00499930224346
0.00499930215865
0.00499930841186
0.0049993009774
0.00499929353274
0.00499929063467
0.00499928902251
0.00499943281482
0.00499956008106
0.004999760998
0.00499977116582
0.00499971328263
0.00499962113986
0.00499951645481
0.00499945646477
0.00499943820134
0.00499943566861
0.00499942976611
0.0049994247446
0.00499941910921
0.00499941706186
0.00499941960087
0.00499943182807
0.00499942177218
0.00499941264885
0.0049994101884
0.00499940938126
0.00499982286909
0.00499998553568
0.00499999190704
0.00499997375893
0.00499997282221
0.00499992756663
0.00499982741438
0.0049997242208
0.00499964390428
0.0049995938188
0.00499957623532
0.00499956970465
0.00499956558246
0.00499956429809
0.00499957384748
0.00499959722222
0.00499956935369
0.004999559561
0.0049995628539
0.00499957555219
0.00500000017325
0.00500001261463
0.0049999933188
0.00499999259711
0.00499999259959
0.00499999574137
0.00499997340884
0.0049999372906
0.0049998985832
0.00499986473069
0.00499984823251
0.004999841665
0.0049998347865
0.00499982861734
0.00499983103684
0.00499984798012
0.0049998246501
0.00499979375181
0.00499978639304
0.00499978821912
)
;

boundaryField
{
    emptyPatch
    {
        type            empty;
    }
    minY
    {
        type            calculated;
        value           nonuniform List<scalar> 0();
    }
    maxY
    {
        type            calculated;
        value           uniform 0.005;
    }
    maxX
    {
        type            calculated;
        value           nonuniform List<scalar> 
38
(
0.00499497568635
0.00499513310239
0.0049953138158
0.00499553064116
0.00499579008546
0.00499608911464
0.00499640537962
0.00499669752541
0.00499693087805
0.00499715381456
0.00499766608399
0.00499824366979
0.00499828806153
0.00499830328901
0.00499830043069
0.00499830894365
0.00499832845
0.00499835853259
0.00499839486155
0.00499841727638
0.00499842552944
0.00499845949463
0.00499846163254
0.00499846555727
0.00499846766851
0.00499847182813
0.00499848490856
0.00499852228969
0.00499858042727
0.00499866080107
0.00499876830175
0.00499891088004
0.00499906619208
0.00499918351792
0.00499928902442
0.00499940938626
0.00499957555714
0.00499978822396
)
;
    }
    water_to_heater
    {
        type            calculated;
        value           nonuniform List<scalar> 
59
(
0.00499449136966
0.00499450816179
0.00499453278755
0.00499455808536
0.00499455324922
0.0049945834724
0.00499470877824
0.00499475579788
0.00499554261354
0.00499560059624
0.00499769934839
0.00499834601652
0.00499835077039
0.00499836554934
0.00499836348586
0.00499837374259
0.00499837286636
0.00499838313172
0.00499838263262
0.00499839006392
0.00499838970531
0.00499839984751
0.00499839921655
0.00499840948316
0.00499840835075
0.00499841851179
0.00499841700618
0.00499842262761
0.00499842029123
0.00499843056635
0.00499842816044
0.00499843841463
0.00499843635537
0.00499844664331
0.0049984454365
0.00499845394225
0.00499845469998
0.00499847149894
0.00499847362526
0.00499849353919
0.00499849473364
0.00499851501381
0.00499851587843
0.00499853158344
0.00499853257373
0.0049985518572
0.00499856012289
0.00499857916599
0.00499861082022
0.00499863010675
0.00499866788525
0.00499872351007
0.00499876338609
0.00499878357251
0.00499881653983
0.00499884239187
0.004999005078
0.00499904054938
0.00499950481678
)
;
    }
    procBoundary0to1
    {
        type            processor;
        value           nonuniform List<scalar> 
41
(
0.00499444740782
0.00499443916458
0.00499434022557
0.00499432236593
0.0049943867771
0.00499446224851
0.00499451544383
0.00499455626603
0.00499460889489
0.00499466177403
0.00499474688306
0.00499494735451
0.00499510801494
0.00499512554541
0.00499509037815
0.00499505036672
0.00499501250742
0.00499498495687
0.00499497311522
0.00499497233473
0.00499482855872
0.00499481992559
0.00499481599821
0.00499481495223
0.00499481345424
0.00499481022506
0.00499480574993
0.00499480147378
0.00499481325943
0.00499485556954
0.00499484152247
0.00499482660484
0.00499482856348
0.00499483324452
0.0049948319932
0.00499482799493
0.00499497275287
0.00499497031481
0.00499496486168
0.00499495371554
0.00499495371554
)
;
    }
}


// ************************************************************************* //
