/*--------------------------------*- C++ -*----------------------------------*\
| =========                 |                                                 |
| \\      /  F ield         | OpenFOAM: The Open Source CFD Toolbox           |
|  \\    /   O peration     | Version:  2312                                  |
|   \\  /    A nd           | Website:  www.openfoam.com                      |
|    \\/     M anipulation  |                                                 |
\*---------------------------------------------------------------------------*/
FoamFile
{
    version     2.0;
    format      ascii;
    arch        "LSB;label=32;scalar=64";
    class       volScalarField;
    location    "0.03/water";
    object      d.gas;
}
// * * * * * * * * * * * * * * * * * * * * * * * * * * * * * * * * * * * * * //

dimensions      [0 1 0 0 0 0 0];

internalField   nonuniform List<scalar> 
750
(
0.00496064212533
0.0049606835273
0.00496070753559
0.00496070652622
0.00496070869506
0.00496071170791
0.00496071451781
0.00496071700155
0.00496071928487
0.00496072144739
0.00496072346913
0.00496072542342
0.00496072742727
0.00496072959693
0.00496073182603
0.00496073399187
0.00496073643135
0.00496073992626
0.00496074471173
0.00496074972328
0.00496152341946
0.00496133394552
0.00496147464615
0.0049614798459
0.0049614733667
0.00496146665766
0.00496146241998
0.00496146315348
0.00496146961223
0.00496147350213
0.00496147488695
0.00496147301444
0.00496146957823
0.00496146379154
0.00496145580842
0.00496145163482
0.00496145440197
0.00496145858166
0.00496146059248
0.0049614616665
0.0049620065761
0.00496181129832
0.00496195984495
0.0049619706928
0.00496196690856
0.00496196581301
0.00496197075364
0.00496197641737
0.00496197478952
0.00496196896273
0.00496196126899
0.00496195203768
0.00496194620134
0.00496195809369
0.00496198774844
0.00496200307447
0.00496197792338
0.00496195615918
0.00496195024125
0.00496195426207
0.00496251525114
0.00496232931136
0.00496247463011
0.00496248484406
0.00496247896146
0.00496247547724
0.00496247970524
0.00496249243959
0.00496250429504
0.00496249971693
0.00496248319419
0.00496246669822
0.00496246412149
0.00496249925762
0.00496256600353
0.00496253043266
0.00496250532164
0.00496248908561
0.00496248921596
0.00496249232699
0.00496339094637
0.00496324622223
0.00496337048636
0.00496337617977
0.00496336844674
0.00496336738114
0.00496336581976
0.0049633647328
0.00496336466371
0.00496336714742
0.00496336961408
0.00496337005499
0.00496336965459
0.00496336911746
0.00496336909153
0.00496336663003
0.00496336412122
0.00496338160894
0.00496343935695
0.00496344669156
0.00496361810542
0.00496354463819
0.00496363607693
0.00496362388655
0.00496361570533
0.00496361472947
0.00496361398354
0.00496361416027
0.00496361478322
0.00496361608841
0.00496361808198
0.0049636206985
0.00496361542992
0.00496361662326
0.0049636109865
0.00496361005841
0.00496360553768
0.00496360783808
0.00496360848676
0.00496361273094
0.00496408057033
0.00496404939801
0.00496408620638
0.0049640844558
0.00496408417022
0.00496408535223
0.00496408771631
0.00496409093225
0.00496409378551
0.00496409405956
0.0049640901434
0.004964082489
0.00496407311337
0.00496406542567
0.00496406564624
0.0049640790869
0.00496410818341
0.00496412316407
0.00496410496122
0.00496409188786
0.00496514660608
0.00496514927321
0.00496514994446
0.00496514999972
0.00496515001426
0.00496515002394
0.00496515003896
0.0049651501407
0.00496515032854
0.00496515058611
0.00496515091265
0.00496515131219
0.00496515178617
0.00496515234669
0.00496515310194
0.00496515424483
0.00496515603373
0.00496515896101
0.00496516471606
0.00496515653767
0.00496586704371
0.00496586968733
0.00496587033756
0.00496587037933
0.00496587038366
0.00496587039278
0.00496587040729
0.00496587042882
0.00496587045382
0.00496587048245
0.00496587051256
0.00496587054245
0.00496587056497
0.00496587057704
0.00496587057759
0.00496587056816
0.00496587055516
0.00496587055072
0.00496587054299
0.00496587223255
0.00496608268251
0.00496608589105
0.00496608668143
0.00496608669875
0.00496608663047
0.00496608659037
0.00496608659906
0.00496608662588
0.00496608665863
0.00496608670957
0.00496608678298
0.00496608683417
0.00496608686427
0.00496608687913
0.00496608688261
0.00496608688176
0.00496608688279
0.00496608688661
0.00496608690403
0.00496608690725
0.00496624870451
0.00496625473556
0.00496625830972
0.00496625813689
0.0049662577888
0.00496625721416
0.004966256571
0.00496625620787
0.00496625574286
0.00496625422284
0.00496625253291
0.00496625251312
0.00496625248728
0.00496625245792
0.00496625243049
0.00496625240991
0.00496625239902
0.00496625238789
0.00496625237143
0.00496625233292
0.00496642529261
0.00496642744458
0.00496642797928
0.00496642802574
0.00496642804538
0.00496642806211
0.00496642807269
0.00496642808107
0.00496642808597
0.00496642806869
0.00496642801742
0.00496642797606
0.00496642794147
0.00496642791387
0.00496642789274
0.00496642787755
0.00496642786279
0.00496642785094
0.00496642784269
0.00496642782842
0.00496657768651
0.0049665788705
0.00496657916506
0.00496657918928
0.00496657919125
0.00496657918878
0.00496657918406
0.0049665791775
0.00496657916686
0.00496657915088
0.00496657913123
0.00496657910775
0.00496657908862
0.00496657907749
0.00496657907072
0.00496657906597
0.00496657906241
0.0049665790606
0.00496657906506
0.00496657908982
0.00496671273501
0.00496671355487
0.00496671375561
0.00496671376191
0.00496671375125
0.00496671374541
0.00496671374212
0.00496671373857
0.00496671373258
0.00496671372522
0.00496671371582
0.00496671370774
0.00496671370077
0.00496671369597
0.00496671369271
0.00496671369166
0.0049667136922
0.00496671369505
0.00496671370092
0.0049667137349
0.00496676919562
0.0049667695198
0.00496676959492
0.00496676959593
0.0049667695948
0.00496676959427
0.00496676959352
0.00496676959135
0.00496676958828
0.00496676958374
0.00496676957847
0.00496676957214
0.00496676956555
0.00496676955837
0.00496676955137
0.00496676954376
0.00496676953638
0.00496676952842
0.00496676952179
0.00496676952514
0.0049668277648
0.00496682789965
0.00496682793153
0.00496682793322
0.00496682793319
0.00496682793342
0.00496682793329
0.00496682793268
0.00496682793138
0.00496682792959
0.00496682792702
0.00496682792425
0.00496682792065
0.00496682791722
0.00496682791289
0.00496682790901
0.00496682790409
0.00496682789984
0.00496682789535
0.00496682789751
0.0049668923821
0.00496689250106
0.00496689252887
0.00496689252979
0.00496689252981
0.00496689253047
0.00496689253126
0.00496689253182
0.00496689253203
0.00496689253184
0.00496689253142
0.00496689253057
0.00496689252961
0.00496689252813
0.00496689252674
0.00496689252472
0.00496689252292
0.00496689252038
0.00496689252139
0.00496689253011
0.004966960935
0.00496696108225
0.00496696111496
0.00496696111524
0.00496696111506
0.00496696111572
0.00496696111737
0.00496696111842
0.00496696111885
0.00496696111882
0.00496696111872
0.00496696111816
0.00496696111787
0.00496696111718
0.00496696111688
0.00496696111614
0.00496696111559
0.0049669611149
0.00496696111984
0.00496696114304
0.00496704148754
0.00496704230229
0.00496704249168
0.00496704248848
0.0049670424776
0.00496704248265
0.00496704248899
0.00496704249494
0.00496704249916
0.00496704250052
0.00496704250239
0.00496704250376
0.00496704250639
0.00496704250947
0.00496704251367
0.00496704251911
0.00496704252511
0.00496704253291
0.00496704254253
0.00496704257919
0.0049670431834
0.00496704767899
0.0049670497543
0.0049670495982
0.00496704933901
0.00496704919529
0.00496704920757
0.00496704914473
0.00496704908177
0.00496704906764
0.00496704907309
0.00496704908528
0.00496704909564
0.00496704910935
0.00496704912087
0.00496704913485
0.00496704914664
0.0049670491589
0.00496704916913
0.00496704918546
0.00496708548251
0.00496709398881
0.00496710103047
0.00496710213696
0.00496710210228
0.0049670998446
0.00496709613348
0.00496709604604
0.00496709591035
0.00496709583801
0.00496709583106
0.00496709583697
0.00496709584759
0.00496709585593
0.00496709586763
0.00496709587632
0.00496709588757
0.00496709589558
0.00496709590413
0.0049670959093
0.00496714619286
0.00496714922613
0.00496714999313
0.00496715008091
0.00496715013281
0.00496715014618
0.00496715008127
0.00496715000891
0.00496714997257
0.00496714996856
0.00496714997038
0.0049671499774
0.00496714998257
0.00496714999124
0.00496714999624
0.00496715000323
0.00496715000526
0.00496715000811
0.00496715000534
0.00496714999612
0.00496725766009
0.00496725884676
0.00496725913709
0.00496725915732
0.00496725916114
0.00496725916298
0.00496725915583
0.00496725913517
0.00496725911807
0.00496725911267
0.00496725911587
0.00496725911746
0.00496725912426
0.00496725912915
0.00496725913364
0.00496725913572
0.00496725913792
0.00496725913731
0.00496725913606
0.0049672591409
0.00496732147414
0.0049673243521
0.00496732506337
0.00496732511473
0.0049673251255
0.00496732513685
0.00496732515416
0.00496732518099
0.0049673252034
0.00496732519166
0.00496732515481
0.00496732516498
0.00496732518715
0.00496732520827
0.00496732522903
0.0049673252529
0.00496732527179
0.00496732529299
0.00496732531265
0.00496732533586
0.00496752449235
0.00496752874975
0.00496753066133
0.00496753047943
0.00496753042532
0.00496753059778
0.00496753182959
0.00496753721409
0.00496755107234
0.00496756354124
0.0049675527279
0.00496753967266
0.0049675394515
0.00496753938073
0.00496753938919
0.00496753940717
0.00496753943062
0.00496753945218
0.00496753948207
0.00496753954687
0.00496754982876
0.00496755579826
0.0049675596433
0.0049675595961
0.00496756029419
0.00496756134401
0.00496756191852
0.00496756219252
0.00496756577119
0.0049675811245
0.00496760363208
0.00496761508368
0.00496758762673
0.00496757665708
0.00496757644402
0.00496757638263
0.00496757637996
0.00496757639028
0.00496757639942
0.00496757642475
0.00496760660321
0.0049676103983
0.0049676118354
0.00496761173048
0.00496761172499
0.00496761175083
0.00496761176447
0.00496761216702
0.0049676138357
0.00496761716413
0.00496761999091
0.00496762013541
0.00496761820846
0.00496761867259
0.004967618589
0.00496761853332
0.00496761851774
0.00496761851892
0.00496761852628
0.00496761853856
0.004967656467
0.0049676608109
0.00496766296976
0.00496766329113
0.00496766395963
0.0049676645253
0.00496766477134
0.00496766519907
0.00496766617561
0.00496766755361
0.00496766887804
0.00496766953775
0.00496766971827
0.00496766967886
0.00496766963758
0.00496766961347
0.00496766960658
0.00496766960797
0.00496766960997
0.00496766962167
0.00496769503147
0.00496770462208
0.00496771903366
0.00496772029103
0.00496772130369
0.00496772108257
0.00496772056638
0.00496772083523
0.00496772228929
0.00496772475508
0.00496772760322
0.004967729934
0.00496773101732
0.00496773101038
0.00496773097349
0.00496773094822
0.00496773094592
0.00496773095154
0.00496773096199
0.00496773098368
0.00496775979568
0.00496774739901
0.00496780159999
0.00496779173043
0.00496779121426
0.00496779501305
0.00496779747725
0.00496779670108
0.00496779941255
0.00496782411476
0.00496787028396
0.00496785910874
0.0049678045104
0.00496780407277
0.00496780390579
0.00496780389085
0.00496780390332
0.00496780392339
0.00496780394411
0.00496780397995
0.00496785140513
0.00496782782937
0.00496789035933
0.00496787755944
0.00496787461033
0.0049678769289
0.00496788007591
0.00496788225343
0.00496788200203
0.00496788400317
0.00496790517253
0.0049679522446
0.00496798963243
0.00496792266353
0.00496788840355
0.00496788807524
0.00496788799552
0.00496788801452
0.00496788806016
0.00496788809096
0.00496794004026
0.00496793977022
0.00496797014
0.00496797315303
0.00496797812297
0.00496798096044
0.00496798058444
0.00496797857286
0.00496797674356
0.0049679767816
0.0049679777091
0.00496797878502
0.00496798017806
0.0049679820238
0.00496798434942
0.004967986699
0.0049679887264
0.0049679903278
0.00496799101753
0.00496799100693
0.00496810206589
0.00496810595452
0.0049681102248
0.00496811022154
0.00496811021725
0.00496811019547
0.00496811017162
0.00496811015241
0.00496811013824
0.00496811012873
0.00496811012319
0.00496811012304
0.00496811012748
0.00496811012867
0.00496811012348
0.00496811011163
0.00496811009486
0.00496811006498
0.00496811001254
0.00496810996636
0.00496817932196
0.00496816923193
0.00496820146455
0.00496820055119
0.00496820069719
0.0049682021599
0.00496820476974
0.00496820743257
0.00496820981875
0.00496821221163
0.00496821437079
0.00496821565545
0.00496821604281
0.00496821605423
0.00496821604506
0.00496821603465
0.00496821602729
0.00496821602337
0.00496821602347
0.00496821603386
0.00496831284095
0.00496825259507
0.00496833649199
0.0049683245465
0.00496832106906
0.00496832352153
0.00496832203237
0.00496831649881
0.00496832013043
0.00496836584845
0.00496844300593
0.00496839285624
0.00496831296999
0.00496831244068
0.00496831229043
0.00496831228781
0.0049683123068
0.00496831232514
0.00496831234806
0.00496831238418
0.00496841759049
0.00496832033641
0.00496842557086
0.00496842090824
0.0049684165714
0.00496841823751
0.00496841965041
0.00496841946574
0.00496841592591
0.00496841524745
0.00496844313035
0.00496851444333
0.00496861689062
0.0049685671904
0.0049684110286
0.00496841041796
0.00496841020057
0.00496841019862
0.00496841025188
0.00496841030292
0.00496845197791
0.00496838402986
0.00496847561193
0.00496847669943
0.00496847326073
0.004968465752
0.00496845554471
0.00496845232715
0.00496845748911
0.00496846597119
0.0049684758217
0.00496848435507
0.00496849014373
0.00496849386876
0.00496849804266
0.00496851063044
0.00496852442652
0.00496853184753
0.00496853312321
0.00496853312145
0.00496077540267
0.00496146054227
0.00496198622866
0.00496249659292
0.00496309211892
0.00496362554269
0.00496407330045
0.00496504635275
0.00496585267516
0.00496607646064
)
;

boundaryField
{
    emptyPatch
    {
        type            empty;
    }
    minY
    {
        type            calculated;
        value           nonuniform List<scalar> 
21
(
0.00496055312869
0.00496058900746
0.00496060413663
0.00496059450841
0.00496058901096
0.00496058539819
0.00496058235759
0.00496057959872
0.00496057716324
0.00496057506925
0.00496057318875
0.00496057145712
0.00496056992377
0.00496056877308
0.00496056797593
0.0049605672365
0.00496056666383
0.00496056732505
0.00496057041712
0.00496057459122
0.00496059314014
)
;
    }
    maxY
    {
        type            calculated;
        value           nonuniform List<scalar> 0();
    }
    maxX
    {
        type            calculated;
        value           nonuniform List<scalar> 0();
    }
    water_to_heater
    {
        type            calculated;
        value           nonuniform List<scalar> 
59
(
0.00496064212305
0.00496141348608
0.00496156005762
0.00496193056977
0.00496208256623
0.00496247709433
0.00496262967074
0.00496339092931
0.00496361808421
0.00496400664976
0.00496410517004
0.00496512035556
0.00496517280241
0.00496585389489
0.00496590637285
0.00496608264437
0.00496624866169
0.00496639000029
0.0049664370143
0.00496655775278
0.00496659757269
0.00496670359339
0.00496674007415
0.00496676917683
0.00496682774613
0.00496687503883
0.00496689813707
0.00496694872818
0.00496697310074
0.00496703233316
0.00496706884394
0.00496704310715
0.00496708539989
0.00496710239245
0.00496716069009
0.00496723767568
0.00496727756627
0.00496730741235
0.0049673633323
0.00496752439804
0.00496754972967
0.00496756028347
0.00496762190605
0.00496762518889
0.00496768752464
0.0049676762346
0.00496775090258
0.00496775966667
0.00496785127399
0.00496787321971
0.00496796211517
0.00496806775264
0.00496813608615
0.00496815561522
0.00496824979307
0.00496831270069
0.00496841744796
0.00496835649193
0.00496848358549
)
;
    }
    procBoundary0to1
    {
        type            processor;
        value           nonuniform List<scalar> 
38
(
0.00496621929667
0.00496640309459
0.00496658419108
0.0049667106749
0.00496676786896
0.00496682596991
0.0049669074053
0.00496699928754
0.00496706325755
0.00496705343471
0.00496709648654
0.00496715324118
0.00496727538562
0.0049673301129
0.00496754020057
0.00496757661619
0.00496761864007
0.00496766971884
0.00496773115781
0.00496780423107
0.00496788824544
0.00496799097376
0.00496810975074
0.00496821614312
0.00496831261606
0.00496841055481
0.00496853315515
0.00496079517734
0.00496144176484
0.00496198714863
0.00496248963325
0.00496299624099
0.00496357070175
0.00496409713094
0.00496497471941
0.00496572091687
0.00496601693824
0.00496621929667
)
;
    }
    procBoundary0to3
    {
        type            processor;
        value           nonuniform List<scalar> 
20
(
0.00496863064099
0.00496861303418
0.00496862011527
0.00496862007211
0.00496862004245
0.00496862003927
0.00496862004388
0.00496862003878
0.00496862003948
0.00496862004014
0.00496862005283
0.00496862007269
0.00496862010253
0.00496862014605
0.00496862102175
0.00496862257814
0.00496862376671
0.00496862753801
0.00496863607593
0.00496864605071
)
;
    }
}


// ************************************************************************* //
