/*--------------------------------*- C++ -*----------------------------------*\
| =========                 |                                                 |
| \\      /  F ield         | OpenFOAM: The Open Source CFD Toolbox           |
|  \\    /   O peration     | Version:  2312                                  |
|   \\  /    A nd           | Website:  www.openfoam.com                      |
|    \\/     M anipulation  |                                                 |
\*---------------------------------------------------------------------------*/
FoamFile
{
    version     2.0;
    format      ascii;
    arch        "LSB;label=32;scalar=64";
    class       volScalarField;
    location    "0.975/water";
    object      alpha.gas_0;
}
// * * * * * * * * * * * * * * * * * * * * * * * * * * * * * * * * * * * * * //

dimensions      [0 0 0 0 0 0 0];

internalField   nonuniform List<scalar> 
1503
(
0.166749508339
0.102833115527
0.0300403733263
0.00787801047325
0.00155047803035
0.000248174977586
3.18059447822e-05
2.45996013171e-06
5.44616558515e-08
4.84069507126e-10
2.46261901622e-12
9.99819047213e-15
1e-15
1e-15
1e-15
1e-15
1e-15
1e-15
1e-15
1e-15
0.610850643199
0.253336311739
0.106656222108
0.037275527588
0.0121719138217
0.00333823393431
0.000765329335185
0.000137045007239
1.44652127453e-05
3.59976340012e-07
1.27718531921e-09
2.09198372145e-12
3.40544944474e-15
1e-15
1e-15
1e-15
1e-15
1e-15
1e-15
1e-15
0.613304089033
0.334747003898
0.164315498724
0.0707160563149
0.0278191729581
0.00951637218234
0.00272031356311
0.000624959263922
9.7403324793e-05
5.76384013276e-06
3.13265943428e-08
3.71517486068e-11
3.4742386197e-14
1.00021373304e-15
1e-15
1e-15
1e-15
1e-15
1e-15
1e-15
0.613303650933
0.414168511651
0.238324386523
0.120820732593
0.0546241359883
0.0213536609013
0.00697052003899
0.00184538401374
0.000358749268857
3.59860300543e-05
5.9413292235e-07
5.88634963778e-10
3.54247262588e-13
1.1419099945e-15
1e-15
1e-15
1e-15
1e-15
1e-15
1e-15
0.596979029866
0.462149041625
0.317153163
0.191513012431
0.101164655556
0.0452770650135
0.0165734013938
0.004811194453
0.00104856365372
0.000137487447137
5.42163538878e-06
8.08334404196e-09
4.08807845071e-12
2.75063490341e-15
1e-15
1e-15
1e-15
1e-15
1e-15
1e-15
0.569511855677
0.48014747034
0.377881987199
0.268163381298
0.167333255545
0.0884462988634
0.0378016725299
0.0123962645651
0.00294940810562
0.00044470322216
2.81113069914e-05
1.7243836796e-07
8.09766328059e-11
2.95641190869e-14
1.00339659316e-15
1e-15
1e-15
1e-15
1e-15
1e-15
0.561380919522
0.488596785062
0.415291447558
0.331562090585
0.238914616527
0.148931249332
0.0764580790822
0.0301507463261
0.00836585323251
0.00144737450358
0.000120299956643
2.2530932578e-06
1.25544735806e-09
3.82798814758e-13
1.09865197426e-15
1e-15
1e-15
1e-15
1e-15
1e-15
0.562566836181
0.494107517454
0.435493337313
0.37446121916
0.29897750653
0.21322504527
0.129843313525
0.0631432258673
0.0220511811139
0.0047729492977
0.000515927318471
1.83922784552e-05
3.92682912779e-08
1.04355180984e-11
3.29129922141e-15
1e-15
1e-15
1e-15
1e-15
1e-15
0.561228337021
0.496663665796
0.452799766118
0.40646160795
0.345428496178
0.269640901385
0.187474104655
0.110304389501
0.0496066554625
0.0144493507737
0.00217414926774
0.000123497029756
1.34414089758e-06
3.45494209471e-10
5.6654907713e-14
1.00651201292e-15
1e-15
1e-15
1e-15
1e-15
0.563717016175
0.496363985485
0.46586898945
0.42999339155
0.379316825266
0.313134250617
0.239329390856
0.163667346289
0.0922039532231
0.0364060033174
0.00791145903873
0.00070209754436
1.69666929857e-05
2.3955753272e-08
2.83088638144e-12
1.28015336174e-15
1.00024491389e-15
1e-15
1e-15
1e-15
0.561228337021
0.493022194498
0.467656528542
0.438461614839
0.397366135735
0.342177756724
0.279952653411
0.213345468316
0.14265763129
0.072830065287
0.0224306656754
0.0030622067091
0.000128929948196
8.7509471991e-07
2.24043046619e-10
2.97898691696e-14
1.0054790038e-15
1.00259789195e-15
1.00127683089e-15
1e-15
0.563663787977
0.484443846501
0.461669389232
0.434410081261
0.399603800201
0.357512066268
0.308706705183
0.253494091407
0.189473509834
0.116360684961
0.0478923908503
0.00965735595037
0.000652279286485
9.42232965576e-06
8.6393637158e-09
2.2265440647e-12
1.3662163695e-15
1.00691325611e-15
1.00489587631e-15
1.00214178446e-15
0.561019436657
0.470195109109
0.443341625857
0.419271945997
0.393970647359
0.363922735708
0.327888854928
0.282081383673
0.224468277065
0.155125588809
0.0792728517957
0.0221257163408
0.00225315153327
5.52267513452e-05
1.51990682979e-07
6.29218515146e-11
1.46375837054e-14
1.01006270302e-15
1.00602720942e-15
1.00373119255e-15
0.561702196774
0.45404837187
0.425011571891
0.404031308059
0.388290268897
0.368503079676
0.341054150065
0.300786440063
0.248259346361
0.185311793703
0.110316694201
0.0396509412851
0.00575693623454
0.000221267208145
1.43878667569e-06
6.66108257599e-10
1.17520216706e-13
1.01524121809e-15
1.00509310973e-15
1.00318661452e-15
0.559857286773
0.444920355338
0.422606182491
0.405012544124
0.391673158104
0.376415787301
0.352202172746
0.31454422496
0.267377891415
0.212201630808
0.141782289352
0.0624109041644
0.0124538660393
0.000758233236135
1.01836188429e-05
3.94672252957e-09
2.10523602318e-13
1.00988645478e-15
1.00189726732e-15
1.00113774823e-15
0.543021685728
0.447233956889
0.432915154962
0.42150912127
0.409389937621
0.391923449101
0.364969956553
0.329246561899
0.289051640454
0.243212854008
0.180156481437
0.0959075353143
0.0264884284406
0.0026572784292
7.25584123789e-05
2.41979908936e-07
4.88488579615e-13
1.19899112025e-15
1.00000272071e-15
1.00000071461e-15
0.541275814791
0.474325503942
0.468290686622
0.461085409988
0.443309244949
0.414892396933
0.381953571017
0.348987947906
0.316656185071
0.280304575759
0.228639336423
0.148451575733
0.0583997991372
0.00986879686797
0.000528705492356
6.06554119026e-06
3.74705810653e-10
1.12298308269e-14
1.00067530564e-15
1e-15
0.57732699039
0.530613911823
0.51763400269
0.506256581861
0.47948961895
0.440166038702
0.401198142579
0.367979969992
0.339299628729
0.312628946806
0.276611882119
0.215655407398
0.119393269398
0.0333292687931
0.00327478798762
8.19565872219e-05
1.97314565305e-07
6.37715172467e-13
1.23974234496e-15
1e-15
0.622217039607
0.571048943853
0.5597630539
0.541975376151
0.507547059653
0.460545191352
0.414610932205
0.374804898336
0.341575783158
0.318291242903
0.306884748849
0.277422365566
0.199615816606
0.0851845737991
0.0145551727819
0.00071607454082
7.17678528613e-06
2.61521276046e-10
1.2550778388e-14
1e-15
0.620789646687
0.581199297147
0.581476011732
0.56447302857
0.525296643967
0.471465258229
0.418679042592
0.374220078768
0.337800989951
0.313605675471
0.310060163555
0.309910089441
0.266206834994
0.154975495262
0.0424309051329
0.00373344686528
7.71331790383e-05
1.39769474474e-07
3.39006734133e-12
1.79985155891e-15
0.62504086112
0.582047772095
0.581903111717
0.571755837359
0.532678615793
0.474290849282
0.417731476211
0.368193096549
0.324718437757
0.301279726589
0.307129632828
0.309846294242
0.295166876983
0.210087180293
0.0822979424289
0.0117516189259
0.000423620271227
2.62357660119e-06
1.36300394671e-10
4.60206149574e-14
0.621058490519
0.579025298155
0.581759748689
0.571277420094
0.531925775903
0.47178124491
0.40968726687
0.350709536874
0.303036816547
0.296042337866
0.29779956543
0.308571540737
0.303104391515
0.238314096206
0.116458467545
0.0239414465034
0.00135220569131
1.49415479777e-05
1.10978471368e-08
2.87968068289e-12
0.62527398873
0.57057351218
0.577220633158
0.564333182599
0.52294245815
0.458659952855
0.388286037292
0.321917973806
0.29601498003
0.296136829455
0.29576993569
0.29920248689
0.301199136388
0.251929449644
0.138803402514
0.0360486172973
0.00282385727725
4.53206640478e-05
8.72929027597e-08
4.79452355821e-11
0.621058490519
0.558569465119
0.566383812963
0.548287559096
0.501140810774
0.431140042628
0.35568686678
0.298088264092
0.296136829455
0.295410116222
0.296136829455
0.295655029668
0.297138049484
0.261490442761
0.155224246556
0.0468258531313
0.00464458993831
9.74094271933e-05
3.02952917293e-07
2.49736200759e-10
0.624778832936
0.545952409857
0.551772717158
0.525990501069
0.469987684295
0.394667996313
0.320276099882
0.296136829455
0.295424919084
0.296136829455
0.294874071973
0.296136829455
0.303496320462
0.278481604884
0.174157397133
0.0593358931844
0.00727346223977
0.000194642211124
8.27852790782e-07
8.4918914148e-10
0.620789646687
0.535347594253
0.534898339882
0.501116393136
0.437594226434
0.361044925982
0.298446156823
0.295695262645
0.296136829455
0.29463479623
0.296136829455
0.294831279831
0.340249615625
0.310781963298
0.20607763491
0.0811608338242
0.0125574424487
0.000441371308214
2.47258721905e-06
2.90982752218e-09
0.62377531634
0.52539065798
0.514091211097
0.474355885897
0.409499040785
0.337991530562
0.296038022538
0.296136829455
0.294787399779
0.296136829455
0.294496505934
0.323378734358
0.358657438439
0.35160115306
0.259718718905
0.121251006287
0.0242887247963
0.00118805858964
9.19130734791e-06
1.21276229025e-08
0.620766604089
0.513030951587
0.487994667791
0.444795888914
0.385414795996
0.324393455407
0.296136829455
0.295150504558
0.296136829455
0.294496505934
0.302137051803
0.358740068607
0.358231377112
0.358646259191
0.310044354775
0.179327926691
0.0474935192685
0.00334387319125
3.85388326612e-05
5.74989361774e-08
0.621502654854
0.49656763092
0.465342019398
0.421790180262
0.371390283363
0.320985470058
0.29568630652
0.296136829455
0.294496505934
0.296858874764
0.352060088472
0.358231377112
0.359019503649
0.358231377112
0.346204190415
0.239255774722
0.0830019667769
0.00867031685622
0.000163649150663
3.82335753427e-07
0.617787697083
0.47606482375
0.452618304909
0.41675277047
0.371587934167
0.326386184666
0.30045924774
0.300867172228
0.312148344717
0.340687050479
0.358231377112
0.358816658598
0.358231377112
0.358723985234
0.358231377112
0.281427220493
0.125391074716
0.0196112910534
0.000632556431541
2.73573188121e-06
0.59176361284
0.456069546385
0.450856645842
0.423789184672
0.385897443904
0.352125364179
0.337058929728
0.344255243651
0.350206427358
0.347282108015
0.345213788571
0.349341980097
0.358523335984
0.358231377112
0.35835107151
0.304903093316
0.16840814689
0.0383747159082
0.00204550594759
1.57983671492e-05
0.555502576077
0.455944932849
0.460550785775
0.453945051629
0.426446253125
0.395320364044
0.380220644011
0.372407210419
0.353321494794
0.332747648549
0.315075819792
0.321807372392
0.343692575811
0.355146380301
0.354629602519
0.317723938395
0.210210122331
0.066705350543
0.00560884675257
7.47640007092e-05
0.539978483196
0.473288833065
0.503175679417
0.514605198084
0.479099265333
0.432040245801
0.40054962377
0.372334210766
0.341018061549
0.305754803054
0.285782227856
0.292237566588
0.315957209573
0.336995454775
0.341685598648
0.329252961444
0.253794022201
0.106527241336
0.0135941095099
0.0003182795849
0.541711432251
0.537041278517
0.575589813238
0.585395064163
0.530904654501
0.460949989992
0.410932353139
0.3691291645
0.324524710073
0.285232349315
0.267864094479
0.272484219725
0.289089199985
0.309261688371
0.329274391904
0.355225320702
0.29989887858
0.158538878759
0.0302982029849
0.00124139276636
0.589567443345
0.623720484357
0.636867232802
0.639798831425
0.582154103463
0.49527322442
0.425294601376
0.370437020918
0.318961694205
0.275105941993
0.257615866688
0.260274559345
0.270881905914
0.288130422561
0.329953760713
0.362042058198
0.353939565161
0.222621557569
0.0616521206158
0.00438541276167
0.70290625045
0.680091385928
0.668210180255
0.669918738448
0.629757909954
0.540315631561
0.451187413189
0.380844767347
0.320180533522
0.270835680682
0.250640358979
0.251870836857
0.259418807645
0.276031340323
0.332170833202
0.361494599635
0.362014605255
0.277769455498
0.108847079757
0.0130736061616
0.754967464343
0.709575899573
0.687739986914
0.687164774699
0.66539073459
0.58573974322
0.484786519055
0.399342251053
0.326224967036
0.269575487869
0.245427372516
0.245780199302
0.251576148048
0.268281274039
0.331590423707
0.362161474411
0.361494599635
0.313342563838
0.1601149317
0.0304437299863
0.751872390521
0.721960485207
0.703208318348
0.699265246337
0.684523805213
0.61539246468
0.511772293537
0.415116617389
0.331967026627
0.268610822095
0.241469213367
0.241425696313
0.246131352064
0.26247832325
0.328384162934
0.361494599635
0.361971833822
0.332341448332
0.20172500581
0.0552603194828
1e-15
1e-15
1e-15
1e-15
1e-15
1e-15
1e-15
1e-15
1e-15
1e-15
1e-15
1e-15
1e-15
1e-15
1e-15
1e-15
1e-15
1e-15
1e-15
1e-15
1e-15
1e-15
1e-15
1e-15
1e-15
1e-15
1e-15
1e-15
1e-15
1e-15
1e-15
1e-15
1e-15
1e-15
1e-15
1e-15
1e-15
1e-15
1e-15
1e-15
1e-15
1e-15
1e-15
1e-15
1e-15
1e-15
1e-15
1e-15
1e-15
1e-15
1e-15
1e-15
1e-15
1e-15
1e-15
1e-15
1e-15
1e-15
1e-15
1e-15
1e-15
1e-15
1e-15
1e-15
1e-15
1e-15
1e-15
1e-15
1e-15
1e-15
1e-15
1e-15
1e-15
1e-15
1e-15
1e-15
1e-15
1e-15
1e-15
1e-15
1e-15
1e-15
1e-15
1e-15
1e-15
1e-15
1e-15
1e-15
1e-15
1e-15
1e-15
1e-15
1e-15
1e-15
1e-15
1e-15
1.00068297502e-15
1e-15
1e-15
1e-15
1e-15
1e-15
1e-15
1e-15
1e-15
1e-15
1e-15
1e-15
1e-15
1e-15
1e-15
1e-15
1e-15
1e-15
1e-15
1e-15
1.00211790538e-15
1e-15
1e-15
1.02847407752e-15
1e-15
1e-15
1e-15
1e-15
1e-15
1e-15
1e-15
1.00000586858e-15
1.00017386505e-15
1.00031398754e-15
1.00026990142e-15
1.00000193826e-15
1e-15
1e-15
1e-15
1.00254756867e-15
1.00211390574e-15
1e-15
1e-15
1.0716951565e-15
1e-15
1e-15
1e-15
1e-15
1e-15
1e-15
1e-15
1.00012230578e-15
1.00051384284e-15
1.00074356039e-15
1.00053414192e-15
1e-15
1e-15
1e-15
1.00044396091e-15
1.00680858427e-15
1e-15
1e-15
1e-15
1.11310892398e-15
1e-15
1e-15
1e-15
1e-15
1e-15
1.00000186892e-15
1.00009204575e-15
1.00050305978e-15
1.00107859845e-15
1.00131168996e-15
1.00084211179e-15
1e-15
1e-15
1e-15
1.00276093379e-15
1.00680842689e-15
1e-15
1e-15
1e-15
1.15181509287e-15
1e-15
1e-15
1e-15
1e-15
1e-15
1.00021281302e-15
1.00068402333e-15
1.00136576974e-15
1.00197336225e-15
1.0021514578e-15
1.00140530878e-15
1e-15
1e-15
1e-15
1.0103071971e-15
1.00624560874e-15
1e-15
1e-15
1e-15
1.18519600933e-15
1e-15
1.00064411217e-15
1.00058245477e-15
1.00061952233e-15
1.00091570289e-15
1.00134962873e-15
1.00198756318e-15
1.00265586263e-15
1.00322086806e-15
1.00320867438e-15
1.00229198692e-15
1e-15
1e-15
1.00161377969e-15
1.01334279311e-15
1.00468650866e-15
1e-15
1e-15
1e-15
1.21417378949e-15
1.0013023214e-15
1.00207657237e-15
1.00202031521e-15
1.0019560136e-15
1.0022072649e-15
1.00264511845e-15
1.00317250146e-15
1.00411013792e-15
1.00480830387e-15
1.00416875381e-15
1.00259830002e-15
1.00000942513e-15
1e-15
1.00803719827e-15
1.01334266445e-15
1.00135260577e-15
1e-15
1e-15
1e-15
1.2392566928e-15
1.00256499455e-15
1.00240418651e-15
1.00227433192e-15
1.00214718583e-15
1.00233399706e-15
1.00278941042e-15
1.00371449664e-15
1.00563270507e-15
1.00757588456e-15
1.00496397938e-15
1.00251144207e-15
1.00024110225e-15
1.00074752072e-15
1.01357842186e-15
1.01242845138e-15
1e-15
1e-15
1.00514781407e-15
1e-15
1.26105420161e-15
1.00205298214e-15
1.00165013303e-15
1.00155303838e-15
1.00169347441e-15
1.00198346705e-15
1.00258029613e-15
1.00403862657e-15
1.00723502337e-15
1.0078235283e-15
1.0057923726e-15
1.00228858594e-15
1.00049054447e-15
1.0032936872e-15
1.01358082187e-15
1.00986147622e-15
1e-15
1e-15
1.01634486631e-15
1e-15
1.28022517847e-15
1.00056290479e-15
1.00027770761e-15
1.00020992588e-15
1.0003056142e-15
1.00108075225e-15
1.00213519968e-15
1.00433351693e-15
1.00744642938e-15
1.00782051043e-15
1.00610359552e-15
1.00223373777e-15
1.00111650179e-15
1.00791465456e-15
1.01357329751e-15
1.00588318288e-15
1e-15
1e-15
1.02014099144e-15
1e-15
1.29765044132e-15
1e-15
1e-15
1e-15
1e-15
1.0001169861e-15
1.00186682874e-15
1.00455637424e-15
1.00712547379e-15
1.00745234823e-15
1.00593611861e-15
1.00247805161e-15
1.00254351756e-15
1.01183382742e-15
1.01260739394e-15
1.00117675296e-15
1e-15
1e-15
1.02036318815e-15
1e-15
1.31407174183e-15
1e-15
1e-15
1e-15
1e-15
1e-15
1.00204849684e-15
1.00493437476e-15
1.00693192926e-15
1.00686582739e-15
1.00583605422e-15
1.00332698943e-15
1.00503214018e-15
1.01372839745e-15
1.01046725691e-15
1e-15
1e-15
1e-15
1.02014099144e-15
1e-15
1.32996069888e-15
1e-15
1e-15
1e-15
1e-15
1.00049053822e-15
1.00360443133e-15
1.00882147378e-15
1.00929043786e-15
1.00684346391e-15
1.00613409152e-15
1.00500608087e-15
1.00844027674e-15
1.01372845677e-15
1.00771510208e-15
1e-15
1e-15
1e-15
1.02037187883e-15
1e-15
1.34562173849e-15
1e-15
1e-15
1e-15
1e-15
1.0032680815e-15
1.00721401569e-15
1.02522480662e-15
1.02511663881e-15
1.00750161723e-15
1.00733076452e-15
1.00751065194e-15
1.01187986962e-15
1.01350257274e-15
1.00513566078e-15
1e-15
1e-15
1e-15
1.02014099144e-15
1e-15
1.36138099906e-15
1e-15
1e-15
1.00063502707e-15
1.00452791419e-15
1.00800130998e-15
1.01121169705e-15
1.02584827802e-15
1.02540683942e-15
1.01193517397e-15
1.00961474503e-15
1.01061717174e-15
1.01458032494e-15
1.01302670772e-15
1.00323586861e-15
1e-15
1e-15
1e-15
1.02036445754e-15
1e-15
1.37755298067e-15
1.0006281771e-15
1.00759126774e-15
1.01148853152e-15
1.01317329918e-15
1.01361117008e-15
1.02039659104e-15
1.02540683942e-15
1.02590224788e-15
1.02540683942e-15
1.01273304823e-15
1.01407411714e-15
1.01639774595e-15
1.012417772e-15
1.0018787631e-15
1e-15
1e-15
1e-15
1.02014099144e-15
1e-15
1.39423089303e-15
1.03406932849e-15
1.02266871154e-15
1.02089141734e-15
1.0191821828e-15
1.01847597384e-15
1.02540683942e-15
1.02589085059e-15
1.02540683942e-15
1.02587536787e-15
1.01583804323e-15
1.01703650064e-15
1.01751560052e-15
1.01141328411e-15
1e-15
1e-15
1e-15
1e-15
1.02034244907e-15
1e-15
1.4111642236e-15
1.51111374256e-15
1.02798331877e-15
1.02452428547e-15
1.02186749516e-15
1.02130528368e-15
1.02587853926e-15
1.02540683942e-15
1.02589021256e-15
1.02540683942e-15
1.01819503758e-15
1.01894471819e-15
1.01770640121e-15
1.00988366237e-15
1e-15
1e-15
1e-15
1.00006030875e-15
1.02014099144e-15
1e-15
1.42792069665e-15
5.32152047068e-15
1.02666083732e-15
1.02465333517e-15
1.02191594381e-15
1.02162413868e-15
1.02540683942e-15
1.02586504024e-15
1.02540683942e-15
1.02587738344e-15
1.02099528729e-15
1.0198509973e-15
1.01740056931e-15
1.00763961492e-15
1e-15
1e-15
1e-15
1.00024677664e-15
1.02027260375e-15
1e-15
1.44420572678e-15
2.06620815197e-14
1.01662203652e-15
1.02208953837e-15
1.01954415586e-15
1.02024975797e-15
1.02578856954e-15
1.02540683942e-15
1.0258181314e-15
1.02540683942e-15
1.02566696604e-15
1.01984548648e-15
1.01585287686e-15
1.00298081518e-15
1e-15
1e-15
1e-15
1.00029316783e-15
1.02014099144e-15
1e-15
1.46006704724e-15
8.08477206051e-14
1e-15
1.01244479558e-15
1.01385876106e-15
1.01874810599e-15
1.02540683942e-15
1.02570433202e-15
1.02540683942e-15
1.02577877424e-15
1.02540683942e-15
1.01886216527e-15
1.01268616134e-15
1.00001543649e-15
1e-15
1e-15
1e-15
1.00026448392e-15
1.02017015044e-15
1.0000074893e-15
1.47577519202e-15
3.55726784264e-13
1e-15
1e-15
1.00828093654e-15
1.01907385208e-15
1.02558482723e-15
1.02540683942e-15
1.0256597309e-15
1.02540683942e-15
1.02554511635e-15
1.0167401351e-15
1.00786818673e-15
1e-15
1e-15
1e-15
1e-15
1.00017584861e-15
1.01908230348e-15
1e-15
1.49156269086e-15
1.82771355051e-12
1e-15
1e-15
1.00447764046e-15
1.01986911234e-15
1.02540683942e-15
1.02547839164e-15
1.02540683942e-15
1.02556633567e-15
1.02540683942e-15
1.01407772919e-15
1.00122146487e-15
1e-15
1e-15
1e-15
1e-15
1.00005898664e-15
1.01658663655e-15
1e-15
1.50749452767e-15
2.14154023522e-11
1e-15
1e-15
1.00367928984e-15
1.01931642865e-15
1.02356466953e-15
1.02451646796e-15
1.02546600833e-15
1.02540683942e-15
1.02492718103e-15
1.01121742641e-15
1e-15
1e-15
1e-15
1e-15
1e-15
1e-15
1.01369023929e-15
1e-15
1.52326517332e-15
1.64588308341e-10
1e-15
1e-15
1.00391032284e-15
1.01691045067e-15
1.01901853701e-15
1.02098444049e-15
1.02292338564e-15
1.02369468947e-15
1.0212548706e-15
1.00742836285e-15
1e-15
1e-15
1e-15
1e-15
1e-15
1e-15
1.01081179547e-15
1e-15
1.53830265774e-15
7.28211835434e-10
1e-15
1e-15
1.00312713535e-15
1.0122606535e-15
1.01423839263e-15
1.0169384687e-15
1.0189213506e-15
1.01938104632e-15
1.01487766318e-15
1.00038871648e-15
1e-15
1e-15
1e-15
1e-15
1e-15
1e-15
1.00828008849e-15
1e-15
1.55219585014e-15
2.49785450476e-08
1e-15
1e-15
1.00016898588e-15
1.00659733886e-15
1.00963410268e-15
1.01279530126e-15
1.01454790629e-15
1.01445619961e-15
1.00783716414e-15
1e-15
1e-15
1e-15
1e-15
1e-15
1e-15
1e-15
1.0065894042e-15
1e-15
1.56509932046e-15
4.90340843731e-07
1e-15
1e-15
1e-15
1.00006150999e-15
1.00518600578e-15
1.0086084069e-15
1.01003487465e-15
1.00893848564e-15
1.00012862518e-15
1e-15
1e-15
1e-15
1e-15
1e-15
1e-15
1e-15
1.00620551131e-15
1e-15
1.57647853311e-15
5.75698914346e-06
1e-15
1e-15
1e-15
1e-15
1.00115215987e-15
1.00517369572e-15
1.00628910117e-15
1.00314472394e-15
1e-15
1e-15
1e-15
1e-15
1e-15
1e-15
1e-15
1e-15
1.00740999876e-15
1e-15
1.59241089538e-15
4.66502641802e-05
1.06462370105e-15
1e-15
1e-15
1e-15
1e-15
1.00350068128e-15
1.00387012573e-15
1e-15
1e-15
1e-15
1e-15
1e-15
1e-15
1e-15
1e-15
1e-15
1.01119577721e-15
1e-15
1.6642436533e-15
0.000290273840228
1.24826202046e-07
1e-15
1e-15
1e-15
1e-15
1.00373652707e-15
1.00337169905e-15
1e-15
1e-15
1e-15
1e-15
1e-15
1e-15
1e-15
1e-15
1e-15
1.01544445715e-15
1.02588929634e-15
1.74828035673e-15
0.00129713108018
3.70531055225e-06
1e-15
1e-15
1e-15
1e-15
1.0058596669e-15
1.00528474942e-15
1e-15
1e-15
1e-15
1e-15
1e-15
1e-15
1e-15
1e-15
1.00394838986e-15
1.01984585292e-15
1.0383565449e-15
1.76015815517e-15
0.00410514754194
3.58078293219e-05
1.09049414512e-15
)
;

boundaryField
{
    emptyPatch
    {
        type            empty;
    }
    minY
    {
        type            fixedValue;
        value           uniform 1e-15;
    }
    maxY
    {
        type            inletOutlet;
        phi             phi.gas;
        inletValue      nonuniform List<scalar> 0();
        value           nonuniform List<scalar> 0();
    }
    water_to_cooler
    {
        type            zeroGradient;
    }
    water_to_heater
    {
        type            zeroGradient;
    }
    procBoundary2to3
    {
        type            processor;
        value           nonuniform List<scalar> 
41
(
0.757392614819
0.727821219405
0.71408192138
0.707784946511
0.691517060886
0.626870220976
0.523927973712
0.421007864951
0.332019585055
0.265208511441
0.238680112032
0.23878707729
0.24202896318
0.258927503836
0.321699200656
0.361998094207
0.361494599635
0.34133264932
0.230721968657
0.0827497244037
1e-15
1e-15
1.00240490608e-15
1.00932488694e-15
1.01148593896e-15
1.00000612874e-15
1e-15
1e-15
1e-15
1e-15
1e-15
1e-15
1e-15
1.01171990645e-15
1.02528245497e-15
1.04620608856e-15
1.76012198811e-15
0.00972407240616
0.000184540401269
1e-15
1e-15
)
;
    }
}


// ************************************************************************* //
