/*--------------------------------*- C++ -*----------------------------------*\
| =========                 |                                                 |
| \\      /  F ield         | OpenFOAM: The Open Source CFD Toolbox           |
|  \\    /   O peration     | Version:  2312                                  |
|   \\  /    A nd           | Website:  www.openfoam.com                      |
|    \\/     M anipulation  |                                                 |
\*---------------------------------------------------------------------------*/
FoamFile
{
    version     2.0;
    format      ascii;
    arch        "LSB;label=32;scalar=64";
    class       volScalarField;
    location    "0.925/water";
    object      T.gas;
}
// * * * * * * * * * * * * * * * * * * * * * * * * * * * * * * * * * * * * * //

dimensions      [0 0 0 1 0 0 0];

internalField   nonuniform List<scalar> 
1496
(
583.705258937
391.330050553
333.603319138
311.514836981
303.890232779
301.538039964
300.807079893
300.553200043
300.431252267
300.353992601
300.296123555
300.249560797
300.208487992
300.171078415
300.137052329
300.105355231
300.076835714
300.054244282
300.039449299
300.030592332
554.058460082
383.137646592
327.198717985
308.134944849
302.736358188
301.18106208
300.714192864
300.5354342
300.440078271
300.372404444
300.320349521
300.275778915
300.235666447
300.197058707
300.159848493
300.123959921
300.090159478
300.063142444
300.045987893
300.036181597
476.217944455
365.798947477
321.126101064
306.356181142
302.196580475
301.049619779
300.689896267
300.545990909
300.460335104
300.399348741
300.350454446
300.308506851
300.267447851
300.22671824
300.186140624
300.145173423
300.105319428
300.073219946
300.053262444
300.042113072
424.810482651
353.194525256
319.185576974
306.837408417
302.769181952
301.368898089
300.844377883
300.625713058
300.513813969
300.443645239
300.390720321
300.345557119
300.303344634
300.261305325
300.217076652
300.170653663
300.123567956
300.085072746
300.061557038
300.048679256
405.443743727
352.144410934
325.256018751
312.077168496
305.591503607
302.605172467
301.345685603
300.840502457
300.627834025
300.516878
300.448725279
300.395430355
300.348634974
300.302379344
300.253113879
300.200151124
300.144637448
300.098770123
300.071018158
300.056125081
424.84508159
373.604900647
340.611631024
320.42904448
309.653632631
304.507288306
302.234976291
301.279551561
300.869274966
300.670258006
300.554464174
300.47403785
300.410758951
300.352571325
300.293692538
300.231586693
300.166933853
300.11376804
300.081760696
300.064514686
506.215892674
396.756681989
347.562806363
323.306853973
311.390360335
305.67237895
302.998605802
301.759748859
301.170567529
300.867447718
300.692554714
300.577577287
300.49066263
300.414896751
300.339188975
300.26185873
300.187286828
300.128825788
300.093328784
300.073756691
565.32613106
405.630970465
347.285039319
322.678583857
311.405414308
306.013102005
303.380570247
302.071749062
301.397744612
301.029017529
300.810128098
300.667248852
300.563010566
300.47346257
300.385046323
300.292577885
300.204789975
300.142523131
300.104519389
300.082912101
579.214901579
404.060036634
343.383744465
320.212938165
310.310648621
305.658021506
303.337585416
302.130330772
301.473818664
301.097583524
300.867385105
300.714376574
300.601104506
300.503004283
300.407894662
300.311644985
300.220633077
300.154153761
300.11389999
300.091169381
580.750890307
395.691151415
335.958170799
315.997288831
308.239584697
304.699413259
302.906600119
301.937898195
301.387702162
301.061156746
300.855556779
300.714154438
300.603238988
300.503094398
300.406391861
300.311635941
300.224134217
300.159127396
300.120747602
300.098386803
575.850817565
380.405425799
325.94390052
310.851930453
305.698809995
303.423936079
302.246924253
301.582380432
301.18643612
300.939772221
300.778523568
300.665839182
300.570457894
300.476405727
300.38357535
300.294655858
300.215129146
300.157426751
300.124647574
300.104254489
548.590972288
362.130631475
317.766920583
306.838846657
303.615109243
302.313113104
301.627744818
301.215741469
300.956867674
300.788591769
300.673246501
300.593020132
300.516505847
300.431624206
300.347019884
300.268176616
300.200826078
300.155132619
300.127399613
300.109628642
513.200823207
351.792139158
312.757949851
304.35583624
302.322012344
301.569842586
301.183505721
300.943747721
300.783449853
300.670181811
300.58483792
300.524627855
300.459092175
300.382220857
300.307694401
300.241303254
300.188139479
300.153312703
300.130614987
300.115427701
517.491058059
348.127743814
310.251350639
303.02826566
301.602419995
301.161899355
300.935016294
300.785313876
300.676096312
300.589596856
300.517684567
300.465538493
300.405516945
300.336859687
300.274089111
300.221159425
300.181181866
300.153629767
300.135297644
300.122461011
512.516099233
357.457631812
310.5603344
302.53977103
301.265374054
300.962591902
300.812956984
300.703049496
300.612949836
300.535158458
300.467151217
300.416806986
300.360550593
300.301273409
300.250521028
300.209083031
300.178089357
300.156709959
300.142032453
300.131735828
481.395451769
364.914733108
315.275772705
302.942982395
301.178231857
300.880302616
300.75681305
300.660114683
300.575551511
300.500113233
300.433229044
300.38047479
300.325350134
300.275675174
300.234826029
300.202557498
300.179108058
300.162808422
300.151658152
300.14363591
442.85174639
360.701390995
318.855534955
304.333926752
301.280183282
300.858797453
300.735040738
300.641098841
300.556588053
300.480667206
300.413447969
300.356878813
300.30297537
300.260295213
300.227117677
300.202244236
300.184728011
300.172787562
300.164927997
300.157780584
413.163275247
350.665292458
318.159730654
304.849821141
301.38650678
300.86097144
300.731780252
300.638356349
300.553237056
300.475991933
300.407295708
300.347116433
300.294963038
300.256052876
300.227847346
300.208536329
300.195839185
300.18760844
300.180866723
300.172947742
397.731921992
342.655435679
315.9991439
304.601332971
301.395312886
300.882257886
300.745421784
300.649911795
300.563703083
300.485364444
300.414966426
300.351798538
300.300692623
300.262853814
300.237196455
300.221613564
300.212616199
300.20540517
300.198040342
300.188193432
392.50784203
339.532478957
314.798266513
304.585196162
301.6336583
301.003739302
300.805673481
300.687647744
300.592262486
300.509023167
300.435159138
300.370937923
300.318702614
300.27990778
300.255208986
300.241409438
300.23262489
300.224838741
300.215548322
300.203288664
403.375227035
345.148182173
317.180918598
306.251122773
302.722858746
301.552610275
301.08040894
300.831337456
300.676438281
300.565242411
300.477899305
300.407018885
300.350870368
300.309228522
300.281426218
300.265156576
300.255278181
300.245388347
300.232990477
300.21758799
447.191558478
357.17814483
322.60466603
309.736308999
304.848553214
302.754048008
301.759824763
301.225669197
300.908430081
300.705279762
300.567024927
300.468699762
300.39769197
300.34626078
300.312749543
300.293023979
300.280103607
300.266599346
300.2498012
300.230636089
510.990472216
366.633373728
326.35579708
312.995004282
306.900115689
303.935300126
302.435207341
301.635306268
301.17393312
300.879637291
300.680440096
300.544211624
300.451484243
300.388919186
300.348601808
300.3226062
300.303900193
300.285831213
300.264853234
300.24215709
536.467083568
365.08978875
327.704525043
312.988190726
306.694238985
303.782383503
302.358021438
301.624664268
301.211413535
300.934531041
300.735315501
300.592889215
300.494000251
300.426641764
300.380895283
300.34813922
300.322914899
300.300624276
300.276789245
300.251833277
543.530021069
366.155477803
321.711843302
308.93313687
304.435797552
302.591068928
301.740860098
301.317443904
301.072598111
300.884059729
300.72863061
300.606566684
300.515866959
300.450143625
300.402016577
300.365045318
300.335485108
300.310179802
300.284465148
300.258445192
534.163729402
364.955293806
316.268579559
305.233750646
302.500508973
301.614057455
301.232689878
301.042859223
300.922825756
300.808245924
300.696922866
300.599397761
300.520770847
300.459674566
300.412001235
300.373775156
300.34261511
300.315415854
300.28831667
300.261292371
491.190690198
365.115570925
316.166910335
303.877114076
301.613501327
301.148614369
300.977451778
300.883485839
300.812567928
300.737644953
300.658008052
300.581944103
300.515242038
300.46006461
300.414996103
300.377803251
300.345889167
300.316625254
300.288148306
300.26021347
444.493451233
358.952311965
317.895587742
304.29634076
301.406696315
300.990237167
300.874877258
300.805410555
300.74701568
300.686077906
300.622986574
300.560991086
300.504740815
300.45606667
300.414086241
300.377161578
300.343956064
300.313007512
300.283220913
300.254948983
413.586692051
349.442204909
317.294951689
304.608964253
301.39832746
300.945568156
300.839064843
300.771457551
300.714067835
300.656430324
300.599972796
300.54491774
300.494187484
300.448896965
300.408255961
300.371078296
300.33641346
300.303930566
300.273620235
300.246043263
400.092241523
342.275052409
315.301686523
304.17335939
301.334749881
300.933486258
300.829646125
300.761477724
300.701802672
300.643608368
300.588735588
300.535633808
300.486413924
300.441418456
300.399621343
300.360279768
300.323787493
300.290469418
300.260807781
300.234883691
395.309878605
339.904721104
314.48753571
303.839002807
301.376579982
300.955367077
300.836071559
300.763143977
300.700665435
300.641237073
300.585557885
300.531864994
300.481310691
300.433459229
300.387818175
300.345254811
300.307404015
300.274957224
300.247061689
300.222492951
402.156472591
344.775465928
317.20777563
305.652078881
302.067106683
301.136138045
300.880252164
300.775209097
300.704035525
300.641450598
300.583702467
300.527879042
300.47372892
300.420623103
300.370508543
300.326608404
300.289899319
300.259520164
300.2330958
300.208305387
431.361925628
356.998203594
325.164273463
311.115670329
304.688705943
302.009414485
301.088255477
300.814563875
300.708634601
300.638189373
300.576071776
300.516106344
300.45665854
300.399514933
300.349172301
300.307168657
300.272998154
300.244208046
300.217665289
300.190433552
459.55593175
368.480243484
331.103943601
314.567852858
306.844751373
303.10449814
301.441068313
300.874887054
300.702059892
300.621568995
300.554706416
300.491369306
300.43156568
300.375463592
300.327455419
300.288524949
300.256221735
300.227405491
300.198602185
300.166078535
467.463741628
371.483452468
331.720231355
314.560696661
306.648641783
302.963710619
301.381903971
300.824801868
300.672615587
300.591931085
300.525059989
300.463306635
300.40457279
300.351084804
300.306938978
300.27031023
300.238243985
300.207196007
300.172545973
300.130306986
454.157505843
366.103398634
329.279506751
313.013880565
305.544596263
302.238168246
301.113503156
300.767933828
300.64079224
300.562467622
300.495829128
300.433759149
300.377436398
300.328455713
300.287179424
300.251359959
300.217409548
300.18030715
300.135146623
300.094972585
435.938744247
358.944844472
326.160484976
311.531953898
304.789417749
301.913303631
300.991032818
300.723073296
300.611082776
300.533879685
300.466938309
300.406329662
300.352668276
300.306320168
300.265927158
300.228807188
300.190678425
300.147203109
300.10460552
300.072855585
300.004975211
300.004052149
300.003356241
300.002703457
300.002248889
300.001981066
300.001895992
300.002054631
300.002564216
300.003421048
300.004587137
300.005922562
300.007399023
300.008979225
300.009911044
300.009843131
300.024135646
300.018471881
300.013324455
300.008999578
300.006585402
300.005426331
300.004558103
300.003716797
300.003089189
300.002655346
300.002384233
300.002384396
300.002885331
300.003965935
300.005678619
300.00753902
300.009595638
300.011820552
300.013410064
300.013275763
300.029230011
300.023034268
300.017037761
300.011619871
300.008555682
300.007138147
300.006113852
300.005049933
300.004279321
300.003668595
300.003127018
300.002850347
300.003241252
300.004537421
300.007028955
300.009570463
300.01240081
300.015382797
300.017757743
300.017569526
300.034467192
300.027749522
300.020904034
300.014384372
300.01078141
300.009192104
300.007985736
300.006727761
300.005889481
300.005089606
300.004179299
300.003496381
300.00363825
300.005061542
300.008587659
300.012046464
300.015844823
300.019666607
300.022862307
300.022636949
300.040007238
300.032624991
300.024958896
300.017253535
300.013229027
300.01156251
300.010100585
300.008826974
300.007979116
300.006949575
300.005558406
300.004353703
300.004098888
300.005524792
300.01023375
300.01497978
300.019839136
300.024482088
300.028488962
300.028233242
300.046277548
300.037928023
300.029416628
300.020419945
300.016023045
300.01422153
300.012658232
300.011476109
300.010571579
300.009226613
300.007255391
300.005437429
300.004649252
300.005920675
300.011906954
300.018345282
300.02409485
300.029490632
300.03426994
300.033999867
300.05341836
300.044108306
300.034499614
300.024300719
300.019250845
300.01731963
300.015835576
300.014701203
300.013673194
300.011905932
300.009272175
300.006773987
300.005338395
300.006222819
300.013117799
300.022172563
300.028254804
300.034399575
300.039982375
300.03971898
300.061272528
300.051083132
300.040489416
300.028685533
300.023035506
300.020990454
300.019639354
300.018485081
300.017245708
300.014941472
300.011594613
300.00838561
300.006254518
300.00651865
300.013270487
300.026956951
300.032326149
300.039277472
300.045766186
300.045552584
300.069365562
300.058509693
300.047163289
300.033613471
300.027425123
300.025276429
300.023970409
300.022749318
300.021187211
300.018221907
300.014146449
300.010236196
300.007443809
300.007027983
300.011912128
300.034163286
300.036703404
300.044599892
300.052151629
300.051678944
300.07700334
300.065906654
300.054068186
300.039292838
300.032444015
300.030071569
300.028736773
300.027377478
300.025353695
300.021635044
300.01685701
300.012245883
300.008831435
300.007871364
300.012788013
300.040124253
300.04195041
300.051107474
300.059925884
300.059175482
300.084201395
300.073107199
300.060934851
300.045419914
300.037930631
300.035268516
300.033793485
300.032236839
300.029624341
300.025127504
300.019640149
300.014303311
300.010355113
300.008812038
300.014473641
300.046310237
300.049020211
300.059636703
300.069962296
300.06891451
300.090764377
300.079816838
300.067256632
300.05196597
300.04385004
300.040714304
300.039026839
300.037178413
300.033896154
300.02864934
300.022381424
300.016354967
300.012044531
300.009217737
300.016377079
300.054277619
300.058965396
300.071053613
300.083148093
300.081732967
300.097179817
300.08656328
300.0737196
300.059058672
300.050178474
300.046382038
300.044354697
300.042104122
300.03808819
300.032093208
300.025003053
300.018427605
300.013404972
300.009538955
300.018933949
300.063511363
300.073148289
300.086108756
300.100140894
300.098210328
300.104266738
300.094048601
300.081236904
300.066874945
300.057000806
300.052297956
300.049766184
300.046990368
300.042147203
300.035337749
300.02747599
300.020672754
300.012282921
300.010294275
300.022243418
300.069062791
300.092482664
300.10457413
300.120646202
300.117971115
300.112790519
300.102899132
300.090085109
300.075667502
300.06449575
300.05854501
300.055247561
300.051792589
300.046005308
300.038301351
300.029851308
300.02227052
300.011175126
300.011423668
300.026186435
300.075404313
300.112050539
300.124614936
300.142750397
300.139094881
300.123371245
300.113286977
300.100218992
300.085357702
300.072693708
300.065213965
300.060839105
300.056449682
300.04959623
300.040960008
300.032301827
300.019495205
300.010913992
300.012969227
300.030612921
300.08994205
300.128244405
300.144168297
300.163020073
300.158618987
300.135745383
300.124984806
300.111246969
300.095545402
300.081476496
300.072333198
300.066621472
300.060962518
300.052906556
300.043405829
300.0347215
300.016410266
300.011046812
300.015054188
300.035631999
300.107215017
300.140674956
300.161629782
300.180297094
300.175288936
300.149189324
300.137212443
300.122435396
300.105767636
300.090547761
300.079869689
300.072638216
300.065386332
300.056018761
300.04598063
300.031322035
300.014909804
300.011678403
300.017849238
300.041690509
300.125742138
300.151524148
300.177258471
300.195399832
300.190038581
300.162715823
300.149131527
300.133205627
300.115733448
300.099726701
300.087813264
300.078969406
300.069827326
300.059126122
300.049425793
300.025641972
300.014060206
300.012860405
300.021915765
300.052107707
300.147012376
300.164322754
300.192491077
300.209931622
300.204477172
300.175910241
300.160598417
300.14351654
300.125528546
300.10915024
300.096236515
300.085735678
300.074396623
300.062411759
300.049144829
300.023311908
300.013840128
300.014768937
300.029628434
300.077326959
300.169052812
300.181491749
300.208284004
300.224331348
300.219111922
300.188522767
300.171434706
300.153545939
300.135464084
300.119117787
300.105400578
300.093158326
300.079214282
300.065793417
300.045430346
300.022451961
300.014119908
300.017728091
300.044953925
300.118390855
300.175750044
300.197445125
300.221835404
300.237043952
300.233040535
300.200168229
300.181864581
300.163632983
300.145704283
300.129436215
300.115017805
300.100913308
300.084328448
300.069490453
300.04480324
300.022401479
300.014845828
300.022329216
300.067696772
300.160074275
300.185518146
300.211856229
300.234723822
300.249543712
300.24786901
300.210864803
300.191735426
300.173255983
300.15561877
300.139476253
300.12450356
300.108515993
300.089754742
300.073496879
300.046013392
300.023265744
300.015922126
300.028441174
300.094909086
300.176728041
300.200000833
300.226983837
300.248705812
300.263305637
300.265309211
300.220289409
300.200290407
300.181714191
300.164506086
300.148565607
300.133138099
300.11550818
300.095434328
300.078089824
300.048705905
300.025108477
300.0173384
300.034735932
300.125980507
300.178718539
300.213247142
300.24135243
300.263920895
300.279441217
300.287163
300.227827649
300.206904019
300.188457254
300.1717473
300.156069899
300.140226261
300.121873988
300.101077801
300.083038349
300.052162388
300.027958324
300.019008881
300.040978085
300.143038045
300.18496632
300.224458046
300.256733634
300.280679251
300.298539511
300.313639864
300.233446631
300.21156991
300.193160665
300.176855635
300.161553684
300.145775945
300.127197573
300.106276426
300.087464864
300.056332748
300.031659278
300.021155948
300.05167759
300.128993171
300.18968374
300.235489886
300.272100355
300.298861825
300.325661517
300.3554431
300.235792924
300.21391606
300.195691656
300.179807039
300.164923763
300.149396111
300.131056794
300.110215654
300.090378171
300.060655248
300.035970356
300.024189235
300.068940311
300.114279267
300.186704533
300.24392442
300.286252173
300.323550363
300.367419521
300.407792453
300.23469623
300.213281043
300.195579142
300.180215412
300.165734058
300.150567843
300.132698774
300.112171606
300.092039026
300.064284674
300.04034376
300.028837867
300.047202891
300.099461052
300.183060294
300.248856927
300.300605797
300.371970259
300.415503098
300.469190249
300.230095548
300.209625891
300.192668289
300.177691835
300.163362935
300.148362914
300.130919459
300.111319381
300.090741568
300.066967471
300.044718986
300.032778741
300.036927495
300.081964491
300.165328936
300.244857044
300.357880051
300.428908186
300.468713673
300.54077941
300.222547555
300.2032055
300.18661701
300.171388025
300.156571035
300.141229901
300.124270299
300.105546239
300.085336622
300.064071662
300.044729553
300.031572602
300.037073686
300.074768572
300.154204734
300.315531281
300.425588324
300.485981273
300.531879654
300.626517632
300.212742615
300.193683178
300.176246726
300.15959178
300.143508865
300.127504582
300.11073773
300.093079161
300.0749353
300.056689601
300.041463523
300.034600974
300.047793284
300.088170367
300.169650481
300.339091872
300.473141348
300.550074266
300.610524606
300.733067899
300.200346706
300.179682472
300.159699799
300.140337187
300.121972018
300.104804187
300.088376096
300.072712465
300.058374091
300.046384483
300.040970035
300.048221021
300.070632657
300.120416195
300.184138113
300.32104261
300.506719176
300.624246365
300.70400933
300.863280879
300.183865902
300.15947818
300.134672248
300.111227642
300.090874386
300.074074876
300.060587576
300.051054074
300.046440039
300.047468952
300.055023843
300.070629472
300.107788125
300.164773473
300.224963391
300.329041894
300.517655356
300.698258055
300.825948876
301.040082656
300.161293828
300.13015135
300.099540106
300.075008264
300.05989345
300.049954712
300.044911201
300.045575651
300.052603436
300.065814355
300.084115006
300.110435779
300.167188158
300.221810642
300.27978917
300.365119202
300.544970416
300.798641724
301.027251559
301.355882645
300.128734199
300.090483389
300.065904799
300.050286327
300.042041693
300.039902558
300.044530963
300.056044221
300.073404308
300.097069094
300.134263188
300.183963721
300.240758634
300.299604707
300.369004976
300.480627158
300.708115403
301.041174249
301.398851292
301.931471486
300.08973936
300.061960283
300.045163764
300.036466374
300.034887902
300.040854329
300.054315427
300.075143699
300.106286169
300.151625978
300.209776366
300.269281259
300.336366071
300.417810206
300.53831663
300.775570514
301.164713505
301.593849681
301.984130708
302.629066594
300.06456017
300.044541746
300.033416146
300.029357099
300.032433769
300.044002939
300.069019508
300.105711337
300.15639197
300.224444698
300.299074926
300.381943925
300.488620845
300.654503773
300.944995791
301.423211603
301.836382209
302.172747448
302.520124734
303.133257956
300.049429221
300.034645642
300.026714845
300.024536277
300.031090566
300.052272422
300.089344067
300.142629457
300.218405063
300.310317814
300.420834367
300.549226226
300.740926479
301.037723239
301.422721236
301.857661671
302.252356335
302.573638004
302.897369591
303.503421823
)
;

boundaryField
{
    emptyPatch
    {
        type            empty;
    }
    minY
    {
        type            fixedValue;
        value           nonuniform List<scalar> 0();
    }
    maxY
    {
        type            inletOutlet;
        inletValue      uniform 373;
        value           nonuniform List<scalar> 
40
(
435.938742142
358.944844535
326.160485129
311.531953915
304.789417711
301.913303591
300.991032796
300.723073279
300.611082757
300.533879662
300.466938284
300.406329635
300.352668247
300.306320135
300.265927123
300.228807159
300.190678405
300.147203097
300.104605515
300.072855583
300.04942922
300.034645641
300.026714844
300.024536277
300.031090566
300.052272423
300.089344072
300.142629471
300.218405097
300.310317902
300.420834498
300.549226329
300.740926533
301.037723264
301.422721246
301.857661675
302.252356336
302.573638003
302.897369584
303.503421812
)
;
    }
    water_to_cooler
    {
        type            copiedFixedValue;
        sourceFieldName T.liquid;
        value           nonuniform List<scalar> 
38
(
300.002017867
300.002418365
300.00298063
300.003741414
300.00473077
300.005977496
300.007490394
300.009263396
300.011304657
300.013680198
300.016543236
300.020165277
300.024901603
300.031046455
300.038785345
300.048325058
300.06014752
300.074994928
300.093663564
300.117146207
300.146858759
300.184101587
300.230951886
300.290860483
300.368410858
300.468367366
300.59522268
300.753884072
300.952000626
301.201218359
301.514388712
301.898899676
302.349902845
302.848127624
303.372308334
303.914556527
304.425062505
304.818991619
)
;
    }
    water_to_heater
    {
        type            copiedFixedValue;
        sourceFieldName T.liquid;
        value           nonuniform List<scalar> 
59
(
789.12864508
789.080467953
789.046577558
788.879124407
788.854498614
788.864796369
788.861969269
788.897642079
788.899285466
788.951179089
789.02907435
789.157426956
789.167774396
789.181384828
789.181819476
789.184438177
789.182201621
789.195242318
789.175178004
789.172797484
789.170273305
789.188506267
789.166579944
789.152715755
789.092911564
789.094544369
789.060292672
789.084401931
789.083758528
789.132783917
789.131845098
789.205697478
789.203303006
789.277234446
789.306890608
789.445888782
789.464179652
789.473112322
789.476152505
789.467511615
789.446467173
789.408964502
789.331578397
789.286047084
789.279935487
789.285919185
789.284394203
789.243180588
789.242275891
789.133967489
789.133245395
788.956022265
788.981494022
788.735961395
788.737746193
788.485169464
788.469661543
788.310179651
788.29707243
)
;
    }
    procBoundary0to1
    {
        type            processor;
        value           nonuniform List<scalar> 
41
(
580.137661755
396.812522113
337.783075655
315.233352732
305.331062144
301.992935021
300.938373618
300.582196768
300.43043626
300.340594531
300.27757719
300.228006227
300.186509668
300.149136898
300.117147989
300.089066422
300.064881099
300.045945302
300.033197382
300.025165083
300.003654658
300.002968526
300.002461044
300.001988847
300.001689803
300.001554893
300.001589031
300.001818283
300.002281061
300.00293843
300.003757178
300.004695876
300.005738903
300.006798645
300.007306701
300.007267591
300.019164711
300.014170891
300.009842105
300.006687724
300.006687724
)
;
    }
}


// ************************************************************************* //
