/*--------------------------------*- C++ -*----------------------------------*\
| =========                 |                                                 |
| \\      /  F ield         | OpenFOAM: The Open Source CFD Toolbox           |
|  \\    /   O peration     | Version:  2312                                  |
|   \\  /    A nd           | Website:  www.openfoam.com                      |
|    \\/     M anipulation  |                                                 |
\*---------------------------------------------------------------------------*/
FoamFile
{
    version     2.0;
    format      ascii;
    arch        "LSB;label=32;scalar=64";
    class       volScalarField;
    location    "0.33/water";
    object      alpha.gas;
}
// * * * * * * * * * * * * * * * * * * * * * * * * * * * * * * * * * * * * * //

dimensions      [0 0 0 0 0 0 0];

internalField   nonuniform List<scalar> 
750
(
0.578978276739
0.553091919487
0.511243636649
0.470525144401
0.434217238774
0.402783262802
0.37506488472
0.350413976027
0.328454599476
0.308677412673
0.290126849152
0.272086394332
0.254752893509
0.239686482963
0.227965831257
0.21807153038
0.206801628627
0.191422149259
0.174366962153
0.164019297191
0.309064960941
0.362573574434
0.331914101116
0.334941049323
0.327352565891
0.317673125585
0.301909296749
0.282661006404
0.271273519237
0.277095136998
0.297890706884
0.299701173917
0.299540905717
0.282275660605
0.240134467712
0.218089598727
0.220945081995
0.270604693111
0.303770730994
0.282162661712
0.282223425593
0.340128273574
0.307187802543
0.311736136736
0.305256941587
0.30036092132
0.293141933947
0.282797883189
0.269899747719
0.263442929595
0.267114268691
0.278925971188
0.290227490014
0.284559170029
0.266139380206
0.259985525041
0.278093601871
0.316102773227
0.322037290958
0.314448531736
0.279612109277
0.333727522197
0.297893695348
0.30012988187
0.292185887293
0.28532790292
0.277913195432
0.270672972951
0.258304423081
0.23947674324
0.239769867321
0.305664417314
0.331977733193
0.341736245889
0.331977733193
0.340056228165
0.331977733193
0.336963019483
0.331977733193
0.334471552078
0.240177162598
0.241432141439
0.207882053487
0.202195246785
0.191490254007
0.184922066807
0.178756169766
0.174104641447
0.170265158926
0.166798244559
0.163631191175
0.1635872361
0.16476231636
0.166837889328
0.169805312786
0.173763001784
0.179301402273
0.186089698456
0.193011784134
0.200273528819
0.241178369117
0.264514559039
0.230968856243
0.220300412327
0.205962834718
0.195932721379
0.186928415123
0.179528464817
0.173195569968
0.16795312531
0.163719724068
0.160531343947
0.157728830239
0.154248680074
0.153835985977
0.153724419307
0.153835985977
0.154148725249
0.155578627876
0.155508410251
0.49247001755
0.507703226979
0.489123791749
0.469526213595
0.442961165359
0.414140449336
0.383960503216
0.354363885052
0.326977801812
0.303270546427
0.284084745588
0.270039022022
0.261363594665
0.256154268467
0.249270867202
0.234804799093
0.210456874522
0.191295860783
0.193977574312
0.207273205468
0.741405180233
0.738309271113
0.732246837238
0.723588622181
0.713829676827
0.704304584259
0.695730877717
0.687606504135
0.678459434484
0.66671606489
0.651049726544
0.626206031408
0.567882203429
0.477082026577
0.387252257815
0.338828225682
0.323742495461
0.313411936806
0.279807189808
0.22126192565
0.842212807673
0.836191677102
0.829606320272
0.825610947881
0.824419306506
0.825784690513
0.829156161204
0.833089363639
0.834627734584
0.831235344993
0.824089982597
0.791109038429
0.661047068181
0.398527507661
0.235134559139
0.18900013014
0.173393285912
0.157810470788
0.141021776524
0.132034091464
0.860213646255
0.856615043984
0.853160814577
0.85226613477
0.854636892437
0.858972334854
0.862558685542
0.864328839935
0.864402480134
0.859812649681
0.845873475436
0.776140066874
0.63493151348
0.318961874268
0.139756012438
0.0989209864373
0.0903652055866
0.0865200947011
0.0844931965545
0.0849031806643
0.860289213754
0.859284695125
0.859448983199
0.861980507243
0.865172276019
0.86525444408
0.865172276019
0.865208413221
0.865172276019
0.864035177063
0.850917548502
0.790527623889
0.675258280285
0.455494578834
0.194119277666
0.0794268821628
0.0560705414871
0.0513112196777
0.0493688762318
0.0484042083146
0.860235582217
0.86023638994
0.86367807094
0.865172276019
0.865256071452
0.865172276019
0.865243256223
0.865172276019
0.86519188596
0.864812915611
0.856107904429
0.820736754119
0.732403892803
0.566392206621
0.321164872429
0.12618737301
0.0530834476942
0.0424844685291
0.042580032965
0.0423118021854
0.860251024423
0.858168941187
0.857880306147
0.856626187963
0.854810828903
0.85286445764
0.851213167356
0.849928261077
0.847773564156
0.840324785908
0.824212771455
0.792228796074
0.719170560595
0.584850428608
0.397559353738
0.219791460216
0.0927720116715
0.0476909355517
0.0424322449679
0.0425600155327
0.78140544458
0.780533111854
0.774238979664
0.762696116278
0.749669156627
0.739444826972
0.734924034109
0.734905703415
0.739708591292
0.745783916306
0.738289913841
0.707497474466
0.659828098748
0.614140319681
0.560983284218
0.478253696045
0.364096538331
0.244401611442
0.133885877413
0.0613873133691
0.489098731855
0.490645552946
0.486117089757
0.48916161953
0.478703618783
0.486404084474
0.472131660115
0.485775129728
0.5107568467
0.691577758729
0.758661882656
0.76058250132
0.744085630237
0.722243823565
0.703531934018
0.683754154412
0.646726926877
0.568215049156
0.426078135235
0.25575973434
0.489286603862
0.484804409104
0.48916161953
0.475227951746
0.486404084474
0.460500049451
0.485775129728
0.455496245689
0.485775129728
0.463371808605
0.674751027143
0.771630461505
0.771632945063
0.771630461505
0.763059063416
0.73249879624
0.696940529263
0.656229462304
0.575401844403
0.487261588203
0.656163662672
0.647371592248
0.621195156475
0.580486459405
0.535564868544
0.510632430743
0.51743909512
0.55797840316
0.635458311699
0.711165758321
0.755075507861
0.771346952204
0.769063402289
0.761009186657
0.742848975506
0.713855648813
0.69047475573
0.680442464752
0.662426602088
0.639779418469
0.818098931932
0.817295759846
0.80909283404
0.791637848742
0.769578708772
0.753278136217
0.748728313563
0.755323018733
0.774249499624
0.794014074197
0.793557559175
0.782265636083
0.774236299965
0.763767236992
0.749482223199
0.7343838668
0.726322879363
0.729785280779
0.732266995135
0.716588696693
0.863341269564
0.861557311236
0.861234107245
0.861476960822
0.860257090193
0.857106410715
0.853330899141
0.850451107496
0.848697615143
0.846720951835
0.837521661727
0.820598327841
0.806286100706
0.793159245626
0.782198195208
0.775049041193
0.772274885378
0.773354924748
0.774909799887
0.769008397184
0.870819595208
0.870397395248
0.871035977155
0.871986935665
0.872884779938
0.873494410194
0.873663562649
0.873395554996
0.872755668191
0.871466720759
0.868251768137
0.861446581223
0.852946822491
0.843812587544
0.83412102718
0.823108296088
0.811468449014
0.803223594865
0.80092348769
0.804361136075
0.870814461416
0.870803750467
0.87202162036
0.873162559148
0.874339328862
0.875511198772
0.876414367877
0.876893895363
0.87716483768
0.877454244257
0.877647050041
0.877346426438
0.8763084974
0.874173298038
0.869746218274
0.861132212718
0.847763822352
0.833337001429
0.823712259648
0.823276631496
0.870819595208
0.870610900225
0.871721406195
0.873027425345
0.87463315079
0.876161141596
0.877295042533
0.877920382719
0.87831081292
0.87878290782
0.879398318489
0.880083153887
0.880770087992
0.881320590564
0.881149343836
0.879351626254
0.873638726239
0.863925004448
0.854076878086
0.848128049301
0.865408037056
0.864056598199
0.865195022541
0.868087166775
0.871856837134
0.874877203665
0.876782144206
0.877821873913
0.878419160958
0.878964842684
0.879620002922
0.880388957463
0.881242127272
0.882204342819
0.883261414201
0.884213848641
0.883931116003
0.881591145259
0.878281742457
0.874145235155
0.852219437159
0.851503445056
0.853172893706
0.85720565349
0.862889446094
0.868436468647
0.872701893131
0.875467311937
0.877054707873
0.878060114892
0.878963031736
0.879938027893
0.881010602688
0.882262478934
0.883744927362
0.885075006734
0.886903548714
0.888566268986
0.888388987103
0.886398106571
0.847980638697
0.846465744806
0.846144989573
0.847199450701
0.850674297054
0.856141911882
0.862100882772
0.86718684411
0.870916176646
0.873642690526
0.875957549107
0.878195250958
0.880430004904
0.882744982773
0.885498414584
0.88754003912
0.894725876133
0.900843388003
0.901299939225
0.896919082971
0.845881074221
0.841405172346
0.836869258933
0.835001402038
0.835912895087
0.838956382052
0.844052773888
0.850071234881
0.856066468605
0.86174395907
0.867207574142
0.872581439527
0.877856861568
0.882941650054
0.888097934488
0.894552585794
0.902279633212
0.902600190468
0.902294640918
0.902714781203
0.813167580507
0.811819501959
0.811213936265
0.811199349008
0.812098940793
0.814617927379
0.81893708446
0.824898519356
0.83216209878
0.840193392105
0.848784150562
0.857799905598
0.867206425285
0.877206531604
0.889163777415
0.902263208904
0.902500423939
0.902279633212
0.902542774058
0.902294640918
0.797609736546
0.796662728675
0.796599495565
0.796634921473
0.797738380476
0.800261875231
0.803988133064
0.808492353314
0.813466779146
0.81921912135
0.826409948354
0.835115116068
0.84582600312
0.859566079284
0.87747080735
0.895878414696
0.902263208904
0.902426298264
0.902279633212
0.902411587127
0.813039687822
0.810579986097
0.807352338602
0.805057672691
0.80451552871
0.805038481025
0.806170383249
0.807241285417
0.807876772158
0.808624716143
0.809814816292
0.812702701762
0.818562269937
0.828746766286
0.844268150298
0.86352632439
0.878533903685
0.886764480368
0.893258044103
0.897180845589
0.842570912632
0.836670099287
0.829980574138
0.825422177526
0.823206059331
0.821947712094
0.820515207211
0.81801277831
0.814491877542
0.810198332658
0.805787828399
0.804227136751
0.80432145464
0.808194869563
0.816815843799
0.826872833807
0.834199734556
0.833627690008
0.836720339555
0.84272503676
0.843795451293
0.843035198575
0.842633305599
0.84170896025
0.841056761753
0.840540416495
0.839527484785
0.837224466994
0.833053518164
0.827177790087
0.821610656681
0.817358367882
0.81532678342
0.81516673316
0.816784665939
0.814599022864
0.806422420419
0.78702843077
0.777543737218
0.779288333603
0.838779889734
0.837089687377
0.836508078558
0.836620522494
0.837336341323
0.838370169328
0.839048613465
0.839012648621
0.838692984728
0.836994054981
0.834292979303
0.831345104491
0.828395619856
0.824637924996
0.818956226263
0.810374242978
0.796966671566
0.780429200245
0.777317348294
0.782636460747
0.834745611187
0.833573373666
0.833406645018
0.833723783458
0.83482980157
0.836431191883
0.837888338543
0.83873918967
0.838703146372
0.838667142737
0.838595355191
0.838079738369
0.836637635826
0.833592709566
0.828484237579
0.822379118589
0.815949984557
0.808617041168
0.800135832751
0.811655853971
0.836529980351
0.833527966415
0.832024583676
0.832039864517
0.833206219624
0.835641795905
0.837948948491
0.838703146372
0.838667142737
0.838631212208
0.83833624517
0.837245591963
0.835903249467
0.834582990791
0.83359173512
0.832855656439
0.832169451156
0.831175436496
0.828916225358
0.832288175408
0.841559045185
0.838865860927
0.835575113629
0.833300138046
0.83291151526
0.833682508799
0.835050269453
0.835930024394
0.836128929625
0.83586826098
0.834987521234
0.833659846596
0.832611798743
0.831566942621
0.830523094037
0.829358582438
0.826986876288
0.819539355387
0.810235585929
0.809835406398
0.841553786739
0.837842382498
0.833150324246
0.82906484592
0.827131500391
0.826856780665
0.827546834439
0.828730754834
0.829966108007
0.831200127753
0.832624370354
0.83398128339
0.834610341059
0.834708895082
0.834087696198
0.832100733226
0.827135062995
0.812060502112
0.789674478103
0.789506152361
0.807415097051
0.805581831003
0.804858667274
0.804906576757
0.805626672044
0.80728677525
0.80985740294
0.81314868558
0.816945069251
0.821125256864
0.825622165857
0.830099364403
0.833934989242
0.836948020639
0.838485148525
0.838339177462
0.835383047752
0.825997918
0.815024027157
0.819031611264
0.136620345273
0.236334177436
0.319093226175
0.331977733193
0.287205270707
0.195742471696
0.209739743628
0.160387110609
0.120153378451
0.0812138580539
)
;

boundaryField
{
    emptyPatch
    {
        type            empty;
    }
    minY
    {
        type            fixedValue;
        value           uniform 1e-15;
    }
    maxY
    {
        type            inletOutlet;
        phi             phi.gas;
        inletValue      nonuniform List<scalar> 0();
        value           nonuniform List<scalar> 0();
    }
    maxX
    {
        type            zeroGradient;
    }
    water_to_heater
    {
        type            zeroGradient;
    }
    procBoundary0to1
    {
        type            processor;
        value           nonuniform List<scalar> 
38
(
0.0456405112049
0.0425599377921
0.042522940822
0.0428320461436
0.0713980013635
0.312805926661
0.575929079825
0.648445504372
0.686588798983
0.741564693577
0.812568849344
0.859701641623
0.869505624726
0.888644532633
0.902637652708
0.902309352737
0.902748979737
0.902294640918
0.902466320342
0.901982793659
0.890209889731
0.885033807144
0.885016778504
0.884084362468
0.873834429926
0.862804294976
0.881242773729
0.0917449130985
0.212062683469
0.287314385511
0.30207363205
0.393933620669
0.385649354571
0.276954232195
0.182228796262
0.107448349442
0.0499158677789
0.0456405112049
)
;
    }
    procBoundary0to3
    {
        type            processor;
        value           nonuniform List<scalar> 
20
(
0.81784504478
0.815851925963
0.813086640648
0.811007355606
0.810519162141
0.811202405824
0.813270489976
0.816584527445
0.820586590426
0.824912718594
0.829447030718
0.834111426073
0.838835534975
0.843694216475
0.848217928026
0.851894696993
0.852729104275
0.852751778924
0.85352450669
0.863490939002
)
;
    }
}


// ************************************************************************* //
