/*--------------------------------*- C++ -*----------------------------------*\
| =========                 |                                                 |
| \\      /  F ield         | OpenFOAM: The Open Source CFD Toolbox           |
|  \\    /   O peration     | Version:  2312                                  |
|   \\  /    A nd           | Website:  www.openfoam.com                      |
|    \\/     M anipulation  |                                                 |
\*---------------------------------------------------------------------------*/
FoamFile
{
    version     2.0;
    format      ascii;
    arch        "LSB;label=32;scalar=64";
    class       volScalarField;
    location    "0.625/water";
    object      km;
}
// * * * * * * * * * * * * * * * * * * * * * * * * * * * * * * * * * * * * * //

dimensions      [0 2 -2 0 0 0 0];

internalField   nonuniform List<scalar> 
1496
(
1.11763964588
0.589635022498
0.3718480606
0.247643989874
0.159130488124
0.0917554095402
0.046711400105
0.0249755659282
0.0168556699407
0.0133472316488
0.011063877836
0.00907450614655
0.00714190741315
0.00533233715005
0.00390131409968
0.00306179919129
0.00241937378089
0.00182427422457
0.00152896501259
0.00154420194004
1.13249393952
0.662688697826
0.436118027907
0.289659842239
0.179657804711
0.099528449619
0.0494331007772
0.0255061283156
0.0162623981059
0.012249214053
0.00979098847892
0.00778002546845
0.00592549619262
0.00432602909922
0.00322990289712
0.00249419320948
0.00191110373738
0.00154448982346
0.00140604065995
0.00147398438306
1.18831734468
0.770475907579
0.51959767078
0.33525172936
0.200406187987
0.109452792528
0.0553514685732
0.0285825009637
0.0171512944131
0.0120188447553
0.00911660942559
0.00698045414419
0.00519269861616
0.00381856866219
0.00291797234495
0.00228489472426
0.00186068066237
0.00158115746657
0.00145030045053
0.00148144297548
1.37802402388
0.931912458797
0.616883808853
0.381409649127
0.221901030827
0.12292947615
0.065263359019
0.0346799049295
0.0198692657819
0.0128022470427
0.00908326978969
0.00670917641697
0.00495732399979
0.00372137470773
0.00291504337753
0.00240146521936
0.00204871490092
0.00176414912004
0.00157182845364
0.00151911407332
1.70048503883
1.1389478071
0.719915141492
0.428703209726
0.250053450641
0.143790148142
0.0807780516098
0.0446636636983
0.0251033014496
0.015059775319
0.00993528108432
0.00705572417437
0.00518470987474
0.0039423282551
0.00314784025664
0.00265691445032
0.00231047759064
0.00199133878345
0.00172612583918
0.00156502671417
2.11185101929
1.33376352935
0.806500301069
0.482869446843
0.29130515582
0.17568153911
0.104038925506
0.0600163059539
0.0339448629318
0.0194916060419
0.0119972301859
0.00809899378326
0.00584356525196
0.00442214156315
0.00352816180888
0.00296040212583
0.00257150105804
0.00221148857869
0.00188324761917
0.00162106264977
2.44775384913
1.42802483935
0.861670886598
0.537574930562
0.339334385734
0.214247944368
0.133382005078
0.0805450595993
0.0467506577814
0.0265416966476
0.0155406198117
0.00992094520378
0.00693286683296
0.00515336126489
0.00404505861575
0.00333078886753
0.00284144798772
0.00242910352416
0.00203558867405
0.00169868729314
2.65596207732
1.43524195683
0.85560536258
0.558066247759
0.378648605449
0.253878392604
0.163946233839
0.102564420849
0.0617293854193
0.0356237466379
0.0204681332396
0.0125102604948
0.00842781459884
0.0061473320504
0.00472774010959
0.0038188985638
0.00317808568184
0.00267652941005
0.0022086084268
0.00179696733228
2.80526747364
1.46829880033
0.843637159913
0.546568708661
0.383523692274
0.275042363808
0.191802279486
0.123857086354
0.0761417491438
0.0449840886718
0.0260319188628
0.0156086313495
0.0102185551086
0.00732682091838
0.00558548736702
0.00443707218772
0.00363048652765
0.00298768566279
0.00242318236198
0.0019251706828
3.08496548187
1.45128554927
0.788156573091
0.503795227491
0.361490338912
0.270714389157
0.199861965137
0.13892724122
0.088111642804
0.0530999740752
0.0312061168446
0.0187212314968
0.0120949983697
0.0085714665552
0.00652528974906
0.00517128537121
0.00419355784183
0.00338566199937
0.00268386181138
0.00208236102206
3.36551107293
1.45106739501
0.746537682829
0.462026742137
0.331524384385
0.254220383178
0.194533421763
0.141706840034
0.0947445593737
0.05916829801
0.0353552061147
0.0213835421919
0.0138074722187
0.00975420569414
0.00744553884273
0.00594323025517
0.00482452556378
0.0038627440026
0.00297853918405
0.00225087181295
3.36755258387
1.46487526484
0.732075111955
0.435130748042
0.305177320031
0.234671315765
0.183057415659
0.137275641094
0.0951316668011
0.0614947338946
0.0379314147869
0.0233494874935
0.0151777827906
0.0107674542566
0.00827850623661
0.00667721281221
0.00546927686086
0.0043705557833
0.00328224382248
0.00241329439742
3.29889915484
1.45905873642
0.725242777622
0.418282218477
0.283821988834
0.215224166156
0.168549672664
0.128286391746
0.0910859663308
0.0604551416832
0.0383615207571
0.0242529101687
0.0160768674212
0.0115534308783
0.00898682667841
0.0073349922814
0.00607014619843
0.00485011554211
0.00356736547649
0.00255846413739
3.22278557625
1.44364996376
0.717615922562
0.405045733997
0.26549526671
0.196387891541
0.15247704151
0.116435881543
0.0839297639155
0.0569300255496
0.037087583835
0.0241255633246
0.0164159915585
0.012051079322
0.00954108842782
0.00789964455921
0.00659882384483
0.00526574644779
0.0038105873581
0.00268144381931
3.18573878781
1.43299086192
0.707817548213
0.391389939996
0.248071037097
0.177939210966
0.135689863524
0.103006101753
0.0749269920514
0.0518108087909
0.0346460968682
0.0232436560139
0.0163184268181
0.0123099115218
0.00995502024901
0.00836219516086
0.00703831698671
0.00559527857433
0.00399778611991
0.00277823783626
3.22461349841
1.43853378681
0.697921801105
0.377014401236
0.23128180521
0.160435899408
0.119409315396
0.0895627497687
0.0655319152752
0.0460823047556
0.0316375850559
0.0219470247736
0.0159645163922
0.0124240316761
0.0102780299246
0.0087434208403
0.0073824958603
0.00582488499701
0.00412332753738
0.00284317015355
3.37221769983
1.46247562847
0.694234996422
0.367134596386
0.21837595092
0.146067733153
0.105683932072
0.0781383996024
0.057100434819
0.04067519908
0.0286553470969
0.0205884900368
0.0155475859628
0.0124935761722
0.0105490654008
0.00905388456975
0.00763308857358
0.00594666704384
0.00418666482971
0.00287337479023
3.64709592505
1.51996711671
0.70697345749
0.36927005198
0.21447400947
0.138382240139
0.0967594247059
0.0697975935108
0.0504895690379
0.0362371259811
0.0261435720445
0.0194441104692
0.0152157768391
0.0125842834413
0.0107791308204
0.00929131674499
0.00777634999292
0.00596801246772
0.00419688417584
0.00290012482899
4.06437345524
1.63720850822
0.765706812594
0.398137975415
0.225244836782
0.139945238181
0.093486440805
0.0650384041893
0.0460870890459
0.0330830036856
0.0243364919584
0.0186579126405
0.0150514288566
0.0127031114189
0.0109583080173
0.00944263080129
0.00779884865789
0.00591698464039
0.00419046908998
0.00296645871079
4.57781591531
1.84487254814
0.878094802865
0.455224872261
0.253041648689
0.151093814993
0.0961131969264
0.0639018712083
0.0439100382037
0.0312596172836
0.0232836663846
0.0182585244884
0.0150409740665
0.0128134673643
0.0110772262224
0.00948490031028
0.00770897452747
0.00583636897722
0.00421200679625
0.00312100098206
5.21221212112
2.12749657397
1.03422422955
0.539560738185
0.295567139261
0.170745422399
0.103817946119
0.0658717103913
0.0436683905599
0.030622562955
0.0229104736411
0.0181900662613
0.0150944205937
0.0128855330958
0.0111215996481
0.00940262200701
0.00755873577946
0.00577558296445
0.00429668788598
0.00339835301201
5.71960630226
2.39091966401
1.19961989247
0.631437296526
0.344227804532
0.194763074022
0.114445247434
0.0698269171799
0.0447983450085
0.0308914772544
0.0230330520957
0.0182686278153
0.0151354014704
0.0129218554958
0.0110699122416
0.00922700587941
0.00741945943326
0.00576998888978
0.00446729723275
0.00378978281323
5.81376590054
2.54271451018
1.31069373779
0.702694299535
0.385930002125
0.216675881829
0.124694385335
0.0740975753105
0.0464158476171
0.0315233265999
0.0233219918658
0.0183980407647
0.0151977956322
0.0129342211533
0.0109400790171
0.00903734863271
0.00732753913856
0.00583652607747
0.00472507770389
0.0042589311663
5.66787288087
2.55495421301
1.34801479515
0.737992974629
0.410257653781
0.2302262875
0.131045882725
0.0765937750911
0.0473785770663
0.0321209275472
0.0237951283259
0.0187092389124
0.0153601198955
0.0129467686759
0.0107956579836
0.00890082391091
0.00730642716226
0.00597593763276
0.00502847306944
0.00472696156565
5.43525000398
2.48047231845
1.32725075304
0.736190914968
0.412040769288
0.230988282913
0.130520327173
0.0760285701191
0.0477161702007
0.0330757966348
0.0247648817333
0.0193847188809
0.0157117356299
0.0130255113468
0.0107152593162
0.00884996110125
0.00737228297407
0.00617646547631
0.0053302130693
0.00508713459955
5.02320270253
2.316785185
1.2380085525
0.687407608704
0.385360482108
0.216573747517
0.123404019964
0.0740125572997
0.0486664446302
0.0350263302826
0.0265847704681
0.0206397959588
0.0163832421974
0.0132645480273
0.0107648666364
0.00891762559638
0.00752919168427
0.00641736397439
0.00561815269824
0.00531746731613
4.34268345321
2.02705144936
1.07320459139
0.594326143024
0.336029106629
0.193161622964
0.114804097938
0.073348088558
0.051387030549
0.03854547643
0.0296472276399
0.0227484203803
0.0175461633036
0.0137661373056
0.0109903498379
0.00912856881509
0.00778017580449
0.00670856199729
0.005926641719
0.0055325662351
3.55335067936
1.68503803932
0.88823135383
0.495564185249
0.287171594646
0.172719046622
0.109794156735
0.0756918407247
0.0564902130175
0.0440652345239
0.0343719009011
0.0260409043114
0.019352625324
0.0145630108387
0.011439595062
0.00950363635286
0.00814016875347
0.00708895207011
0.00632182259286
0.00587211021837
2.88000868748
1.3905579281
0.740977891125
0.42305938701
0.254385218307
0.161499795613
0.110048914064
0.0813022623218
0.0640662388275
0.0518232335339
0.0410648910381
0.0306671405207
0.0216931011619
0.0156461755693
0.012164100473
0.0100710911483
0.00864436927539
0.00760011202927
0.00686137527015
0.00642599698083
2.39355543515
1.18109757756
0.647162071064
0.382028967867
0.23867463393
0.158712541588
0.114245718389
0.0890381722929
0.0731779379653
0.0607483728561
0.0483433759233
0.035354527882
0.0240280567708
0.0171148423772
0.0132244239608
0.0108827430949
0.00934654868084
0.00828826655863
0.00758219867202
0.00719269128235
2.02369708414
1.03468483093
0.58467604506
0.354910704874
0.227348718152
0.155772493398
0.116438636798
0.094032772435
0.078838386688
0.0653505283055
0.0517844407544
0.037981856946
0.0259345228778
0.0186694652661
0.0145241601619
0.0119612215515
0.0102982234458
0.00920695068294
0.00854100733456
0.00822083250583
1.7694820086
0.942488836267
0.541693112512
0.327078985045
0.207202102595
0.143287662995
0.109888817448
0.0907863928358
0.07697091844
0.0645632721734
0.0523263682735
0.0393567681091
0.0271997426299
0.0198752609282
0.0157170055074
0.0131760253058
0.0114941911839
0.0104084395232
0.00981363320086
0.00959894130508
1.72944912405
0.944325167969
0.528835192828
0.299299897676
0.184579886706
0.12900627928
0.101008883184
0.0848385927604
0.073067491493
0.0626056685808
0.0520133016278
0.0399168001904
0.0278134692778
0.020736857839
0.016799333156
0.0144213760777
0.012873725137
0.0118927118408
0.0114483414236
0.0114305637955
1.99485402413
1.07685159059
0.550019876959
0.294153257455
0.178422561828
0.124981508229
0.0980674059178
0.0823386237025
0.0709903272923
0.0611183463306
0.051120736307
0.0397336661125
0.0282408928568
0.0215566807099
0.0178761174769
0.0157054579946
0.0143823363321
0.013671307711
0.0135497688059
0.0139165683667
2.75537361117
1.35952006903
0.628176380196
0.325274810208
0.196139006724
0.136343008275
0.105097828
0.0864863166761
0.0732677160512
0.0621116640575
0.0513267742963
0.0399783210568
0.0290727740313
0.0225519026578
0.0189873979833
0.0170177822292
0.0160438986711
0.0158670780481
0.0163909130052
0.0174864788247
3.82841218222
1.6606342247
0.752696755975
0.394844303279
0.238397775264
0.162729506122
0.121651832159
0.0968395036767
0.0797183383816
0.0658389580259
0.0530946923662
0.0408185351136
0.0299617295429
0.0234855303169
0.019917986355
0.0182183578554
0.0178835284944
0.0187127430496
0.0203281888332
0.0223473983223
4.48626629944
1.85699687455
0.84930575547
0.450998510629
0.275977809347
0.187981096734
0.137886128351
0.106695766853
0.0855040787804
0.0690998617202
0.0544777704031
0.0411679690177
0.030358070333
0.0236880026838
0.0201496660068
0.0188734546387
0.0193656790141
0.0212103663028
0.023540682567
0.0255850198443
0.00572845189396
0.00626957054996
0.00672803163492
0.00713355726646
0.00747383921572
0.00766391599923
0.00746746883174
0.00637767503461
0.00428442247434
0.00291900598681
0.0023377429593
0.00241967355346
0.00313696732893
0.00413699849479
0.00498641711855
0.00593730908514
0.00191009265339
0.00266645808496
0.0036413081905
0.00452306414011
0.00519412729167
0.00571034689047
0.00614000481068
0.00653719587013
0.00688863109906
0.00706136181282
0.00673622292946
0.00549293289483
0.00400678908252
0.00300211406439
0.00257879073681
0.00276035663695
0.0036245280598
0.0048054649815
0.005590345653
0.00621589038727
0.00176488625404
0.00230756528398
0.00308931408648
0.00392215746432
0.00461583696899
0.00514781299604
0.00557181688008
0.00597284324961
0.00636375131713
0.00657704599935
0.00623929517026
0.00525168067178
0.00410220409833
0.00322168784617
0.0028490469408
0.00319445527929
0.00427868249356
0.00581808826726
0.00628247608423
0.00653883904208
0.00168288720708
0.00206233043023
0.00259994146234
0.00322945442689
0.00384678089475
0.00438140559272
0.00483235958013
0.00525638083356
0.00570044992672
0.00605633628209
0.00603538431182
0.00547266331676
0.00432018883756
0.00340453731374
0.0031119464826
0.00373280802514
0.0051555084478
0.00709948169943
0.0068788821341
0.0068665254914
0.00161522301679
0.00184179053253
0.00217015439073
0.00257201456586
0.00302379150156
0.00351181909508
0.00400628547807
0.00447182224121
0.00495412738693
0.00548104364966
0.00584394697803
0.00572584235107
0.00434284007827
0.00335899456298
0.00340228546645
0.00437176241521
0.00634781884376
0.00813417341853
0.00727300264414
0.00715610055007
0.00154991509179
0.00164939842484
0.00181764725679
0.002033488655
0.00230907816199
0.00269349517686
0.00320767709232
0.00371072490543
0.00418203331943
0.00481071893191
0.00545372369559
0.00567327183916
0.00406090976356
0.00328270204219
0.00371613420674
0.00506391482513
0.00766643940744
0.00883795459975
0.0074262605527
0.00727739605629
0.0014848081386
0.00147312106574
0.001534809199
0.00163541728963
0.00179145943327
0.0020557138767
0.00253337077096
0.00309217752208
0.0035330659717
0.00416856510661
0.00489508667943
0.00517073558164
0.003637147726
0.00329418959324
0.00409396525072
0.0058788643786
0.00833734488055
0.00920327769443
0.00731977530521
0.00720905685428
0.0014429961067
0.00130375039084
0.00125909735261
0.00127190718885
0.00136661390111
0.00161718544108
0.0020235522723
0.00265255325109
0.00305668390998
0.00364520627684
0.00429477203948
0.00436559607477
0.00331568997779
0.00341999220006
0.00466147225874
0.00705046523984
0.00875524852808
0.0092620280192
0.00702409141624
0.00698151572415
0.00145259057491
0.00122508553499
0.00110870850442
0.00107103859853
0.00109133923467
0.00126706219823
0.00168345471357
0.0023465480253
0.00274335208482
0.00322958531725
0.00368918408391
0.00357904036656
0.0031604386093
0.00374644124033
0.00557169489054
0.00802804581691
0.00891076908317
0.00900191732213
0.0066423882297
0.00667403581117
0.00150107632093
0.00120840887875
0.00105521088725
0.00100971420649
0.00100676267925
0.00109536343142
0.00150221782544
0.0021296562634
0.00250688436556
0.00285949250245
0.00311352688086
0.00306894301915
0.00320758259768
0.00438132668377
0.00677580016407
0.0083312740761
0.00884659409041
0.00846723268321
0.00624940198116
0.00636888429894
0.00157682088016
0.0012302422625
0.00104679694926
0.0010059118961
0.00100500104044
0.00108687134847
0.00146248745708
0.00197113030609
0.00228531775388
0.00251274549224
0.00270672825769
0.00287665579071
0.00351169776737
0.00540989273402
0.00782318723285
0.00843997601776
0.00870253447446
0.00769473168989
0.00589188921906
0.00610657215285
0.0016660697617
0.00126951038309
0.00106792907851
0.00103975683441
0.00105359044804
0.00116252845718
0.00152759483755
0.00185090779675
0.002048479102
0.0022554762142
0.00249176402686
0.00285071932278
0.00402689954093
0.00643555867812
0.0082602345222
0.00846325362393
0.00846873421074
0.0068933222786
0.00562774403623
0.00590365296498
0.00175418385765
0.00131608879112
0.00111411050313
0.00110651119265
0.00114702216942
0.00129362107606
0.00161126154919
0.00171609756227
0.00182943017014
0.00209166024429
0.00239562114755
0.00292426164276
0.00451913978967
0.00705841966455
0.00838251843214
0.0085018923592
0.00822700010458
0.00640445427411
0.00548036802324
0.00576567678501
0.00183243443477
0.00136505618956
0.00119184501231
0.00120879533928
0.00129757792047
0.00148483298197
0.00160822919826
0.00156536209181
0.00165651884005
0.00197353366701
0.00233879358726
0.00300238929687
0.00475422493162
0.0072585827575
0.00844971256468
0.00857057528551
0.00804090480958
0.00623496317859
0.00543949828371
0.00570640206522
0.00189811986451
0.00142125296073
0.00130544025859
0.00136022124587
0.00151441394821
0.00176939239086
0.00155352131622
0.00143965582154
0.00152181515536
0.00184948516929
0.00227330157581
0.00304772212106
0.00470334608113
0.00712979498945
0.00841740848315
0.0086233426725
0.00795174067854
0.0062661801706
0.00550181473842
0.00573738481612
0.00194657033296
0.00150274895493
0.00146528504824
0.00158515156141
0.00177928127203
0.00183904019722
0.00146952363121
0.00132444151794
0.00137689032147
0.00168145106676
0.00219920003926
0.00309918203582
0.00449680353557
0.00669341513994
0.00826909193866
0.00863424121279
0.00789541696058
0.00636317018791
0.00562690418822
0.0058231346534
0.00198653502779
0.00163888321533
0.00169603182077
0.00190687207815
0.00214753617245
0.00177030315774
0.00138933681305
0.0012140638083
0.0011777124318
0.00146688605701
0.00207413222034
0.0032193501397
0.00425256540659
0.00605371599074
0.00795881788493
0.00846344328991
0.00773724298297
0.00641388976995
0.0057673887863
0.005933922303
0.00205227481297
0.00185223392785
0.0020363175829
0.00231362046489
0.00229618146146
0.00169099355594
0.00131383426308
0.00106536370347
0.000972668398721
0.00123664178403
0.00190837193486
0.0033256720099
0.0040036195371
0.00541951819877
0.00735085154079
0.00805350882451
0.00740004124113
0.00639093890275
0.00591343874929
0.00606846339598
0.00219171780781
0.00217594650528
0.00251902654092
0.00283949055705
0.00227069163082
0.00164042488705
0.00123051971479
0.000897019074745
0.000807762263147
0.0010412902051
0.00176998154581
0.00319113983038
0.0037687762813
0.00494324311385
0.00668057655597
0.00742971791921
0.00697106356338
0.00639426064794
0.00610646924364
0.00626830040985
0.00244230439714
0.00265368953544
0.00315506744727
0.00313004092936
0.00229146865165
0.00163183253739
0.00111812221879
0.000780424260874
0.000715995530245
0.000998857845513
0.0017560305282
0.00308957671083
0.00366399252725
0.00479050634778
0.00617748025005
0.00691392284551
0.006830206998
0.0065767169048
0.0063519122692
0.00653907563387
0.00282842143306
0.00331531152918
0.00392320442884
0.00328906540086
0.00242342692038
0.001681697114
0.00108559487299
0.000760392309235
0.000717021482516
0.00106470773777
0.00194170488558
0.00332957416281
0.00393289564612
0.0050186146111
0.00600535066181
0.00680274850281
0.00711110103929
0.00678155398642
0.00637265768656
0.00670100604014
0.00336850312906
0.00414327241493
0.00436805530396
0.00356446439276
0.00266453601425
0.00179855541647
0.00113876758423
0.000819773576216
0.000841789421774
0.0012224589629
0.00221181276717
0.00431034294808
0.00509993459208
0.00576086307814
0.00638795476959
0.00692768497322
0.00722021752328
0.00662198477248
0.00599068676583
0.00677947807735
0.00404164138083
0.00490921658874
0.00465584136334
0.00394618489179
0.0029584922886
0.00195925875575
0.00124889823298
0.000995661964292
0.00114834296775
0.00160222332919
0.00289661231243
0.00616438856414
0.00774395478442
0.00728177455766
0.00714932301881
0.00715092234596
0.00679294781609
0.00579138161223
0.00543248586131
0.00703945337614
0.00472993612963
0.00521095952103
0.00495562577324
0.00431569244442
0.0032078823669
0.00206972955352
0.00135096350644
0.00119457475367
0.0016418540691
0.00292378090004
0.00415164071328
0.00787608071976
0.010087360207
0.0102848930527
0.00905996070439
0.00823846467012
0.00664143034412
0.00473878088883
0.00512350553724
0.00751098531188
0.00516904169563
0.00534278814398
0.00518532227194
0.00454068396324
0.0033025470622
0.00208467741678
0.00138835909359
0.00143161418291
0.00253366000763
0.00321932848105
0.00465447521577
0.0086766206982
0.0104384568605
0.0112051474851
0.0110610721461
0.00916109121864
0.00661104857783
0.00414432378063
0.00484547856277
0.00783183056977
0.00532317150165
0.00542406437985
0.00528748193284
0.00457276671551
0.00324473067769
0.00205552938918
0.00141589663137
0.00144378923837
0.00163703786871
0.00245096057024
0.00429500973812
0.00752114939996
0.0096263013745
0.0102902595075
0.00968817800097
0.00801985548393
0.00596226982709
0.00380232971167
0.0045989066268
0.00787544455213
0.0054072100805
0.0054962098767
0.00531732806857
0.00449833918035
0.00316031134351
0.00199950418538
0.00128010504931
0.000949348062229
0.000897471877217
0.00151905870847
0.00283166406632
0.00522242282816
0.00744158720137
0.00851186107378
0.0079245661727
0.00695702624445
0.00560164311154
0.00381101909769
0.00453258467713
0.00779187753316
0.00547936318759
0.00556596282636
0.00537526525718
0.0045105194295
0.00319159430255
0.00199366574002
0.00116878033705
0.00067356402778
0.000576166250612
0.000854422517821
0.0014504444596
0.00283863786496
0.00515117687154
0.00656226519252
0.00590381638775
0.00580222297877
0.00505286278628
0.00379180708897
0.00463879793719
0.00786879862386
0.00573447341274
0.00573216605679
0.00550296129926
0.00475222345136
0.00346655331902
0.00218101280161
0.00123696223272
0.000642389770051
0.000450297215406
0.000528506919213
0.000774048106423
0.00136554888459
0.00363216275478
0.00482834526446
0.00425986896101
0.00444018398644
0.00415134877669
0.00369846583051
0.0047832486137
0.00816928261771
0.00630372691599
0.00629831134798
0.00605178078061
0.00531635732197
0.00411048300493
0.002606173812
0.00148033437349
0.000784468363019
0.000463566536718
0.000320976886364
0.00036362879296
0.000760807416674
0.00286003221821
0.00387426233781
0.00361973225053
0.00337965674018
0.00315957825013
0.00351610817251
0.0047809592266
0.00849865022081
0.00713555997035
0.00725289670611
0.00720658322182
0.0065289977205
0.00511696026621
0.00306175055464
0.00165962495531
0.000941583215368
0.000553439837731
0.000312366354671
0.000216813269838
0.00055129395786
0.00254472108955
0.00356715919476
0.0033880679638
0.00254022299086
0.00242813815793
0.00334647079199
0.00460519186154
0.00859413713622
0.00825507127007
0.00854224813453
0.00885571369855
0.00846821448053
0.00624331375867
0.00330148965534
0.00170712217083
0.00100209707659
0.000589337664695
0.000321202370859
0.00023166532494
0.000596222425079
0.00253464406715
0.00350942615083
0.00312885148105
0.00190331023855
0.00212846714766
0.00330321964859
0.00455752610049
0.00845708034803
0.00976961982284
0.0102660715616
0.0109627209083
0.0107670041775
0.00698305171436
0.00331341034363
0.00166209630755
0.000968112894094
0.000559055583665
0.000305888710443
0.000288373375208
0.000840933984053
0.00272764281076
0.00356334625276
0.00275759747305
0.00164402788367
0.00211603487424
0.00346684768581
0.00455962250554
0.00824999612145
0.0118366787123
0.012653132541
0.0137937910964
0.0129029077676
0.0069630906671
0.00312975217448
0.00153727645558
0.000878028461606
0.000487995751027
0.000285083132609
0.00043564992113
0.00110229706496
0.00299839955303
0.00368564145284
0.00225352640162
0.00160830398109
0.00223303027312
0.00388128010295
0.00455258840489
0.00792466757289
0.0147685500173
0.0161860144773
0.0177237000718
0.0139212739077
0.00635670254792
0.00277579437501
0.00133520470838
0.000733009912762
0.000389512055353
0.000310607462938
0.000663816411287
0.00145389892475
0.00322068392627
0.00346144230075
0.00177865043763
0.00171506993904
0.00249632776372
0.0049603872748
0.00457705298939
0.00759809397364
0.019152784116
0.0215278771
0.0219618774554
0.012823650801
0.00537132144869
0.00226397803663
0.00108640464321
0.000569432484999
0.000311904258868
0.000382249528865
0.00091689532559
0.00184483813416
0.00315690912232
0.00265342547512
0.00172164940267
0.00190644046677
0.00297043847318
0.00719226077853
0.00458152630941
0.00723503514273
0.0246138806888
0.0268294490941
0.0232849534706
0.0107843331461
0.00409646213176
0.00170981197506
0.000844173489815
0.000448061204202
0.00029987775711
0.000467773574564
0.00107218464376
0.00195394152553
0.00261007109126
0.0018865927249
0.00166306892055
0.00229250297674
0.00436673015216
0.0107328041361
0.0041879135885
0.00727342874537
0.0272639591213
0.0283929955148
0.0227013830745
0.00847154701061
0.00300072542562
0.0013092663914
0.000669931728666
0.000382009072945
0.000344579619541
0.000562493896947
0.00102290732838
0.00183766781452
0.00201080584712
0.00141698251831
0.00157595614853
0.00256464747203
0.0085252319389
0.0124458728415
0.00237552502777
0.0140366352419
)
;

boundaryField
{
    emptyPatch
    {
        type            empty;
    }
    minY
    {
        type            fixedValue;
        value           nonuniform List<scalar> 0();
    }
    maxY
    {
        type            inletOutlet;
        inletValue      uniform 1e-05;
        value           nonuniform List<scalar> 
40
(
4.48626629944
1.85699687455
0.84930575547
0.450998510629
0.275977809347
0.187981096734
0.137886128351
0.106695766853
0.0855040787804
0.0690998617202
0.0544777704031
0.0411679690177
0.030358070333
0.0236880026838
0.0201496660068
0.0188734546387
0.0193656790141
0.0212103663028
0.023540682567
0.0255850198443
0.0272639591213
0.0283929955148
0.0227013830745
0.00847154701061
0.00300072542562
0.0013092663914
0.000669931728666
0.000382009072945
0.000344579619541
0.000562493896947
0.00102290732838
0.00183766781452
0.00201080584712
0.00141698251831
0.00157595614853
0.00256464747203
0.0085252319389
0.0124458728415
1e-05
1e-05
)
;
    }
    water_to_cooler
    {
        type            kqRWallFunction;
        value           nonuniform List<scalar> 
38
(
0.00593730908514
0.00621589038727
0.00653883904208
0.0068665254914
0.00715610055007
0.00727739605629
0.00720905685428
0.00698151572415
0.00667403581117
0.00636888429894
0.00610657215285
0.00590365296498
0.00576567678501
0.00570640206522
0.00573738481612
0.0058231346534
0.005933922303
0.00606846339598
0.00626830040985
0.00653907563387
0.00670100604014
0.00677947807735
0.00703945337614
0.00751098531188
0.00783183056977
0.00787544455213
0.00779187753316
0.00786879862386
0.00816928261771
0.00849865022081
0.00859413713622
0.00845708034803
0.00824999612145
0.00792466757289
0.00759809397364
0.00723503514273
0.00727342874537
0.0140366352419
)
;
    }
    water_to_heater
    {
        type            kqRWallFunction;
        value           nonuniform List<scalar> 
59
(
1.11763964588
1.11763964588
1.13249393952
1.18831734468
1.37802402388
1.37802402388
1.70048503883
1.70048503883
2.11185101929
2.11185101929
2.44775384913
2.65596207732
2.80526747364
2.80526747364
3.08496548187
3.08496548187
3.36551107293
3.36551107293
3.36755258387
3.29889915484
3.22278557625
3.22278557625
3.18573878781
3.18573878781
3.22461349841
3.22461349841
3.37221769983
3.64709592505
4.06437345524
4.06437345524
4.57781591531
4.57781591531
5.21221212112
5.21221212112
5.71960630226
5.81376590054
5.66787288087
5.66787288087
5.43525000398
5.43525000398
5.02320270253
5.02320270253
4.34268345321
3.55335067936
2.88000868748
2.88000868748
2.39355543515
2.39355543515
2.02369708414
2.02369708414
1.7694820086
1.72944912405
1.99485402413
1.99485402413
2.75537361117
2.75537361117
3.82841218222
3.82841218222
4.48626629944
)
;
    }
    procBoundary0to1
    {
        type            processor;
        value           nonuniform List<scalar> 
41
(
1.03820738332
0.527737192313
0.324518133828
0.214733765641
0.141049734112
0.0853610768233
0.0464715157578
0.0263598286752
0.0185058744298
0.0151199450408
0.0129178239592
0.0109273424434
0.00890001727254
0.00686949611049
0.00508015365873
0.0038316455405
0.00323898049657
0.00266938141493
0.00201621111953
0.00178213898427
0.00637606091367
0.00698825379494
0.00750706671023
0.00795235687465
0.00832466281402
0.00856372731229
0.00846466703264
0.00760458975884
0.00511326462004
0.00302775819177
0.00219492692876
0.00216682572338
0.00275068115707
0.00364685241819
0.00452219178842
0.00572621631643
0.0021932226967
0.00312001273651
0.00415867058306
0.00504750101668
0.00504750101668
)
;
    }
}


// ************************************************************************* //
