/*--------------------------------*- C++ -*----------------------------------*\
| =========                 |                                                 |
| \\      /  F ield         | OpenFOAM: The Open Source CFD Toolbox           |
|  \\    /   O peration     | Version:  2312                                  |
|   \\  /    A nd           | Website:  www.openfoam.com                      |
|    \\/     M anipulation  |                                                 |
\*---------------------------------------------------------------------------*/
FoamFile
{
    version     2.0;
    format      ascii;
    arch        "LSB;label=32;scalar=64";
    class       volScalarField;
    location    "0.28/water";
    object      d.gas;
}
// * * * * * * * * * * * * * * * * * * * * * * * * * * * * * * * * * * * * * //

dimensions      [0 1 0 0 0 0 0];

internalField   nonuniform List<scalar> 
6000
(
0.00496948256197
0.00496954487743
0.00496956152065
0.00496957410717
0.00496958472905
0.00496959412131
0.00496960264315
0.00496961029359
0.00496961700545
0.00496962281265
0.00496962775385
0.00496963188431
0.00496963528362
0.00496963802827
0.00496964018428
0.00496964180717
0.00496964294453
0.00496964363521
0.00496964391067
0.00496964379595
0.00496979527924
0.00496982580422
0.00496982289903
0.00496982234532
0.00496982659436
0.0049698304144
0.00496983400701
0.00496983745544
0.00496984086904
0.0049698441438
0.00496984707053
0.00496984957243
0.00496985168621
0.00496985345189
0.00496985488582
0.00496985598855
0.00496985675611
0.00496985718411
0.00496985726953
0.00496985701114
0.00497007701851
0.00497010787064
0.00497009443141
0.00497008397253
0.00497008059483
0.00497007783309
0.00497007565311
0.0049700742335
0.00497007348838
0.00497007328061
0.00497007339769
0.00497007359446
0.00497007373915
0.00497007380704
0.00497007379869
0.00497007370329
0.00497007349824
0.00497007315417
0.00497007264095
0.00497007193307
0.0049703135162
0.00497033452147
0.00497032042905
0.00497031335874
0.00497031248649
0.00497031072606
0.00497030813011
0.00497030547914
0.00497030311714
0.0049703011284
0.00497029950118
0.00497029811791
0.00497029683948
0.00497029559502
0.00497029437197
0.00497029317057
0.00497029198433
0.00497029079612
0.00497028958229
0.00497028831986
0.0049705498456
0.00497056329703
0.00497054463573
0.00497053695816
0.00497053644916
0.0049705354685
0.00497053318955
0.00497053032316
0.0049705274707
0.00497052482693
0.00497052243608
0.00497052026906
0.00497051823707
0.0049705162639
0.00497051432546
0.0049705124262
0.00497051057512
0.004970508774
0.00497050701718
0.00497050529716
0.00497076974155
0.00497078354282
0.00497076509381
0.00497075672998
0.00497075532201
0.00497075469037
0.00497075312122
0.0049707505548
0.00497074761152
0.00497074473315
0.00497074204709
0.00497073956645
0.00497073722942
0.0049707349584
0.00497073271596
0.0049707305004
0.00497072832422
0.00497072619873
0.00497072413058
0.00497072212534
0.00497098253245
0.0049710006842
0.00497098441336
0.00497097584678
0.00497097276782
0.00497097106419
0.00497096942351
0.00497096713992
0.0049709642849
0.00497096136748
0.00497095865001
0.00497095616519
0.0049709538496
0.00497095160839
0.00497094938267
0.00497094715609
0.00497094493502
0.00497094273108
0.00497094055569
0.00497093842365
0.00497118413773
0.00497120787548
0.00497119707551
0.00497118994031
0.0049711868887
0.0049711843744
0.00497118213739
0.00497117989334
0.00497117735895
0.00497117476515
0.00497117241913
0.0049711703413
0.00497116843035
0.00497116656006
0.00497116464828
0.00497116266515
0.00497116061131
0.00497115849892
0.00497115634569
0.0049711541742
0.00497138334987
0.00497141006418
0.00497139889611
0.00497139424718
0.0049713934496
0.00497139196186
0.00497139013577
0.00497138836135
0.00497138668218
0.00497138515957
0.00497138394577
0.00497138293933
0.00497138193342
0.00497138078371
0.00497137942093
0.00497137782914
0.00497137602275
0.00497137403053
0.00497137188695
0.00497136963097
0.00497157906989
0.00497161232979
0.00497160385093
0.00497160102203
0.0049716015711
0.00497160087557
0.0049715993313
0.00497159799806
0.00497159714998
0.0049715967204
0.00497159674749
0.00497159698216
0.00497159696237
0.00497159647
0.00497159549505
0.00497159407694
0.00497159227147
0.00497159014088
0.00497158774952
0.00497158516456
0.00497179024905
0.00497183365678
0.00497182875091
0.00497182541767
0.00497182505938
0.00497182337312
0.00497182102824
0.00497181916385
0.00497181797769
0.0049718173435
0.0049718172501
0.00497181752326
0.00497181745654
0.00497181663182
0.00497181510908
0.00497181301675
0.0049718104622
0.00497180754069
0.00497180434414
0.00497180096244
0.004972035888
0.00497208700441
0.00497208151182
0.00497207567314
0.00497207253603
0.00497206851202
0.00497206454328
0.00497206095738
0.00497205752174
0.00497205420769
0.00497205122949
0.00497204878853
0.00497204629766
0.00497204312764
0.00497203933812
0.00497203514716
0.00497203069102
0.0049720260602
0.0049720213368
0.00497201660102
0.00497231835394
0.00497236739215
0.00497235796013
0.00497234783663
0.00497234094716
0.00497233406085
0.00497232730882
0.00497232038593
0.00497231290742
0.00497230489962
0.00497229672722
0.00497228875987
0.00497228114259
0.00497227350381
0.00497226579663
0.00497225823179
0.00497225092489
0.00497224389722
0.00497223716248
0.00497223074501
0.00497260932171
0.00497263856829
0.00497261576611
0.00497260344753
0.0049725957322
0.00497258800083
0.00497257959606
0.00497257024867
0.00497255979242
0.00497254852592
0.00497253683621
0.00497252453341
0.00497251186192
0.00497249955799
0.00497248789106
0.00497247701475
0.0049724669858
0.00497245774641
0.00497244922185
0.00497244136423
0.00497283550451
0.00497284575533
0.00497281872462
0.00497280718577
0.0049728011167
0.00497279495624
0.00497278772635
0.00497277953116
0.00497277041801
0.00497276040812
0.0049727498764
0.00497273855341
0.00497272545743
0.00497271148767
0.00497269808654
0.00497268574313
0.00497267449803
0.00497266428324
0.00497265499953
0.00497264656875
0.00497296774741
0.00497298067406
0.00497296326388
0.00497295848765
0.00497295810895
0.00497295694555
0.00497295442145
0.0049729508868
0.00497294621497
0.00497294051416
0.00497293394359
0.00497292649054
0.00497291714929
0.00497290543898
0.00497289326052
0.00497288188506
0.00497287148661
0.00497286199674
0.00497285336198
0.00497284553127
0.00497313108844
0.00497314649839
0.00497312695542
0.00497311922398
0.00497311729907
0.00497311588418
0.00497311404167
0.00497311199602
0.00497311008276
0.00497310784332
0.00497310408205
0.00497309886996
0.0049730925471
0.00497308445617
0.00497307536594
0.00497306675789
0.00497305889897
0.00497305163156
0.00497304493073
0.00497303879506
0.00497325282631
0.00497327738569
0.00497326980537
0.00497326641474
0.00497326697601
0.00497326737023
0.00497326706883
0.00497326695605
0.00497326783344
0.00497326870656
0.00497326726661
0.00497326319627
0.00497325814549
0.0049732531662
0.00497324802386
0.00497324344011
0.00497323937766
0.00497323546631
0.0049732316656
0.00497322803512
0.00497341699188
0.00497344330444
0.00497342701293
0.00497342043175
0.0049734192869
0.00497341862298
0.00497341831009
0.00497342005182
0.00497342507992
0.00497342930135
0.0049734288263
0.00497342553836
0.00497342106121
0.00497341812735
0.0049734167975
0.0049734166957
0.00497341706187
0.00497341705152
0.00497341658944
0.00497341579645
0.00497355403335
0.00497358464327
0.00497356998337
0.00497356614286
0.00497356793725
0.00497357019776
0.00497357399211
0.00497358271473
0.00497359238853
0.00497359426146
0.00497359526151
0.00497359438473
0.00497359031522
0.00497358815155
0.00497358951813
0.00497359326117
0.0049735975418
0.00497360096551
0.00497360343946
0.0049736051178
0.00497372846994
0.0049737640939
0.00497374432602
0.00497373820369
0.00497373996525
0.00497374417581
0.00497375336098
0.00497376621961
0.00497376930272
0.00497377280126
0.00497377747291
0.0049737769963
0.00497377283567
0.00497377039966
0.00497377314317
0.00497377933605
0.00497378608088
0.00497379154105
0.00497379570458
0.0049737987784
0.0049738993936
0.00497394004932
0.00497392495151
0.00497392201399
0.00497392791646
0.00497393729774
0.00497395107417
0.0049739588459
0.0049739648926
0.00497397016142
0.00497397670937
0.0049739805425
0.00497397488395
0.00497397114166
0.00497397314387
0.00497397933874
0.00497398627745
0.00497399170635
0.00497399568121
0.00497399853523
0.00497409192702
0.00497414236322
0.00497413415163
0.00497413387485
0.00497414179785
0.00497415224329
0.00497416299033
0.00497417361475
0.00497418069673
0.00497419350981
0.00497420837958
0.00497420396855
0.00497419757888
0.00497419283632
0.00497419175859
0.00497419455389
0.00497419883065
0.00497420192524
0.0049742036651
0.00497420452193
0.00497432250508
0.00497437121276
0.00497436037986
0.00497436103944
0.00497436900599
0.00497437904499
0.00497439306595
0.00497440571997
0.00497442220999
0.00497444206552
0.00497443969952
0.00497443453769
0.00497443084252
0.0049744267908
0.00497442345063
0.00497442104071
0.00497442046951
0.00497441957232
0.00497441759899
0.00497441507815
0.00497455388902
0.00497460970663
0.00497460202033
0.00497460473949
0.00497461518009
0.00497462868292
0.00497464599726
0.00497466440901
0.00497467749195
0.00497467529495
0.00497467098739
0.00497467011061
0.00497466756643
0.00497466499972
0.0049746596121
0.00497465289897
0.00497464636891
0.00497464052237
0.00497463407171
0.00497462742174
0.00497484794773
0.00497491516635
0.00497490729003
0.00497490741777
0.00497491302353
0.00497491980258
0.00497492754144
0.00497492959139
0.00497492379735
0.00497491672601
0.00497491146008
0.0049749065721
0.00497490250787
0.00497489662636
0.00497489002639
0.00497488219094
0.00497487132173
0.00497486042858
0.00497484937061
0.00497483843404
0.00497520370585
0.0049752676375
0.00497525088865
0.00497523980589
0.00497523126797
0.00497522075658
0.00497520901173
0.00497519389832
0.00497517773573
0.00497516257902
0.00497515002338
0.00497513987974
0.00497513088752
0.00497512181687
0.00497511291276
0.00497510343748
0.00497509101358
0.00497507572761
0.00497506020541
0.00497504515147
0.00497551559098
0.00497555655086
0.00497553602069
0.00497552204902
0.00497550962695
0.00497549244285
0.00497547088015
0.00497544701709
0.00497542295132
0.00497540060215
0.0049753819645
0.00497536604986
0.0049753514913
0.00497533808485
0.00497532463111
0.00497531279128
0.00497530010746
0.00497528228035
0.00497526309175
0.00497524454975
0.00497573307372
0.00497573953766
0.00497571795029
0.00497570977857
0.00497570395392
0.00497569389329
0.00497567687478
0.00497565536857
0.0049756321277
0.00497560968567
0.00497558995117
0.00497557112396
0.00497555259758
0.00497553563965
0.00497552035622
0.00497550681775
0.00497549348367
0.00497547548497
0.00497545439174
0.00497543369309
0.00497586547075
0.00497585797342
0.00497583846309
0.00497583320439
0.00497583250286
0.00497583037555
0.00497582211806
0.00497580837911
0.00497579184398
0.0049757752963
0.0049757598466
0.00497574345302
0.00497572640219
0.00497571021873
0.00497569595661
0.00497568243257
0.00497566893097
0.00497565243692
0.00497563165069
0.00497561057721
0.00497595832043
0.00497595150038
0.00497593501483
0.00497593182328
0.00497593372621
0.00497593532907
0.00497593276316
0.00497592554178
0.0049759160053
0.00497590670787
0.00497589774794
0.00497588675557
0.00497587455264
0.00497586275513
0.00497585192787
0.00497584081932
0.00497582814303
0.00497581342171
0.00497579450199
0.0049757746545
0.0049760665089
0.00497605966757
0.00497604275311
0.00497603802107
0.00497603803102
0.0049760387056
0.00497603678439
0.00497603179306
0.00497602566415
0.00497602129223
0.00497601768703
0.00497601147721
0.00497600425901
0.00497599774332
0.00497599221369
0.00497598518588
0.00497597326691
0.00497595973128
0.00497594359023
0.00497592625547
0.00497614662033
0.00497614538025
0.00497613462368
0.00497613160556
0.00497613229865
0.00497613343154
0.00497613264995
0.00497612928343
0.00497612566498
0.0049761257722
0.00497612621836
0.00497612398012
0.00497612089205
0.0049761193276
0.0049761195474
0.00497611453073
0.00497610303135
0.00497609143106
0.00497607933447
0.00497606604033
0.00497624199471
0.00497623936918
0.0049762239118
0.00497622017917
0.00497622011314
0.00497622091906
0.00497622020541
0.00497621775997
0.00497621750151
0.00497622246063
0.00497622661862
0.00497622666197
0.00497622734721
0.00497623040041
0.00497623463444
0.00497623250644
0.00497622272207
0.00497621265288
0.00497620444912
0.00497619615682
0.00497631644482
0.00497631579776
0.00497629987309
0.00497629668888
0.00497629736786
0.0049762991914
0.00497630009565
0.00497630077442
0.00497630607973
0.00497631657273
0.00497632248381
0.00497632626217
0.00497633029994
0.00497633697837
0.00497634681365
0.00497634578895
0.00497633685456
0.00497632845843
0.00497632356041
0.00497632054607
0.00497640250951
0.00497640408021
0.00497638385515
0.00497637935992
0.00497638025685
0.00497638287679
0.00497638523302
0.0049763892995
0.0049764006102
0.00497641382476
0.0049764223454
0.0049764273618
0.00497643436812
0.00497644636487
0.00497645788317
0.00497645910168
0.00497645313244
0.0049764456234
0.00497644300153
0.00497644458478
0.00497647711788
0.00497648505593
0.00497646695555
0.00497646392402
0.00497646725269
0.0049764724167
0.00497647790216
0.00497648742544
0.00497650514841
0.00497652033793
0.00497652759602
0.00497653685032
0.00497654606437
0.00497655980158
0.00497657723744
0.00497657836148
0.00497657316614
0.00497656804297
0.00497656752425
0.0049765727569
0.00497657773419
0.00497659340941
0.00497657626995
0.00497657251457
0.00497657602457
0.00497658162396
0.00497658906275
0.00497660463026
0.00497662469666
0.0049766349997
0.00497664637855
0.0049766561654
0.00497666719241
0.00497668907921
0.00497670330558
0.00497670427904
0.00497670309295
0.00497670000349
0.00497670092296
0.00497670837339
0.00497669103346
0.00497670855408
0.00497668516897
0.00497668298225
0.00497668977206
0.00497669877662
0.00497671213055
0.00497673471164
0.0049767507119
0.00497676471369
0.00497677580951
0.00497678897939
0.00497680449914
0.00497682557311
0.00497683986346
0.00497684215446
0.00497684347858
0.00497684358306
0.00497684538698
0.00497685332641
0.00497682159614
0.00497684401761
0.00497681204319
0.00497680958401
0.00497681879502
0.00497683188663
0.00497685399773
0.00497687560105
0.00497689232016
0.00497690404792
0.00497691831964
0.00497693324172
0.00497695207777
0.00497697888552
0.00497698602935
0.0049769914386
0.00497699790318
0.00497700123665
0.00497700229766
0.00497700888496
0.00497694301041
0.00497697250867
0.00497694017471
0.00497694108409
0.00497695604784
0.004976977727
0.00497700492482
0.00497702685864
0.00497704042239
0.00497705656593
0.004977073105
0.00497709066788
0.00497711785134
0.00497713492035
0.00497714379789
0.00497715507937
0.00497716749248
0.00497717264843
0.00497717185767
0.00497717621525
0.00497706838534
0.00497711287962
0.00497708542817
0.00497709016926
0.00497711113708
0.00497713983575
0.0049771697741
0.00497718503498
0.00497720203689
0.00497721935542
0.00497723931889
0.00497726439145
0.00497728403755
0.0049773027848
0.00497731608738
0.00497733573764
0.00497735247186
0.00497735697805
0.00497735461292
0.00497735714159
0.00497722048811
0.00497727925319
0.00497726515201
0.00497727344211
0.00497729673389
0.0049773260859
0.0049773473592
0.00497736659411
0.0049773827009
0.00497740656774
0.00497743830133
0.00497745617267
0.0049774767855
0.0049774922367
0.00497751300943
0.00497753764735
0.0049775534734
0.00497755638776
0.00497755467889
0.00497755593677
0.00497741348525
0.00497748474023
0.00497747264414
0.00497748154183
0.0049775040796
0.00497753063351
0.00497756093127
0.00497758615095
0.00497761618136
0.00497764990299
0.00497766139522
0.00497767618453
0.00497769313178
0.00497771314794
0.00497773774537
0.00497776097404
0.00497777392409
0.00497777668437
0.00497777683613
0.00497777516391
0.00497775202924
0.00497783229788
0.00497781146619
0.00497781723162
0.00497783623798
0.00497786118053
0.0049778916722
0.00497791679053
0.00497793304499
0.00497792865444
0.00497792934103
0.00497793918368
0.00497795312082
0.0049779691252
0.00497798699723
0.00497800276555
0.0049780115608
0.00497801363635
0.00497801105019
0.00497800700967
0.00497828933558
0.00497835851965
0.00497833066126
0.00497833263397
0.00497834179123
0.00497834455607
0.00497833806741
0.00497832062984
0.00497829178393
0.00497826713523
0.00497825420836
0.00497824956212
0.00497824775397
0.00497824736313
0.00497824977124
0.00497825319138
0.00497825535895
0.00497825387309
0.0049782487078
0.00497824447957
0.00497873560982
0.00497877094312
0.00497874177356
0.00497873917414
0.00497874197908
0.00497873528256
0.00497871226386
0.00497867647587
0.00497863800498
0.00497860466096
0.00497857855463
0.00497855748252
0.00497853865381
0.00497852199491
0.00497850928923
0.00497850068235
0.00497849513503
0.00497849058851
0.00497848236536
0.00497847696799
0.00497890968447
0.0049789435477
0.00497893758659
0.00497894384974
0.00497895224921
0.00497895528771
0.00497894760148
0.00497892792778
0.00497890158408
0.00497887362374
0.00497884564672
0.00497881852066
0.00497879223287
0.00497876759335
0.00497874648389
0.00497873036907
0.00497871851634
0.00497870993723
0.00497870048216
0.00497868990341
0.00497908754339
0.00497911633577
0.00497909921255
0.00497910102512
0.0049791065098
0.0049791095281
0.00497910771083
0.00497909876233
0.00497908321093
0.0049790638846
0.00497904200595
0.00497901852865
0.00497899474332
0.00497897088785
0.00497894926956
0.00497893201929
0.0049789183474
0.00497890823562
0.00497889678796
0.00497888512936
0.00497920076873
0.0049792344779
0.00497922093226
0.00497922392861
0.00497922857206
0.00497923016725
0.00497922840078
0.0049792223807
0.00497921151423
0.00497919803522
0.00497918343232
0.00497916822141
0.00497915235843
0.00497913532902
0.00497911878276
0.00497910568463
0.00497909541282
0.00497908610794
0.00497907879999
0.0049790678766
0.00497930603407
0.00497935027826
0.00497933412963
0.00497933382966
0.00497933558088
0.00497933480698
0.00497933177673
0.00497932566172
0.00497931616004
0.00497930575593
0.00497929651781
0.00497928936198
0.00497928275187
0.00497927371577
0.00497926531168
0.00497925892362
0.00497925436509
0.00497925153619
0.00497924791733
0.00497923913612
0.00497937044059
0.00497942913712
0.00497942324535
0.00497942553374
0.00497942759657
0.0049794264298
0.00497942310965
0.00497941726453
0.00497940938798
0.00497940227827
0.00497939797487
0.00497939782799
0.00497939920945
0.00497939914482
0.00497940043712
0.00497940000489
0.00497940180007
0.0049794082588
0.00497941151657
0.00497940347886
0.00497944552842
0.00497951966742
0.00497951477608
0.00497951480349
0.00497951478461
0.00497951196347
0.00497950728375
0.00497950094107
0.00497949400153
0.00497948902796
0.00497948856537
0.00497949630454
0.00497950837425
0.00497951940627
0.0049795287109
0.00497953376325
0.00497954289102
0.00497956076847
0.00497956777706
0.00497956611569
0.00497952805937
0.00497960589901
0.00497959396204
0.00497959313117
0.00497959209026
0.00497958751631
0.00497958104345
0.00497957356131
0.00497956722625
0.0049795652976
0.00497957279964
0.0049795943357
0.00497961944346
0.00497964117048
0.00497965648394
0.00497966703963
0.00497968472247
0.00497971425
0.00497973073454
0.00497972672353
0.00497962359888
0.00497970847306
0.00497968503146
0.00497967979618
0.0049796764502
0.00497966888206
0.00497965947937
0.00497965107763
0.00497964758671
0.00497965325652
0.0049796752685
0.00497971206677
0.00497974725325
0.00497977606263
0.00497979353886
0.00497981038755
0.00497983814112
0.00497987863217
0.0049798959432
0.00497990071872
0.00497973953763
0.00497983064782
0.00497980264904
0.0049797930436
0.00497978804018
0.00497977752535
0.00497976604029
0.00497975988008
0.00497976387711
0.00497978262696
0.00497982122784
0.00497986700392
0.00497990664673
0.004979934061
0.0049799529371
0.00497997746572
0.00498001437521
0.00498006110394
0.0049800859213
0.00498008766284
0.00497989901116
0.00498001257576
0.00497997828064
0.00497996574258
0.0049799584848
0.0049799448628
0.00497993315362
0.00497993234707
0.00497994708761
0.00497998010889
0.00498002609321
0.00498007062134
0.00498010579711
0.00498012974856
0.00498015177623
0.00498017902944
0.0049802192615
0.00498026687681
0.00498028699454
0.00498029354376
0.00498016805585
0.00498028535958
0.00498024699379
0.00498022891874
0.00498021728323
0.00498019979435
0.0049801879294
0.00498019106176
0.00498021225781
0.0049802488567
0.00498028911351
0.00498032441684
0.00498035172995
0.00498037142189
0.00498038970692
0.00498041511232
0.00498045190649
0.004980493907
0.00498051439817
0.00498051351745
0.00498059596679
0.00498067269574
0.00498060132334
0.00498057864426
0.00498056400319
0.00498054442281
0.00498053300284
0.00498053500499
0.0049805517723
0.0049805778264
0.00498060397198
0.00498062641453
0.00498064235169
0.0049806526852
0.00498066360934
0.00498068139763
0.00498070744368
0.00498073876549
0.00498074895544
0.00498074864327
0.00498120841645
0.00498121949636
0.00498110597939
0.0049810757723
0.00498104261845
0.00498101244147
0.00498098859757
0.00498097324344
0.00498096735946
0.00498096765883
0.00498096924425
0.00498096953822
0.00498096660789
0.00498096234921
0.00498096109151
0.00498096508399
0.00498097587183
0.0049809942974
0.00498100068142
0.00498099067463
0.00498181006728
0.00498173918146
0.00498164972377
0.00498160823199
0.00498157154102
0.00498153505863
0.00498149624942
0.00498145655559
0.00498141824957
0.00498138268092
0.0049813503454
0.00498132132519
0.00498129571686
0.00498127455221
0.00498125833562
0.00498124729045
0.00498124370774
0.00498125129453
0.00498124703463
0.00498123731693
0.00498203680039
0.00498203697551
0.00498200309335
0.00498196969765
0.00498193938306
0.00498190816087
0.00498187034264
0.00498182444131
0.00498177318213
0.00498172088027
0.00498167055124
0.00498162466929
0.0049815847325
0.00498155214079
0.00498152602378
0.00498150576804
0.00498149388189
0.00498149599299
0.00498149125637
0.00498147354401
0.00498209789408
0.00498209824647
0.00498207758283
0.00498206356402
0.00498205380518
0.004982043933
0.004982027842
0.00498200206892
0.00498196767265
0.00498192787675
0.00498188747779
0.0049818482581
0.00498181092642
0.00498177754276
0.00498175077972
0.00498173031656
0.00498172016967
0.00498172370414
0.00498171506664
0.00498170299086
0.00498216387675
0.00498216446439
0.00498213319633
0.00498211765874
0.00498211254663
0.00498211092675
0.00498210564196
0.00498209260638
0.00498207257144
0.00498204985466
0.00498202865071
0.00498200563974
0.00498198104754
0.00498195893912
0.00498194055067
0.0049819279661
0.00498192455238
0.00498193246835
0.00498193428386
0.00498192184302
0.00498222731901
0.00498222755614
0.0049821789412
0.0049821552668
0.00498214973555
0.00498215125221
0.00498215136048
0.00498214624617
0.00498213948805
0.00498213755928
0.00498213623753
0.00498212750985
0.00498211924637
0.00498211166476
0.00498210677329
0.00498210720756
0.00498211314206
0.0049821309276
0.00498214055375
0.00498214181194
0.00498230038451
0.00498228799626
0.00498221810556
0.00498218458466
0.00498217890305
0.00498218452562
0.00498219121075
0.00498219731715
0.00498220933405
0.00498222765932
0.00498223693725
0.00498224286801
0.00498224725
0.00498225382594
0.00498226560725
0.00498227864521
0.00498229593443
0.00498232577196
0.00498235463677
0.00498236114162
0.00498237438241
0.00498235165512
0.0049822676644
0.00498222636685
0.0049822212464
0.0049822313167
0.00498224547917
0.00498226537489
0.0049822965709
0.00498232541528
0.00498234481605
0.00498236053488
0.00498237896818
0.00498239844008
0.00498242119642
0.0049824494478
0.00498247864457
0.00498252267862
0.00498256401574
0.00498258643891
0.00498244638414
0.00498241672608
0.00498233366041
0.00498228943056
0.00498228450628
0.00498229727848
0.00498231851081
0.00498235333064
0.00498239722682
0.00498243119189
0.00498245589795
0.00498248392324
0.00498251208848
0.00498254288918
0.00498257956233
0.00498261608057
0.00498266009076
0.00498271816566
0.00498277568045
0.0049828057705
0.00498252116949
0.00498247403022
0.00498236326195
0.00498232054758
0.00498232498786
0.00498234864672
0.00498238678712
0.00498244303329
0.00498249634247
0.00498253163315
0.00498256891589
0.00498260552727
0.00498264556696
0.00498268768009
0.00498273134113
0.00498278309916
0.0049828384009
0.00498290918002
0.0049829753179
0.00498301349771
0.00498259773724
0.00498252022653
0.00498237834897
0.00498233972413
0.00498235756697
0.00498240050456
0.00498246693584
0.00498253950644
0.00498258932902
0.004982636138
0.00498268100526
0.00498273011955
0.00498278029909
0.00498283190969
0.00498288723922
0.00498294293214
0.00498301047659
0.00498308912111
0.00498315790573
0.00498319717511
0.00498267707226
0.004982547147
0.00498237785145
0.00498235315739
0.00498239732285
0.00498247808383
0.0049825716968
0.00498264059984
0.00498269773391
0.00498275004124
0.00498280761086
0.00498286473345
0.00498292297701
0.00498298372974
0.00498304300484
0.004983107194
0.00498317637237
0.00498325799203
0.00498332246453
0.00498336232765
0.00498275007895
0.00498258038668
0.0049824002855
0.0049824051819
0.00498249926508
0.0049826183151
0.00498270857443
0.00498277738027
0.00498283660177
0.00498290153257
0.00498296385266
0.00498302683005
0.00498309149267
0.00498315337909
0.00498321844236
0.00498328101426
0.00498335452581
0.00498342678139
0.00498348459931
0.00498352300937
0.00498283296812
0.0049826968997
0.00498254802356
0.00498260016556
0.00498273563186
0.00498284373602
0.00498291984591
0.00498298152515
0.00498304963107
0.00498311303558
0.00498317747683
0.0049832431359
0.00498330513948
0.00498337019418
0.0049834299936
0.00498349208738
0.00498355372071
0.00498361628606
0.00498366755187
0.00498370463433
0.00498311605203
0.00498304922624
0.00498291336022
0.00498297883003
0.00498308915751
0.00498317047676
0.00498323039231
0.00498329402616
0.00498335738621
0.00498341731427
0.00498348325195
0.00498354094265
0.0049836045884
0.00498365867623
0.00498371414517
0.00498376238632
0.00498381063382
0.00498385299002
0.00498389249305
0.00498392228374
0.00498388861472
0.00498387940348
0.00498370017564
0.00498369768188
0.00498374691913
0.00498378676525
0.00498382432019
0.00498386487009
0.00498389981837
0.0049839408496
0.00498397527863
0.00498401457945
0.00498404661384
0.00498407917694
0.00498410361137
0.00498412530592
0.00498414076623
0.00498415517965
0.00498416862425
0.00498417976328
0.00498536286225
0.0049853679617
0.00498520159543
0.0049851527511
0.00498512184027
0.00498508108982
0.0049850261759
0.00498494965524
0.00498486468029
0.00498478407761
0.00498472053587
0.00498467126483
0.00498463468387
0.00498460410344
0.00498457803394
0.00498455372878
0.00498453183951
0.00498451200178
0.00498449228767
0.00498447463303
0.00498595884726
0.00498597661135
0.00498593391534
0.00498590719848
0.00498588167997
0.0049858488655
0.00498580183387
0.00498573606736
0.00498564495436
0.00498553240104
0.00498541312012
0.00498529999039
0.00498520017704
0.00498511463338
0.00498504111993
0.00498497717308
0.00498492058639
0.00498487033984
0.00498482623688
0.00498478493863
0.00498581622233
0.0049858173259
0.00498581804553
0.00498581863797
0.00498581912937
0.00498581948901
0.00498581970086
0.00498581975285
0.00498581307581
0.00498578460288
0.00498573147725
0.00498565635997
0.00498556710477
0.00498547449881
0.0049853872361
0.00498530823247
0.00498523703285
0.00498517318629
0.00498511682308
0.00498506797847
0.00498582913148
0.00498582925673
0.00498582929863
0.00498582938284
0.00498582949759
0.00498582963591
0.00498582979246
0.00498582996255
0.00498583010841
0.00498582633557
0.00498581108066
0.00498578023779
0.00498573271869
0.00498567009247
0.00498559878437
0.00498552794299
0.00498546196164
0.00498540135073
0.00498534710122
0.00498529851564
0.0049858395621
0.00498583967921
0.00498583973861
0.00498583978532
0.00498583983792
0.0049858398979
0.00498583997112
0.00498584005412
0.00498584015199
0.0049858397213
0.00498583450092
0.0049858207033
0.00498579664053
0.00498576123365
0.00498571567534
0.00498566488277
0.00498561449623
0.00498556676716
0.00498552192877
0.00498548192881
0.00498584990189
0.00498584998307
0.00498585001683
0.00498585004606
0.00498585009348
0.00498585015276
0.00498585022349
0.00498585031619
0.00498585045153
0.00498585028588
0.00498584763518
0.00498584023111
0.00498582661735
0.00498580632374
0.00498578090708
0.00498575141291
0.00498572012969
0.00498568816039
0.00498565838338
0.00498562977915
0.00498585988689
0.00498585993643
0.0049858599238
0.00498585991102
0.00498585992528
0.00498585995839
0.00498586000347
0.00498586007946
0.00498586021452
0.00498585991683
0.0049858589229
0.0049858560411
0.00498584986345
0.00498584048085
0.00498583024259
0.00498581883033
0.00498580444851
0.00498578904589
0.00498577319565
0.00498575936524
0.00498587013864
0.004985870092
0.00498586995982
0.00498586979288
0.00498586965539
0.00498586954739
0.00498586945947
0.00498586939768
0.00498586935999
0.00498586895633
0.00498586976712
0.00498587041891
0.00498587024884
0.00498587028042
0.00498587390649
0.00498588013558
0.00498588288321
0.00498588181062
0.0049858814332
0.0049858796899
0.00498588335929
0.0049858829463
0.0049858817669
0.00498588083029
0.00498588017894
0.00498587974587
0.00498587950553
0.00498587950741
0.00498588010006
0.00498588222158
0.00498588526675
0.00498588938264
0.00498589510509
0.00498590628635
0.00498592779721
0.00498595207786
0.00498596731635
0.00498598109119
0.00498599296516
0.00498600410977
0.00498591841314
0.00498591838731
0.00498591011491
0.00498591050214
0.00498591324295
0.00498591564212
0.00498591776949
0.0049859196856
0.00498592099662
0.00498592358686
0.00498592809515
0.00498593519771
0.00498594819263
0.00498597542184
0.00498601539606
0.00498604771016
0.00498607385303
0.00498609780266
0.00498612095173
0.00498614566402
0.00498597193764
0.0049859689377
0.00498594627276
0.00498594790624
0.00498595636087
0.00498596482138
0.0049859719703
0.00498597816227
0.00498598455289
0.00498599135559
0.00498600017204
0.00498601440961
0.00498604359076
0.00498609212043
0.00498613976191
0.00498617668656
0.00498621065548
0.00498624756309
0.00498628582854
0.00498631566225
0.00498604292509
0.00498601872656
0.00498599020895