/*--------------------------------*- C++ -*----------------------------------*\
| =========                 |                                                 |
| \\      /  F ield         | OpenFOAM: The Open Source CFD Toolbox           |
|  \\    /   O peration     | Version:  2312                                  |
|   \\  /    A nd           | Website:  www.openfoam.com                      |
|    \\/     M anipulation  |                                                 |
\*---------------------------------------------------------------------------*/
FoamFile
{
    version     2.0;
    format      ascii;
    arch        "LSB;label=32;scalar=64";
    class       volScalarField;
    location    "0.07/water";
    object      alpha.gas_0;
}
// * * * * * * * * * * * * * * * * * * * * * * * * * * * * * * * * * * * * * //

dimensions      [0 0 0 0 0 0 0];

internalField   nonuniform List<scalar> 
6000
(
0.221165970248
0.139480753101
0.0411175647973
0.0108754871708
0.00215662506191
0.000336233452814
3.83277867619e-05
2.59303823541e-06
4.3508277473e-08
2.73972797563e-10
1.13008726997e-12
4.36542321236e-15
1e-15
1e-15
1e-15
1e-15
1e-15
1e-15
1e-15
1e-15
0.622388784316
0.308464824961
0.147679665571
0.0581800412498
0.0202336169557
0.00542147670075
0.00110663985856
0.000174608101174
2.2767754661e-05
1.313781416e-06
1.25562276888e-08
3.11745762651e-11
4.30341921179e-14
1e-15
1e-15
1e-15
1e-15
1e-15
1e-15
1e-15
0.621451382759
0.377959065433
0.209856278561
0.101614194592
0.0436753046543
0.0152359722575
0.00411602907546
0.000890824913737
0.000172049676851
2.41357683833e-05
8.38657203357e-07
2.16315355942e-09
2.03394149486e-12
2.3642812537e-15
1e-15
1e-15
1e-15
1e-15
1e-15
1e-15
0.621900761596
0.4385951836
0.272058110965
0.148768968864
0.0729054513805
0.0304001975098
0.0102283761868
0.00282045917035
0.000713399425916
0.000147442455001
1.31321871283e-05
7.23378543584e-08
5.73292666594e-11
3.06817719739e-14
1e-15
1e-15
1e-15
1e-15
1e-15
1e-15
0.61690298717
0.4803607331
0.333081747002
0.20356686591
0.111384984509
0.0534399593864
0.0215905278941
0.007295827004
0.00219988400601
0.000541718703703
6.75194203927e-05
1.18526714968e-06
7.92399102057e-10
3.26436174834e-13
1.16538759427e-15
1e-15
1e-15
1e-15
1e-15
1e-15
0.604552451917
0.504928566872
0.385417956072
0.263253609273
0.161736628089
0.0889754485538
0.0427854043272
0.0174789816728
0.00598068041001
0.00153332033567
0.000203415710704
5.88851897268e-06
4.72792992533e-09
2.81088692414e-12
3.6664251549e-15
1e-15
1e-15
1e-15
1e-15
1e-15
0.593727501925
0.513975943155
0.419804850629
0.315985206787
0.218039224058
0.137910990928
0.0790514623425
0.0392109704372
0.0153060027166
0.00393707795754
0.000493057699027
1.80936175981e-05
4.45540202371e-08
5.02518992876e-11
5.66635171483e-14
1.04564982623e-15
1.00109536336e-15
1e-15
1e-15
1e-15
0.591855527201
0.513601457764
0.43218714318
0.348018583099
0.265564764972
0.19171070074
0.129798255504
0.0774573652173
0.0351403419974
0.00952155090678
0.00116440401506
5.31600404344e-05
6.34978966623e-07
1.13154123779e-09
1.08598693981e-12
1.81435858121e-15
1.05040926084e-15
1.00778147663e-15
1.00086095969e-15
1.00007874166e-15
0.587512214733
0.506630548455
0.435843731046
0.366107781903
0.30126112098
0.242541835151
0.188024247764
0.129854589445
0.0675689845261
0.0204265319093
0.00276773009606
0.000173442591954
5.89776576273e-06
2.37989459293e-08
1.92542177971e-11
1.29397119366e-14
1.85056819716e-15
1.15246621636e-15
1.01865412932e-15
1.00216572817e-15
0.581847247409
0.493369875624
0.433411392374
0.37780351318
0.330982425705
0.290129862898
0.246442822458
0.185793270327
0.106644315047
0.0371179266818
0.00637074754569
0.00060845201643
3.7155866428e-05
4.93841054088e-07
3.02536489928e-10
1.59842343761e-13
1.27194279787e-14
3.3616970818e-15
1.32236019653e-15
1.02840580826e-15
0.581672186242
0.482241085732
0.42960192521
0.389891371588
0.362932154885
0.338829067512
0.301909698996
0.236042723422
0.144546715594
0.0591966080645
0.0141584270751
0.00216214938673
0.000198331105748
5.18939859661e-06
4.16158390698e-09
1.54074250224e-12
1.4068202091e-13
3.23905509824e-14
5.92328422916e-15
1.49558400464e-15
0.58179739408
0.475846892966
0.429266580523
0.40746071731
0.400469290959
0.389390904379
0.353196580226
0.278679062419
0.180107407972
0.0881139644101
0.0304245135576
0.00738174916175
0.000982156772147
3.78905749277e-05
1.19391209924e-07
1.69344153966e-11
1.47885545638e-12
3.63212132017e-13
6.55654251716e-14
8.60498341794e-15
0.582246740176
0.472609761965
0.434132336696
0.429338493645
0.433917812335
0.428766833973
0.390948329812
0.311151071743
0.212625947959
0.123701440475
0.0602297905503
0.0222597890234
0.00426580383834
0.000225116896009
1.52672548751e-06
1.9251428642e-10
1.4019438684e-11
3.68264876074e-12
7.33851115304e-13
1.00432218046e-13
0.582669433313
0.471051006714
0.448580068564
0.448599419025
0.454442283676
0.445466830702
0.401495444223
0.324441258567
0.235405595242
0.160131619942
0.104111896538
0.0543879511343
0.0144021850982
0.00100168192014
9.88834904814e-06
2.06305391002e-09
1.19186296157e-10
3.31490858945e-11
7.25367624936e-12
1.11698892517e-12
0.584466234564
0.470357319486
0.463784039129
0.463125963308
0.464351718275
0.447478441395
0.398911395156
0.322465967806
0.245113386816
0.192419325217
0.156002493605
0.10310580929
0.034255793707
0.00295167083247
3.82234599814e-05
3.58322129721e-08
9.0100517286e-10
2.63459351298e-10
6.28119918362e-11
1.0841190667e-11
0.589307599327
0.471012910758
0.472042729834
0.473436148598
0.46906258627
0.443788696727
0.388414307791
0.312499706192
0.248565323375
0.223678374091
0.207932296427
0.152674094322
0.0560338992417
0.00571611149441
0.000103985699196
3.00028669961e-07
6.08274355219e-09
1.84025153851e-09
4.76645163808e-10
9.17655341329e-11
0.587896660227
0.476115435177
0.477823125338
0.480220962834
0.469068521944
0.43197491749
0.367671090114
0.297214387125
0.257397868644
0.258866091047
0.253470789428
0.186161957949
0.0710102902749
0.00914536055199
0.000298048114405
2.5579433278e-06
3.87836814755e-08
1.14355017144e-08
3.19214602133e-09
6.83897904651e-10
0.590272704767
0.489590771041
0.486790173959
0.485956802444
0.466423861291
0.415468061698
0.347446597664
0.295051719686
0.284665494825
0.302484696996
0.29162517336
0.20712839129
0.0866760342214
0.0167192657229
0.00122142793694
2.32099094196e-05
2.82167540051e-07
6.5321165093e-08
1.93089018439e-08
4.57377735119e-09
0.587896660227
0.510796764752
0.507069286423
0.498001052498
0.466992779316
0.407912013611
0.346518180617
0.313580543111
0.330210042862
0.351921240903
0.321691279623
0.229139534994
0.120362506575
0.0408130228586
0.00604395829108
0.000183055869428
2.2452408428e-06
3.73346725492e-07
1.09495384603e-07
2.81376690767e-08
0.591182996057
0.53396426673
0.536640341014
0.520785243577
0.476531095446
0.413626124662
0.362713583899
0.361723804289
0.383979372486
0.383253835622
0.335825239105
0.259467300054
0.187489182842
0.10638763433
0.0259775038451
0.00115550464729
1.45922727333e-05
2.29967405512e-06
6.09058068001e-07
1.6285014968e-07
0.587912245847
0.551944626404
0.562005418552
0.5478384091
0.503254837882
0.442991572052
0.40713603239
0.411690134667
0.413503940735
0.386464733102
0.333131796405
0.292246461794
0.275476052458
0.217014655029
0.0786212358753
0.00564332759637
8.66499869056e-05
1.29554467616e-05
3.34444579991e-06
8.90808865238e-07
0.592471612563
0.560320018488
0.566859376723
0.564651000871
0.536909598538
0.489255219284
0.453666221735
0.436253612961
0.415813755313
0.378347650425
0.323220107205
0.316451005969
0.348842485031
0.312918509459
0.152628605544
0.018974253711
0.000466640001086
5.45881253513e-05
1.60273126857e-05
4.41359577688e-06
0.588104106475
0.56193233777
0.566552729437
0.566871955927
0.552136489058
0.514147591298
0.470873236242
0.438615289336
0.410125965854
0.360589844967
0.304216441659
0.314617464977
0.361665449399
0.349320040093
0.205631230303
0.0390101376716
0.00163496095334
0.000179068646749
5.92711734672e-05
1.8290407681e-05
0.592404152227
0.561095432071
0.567633175577
0.566687237086
0.553985487788
0.51598040263
0.470623119932
0.43419329131
0.392901975363
0.331259593985
0.284819376508
0.304138251469
0.36160928777
0.355581302323
0.22305722245
0.0531496242484
0.00340653326718
0.000466979969688
0.000172444688722
6.0502094822e-05
0.588034434452
0.559819633392
0.566694569158
0.567187102118
0.553556620552
0.512947705067
0.463556277839
0.417962687204
0.362081115126
0.295817974455
0.282993252844
0.286956329442
0.351684310353
0.353163851806
0.225652718885
0.0560532813636
0.00490335046399
0.000996491376445
0.000412473540048
0.000162746379276
0.590742356419
0.558987471903
0.567739630387
0.566866714006
0.550931935909
0.502356209427
0.444130358398
0.387255705871
0.322377245456
0.283114766873
0.283213503062
0.282580996474
0.328650114826
0.348027270317
0.223991201194
0.0547785255895
0.00614833157443
0.00183647380403
0.000846067872813
0.000372501631398
0.587896660227
0.559016030844
0.566870286885
0.56737671879
0.547045051636
0.488325605817
0.417522541336
0.350975197498
0.289477085834
0.283213503062
0.282057199814
0.283213503062
0.303679961365
0.347021575433
0.217941206978
0.0501127116902
0.00767299114394
0.00308797802373
0.00155936020189
0.000762613405157
0.589079746804
0.558213514625
0.567848238357
0.567043385608
0.545517550748
0.483216014428
0.403078502192
0.328677086524
0.283213503062
0.282467207319
0.283213503062
0.281068916273
0.304054255151
0.359134784284
0.215412030853
0.0479538338021
0.0104138302021
0.00497265642191
0.00271244001194
0.00145909736593
0.587896660227
0.558888543622
0.567047397942
0.567699444056
0.54667697633
0.485048285551
0.403779198207
0.326743270167
0.283035484345
0.283213503062
0.281068916273
0.283213503062
0.361962478736
0.403370610057
0.223953257122
0.0529245841588
0.0158248531276
0.00800661157409
0.00461976035656
0.00268096235687
0.585174277496
0.558258603768
0.567889615178
0.5672449462
0.549710072472
0.490585274204
0.408965222167
0.32919371151
0.283213503062
0.281745286597
0.283213503062
0.300229711755
0.519285469501
0.476705952223
0.264783309843
0.0776004805398
0.0264689370993
0.0131717504218
0.00776489170051
0.00474212157366
0.582439820224
0.559063790728
0.567246918051
0.567742812414
0.553007306503
0.498149517095
0.418495580873
0.336661790365
0.282858052895
0.283213503062
0.281475544454
0.479681161285
0.568056965559
0.55606325416
0.350808485849
0.126167977248
0.0444858917412
0.0216998810535
0.0126242019118
0.0079089201552
0.582376970471
0.559764193469
0.567766176019
0.567446045294
0.55482317106
0.50500590061
0.430439819305
0.351105280317
0.287519883234
0.290104029248
0.416713494151
0.568056965559
0.571450296416
0.568056965559
0.423952090398
0.181997014926
0.0670870282895
0.0333726858922
0.019182257324
0.0121066542447
0.582413150126
0.558063127287
0.567458934347
0.567643062266
0.554387411915
0.509634818686
0.442710138329
0.374349820728
0.328546654011
0.372209489305
0.549228365451
0.57178314482
0.568056965559
0.569913337591
0.461041453629
0.225060112993
0.087117287994
0.0451609761626
0.0264412830315
0.0167868024902
0.582327080305
0.554251998775
0.567605473417
0.567479625047
0.553987447696
0.513626242291
0.455319639047
0.40162890651
0.385549890167
0.450904554791
0.569653340408
0.568056965559
0.571737653773
0.568056965559
0.479043192083
0.253130519414
0.101543341396
0.0540786591198
0.0329275094288
0.0212345597579
0.58105960671
0.549537079575
0.567002573785
0.567487797656
0.554026134792
0.518100637171
0.468108519889
0.424090752009
0.418561003637
0.485101946286
0.568056965559
0.572010594142
0.568056965559
0.57005642269
0.489953249234
0.273065881692
0.112325331367
0.0601575607114
0.0380621906352
0.0250798615324
0.577548159748
0.544628721259
0.563164310461
0.567495968882
0.554573235053
0.523244454173
0.479553626494
0.440177404426
0.437378865301
0.503350072333
0.570503593092
0.568056965559
0.571822939507
0.568056965559
0.499173923502
0.291093554908
0.122435588226
0.0648662045848
0.0422479937919
0.0284813005276
0.574845620715
0.544386647469
0.558163600035
0.567504138726
0.556684177076
0.529673032033
0.489790022504
0.453550477317
0.454330366826
0.522194680706
0.568056965559
0.572063639479
0.568056965559
0.570176411266
0.509473241909
0.312033408002
0.134785981767
0.0695390611996
0.0460958741428
0.0318477222065
0.575443913943
0.544442674424
0.56048031471
0.572772771105
0.563782185681
0.537716618571
0.498584986424
0.465576961809
0.471400459686
0.539584442033
0.570712449363
0.568056965559
0.571822332627
0.568056965559
0.522525583319
0.339081932208
0.152426664358
0.0753584920729
0.0500560939516
0.0355305244223
0.59228705509
0.569266759358
0.583386773136
0.595611758601
0.580794804892
0.547456121192
0.505147437947
0.474279741927
0.484147740123
0.551443894557
0.568056965559
0.571848444888
0.568056965559
0.570214449248
0.536815031828
0.371282196573
0.177112543412
0.0835730891087
0.054350739918
0.0395925393202
0.659876132838
0.627506918486
0.632450761766
0.635068762637
0.606068896333
0.559939483439
0.510740415705
0.477697338004
0.487835299064
0.55244578041
0.570153219246
0.568056965559
0.571568788198
0.568056965559
0.547654320763
0.400297979597
0.205435296336
0.0947721770747
0.0589249197163
0.0436631008275
0.671736306013
0.667658516786
0.668309302248
0.666547793124
0.632334338274
0.577321944562
0.517696395382
0.477969171987
0.486048011155
0.548018445141
0.568056965559
0.571236241657
0.568056965559
0.56999190952
0.551128307695
0.415503710765
0.227829038995
0.106942955452
0.0633332020185
0.0469741265705
0.668323386564
0.66922329152
0.667919465904
0.668707882678
0.649897325621
0.594933215374
0.524316335207
0.475594155388
0.476161947597
0.529307372755
0.569040380243
0.568056965559
0.570925242955
0.568056965559
0.550409781031
0.416816735056
0.236179188717
0.115376291399
0.0665827136726
0.0487687158085
0.673470821992
0.668317558557
0.669693737757
0.667919465904
0.656359955629
0.602118937973
0.524829651215
0.464768073475
0.450676810667
0.494498160461
0.56797818538
0.57005843589
0.568056965559
0.569339073491
0.544436892659
0.409128171888
0.234249525223
0.117365405282
0.067639762522
0.0490817222093
0.668323386564
0.669722919602
0.667919465904
0.669073777586
0.657162213881
0.600308879487
0.516940976988
0.441074195256
0.41001465906
0.446045884301
0.547448139836
0.568056965559
0.569579643561
0.568056965559
0.525551912274
0.380877455365
0.220277165489
0.114692930393
0.0669470691066
0.0484273555816
0.67359651474
0.66796846882
0.669775534352
0.667919465904
0.655264231477
0.589396393282
0.494483844677
0.405110294457
0.358822102795
0.38440598203
0.492653387865
0.566951883266
0.568056965559
0.567220780283
0.484765475287
0.331480453673
0.191829708193
0.104345197819
0.0627912351672
0.0455110669507
0.668046625585
0.669345756834
0.667919465904
0.668916986964
0.649112043764
0.569340144357
0.463104492222
0.363547580995
0.302462345658
0.315477815515
0.411405580625
0.524915439268
0.55080686068
0.5257328887
0.418793787018
0.27483387191
0.157892420723
0.0875453458465
0.054422171431
0.039858300242
0.673363804033
0.667919465904
0.669636087621
0.667919465904
0.641121626268
0.549377858371
0.434772584574
0.326818838172
0.249588263382
0.247667049548
0.310823856204
0.425998405337
0.468609271186
0.435859247968
0.34189427288
0.223752246106
0.126878851775
0.0695346793645
0.0441502793016
0.0326652166432
0.667919465904
0.668550559643
0.667919465904
0.668278370991
0.633111389635
0.534308094409
0.414716895375
0.301491148336
0.214904857749
0.192664929772
0.219107888738
0.295693869961
0.343989919761
0.32856761527
0.272048885427
0.184411859376
0.101949016798
0.0538889712714
0.0345804324645
0.0256329776502
0.672248094235
0.667919465904
0.668635429914
0.667535202774
0.622972814734
0.519972519936
0.398348196051
0.282341841594
0.195493612363
0.178510011295
0.179042115196
0.199511725541
0.234652845126
0.244294183616
0.220352272195
0.155759242501
0.0823424503627
0.0418239786008
0.0271270864244
0.0199333843256
0.667919465904
0.659704327284
0.667535202774
0.660696346379
0.602508039819
0.497897292857
0.37669352077
0.261043472176
0.184001301199
0.178531770744
0.17810506328
0.178470839144
0.181824749489
0.197233571645
0.187524675456
0.133543460085
0.0661422042982
0.0332700614498
0.021982266797
0.0158435992725
0.670935941728
0.636285265562
0.653203839768
0.631726739178
0.564010727678
0.459547193283
0.341317147126
0.230755317941
0.178556517324
0.178155694527
0.178470839144
0.177561684607
0.178388922411
0.178149046804
0.170007312891
0.113102249393
0.0520759965856
0.0275626961213
0.0185783077668
0.0130644581752
0.667535202774
0.596025271824
0.606657220647
0.574999425015
0.50211837059
0.400232215887
0.289330952034
0.195431503035
0.178351539389
0.178531770744
0.177451565768
0.178470839144
0.177406402577
0.178114379791
0.159344836633
0.0915282430373
0.0409385303303
0.0239467445974
0.0163405075356
0.0113121686513
0.668479056252
0.536210970743
0.527639912286
0.487251399327
0.41641260286
0.323498048628
0.22824131754
0.178726606439
0.178612457661
0.177482896096
0.178531770744
0.177406712107
0.186089956294
0.203602755361
0.156296602734
0.0739035437303
0.0347346571338
0.0220679259525
0.0152067202824
0.0105359778128
0.645646533157
0.462986997312
0.441077005473
0.396698230623
0.332594893514
0.253770249333
0.185010452646
0.178704122708
0.17751790055
0.178612457661
0.177439895765
0.211551621803
0.286040870776
0.260573310788
0.162698301096
0.0716309873596
0.0340048233585
0.021817429726
0.0151506120838
0.0105274420995
0.556912982936
0.406742954886
0.403340052509
0.371748517154
0.307905407188
0.234680218454
0.179714853025
0.177917955749
0.178704122708
0.177680449187
0.242803422182
0.3681436777
0.418305541121
0.352730987218
0.225613852612
0.100146730705
0.0412633865372
0.0238095136049
0.0165423505927
0.0115687620715
0.468568458094
0.418580065291
0.424994106647
0.398753139196
0.3334018823
0.26080791079
0.214612165855
0.211650133205
0.227354228062
0.284849022184
0.386858725552
0.449084649498
0.455490239293
0.439965630977
0.376798303862
0.231850392599
0.0918503154534
0.0361527641685
0.0216733626933
0.0150388655074
0.489168082768
0.520732759282
0.538982858077
0.525275875088
0.47548490486
0.42313083703
0.403645408467
0.415370577262
0.444418862654
0.46654395467
0.465585575065
0.457047578689
0.455705468522
0.459647899118
0.462424798364
0.41577400634
0.247426554761
0.0897096650698
0.0356942748591
0.0219467379799
0.61442288228
0.670421146235
0.683028972252
0.685812225881
0.673404824341
0.658247035113
0.655214371962
0.66204190123
0.667999353718
0.642411696432
0.565003491561
0.487216167206
0.457708028098
0.457582086945
0.468985054961
0.478060965487
0.409638976995
0.219968064923
0.0746337173841
0.0342004787832
0.722260273517
0.732515958063
0.737167215011
0.737636217027
0.738794437167
0.737636217027
0.738267428718
0.737523951828
0.737751609415
0.73192845238
0.689192017821
0.5933387687
0.491829655309
0.457461269687
0.468295896461
0.483701031656
0.464582100199
0.343183389383
0.148365061774
0.0547976830393
0.737636217027
0.737963053901
0.737636217027
0.739551336007
0.737649571212
0.739593102687
0.737636217027
0.739112200668
0.737636217027
0.738299492557
0.734043335189
0.678639174829
0.561729727353
0.473308813533
0.473084064661
0.488101759036
0.476916959151
0.391866192777
0.217909671651
0.0823532971595
0.738237821523
0.737636217027
0.738632814609
0.737649571212
0.739997679809
0.737649571212
0.739374642866
0.737636217027
0.738714181139
0.737636217027
0.735825672482
0.689148641147
0.593049452878
0.502475939531
0.486254984072
0.49513967702
0.482117483211
0.402947675836
0.24898238681
0.105620649854
0.737636217027
0.737537731127
0.737649571212
0.739181911516
0.737649571212
0.739412727636
0.737649571212
0.738778243882
0.737636217027
0.737909234217
0.729104388087
0.678235610729
0.589671930799
0.514345969208
0.49942084992
0.502167653488
0.482658507789
0.400993076441
0.252702017627
0.114760960178
0.737585440307
0.730494373862
0.737875431166
0.737649571212
0.739829621692
0.737649571212
0.738866140024
0.737649571212
0.73803198536
0.735029387875
0.705218638548
0.644977181291
0.569101412848
0.514033841909
0.508416135527
0.50568402104
0.476232866019
0.383783404125
0.241257617647
0.113559775203
0.726587343234
0.716433921321
0.73100955814
0.738400005582
0.737649571212
0.73886982534
0.737649571212
0.738101079954
0.733982559391
0.712317859432
0.662051405452
0.59805249365
0.539611336164
0.51323556231
0.51300516963
0.504683387777
0.457570021941
0.349233581865
0.211825799387
0.103048200682
0.711389215508
0.703372327809
0.72068138525
0.737649571212
0.739591707023
0.737649571212
0.738067725201
0.731896646544
0.707735123804
0.663199455741
0.606859672956
0.552075478092
0.518978642688
0.514217836291
0.513812066712
0.495402378345
0.425218205526
0.304486508069
0.176372957239
0.0872044532907
0.704968427092
0.696850803755
0.713791074754
0.737810222984
0.737649571212
0.738079904365
0.733326604522
0.705324545532
0.656861848963
0.603040895689
0.552253557543
0.517744363286
0.510811977813
0.514044518793
0.510772361685
0.473126016129
0.380504396236
0.256395633435
0.143777581943
0.0735002237012
0.70467165054
0.694392785827
0.710525790477
0.735828979625
0.739179997751
0.737649571212
0.718074048349
0.665624022667
0.603520900404
0.548737691433
0.509794230851
0.498747651407
0.505118703182
0.512227466767
0.498808769686
0.437425574085
0.329073141385
0.210884910805
0.116969094598
0.063550802914
0.704490510219
0.693455793711
0.709468794716
0.733515332655
0.737649571212
0.733230714391
0.700245135339
0.635735680341
0.565393490482
0.510439910097
0.48368593085
0.486811211844
0.499825779482
0.503809267148
0.475878375043
0.393437123422
0.278922381684
0.172472922235
0.0965482477055
0.0565613102604
0.704292614872
0.693349799846
0.709821656708
0.733007494733
0.738760469485
0.728304625135
0.692163528529
0.623663084106
0.545638719017
0.487926522912
0.469004996704
0.476441107887
0.491792201675
0.48905867319
0.445842562003
0.349665788572
0.236514821945
0.142869093749
0.0817913759432
0.0516029004148
0.704429935053
0.693401663444
0.71081999237
0.733679308815
0.737649571212
0.72770673286
0.691819858593
0.621787012189
0.537806158489
0.475201622392
0.458110866969
0.465620048656
0.479346485239
0.470935981235
0.41630890998
0.313354771767
0.204309244006
0.121193479496
0.0712655038227
0.0479129762943
0.703848508893
0.693172644168
0.711752683146
0.734467068632
0.738458496712
0.728206381826
0.692418858679
0.621986216926
0.534613636692
0.466692076498
0.446665737477
0.452798241015
0.463754815917
0.452306655271
0.392109437753
0.286675523618
0.181070848681
0.105350114591
0.0635323938073
0.0449174392362
0.703693269412
0.691713579337
0.711647827819
0.73474400208
0.737649571212
0.728616778187
0.692322207104
0.621122607759
0.531479996877
0.45846513861
0.43267416778
0.437093412691
0.446415718468
0.434536181988
0.373160434311
0.267185703933
0.16362028952
0.0931410709397
0.0574784093914
0.0422135374527
0.703450935213
0.687318172951
0.709842099279
0.733282415274
0.737883943358
0.726867878755
0.688638451577
0.615909699351
0.524838660017
0.447276145509
0.415096595057
0.418097367502
0.427518783872
0.416915646162
0.356541703548
0.250636182456
0.148590438969
0.082793254072
0.0523299004815
0.0395257332517
0.703152881897
0.678902966795
0.703935072779
0.728096889617
0.73247828324
0.718879525568
0.676869698267
0.602410070476
0.510853564505
0.429850605614
0.392979369618
0.395579587345
0.407013927991
0.398294515097
0.339092097532
0.233246128963
0.133414654361
0.0731596726057
0.0475981383779
0.036675256311
0.695616260466
0.665255008807
0.692397119777
0.716880962748
0.718209748009
0.701395566584
0.65420457733
0.578231353051
0.486794213307
0.403863390392
0.366265530355
0.370536333742
0.386012275516
0.378477689112
0.318803440799
0.212705174574
0.116830960751
0.0638216278415
0.0430359815765
0.0335771753498
0.678821741275
0.646611464903
0.67540497215
0.697442169181
0.695647985516
0.672879736974
0.619956137844
0.542947126252
0.452727575342
0.3715456407
0.339065763263
0.347565223727
0.366965608414
0.358532224421
0.295610187969
0.188896361054
0.099241572755
0.0550278995141
0.0385873866582
0.0302606283562
0.659454585434
0.626115972446
0.654439578853
0.671925213149
0.666122349166
0.634448644311
0.575887315566
0.498462156867
0.411648740292
0.342537817954
0.329234451831
0.332785490122
0.349865299946
0.339838874207
0.271813048085
0.163961140988
0.0824154106147
0.0473242430171
0.0343355108423
0.0269005136779
0.644791091406
0.612051386068
0.637853746837
0.649155671675
0.633994559344
0.589992442661
0.525576289727
0.448664720728
0.370006122411
0.329787366268
0.329271807981
0.32912325919
0.337377335364
0.325070027212
0.250696301609
0.14100037318
0.0683733001602
0.0411168660738
0.0304840713893
0.0238143018361
0.629035134791
0.610465275911
0.638242680633
0.641550378076
0.610369719829
0.54858830128
0.475814389436
0.401159785143
0.339061089164
0.329271807981
0.328864043994
0.329271807981
0.33023905936
0.318558463566
0.23557440223
0.122602292946
0.0583787615967
0.0365984054657
0.0273499932012
0.0213579921548
0.614635587149
0.61048290779
0.641022402112
0.641379160855
0.6029795391
0.524899806143
0.440214226237
0.36760634711
0.329336527768
0.328959751937
0.329271807981
0.328524204203
0.330223342472
0.319421960447
0.227199503475
0.110806055031
0.0527945413424
0.0338868392957
0.0252623301877
0.0197536189942
0.614489549218
0.615176504629
0.641476796236
0.641106414931
0.604113594607
0.523126593722
0.431116791966
0.356584214121
0.329144772199
0.329271807981
0.328360055937
0.329271807981
0.342455099214
0.329208570111
0.22667087179
0.106844712351
0.0510969713872
0.0329185247689
0.02433592192
0.0189942613454
0.614475459245
0.624785687933
0.640802080891
0.641223690725
0.609505436344
0.529960310445
0.435314312979
0.358052227698
0.329271807981
0.328360055937
0.329271807981
0.337411093471
0.388976479345
0.354976157088
0.233628785835
0.108894125438
0.0515115135959
0.0329332301774
0.0242199257169
0.0188419103036
0.614489549218
0.635885274775
0.641807889706
0.640802080891
0.618616670555
0.549753328881
0.455500279515
0.372036118172
0.328908324425
0.329271807981
0.336755209503
0.407390443984
0.445426930696
0.390948829263
0.258231355051
0.122394259406
0.0553464084391
0.0338934265293
0.0245264577405
0.0189626341571
0.618112714531
0.640415718395
0.640467913623
0.641300950487
0.626970893391
0.572793810548
0.487928774076
0.40378156598
0.348526278428
0.349287899846
0.401289739802
0.476556831371
0.482916108334
0.423770417181
0.293559133956
0.148691069106
0.0647139370549
0.0367445037917
0.0257681012172
0.0196079664829
0.62480478304
0.639604379234
0.642030783533
0.640409708698
0.631656647452
0.584577999436
0.507784316882
0.433374529468
0.390026230384
0.400460955472
0.454320204627
0.501950128488
0.500618710164
0.444516370353
0.321178579592
0.175307278228
0.0771155710972
0.040990562444
0.0278672654504
0.0208574363641
0.628790067742
0.640851438132
0.639604379234
0.641152566409
0.63370510336
0.587524771296
0.510356167237
0.441581665689
0.411453430284
0.423753724813
0.468543110162
0.508500297547
0.507698505278
0.454872511821
0.336111627546
0.193206583447
0.088033842491
0.0450846785104
0.0300041885443
0.0222649193688
0.635614219219
0.639643279128
0.642042397339
0.639604379234
0.634444110499
0.58824653234
0.510077872568
0.441385204476
0.413451716552
0.42630785407
0.471400634799
0.511635356316
0.511335760869
0.459880300147
0.34355288863
0.203564418204
0.0957685805554
0.0481822283188
0.0316363949817
0.0234368688293
0.639828860599
0.64044202626
0.639643279128
0.641054894771
0.634061121541
0.587871650901
0.509073316864
0.440108885358
0.413678282726
0.426413773142
0.4732561557
0.514554396148
0.514194088786
0.462647904596
0.347545167164
0.209759562871
0.101053102141
0.0504085620926
0.0327932614192
0.0243241299755
0.639681072415
0.639417588986
0.641886660817
0.639573894095
0.633944593622
0.587285138413
0.507562836738
0.438130628546
0.413904851394
0.426680930727
0.476015864444
0.518296971243
0.517192500661
0.464364251251
0.349520124425
0.213605720253
0.104827249275
0.0520884813601
0.033653843385
0.0250166501937
0.640461199651
0.637711922873
0.639573894095
0.641008077688
0.634174725818
0.586921147993
0.506100499664
0.4364388261
0.414131422558
0.428136999216
0.480941680075
0.524664189912
0.520939705166
0.465325440956
0.349948563676
0.215879368206
0.107542021687
0.0533874606585
0.0343145309775
0.0255725928774
0.639592624789
0.633872774716
0.641525849301
0.639573894095
0.634381630505
0.586293822353
0.504554392029
0.43532626456
0.414359421231
0.432360856329
0.489116298471
0.53329718277
0.525135764357
0.465855033762
0.349851916107
0.216761486507
0.109281187508
0.0543182932161
0.0347853378791
0.025995639028
0.640878984498
0.629734560188
0.639573894095
0.640695074602
0.6337187556
0.584479758367
0.502068319826
0.434278828608
0.416169935661
0.439698410478
0.500101303043
0.533271763748
0.52744651653
0.466193329091
0.349276777059
0.216711228272
0.110000897556
0.0548154899225
0.0350408510608
0.0262667659043
0.639576584463
0.624358373046
0.640781130271
0.639433346229
0.631599455341
0.580107363945
0.497698310185
0.432658090673
0.420198285139
0.447017989057
0.509904515036
0.533727080459
0.527977929616
0.465493910149
0.34727300404
0.215745307826
0.109950373606
0.0549139794584
0.0351067304534
0.0263834984929
0.640756295829
0.620791814354
0.639433346229
0.640393115195
0.628571488236
0.573479071466
0.491343557234
0.430271729534
0.421849564957
0.452549585252
0.517420588327
0.533271763748
0.527794132413
0.462849218013
0.342912847089
0.212775973821
0.109082143121
0.0547620105519
0.0350835047622
0.0263977275212
0.639576584463
0.617730358378
0.640146432971
0.639174388157
0.625761206218
0.565788061627
0.483560117486
0.427445014231
0.422237130535
0.455804118203
0.521563607498
0.53384830855
0.526661997758
0.458018522002
0.336241025059
0.207566452345
0.106678066279
0.0540577037958
0.0349122832243
0.0263699595305
0.640610677311
0.61489145833
0.639174388157
0.640006246736
0.623148330234
0.558274441508
0.47546710635
0.425027568788
0.422586694706
0.457551094775
0.524250411024
0.533271763748
0.524398200144
0.451498625467
0.328121898736
0.200940767968
0.102973405222
0.0527350338363
0.0345182740343
0.0262531534375
0.639069823015
0.611015264349