/*--------------------------------*- C++ -*----------------------------------*\
| =========                 |                                                 |
| \\      /  F ield         | OpenFOAM: The Open Source CFD Toolbox           |
|  \\    /   O peration     | Version:  2312                                  |
|   \\  /    A nd           | Website:  www.openfoam.com                      |
|    \\/     M anipulation  |                                                 |
\*---------------------------------------------------------------------------*/
FoamFile
{
    version     2.0;
    format      ascii;
    arch        "LSB;label=32;scalar=64";
    class       volScalarField;
    location    "0.2/water";
    object      d.gas;
}
// * * * * * * * * * * * * * * * * * * * * * * * * * * * * * * * * * * * * * //

dimensions      [0 1 0 0 0 0 0];

internalField   nonuniform List<scalar> 
1503
(
0.00497195530168
0.00497201766715
0.00497203404706
0.00497204639264
0.00497205679336
0.00497206600857
0.00497207440009
0.00497208197945
0.00497208867873
0.00497209452337
0.00497209953993
0.00497210377766
0.00497210731176
0.00497211021667
0.00497211255439
0.00497211437777
0.00497211572999
0.00497211664695
0.0049721171557
0.00497211727845
0.00497226626555
0.00497229662472
0.00497229374337
0.00497229325074
0.00497229753022
0.00497230138114
0.00497230503338
0.00497230858124
0.00497231214136
0.00497231560791
0.00497231875224
0.00497232148315
0.00497232383262
0.00497232584146
0.00497232752487
0.00497232888267
0.0049723299083
0.00497233059574
0.00497233093925
0.00497233093604
0.00497254284765
0.00497257433038
0.00497256179978
0.00497255197717
0.00497254918624
0.00497254695258
0.00497254525704
0.00497254429748
0.00497254400267
0.00497254424584
0.00497254480698
0.00497254542713
0.00497254596784
0.00497254640811
0.00497254675171
0.00497254699102
0.00497254710411
0.0049725470631
0.00497254683806
0.00497254640491
0.00497277897778
0.0049728005721
0.00497278706645
0.00497278050727
0.004972780254
0.00497277914754
0.00497277722009
0.0049727752405
0.00497277354076
0.00497277219591
0.00497277118039
0.00497277036069
0.00497276958889
0.00497276879869
0.0049727679843
0.00497276715309
0.00497276630304
0.00497276542235
0.00497276449151
0.00497276349284
0.0049730136343
0.00497302822592
0.00497301041679
0.00497300351778
0.0049730039382
0.00497300396857
0.00497300272198
0.00497300085606
0.0049729989346
0.00497299712581
0.00497299545626
0.00497299389475
0.00497299236209
0.00497299080307
0.00497298921148
0.00497298760717
0.00497298600996
0.00497298443285
0.00497298287963
0.00497298135283
0.00497324007486
0.00497325515554
0.0049732364359
0.00497322842262
0.00497322760499
0.00497322762151
0.00497322679727
0.00497322502364
0.00497322283719
0.00497322060332
0.00497321839532
0.0049732162229
0.00497321406042
0.00497321187921
0.00497320967571
0.00497320747153
0.00497320529477
0.00497320317169
0.00497320112143
0.00497319916149
0.00497347692526
0.00497349270236
0.00497347217685
0.00497346221938
0.00497345842023
0.00497345594423
0.00497345350614
0.0049734505979
0.0049734472642
0.00497344392251
0.00497344072049
0.00497343764575
0.00497343467638
0.00497343178851
0.00497342896548
0.00497342621206
0.00497342354508
0.00497342098638
0.0049734185554
0.0049734162724
0.00497369560383
0.00497371303865
0.00497369835659
0.00497369007811
0.00497368587123
0.00497368192757
0.0049736779677
0.0049736738493
0.00497366943572
0.00497366498803
0.00497366079242
0.00497365685411
0.00497365314172
0.00497364963224
0.00497364629957
0.00497364312941
0.00497364012122
0.00497363728481
0.00497363463185
0.00497363217904
0.00497392593864
0.00497393945151
0.0049739190815
0.00497390980889
0.00497390511673
0.00497390026836
0.00497389543649
0.0049738907174
0.00497388591836
0.00497388104727
0.004973876395
0.00497387206095
0.00497386802
0.00497386425708
0.00497386074623
0.00497385746343
0.00497385439611
0.00497385154443
0.00497384891322
0.00497384651294
0.0049741149508
0.00497413110316
0.00497411509673
0.00497411032579
0.00497410918335
0.00497410685321
0.0049741032868
0.00497409932697
0.00497409518574
0.00497409080435
0.00497408639926
0.00497408223949
0.00497407840362
0.00497407489333
0.00497407166992
0.00497406870015
0.00497406596276
0.00497406345045
0.00497406116215
0.00497405910004
0.00497432802596
0.00497434527478
0.0049743237352
0.00497431479978
0.00497431141014
0.00497430816361
0.00497430444193
0.00497430084727
0.00497429748036
0.00497429405389
0.00497429048243
0.00497428702957
0.00497428393686
0.00497428124322
0.00497427885924
0.00497427671376
0.00497427477212
0.00497427301913
0.00497427144518
0.00497427004389
0.00497447993666
0.00497450492252
0.00497449430094
0.00497449081495
0.0049744917389
0.00497449229864
0.00497449219022
0.00497449170251
0.00497449090661
0.00497448962875
0.00497448786105
0.00497448603261
0.0049744845231
0.00497448344141
0.00497448261648
0.00497448191197
0.00497448129092
0.0049744807425
0.00497448025444
0.00497447981944
0.0049746660945
0.00497469931728
0.0049746888174
0.00497468191914
0.00497468081225
0.00497468123809
0.00497468219322
0.00497468291535
0.00497468309586
0.0049746826385
0.00497468189343
0.00497468154037
0.00497468197417
0.004974683085
0.00497468441394
0.00497468567118
0.00497468679429
0.00497468778281
0.00497468863215
0.004974689346
0.00497483130187
0.00497486844516
0.00497486102822
0.00497485884193
0.00497486236332
0.00497486680005
0.00497487108987
0.00497487437386
0.00497487582373
0.00497487582798
0.00497487571175
0.00497487675229
0.00497487929869
0.00497488297308
0.00497488686921
0.00497489037545
0.00497489340035
0.00497489598199
0.00497489815257
0.00497489994347
0.00497503114426
0.00497507338739
0.00497506029795
0.00497505669149
0.00497506121905
0.00497506742028
0.00497507314776
0.0049750768422
0.00497507790462
0.00497507740408
0.00497507712313
0.00497507862523
0.00497508250739
0.00497508819604
0.00497509426077
0.00497509957423
0.00497510402994
0.00497510771937
0.00497511072528
0.00497511311946
0.00497524214576
0.00497528668751
0.00497527519462
0.00497527389188
0.00497528100754
0.0049752886611
0.00497529446754
0.00497529721872
0.00497529716331
0.00497529580422
0.0049752946842
0.00497529513062
0.00497529855164
0.00497530464251
0.00497531138629
0.00497531708542
0.00497532164223
0.00497532524439
0.00497532802549
0.00497533008941
0.00497547608286
0.00497552725358
0.00497551893156
0.00497551868764
0.00497552577902
0.00497553286105
0.00497553782756
0.00497553938838
0.00497553835898
0.00497553633178
0.00497553387573
0.00497553185672
0.00497553249037
0.00497553639504
0.00497554139292
0.00497554526901
0.00497554788292
0.00497554960831
0.00497555065105
0.00497555112026
0.00497574015755
0.00497579394711
0.00497579140114
0.00497579175391
0.0049757982002
0.00497580387264
0.00497580656305
0.00497580603993
0.00497580376961
0.00497580045735
0.00497579556614
0.00497579005009
0.00497578593823
0.00497578427974
0.0049757841207
0.0049757834122
0.00497578174749
0.00497577961862
0.0049757773295
0.00497577495025
0.00497605374453
0.00497610565691
0.00497609668574
0.00497609451438
0.00497609605632
0.00497609522969
0.00497609178857
0.00497608664342
0.00497608058614
0.00497607356775
0.00497606578824
0.00497605779484
0.00497605010681
0.00497604186228
0.0049760336203
0.00497602592945
0.00497601829585
0.00497601103174
0.00497600445546
0.00497599855918
0.00497638921475
0.0049764261419
0.0049764017749
0.00497639058622
0.00497638325905
0.00497637394511
0.00497636281694
0.00497635085295
0.0049763387485
0.00497632770438
0.00497631791852
0.00497630879566
0.00497630009879
0.00497628985565
0.00497627610441
0.0049762618904
0.00497624875249
0.00497623693862
0.00497622662741
0.0049762177399
0.00497663734909
0.00497665077744
0.00497662376438
0.00497661246501
0.0049766052668
0.00497659581204
0.00497658361924
0.00497656992608
0.00497655637002
0.00497654443051
0.00497653440455
0.00497652487374
0.00497651547501
0.00497650645571
0.00497649474993
0.00497647939586
0.00497646419327
0.00497645059329
0.00497643880897
0.00497642874
0.00497679642151
0.00497680090447
0.00497677804415
0.00497676966343
0.00497676621641
0.00497676109354
0.00497675303103
0.00497674327889
0.00497673324021
0.0049767240869
0.00497671637729
0.00497670866918
0.00497670070423
0.00497669313315
0.00497668527754
0.00497667404323
0.00497666124247
0.00497664938294
0.00497663903269
0.00497663011899
0.00497690750773
0.00497691833959
0.00497690723059
0.0049769043453
0.00497690474776
0.00497690361059
0.00497689994321
0.00497689460442
0.00497688860864
0.00497688470905
0.00497688181239
0.0049768767848
0.00497687119562
0.00497686447605
0.00497685787515
0.00497685125772
0.00497684330123
0.00497683573495
0.00497682905959
0.00497682321298
0.00497707490677
0.00497708262928
0.00497706246283
0.00497705660506
0.00497705541324
0.00497705359332
0.00497704997596
0.00497704521624
0.00497704202904
0.00497704326702
0.0049770418014
0.00497703939928
0.0049770360418
0.00497703000398
0.00497702415091
0.00497702055083
0.00497701731585
0.00497701484916
0.00497701289073
0.00497701113306
0.00497720840867
0.00497721855773
0.00497720031558
0.00497719684845
0.00497719768816
0.0049771976768
0.00497719557484
0.00497719336173
0.00497719645241
0.00497719994099
0.00497720103671
0.00497720049654
0.00497719911768
0.00497719569025
0.00497719131764
0.00497718933529
0.00497718983945
0.00497719213752
0.00497719495616
0.00497719747324
0.00497736250392
0.00497737557766
0.00497735324592
0.00497734695429
0.00497734637856
0.00497734578171
0.00497734430085
0.00497734587465
0.00497735374327
0.00497736100623
0.00497736120376
0.00497736332825
0.00497736602682
0.00497736611762
0.00497736415359
0.00497736294263
0.00497736593735
0.00497737219865
0.00497737918412
0.0049773855235
0.00497748827734
0.00497750893883
0.0049774932989
0.00497748968785
0.0049774915584
0.00497749372186
0.00497749658879
0.00497750581846
0.00497752011868
0.00497752431128
0.00497753053088
0.00497753458392
0.00497753993487
0.00497754773475
0.00497754703474
0.00497754541735
0.00497754947682
0.00497755840248
0.00497756846771
0.00497757777801
0.00497765131933
0.00497767958805
0.00497766479025
0.00497765933608
0.0049776601004
0.00497766241025
0.00497766836415
0.00497768299447
0.00497769339344
0.00497770323524
0.00497770778205
0.00497771679152
0.00497773000736
0.00497773783556
0.00497773990221
0.00497773756855
0.0049777420886
0.00497775210176
0.00497776405829
0.00497777552632
0.00497781901889
0.00497784955073
0.00497783219934
0.00497782879979
0.00497783249942
0.00497783843312
0.00497784998184
0.00497786653913
0.00497788103714
0.00497788754817
0.0049778988375
0.00497791014517
0.00497792579446
0.0049779442344
0.00497793930976
0.00497793682561
0.00497794134069
0.00497795176445
0.00497796540702
0.00497797895171
0.00497801083924
0.00497804568134
0.00497802116717
0.0049780166416
0.00497802181671
0.00497803085358
0.00497804712391
0.00497806689971
0.00497807547357
0.00497808845434
0.00497809835335
0.00497811315712
0.00497814498326
0.00497814245794
0.00497814086032
0.00497814184176
0.00497814581636
0.00497815696903
0.00497817282149
0.00497818885328
0.0049781949735
0.00497823517908
0.00497821189693
0.0049782103378
0.00497822023764
0.00497823504262
0.0049782559416
0.00497827057718
0.00497828638154
0.00497829620271
0.00497830985299
0.00497834768995
0.00497835271069
0.00497835404719
0.00497835879572
0.00497835874645
0.00497836192894
0.0049783729163
0.00497839020877
0.00497840823371
0.00497838378148
0.00497843669889
0.0049784192952
0.00497842154599
0.00497843594632
0.00497845471063
0.00497847517733
0.00497849685865
0.00497851019843
0.00497852580449
0.00497856311676
0.00497857673093
0.00497858050918
0.00497858797365
0.00497859153355
0.00497859449704
0.00497859596177
0.00497860532865
0.00497862219799
0.0049786406736
0.00497859187042
0.00497865784605
0.00497865564895
0.00497866271045
0.00497867871072
0.00497869754315
0.00497872122459
0.00497874194673
0.00497876082044
0.00497879468647
0.00497881678802
0.00497882627137
0.0049788339629
0.00497884120294
0.00497884897936
0.00497885026894
0.00497885108331
0.00497885823076
0.00497887235033
0.00497888894034
0.00497883825232
0.00497892102731
0.0049789257423
0.00497893597244
0.00497895449569
0.00497897836039
0.00497900774067
0.00497903642655
0.00497906291603
0.00497908079328
0.00497909258424
0.0049791018494
0.0049791109551
0.00497912077847
0.0049791272472
0.00497913080263
0.00497913217795
0.00497913640051
0.00497914417913
0.00497915505095
0.00497922010335
0.00497932094896
0.00497931915563
0.00497932410542
0.00497933532027
0.00497935258666
0.00497937271983
0.00497938602973
0.00497939169922
0.0049793963547
0.00497940336568
0.00497941178437
0.00497942061267
0.0049794279307
0.00497943452111
0.00497943820572
0.00497944073425
0.00497944021555
0.00497943848785
0.00497943858912
0.00497982912086
0.00497992666632
0.00497990399895
0.00497988623119
0.00497986648284
0.00497984744528
0.00497983188481
0.00497981543695
0.0049798002007
0.00497978922972
0.0049797828897
0.0049797783892
0.00497977312426
0.00497976854273
0.00497976657416
0.00497976654214
0.00497976478814
0.00497975771663
0.00497974761227
0.00497973384676
0.00498047358239
0.00498053765139
0.00498050157979
0.00498047576471
0.00498044790758
0.00498040757402
0.00498036105099
0.00498031659158
0.00498027664289
0.00498024165052
0.0049802107007
0.00498018118105
0.0049801525124
0.0049801271819
0.00498010864812
0.00498009627751
0.00498008324281
0.00498006963385
0.00498005379885
0.00498002896197
0.00498092588168
0.00498095222714
0.00498092891803
0.00498091503896
0.00498090177492
0.00498087614848
0.00498083126907
0.00498077594163
0.00498071911201
0.00498066362159
0.00498061035581
0.00498055948725
0.00498051108718
0.00498046716361
0.00498043076824
0.00498040276154
0.00498037857459
0.00498035806129
0.0049803363856
0.00498030705897
0.00497211703929
0.00497211648885
0.00497211568395
0.00497211466232
0.00497211344871
0.00497211205841
0.00497211049797
0.00497210876785
0.00497210686288
0.00497210477388
0.00497210248712
0.00497209998355
0.00497209723459
0.00497209419647
0.00497209081
0.00497208704061
0.00497208293806
0.00497207841243
0.0049720723177
0.00497201116181
0.00497233060042
0.00497232997853
0.00497232912292
0.00497232807202
0.00497232685389
0.00497232549009
0.00497232399672
0.00497232238729
0.00497232067271
0.00497231886175
0.00497231695835
0.00497231495878
0.00497231284868
0.00497231061065
0.00497230825899
0.00497230588729
0.00497230361023
0.00497230139478
0.00497229894615
0.00497229880809
0.00497254577476
0.00497254498615
0.00497254406934
0.00497254304954
0.00497254195121
0.00497254079745
0.00497253960832
0.00497253840184
0.00497253719221
0.00497253598898
0.00497253479472
0.00497253360612
0.00497253242104
0.00497253126001
0.00497253019438
0.00497252933093
0.00497252872152
0.00497252827743
0.00497252782228
0.00497252948625
0.00497276245473
0.00497276142156
0.00497276040035
0.00497275939322
0.00497275840914
0.0049727574585
0.00497275654962
0.00497275568854
0.00497275487656
0.0049727541103
0.00497275338166
0.00497275268321
0.00497275201863
0.00497275141814
0.00497275093827
0.00497275061496
0.00497275039086
0.00497275010506
0.00497274975498
0.00497275120937
0.00497297990824
0.00497297860628
0.00497297743775
0.00497297638258
0.00497297543125
0.00497297457658
0.00497297381067
0.00497297312457
0.00497297250629
0.00497297194199
0.00497297141784
0.00497297092662
0.00497297047619
0.00497297009604
0.0049729698227
0.00497296965246
0.00497296949844
0.0049729692678
0.00497296913259
0.00497297039001
0.00497319737029
0.00497319582131
0.00497319449441
0.00497319335335
0.00497319237216
0.00497319152891
0.00497319080264
0.00497319017345
0.00497318962098
0.00497318912653
0.00497318867547
0.00497318826338
0.00497318790139
0.00497318761603
0.00497318742703
0.00497318730314
0.0049731871473
0.00497318695725
0.00497318693617
0.00497318790152
0.00497341422521
0.00497341249023
0.00497341103799
0.00497340981991
0.00497340879733
0.00497340793765
0.00497340721111
0.0049734065912
0.00497340605334
0.00497340557747
0.00497340515021
0.00497340476982
0.00497340444845
0.00497340420699
0.00497340404846
0.00497340392061
0.00497340374499
0.00497340360848
0.00497340365297
0.00497340438639
0.00497363001037
0.0049736281964
0.00497362670006
0.00497362546228
0.00497362443598
0.00497362358209
0.00497362286605
0.00497362225834
0.00497362173327
0.00497362127161
0.0049736208621
0.00497362050514
0.00497362021246
0.00497361999825
0.00497361985035
0.00497361970473
0.00497361952759
0.00497361945122
0.00497361951935
0.00497362007942
0.00497384441601
0.00497384268204
0.00497384126697
0.00497384010717
0.00497383915247
0.00497383836204
0.00497383770062
0.0049738371392
0.00497383665371
0.0049738362275
0.00497383585217
0.00497383553005
0.00497383527185
0.00497383508466
0.00497383494309
0.00497383478347
0.00497383462881
0.00497383460564
0.00497383467622
0.00497383511376
0.00497405732049
0.00497405586636
0.00497405468983
0.00497405373164
0.00497405294572
0.00497405229534
0.00497405174929
0.00497405128285
0.00497405087632
0.00497405051744
0.00497405020153
0.00497404993306
0.00497404972152
0.00497404956692
0.00497404943373
0.00497404927399
0.00497404916042
0.00497404917763
0.00497404924445
0.00497404959622
0.00497426885195
0.00497426789025
0.00497426711537
0.00497426648419
0.00497426596374
0.00497426552842
0.00497426515644
0.00497426483142
0.0049742645409
0.00497426427885
0.00497426404525
0.00497426384706
0.0049742636925
0.00497426357486
0.00497426345342
0.0049742633102
0.00497426324591
0.00497426329102
0.00497426335511
0.00497426364769
0.00497447945462
0.00497447916177
0.00497447891533
0.00497447870224
0.00497447851281
0.0049744783399
0.00497447817661
0.00497447801865
0.00497447786336
0.00497447771237
0.00497447757098
0.00497447744875
0.00497447735238
0.00497447726914
0.00497447716021
0.0049744770457
0.00497447702819
0.0049744770914
0.00497447715496
0.00497447740725
0.0049746899271
0.00497469036994
0.00497469068397
0.00497469089921
0.00497469103794
0.00497469111746
0.00497469114957
0.00497469114449
0.00497469111055
0.0049746910574
0.00497469099546
0.00497469093621
0.00497469088397
0.00497469082127
0.00497469071975
0.00497469063627
0.00497469065394
0.00497469072701
0.00497469079032
0.00497469101529
0.00497490136028
0.00497490241281
0.00497490316248
0.0049749036891
0.00497490405025
0.00497490428905
0.00497490443611
0.00497490451545
0.00497490454508
0.00497490454104
0.00497490451703
0.00497490448455
0.00497490444413
0.00497490437517
0.00497490426794
0.0049749042057
0.00497490424038
0.00497490431424
0.00497490437465
0.00497490458026
0.00497511492944
0.00497511620498
0.00497511706533
0.00497511763208
0.00497511799058
0.00497511820291
0.00497511831235
0.00497511835119
0.00497511834226
0.00497511830368
0.00497511824859
0.00497511818516
0.00497511810807
0.00497511799568
0.00497511786188
0.00497511780058
0.00497511783055
0.00497511789412
0.00497511794622
0.00497511813619
0.00497533149578
0.00497533234867
0.00497533280855
0.00497533300968
0.00497533304293
0.00497533297202
0.00497533283926
0.00497533267437
0.00497533249637
0.00497533231849
0.00497533214769
0.00497533198441
0.00497533181511
0.00497533161934
0.00497533143453
0.00497533134873
0.00497533135251
0.00497533139367
0.00497533143055
0.00497533160517
0.00497555110112
0.00497555074482
0.00497555020908
0.00497554959131
0.00497554895225
0.00497554833112
0.00497554774985
0.00497554722107
0.004975546749
0.00497554633371
0.00497554596972
0.00497554564521
0.00497554533645
0.00497554502631
0.00497554477038
0.00497554463761
0.00497554459869
0.00497554460735
0.00497554462283
0.00497554478037
0.00497577255593
0.00497577030512
0.00497576828533
0.00497576649785
0.00497576493294
0.00497576357726
0.00497576241263
0.00497576142064
0.00497576058079
0.00497575987298
0.0049757592744
0.00497575875788
0.00497575828875
0.00497575785528
0.00497575752217
0.00497575733188
0.0049757572438
0.00497575721587
0.00497575720729
0.00497575734569
0.00497599335684
0.00497598895524
0.00497598530828
0.00497598227797
0.00497597975699
0.00497597766205
0.00497597592372
0.00497597448546
0.00497597329775
0.0049759723178
0.00497597150433
0.00497597081471
0.00497597020494
0.00497596967075
0.0049759692763
0.00497596903659
0.00497596890681
0.00497596884757
0.00497596881809
0.00497596893692
0.00497621022685
0.0049762041173
0.00497619922181
0.00497619527066
0.00497619206589
0.00497618946067
0.00497618734016
0.00497618561501
0.00497618421144
0.00497618306839
0.00497618213002
0.00497618134196
0.00497618065554
0.00497618007631
0.00497617966032
0.00497617939954
0.00497617925029
0.0049761791754
0.00497617913485
0.00497617923662
0.00497642035796
0.00497641365973
0.00497640838046
0.00497640418692
0.00497640083636
0.00497639815058
0.0049763959928
0.00497639425839
0.00497639286285
0.0049763917374
0.00497639082003
0.00497639005165
0.0049763893863
0.0049763888418
0.00497638846221
0.00497638822432
0.00497638808914
0.00497638802246
0.00497638798614
0.00497638807681
0.00497662270596
0.00497661682448
0.00497661223262
0.00497660862631
0.00497660578014
0.00497660352787
0.00497660174188
0.00497660032519
0.0049765991997
0.00497659830197
0.0049765975738
0.00497659695985
0.00497659642568
0.00497659600309
0.00497659572406
0.00497659555903
0.00497659547593
0.00497659544474
0.00497659543043
0.00497659551862
0.00497681832108
0.00497681446794
0.00497681150113
0.00497680921594
0.00497680745386
0.00497680609624
0.00497680505088
0.00497680424792
0.00497680363035
0.004976803151
0.00497680276407
0.0049768024259
0.00497680212161
0.00497680189749
0.00497680177602
0.00497680172911
0.00497680173267
0.0049768017621
0.00497680178645
0.00497680188197
0.00497700966496
0.00497700858277
0.0049770078384
0.00497700735558
0.00497700706631
0.00497700691837
0.00497700686951
0.00497700688824
0.00497700694707
0.00497700702154
0.00497700708348
0.00497700710699
0.00497700710258
0.00497700712976
0.00497700720569
0.00497700730919
0.00497700742445
0.00497700753297
0.00497700760852
0.00497700772061
0.00497719967239
0.00497720160152
0.00497720329712
0.00497720480669
0.00497720615343
0.004977207354
0.00497720841894
0.0049772093576
0.00497721017388
0.00497721086739
0.00497721142947
0.00497721185589
0.00497721218499
0.00497721248717
0.00497721277864
0.00497721304805
0.0049772132875
0.00497721348471
0.00497721361838
0.0049772137545
0.00497739109813
0.00497739586099
0.0049773998912
0.0049774033311
0.00497740627832
0.00497740880837
0.00497741097816
0.00497741283339
0.00497741440596
0.00497741571707
0.00497741677691
0.00497741760464
0.00497741826578
0.00497741883886
0.0049774193429
0.00497741977715
0.00497742014085
0.00497742042746
0.00497742062043
0.0049774207856
0.00497758609527
0.00497759324849
0.00497759930093
0.00497760444423
0.00497760882285
0.00497761255377
0.00497761572875
0.00497761842167
0.00497762068634
0.00497762256123
0.00497762407355
0.00497762526603
0.00497762622849
0.00497762704535
0.00497762774118
0.00497762832512
0.0049776288025
0.00497762917166
0.00497762942024
0.00497762961712
0.00497778595514
0.00497779502879
0.00497780275012
0.00497780932128
0.00497781491019
0.00497781966103
0.00497782369105
0.00497782709566
0.00497782994535
0.00497783229227
0.0049778341792
0.00497783567197
0.00497783688112
0.00497783789576
0.00497783874765
0.00497783945433
0.00497784002594
0.00497784046442
0.00497784076081
0.00497784098988
0.00497799129093
0.00497800203247
0.00497801116743
0.00497801892285
0.00497802549564
0.00497803105991
0.00497803575949
0.00497803971087
0.00497804299984
0.00497804569092
0.00497804784229
0.00497804954234
0.00497805091903
0.00497805206592
0.00497805302246
0.00497805381265
0.00497805444979
0.00497805493787
0.00497805527004
0.00497805552963
0.00497820314809
0.00497821538479
0.00497822567067
0.00497823431673
0.00497824157781
0.00497824767384
0.00497825278358
0.00497825704813
0.00497826056907
0.00497826342271
0.00497826568223
0.00497826745718
0.0049782688896
0.00497827007728
0.00497827106633
0.00497827188461
0.00497827254654
0.00497827305589
0.0049782734062
0.00497827369169
0.00497842390708
0.00497843701692
0.00497844785449
0.00497845683238
0.00497846427069
0.00497847043953
0.0049784755538
0.0049784797775
0.00497848322428
0.00497848597813
0.00497848812371
0.00497848978727
0.00497849112027
0.00497849222294
0.0049784931451
0.00497849391496
0.00497849454506
0.0049784950361
0.0049784953795
0.00497849568216
0.00497865634531
0.00497866905853
0.00497867935346
0.00497868772313
0.00497869452842
0.00497870007392
0.00497870459849
0.00497870827746
0.00497871122524
0.00497871352319
0.00497871525844
0.00497871656507
0.00497871759664
0.00497871845146
0.00497871917794
0.00497871979996
0.00497872032436
0.00497872074504
0.0049787210482
0.00497872135405
0.00497890258062
0.00497891303845
0.00497892121041
0.00497892765273
0.0049789327194
0.00497893671541
0.00497893987752
0.00497894237004
0.00497894428841
0.00497894569402
0.00497894666118
0.00497894731794
0.0049789478094
0.00497894822475
0.0049789486039
0.00497894896076
0.00497894929188
0.00497894958024
0.00497894980301
0.00497895009276
0.00497916368252
0.00497916937729
0.00497917336779
0.00497917622621
0.00497917821164
0.00497917956509
0.0049791804747
0.00497918105761
0.00497918136088
0.00497918140136
0.00497918121922
0.00497918091789
0.00497918062058
0.00497918039757
0.00497918027202
0.00497918024169
0.00497918028812
0.00497918037916
0.00497918047901
0.00497918072943
0.00497943836051
0.00497943636256
0.00497943388167
0.00497943138454
0.00497942890641
0.00497942652722
0.00497942432032
0.00497942230784
0.00497942045267
0.00497941869865
0.00497941702754
0.00497941549777
0.00497941419593
0.00497941316284
0.0049794123967
0.00497941187352
0.00497941155575
0.00497941139268
0.00497941133198
0.00497941151922
0.00497972116806
0.00497970898381
0.00497969817896
0.00497968892954
0.00497968093985
0.00497967402981
0.00497966809257
0.00497966301048
0.00497965863132
0.00497965480241
0.00497965142712
0.00497964850202
0.00497964606485
0.0049796441182
0.00497964262942
0.00497964154903
0.00497964081805
0.00497964036547
0.0049796401201
0.00497964022408
0.00498000244552
0.00497997903843
0.00497995925504
0.00497994278274
0.00497992896432
0.00497991731112
0.00497990749905
0.00497989925007
0.00497989228324
0.00497988634235
0.00497988124372
0.0049798769156
0.00497987334036
0.00497987047912
0.00497986826594
0.00497986662591
0.00497986547854
0.0049798647335
0.0049798643003
0.00497986431067
0.00498026999161
0.00498023662997
0.00498020890437
)
;

boundaryField
{
    emptyPatch
    {
        type            empty;
    }
    minY
    {
        type            calculated;
        value           nonuniform List<scalar> 
40
(
0.00497186708188
0.00497192208959
0.00497193057204
0.00497194059197
0.00497195036182
0.00497195945172
0.00497196782235
0.00497197539836
0.00497198209687
0.00497198794101
0.00497199295714
0.0049719971945
0.0049720007283
0.00497200363295
0.00497200597047
0.0049720077937
0.00497200914581
0.00497201006268
0.00497201057139
0.00497201069413
0.00497201045499
0.0049720099046
0.00497200909977
0.00497200807823
0.00497200686472
0.00497200547454
0.00497200391423
0.00497200218426
0.00497200027945
0.00497199819063
0.00497199590407
0.00497199340072
0.00497199065199
0.00497198761413
0.00497198422795
0.00497198045888
0.00497197635669
0.00497197183145
0.00497196573724
0.00497190458659
)
;
    }
    maxY
    {
        type            calculated;
        value           nonuniform List<scalar> 0();
    }
    maxX
    {
        type            calculated;
        value           nonuniform List<scalar> 
37
(
0.00497201116181
0.00497229880809
0.00497252948625
0.00497275120937
0.00497297039001
0.00497318790152
0.00497340438639
0.00497362007942
0.00497383511376
0.00497404959622
0.00497426364769
0.00497447740725
0.00497469101529
0.00497490458026
0.00497511813619
0.00497533160517
0.00497554478037
0.00497575734569
0.00497596893692
0.00497617923662
0.00497638807681
0.00497659551862
0.00497680188197
0.00497700772061
0.0049772137545
0.0049774207856
0.00497762961712
0.00497784098988
0.00497805552963
0.00497827369169
0.00497849568216
0.00497872135405
0.00497895009276
0.00497918072943
0.00497941151922
0.00497964022408
0.00497986431067
)
;
    }
    water_to_heater
    {
        type            calculated;
        value           nonuniform List<scalar> 
61
(
0.00497195529539
0.00497223526279
0.00497227652828
0.00497252213446
0.00497256338512
0.00497276853921
0.00497280979816
0.00497301347644
0.00497323988646
0.0049734412304
0.00497348852907
0.00497367220434
0.00497371848463
0.00497391413623
0.00497396016496
0.00497411461924
0.00497432766116
0.00497444532045
0.00497449094002
0.00497464265511
0.0049746886669
0.00497481942244
0.00497486505605
0.00497503064114
0.00497524160635
0.00497544093988
0.00497548703234
0.00497571635284
0.00497576274442
0.0049760411571
0.00497608896874
0.00497638853794
0.00497663659954
0.00497676611866
0.00497680546
0.0049768872186
0.00497692612661
0.00497706420303
0.00497710355379
0.00497720749927
0.0049773615642
0.00497745815595
0.00497749700648
0.00497763062074
0.00497766998941
0.00497780821515
0.0049778471973
0.00497800974863
0.00497819384235
0.00497835305823
0.00497839246856
0.00497857096783
0.00497861035452
0.00497882631441
0.00497886921046
0.00497921892176
0.0049798279262
0.00498043557525
0.00498048457772
0.0049809021808
0.0049809468806
)
;
    }
    procBoundary2to3
    {
        type            processor;
        value           nonuniform List<scalar> 
41
(
0.004981214485
0.00498121521768
0.00498119520436
0.00498118779281
0.00498118224214
0.00498117198335
0.00498114701453
0.00498110353039
0.00498104867918
0.00498098791383
0.00498092584065
0.00498086516138
0.00498080689071
0.00498075298245
0.00498070591506
0.00498066726382
0.00498063581568
0.00498060763744
0.00498058161894
0.00498055232195
0.00498018602267
0.00498016703793
0.00498015118188
0.00498013794034
0.00498012688624
0.00498011763145
0.00498010982571
0.00498010321249
0.00498009765394
0.00498009308364
0.00498008942106
0.00498008657298
0.00498008444019
0.00498008292596
0.00498008192167
0.00498008132036
0.00498008123582
0.00498051205382
0.00498047271531
0.00498018602267
0.00498043973009
)
;
    }
}

