/*--------------------------------*- C++ -*----------------------------------*\
| =========                 |                                                 |
| \\      /  F ield         | OpenFOAM: The Open Source CFD Toolbox           |
|  \\    /   O peration     | Version:  2312                                  |
|   \\  /    A nd           | Website:  www.openfoam.com                      |
|    \\/     M anipulation  |                                                 |
\*---------------------------------------------------------------------------*/
FoamFile
{
    version     2.0;
    format      ascii;
    arch        "LSB;label=32;scalar=64";
    class       volVectorField;
    location    "0.25/water";
    object      U.gas;
}
// * * * * * * * * * * * * * * * * * * * * * * * * * * * * * * * * * * * * * //

dimensions      [0 1 -1 0 0 0 0];

internalField   nonuniform List<vector> 
1497
(
(0.0717557089401 1.29045937022 0)
(0.0972041231617 1.14016762645 0)
(0.108935012233 1.02275918823 0)
(0.116470964017 0.928948049805 0)
(0.12315540149 0.856709525709 0)
(0.130000030387 0.806071544399 0)
(0.134734430651 0.773590550096 0)
(0.135029850628 0.74714755546 0)
(0.132116703443 0.724029452354 0)
(0.127964669409 0.705114523564 0)
(0.12452344032 0.690053835881 0)
(0.126044362977 0.676954902257 0)
(0.133191832124 0.665204597606 0)
(-0.0151531166481 1.37106073926 0)
(-0.047795723161 1.70030471778 0)
(-0.0745041093451 1.64506849921 0)
(-0.0685735911069 1.50000667925 0)
(-0.0321500849266 1.46546598802 0)
(0.0138531785544 1.41536919543 0)
(0.0569282205476 1.31101825518 0)
(0.0865425483619 1.20526721966 0)
(0.106643381744 1.11143397438 0)
(0.122074155098 1.019339753 0)
(0.134473446895 0.939308003292 0)
(0.146333333479 0.874796378026 0)
(0.157480994788 0.828721561139 0)
(0.163738453196 0.795694375834 0)
(0.16349397967 0.767145189703 0)
(0.159762983235 0.742461085016 0)
(0.154677312275 0.722130212077 0)
(0.150158253436 0.70556348025 0)
(0.150576184779 0.69147669887 0)
(0.15505999069 0.679450532965 0)
(-0.0126752148197 1.68708487147 0)
(-0.044303832777 1.94810398101 0)
(-0.0474927217845 1.64479766148 0)
(-0.0185733241035 1.38947276696 0)
(0.00937511509666 1.32874566682 0)
(0.0387085069176 1.27822439027 0)
(0.0665730029237 1.21781307144 0)
(0.0919312781932 1.15467335533 0)
(0.114160577055 1.08455705592 0)
(0.133251279892 1.01336337948 0)
(0.150756110897 0.948114013474 0)
(0.167715977803 0.893857640072 0)
(0.18073685756 0.852612618239 0)
(0.185513347378 0.81840507042 0)
(0.184198904553 0.788024087539 0)
(0.18036513503 0.761801571015 0)
(0.175052519297 0.739724203507 0)
(0.170276717231 0.720910970221 0)
(0.170340515872 0.704800643527 0)
(0.172107941931 0.690755468587 0)
(0.00595631058368 1.93688582803 0)
(0.0147360735688 2.0874082358 0)
(0.0185129079259 1.58307005867 0)
(0.0231641401149 1.32602879622 0)
(0.0354075543842 1.24661138421 0)
(0.0551536091672 1.20250696702 0)
(0.078358483101 1.15972284412 0)
(0.10232971418 1.1141969022 0)
(0.125765421067 1.06355586664 0)
(0.148302010648 1.01002609726 0)
(0.17000981041 0.958540541713 0)
(0.187968083402 0.913254867453 0)
(0.197343636194 0.874080637897 0)
(0.199131542921 0.838811151662 0)
(0.197558440116 0.807380904643 0)
(0.193877714595 0.779892904226 0)
(0.188378833215 0.755599974579 0)
(0.183257106596 0.733713182294 0)
(0.182591545939 0.714751935485 0)
(0.182216965082 0.697486163658 0)
(0.0236183281414 2.0855042433 0)
(0.0554346416023 2.06327357341 0)
(0.0620560742564 1.59355513743 0)
(0.0604967984223 1.3203209481 0)
(0.0650667303726 1.20855597595 0)
(0.0778799619657 1.15660868703 0)
(0.097038121495 1.12213423482 0)
(0.120312938393 1.08996979967 0)
(0.14538636848 1.05325704524 0)
(0.169798475869 1.01246247009 0)
(0.189592132834 0.970224350923 0)
(0.201038554666 0.929425956606 0)
(0.205374393177 0.891085323954 0)
(0.206284550938 0.855883158682 0)
(0.205049283029 0.824010323798 0)
(0.20044568922 0.794911260336 0)
(0.192932727455 0.767474500665 0)
(0.187275539607 0.742469910357 0)
(0.18663012985 0.720585407147 0)
(0.185641216868 0.699982704123 0)
(0.0409913441918 2.118988157 0)
(0.0886028606313 1.99881574903 0)
(0.0952422491123 1.60670077689 0)
(0.0955521305403 1.33440446348 0)
(0.099002908519 1.19901570459 0)
(0.108995741825 1.13652365423 0)
(0.126144092432 1.10492939512 0)
(0.14848061944 1.08053413232 0)
(0.170963414877 1.05169552129 0)
(0.188524636349 1.01727604684 0)
(0.199658464145 0.979681165485 0)
(0.205875856623 0.941487885555 0)
(0.209007165624 0.90466637946 0)
(0.209806309699 0.869993858917 0)
(0.206792663501 0.837492278103 0)
(0.198013295253 0.805609451399 0)
(0.188144979291 0.775467456881 0)
(0.183753545769 0.748652650927 0)
(0.18406761912 0.724155064705 0)
(0.183168600164 0.70027136271 0)
(0.0461153932535 2.06569661664 0)
(0.101937807464 1.93238623416 0)
(0.11617409115 1.60089026996 0)
(0.124287263601 1.34693101023 0)
(0.132391458012 1.20454344419 0)
(0.143837143325 1.13606654072 0)
(0.159049427128 1.10461684716 0)
(0.174440003826 1.08181759901 0)
(0.187102083727 1.0555373416 0)
(0.19712536908 1.02419459759 0)
(0.204563102038 0.989531288609 0)
(0.209031874967 0.95358420549 0)
(0.210660364451 0.917833567232 0)
(0.209023477738 0.88329404401 0)
(0.200659256311 0.848813386997 0)
(0.187313977029 0.814327167132 0)
(0.17794462875 0.783323213399 0)
(0.175276480135 0.755293129222 0)
(0.175363111735 0.727915448008 0)
(0.173910435593 0.700528458931 0)
(0.0422668425061 2.02162101407 0)
(0.100174798119 1.8594921578 0)
(0.125213036491 1.57435034406 0)
(0.142482254652 1.35003356219 0)
(0.157062732012 1.21657910215 0)
(0.169503867036 1.14977623081 0)
(0.179076878989 1.11705914662 0)
(0.186530593339 1.09331861353 0)
(0.19446078339 1.06794062555 0)
(0.2020930627 1.03836053871 0)
(0.207183853195 1.00502838571 0)
(0.209036098613 0.969528283774 0)
(0.207744629932 0.933634392772 0)
(0.200246836075 0.897841766181 0)
(0.185322119821 0.860562709247 0)
(0.17099706016 0.825307746602 0)
(0.163088123308 0.79366308857 0)
(0.160250566805 0.763748419373 0)
(0.159260506309 0.732973300433 0)
(0.157323969797 0.701757552029 0)
(0.0419903180751 2.01465991789 0)
(0.10796476479 1.79275328118 0)
(0.141713476531 1.54634709997 0)
(0.160968487529 1.35315289401 0)
(0.176101003452 1.23691813058 0)
(0.183704697502 1.17567603439 0)
(0.186743208046 1.14246260556 0)
(0.190921845974 1.1183178308 0)
(0.197179921774 1.09294748749 0)
(0.202171009059 1.06271609022 0)
(0.203896705338 1.02798784853 0)
(0.20187639794 0.990873979881 0)
(0.194649396554 0.953116138233 0)
(0.179479485154 0.914065817071 0)
(0.161311137607 0.875101736736 0)
(0.148064812385 0.839586731187 0)
(0.140789131504 0.80631942301 0)
(0.137103713529 0.773623193719 0)
(0.134756167427 0.739251417668 0)
(0.132773899765 0.704072566089 0)
(0.0445605567058 2.02702058729 0)
(0.122234619819 1.75076384165 0)
(0.162721098543 1.53770402314 0)
(0.177571052494 1.3707039631 0)
(0.185669229107 1.2714273947 0)
(0.184943583696 1.21608271055 0)
(0.184236782538 1.18446251357 0)
(0.18708858402 1.15994140493 0)
(0.190933848852 1.13206823294 0)
(0.192167797348 1.09776216812 0)
(0.189173451032 1.0583695774 0)
(0.180827706017 1.01668359568 0)
(0.164276658039 0.973819434851 0)
(0.143293310683 0.931493302086 0)
(0.126749855156 0.892148851227 0)
(0.116315003101 0.855246522946 0)
(0.109594606501 0.819211661719 0)
(0.105055194169 0.782953164601 0)
(0.102191623006 0.745222028599 0)
(0.101033437476 0.706592651295 0)
(0.0496293435626 2.06162272637 0)
(0.135431206064 1.75545722123 0)
(0.172932913005 1.561841533 0)
(0.176474887812 1.41257370467 0)
(0.175102526923 1.32632221109 0)
(0.168938954664 1.27762463937 0)
(0.166156758106 1.24838855407 0)
(0.166631425401 1.22104140664 0)
(0.16657357182 1.1858197337 0)
(0.162343072422 1.1416001544 0)
(0.151115190159 1.0915742741 0)
(0.131387109568 1.04048950361 0)
(0.108821100634 0.991888867707 0)
(0.0918784201152 0.947974703456 0)
(0.0812309780075 0.907389323541 0)
(0.0740409896858 0.867700027643 0)
(0.0689358230037 0.827817428672 0)
(0.0655891108965 0.787956194993 0)
(0.0644702593523 0.747542798962 0)
(0.0657481878427 0.706535838322 0)
(0.0536948065152 2.12887693678 0)
(0.132835232469 1.8200392187 0)
(0.15384561492 1.63004674739 0)
(0.146143636559 1.48757001232 0)
(0.136917125981 1.40700361572 0)
(0.126153234835 1.36355075767 0)
(0.118501820751 1.33436100742 0)
(0.112784082051 1.29773555185 0)
(0.104179931739 1.24510842627 0)
(0.0888198821998 1.18145798742 0)
(0.0675984482452 1.11453078015 0)
(0.0474836962723 1.05242418055 0)
(0.0345921483338 1.00025960907 0)
(0.0277141675428 0.954678727465 0)
(0.0239766665471 0.911653185592 0)
(0.0221986664314 0.868878261152 0)
(0.0217509944112 0.825774060721 0)
(0.0228884001039 0.783416526916 0)
(0.0261436941788 0.741611619922 0)
(0.0317406286742 0.699701761825 0)
(0.0606872414205 2.17923531664 0)
(0.124491745254 1.8949072829 0)
(0.117538265206 1.70657450146 0)
(0.0969889241851 1.56740247592 0)
(0.0759710097596 1.48463096443 0)
(0.054751138963 1.44413522541 0)
(0.0331362326307 1.41435674602 0)
(0.0109464402192 1.36385164904 0)
(-0.0106054760446 1.28538250529 0)
(-0.0286420127768 1.1962919891 0)
(-0.0405236992217 1.11186257458 0)
(-0.0452087388628 1.04001888194 0)
(-0.0447687503409 0.984410299185 0)
(-0.0418997292146 0.937873198799 0)
(-0.0371392299092 0.894574843261 0)
(-0.0307601035112 0.851392786736 0)
(-0.0235457126767 0.807924028144 0)
(-0.0158077516458 0.765492457245 0)
(-0.00697685450533 0.72440480774 0)
(0.00355023014042 0.683593319794 0)
(0.0684677254613 2.0834539693 0)
(0.12531841675 1.86152626187 0)
(0.100963594402 1.71618435565 0)
(0.0732668536413 1.59979161942 0)
(0.041495294916 1.52403934725 0)
(0.00532654909977 1.49033473022 0)
(-0.0347882513808 1.46373683031 0)
(-0.0734260063787 1.40140907811 0)
(-0.101667966557 1.2944724547 0)
(-0.114308326212 1.17606514594 0)
(-0.114770390347 1.07694440364 0)
(-0.109508863723 0.997589732182 0)
(-0.101796924617 0.937966066055 0)
(-0.0924475356125 0.892998985419 0)
(-0.0810680826148 0.854092907279 0)
(-0.0676554903927 0.814891916025 0)
(-0.0536436175522 0.774834751573 0)
(-0.0402355863517 0.735374572922 0)
(-0.0270624529178 0.697373385444 0)
(-0.013257902244 0.659734328016 0)
(0.0828531597792 1.69535398956 0)
(0.148974731881 1.76074799139 0)
(0.119942152102 1.69359691937 0)
(0.0902273510381 1.62299358267 0)
(0.050966910401 1.57282410966 0)
(0.00625938877606 1.5452931585 0)
(-0.0399530736525 1.52061710528 0)
(-0.0828225528893 1.44006168239 0)
(-0.112440234182 1.2910045355 0)
(-0.123019080981 1.13089598774 0)
(-0.121150750566 1.02122117967 0)
(-0.115316904914 0.938851946504 0)
(-0.107879119077 0.877081373959 0)
(-0.0992138602475 0.833266008736 0)
(-0.0880217025354 0.801307703127 0)
(-0.073608125128 0.768768933306 0)
(-0.0578911088912 0.734515880409 0)
(-0.042934454686 0.699997915582 0)
(-0.0288514308258 0.666525455717 0)
(-0.0148688492333 0.633152672101 0)
(0.0319708495075 1.32430336594 0)
(0.0657378799736 1.67110738768 0)
(0.0660567547928 1.67507594543 0)
(0.0586250373369 1.6516229717 0)
(0.0435521749883 1.63504614931 0)
(0.0226828655678 1.61854398943 0)
(-0.00178264748939 1.59484577357 0)
(-0.030150102867 1.50994789594 0)
(-0.0634132461662 1.33752288791 0)
(-0.0809533267078 1.08856558869 0)
(-0.0790439126392 0.971107673728 0)
(-0.0748255064352 0.888079789785 0)
(-0.0699799448029 0.826079988019 0)
(-0.0652122249374 0.78163887103 0)
(-0.0590563449325 0.754320485971 0)
(-0.049185203417 0.727489289741 0)
(-0.0369279369917 0.698562002819 0)
(-0.0249030917041 0.668702484969 0)
(-0.0135786055289 0.639446253114 0)
(-0.00245422152904 0.609971921065 0)
(0.02031483845 1.20799681772 0)
(0.0397081785663 1.60735590987 0)
(0.0364950161643 1.65724031545 0)
(0.0306236178634 1.66638744406 0)
(0.0234669733281 1.67306959973 0)
(0.0146527578866 1.67221111624 0)
(0.00363684545684 1.65092067583 0)
(-0.00753534723892 1.57269569665 0)
(-0.0207370482264 1.410562481 0)
(-0.0283009553755 1.06842904639 0)
(-0.0265593789568 0.944073928097 0)
(-0.0232115424738 0.860483215505 0)
(-0.0195872614195 0.79816607489 0)
(-0.0166996117167 0.752732062808 0)
(-0.0139118556077 0.725879630239 0)
(-0.00888783227527 0.701467257011 0)
(-0.00180611718961 0.675376007531 0)
(0.00537275228314 0.64824647362 0)
(0.0121513880267 0.621529273475 0)
(0.0189137574172 0.594486969655 0)
(0.0150098230353 1.17598377797 0)
(0.0270698899004 1.59230729853 0)
(0.0206888921369 1.6628568064 0)
(0.0138366995429 1.68875921955 0)
(0.00623656683272 1.70575051206 0)
(-0.00278358887164 1.71270140907 0)
(-0.0116762463126 1.68803503891 0)
(-0.0185170972966 1.60290430668 0)
(-0.00537546769024 1.37782154987 0)
(0.0127060550527 1.05974825775 0)
(0.0166780952887 0.935439733701 0)
(0.0203992148793 0.852639489997 0)
(0.0241571917114 0.790662916747 0)
(0.0273876752904 0.745119755003 0)
(0.0299044966114 0.716903000257 0)
(0.0325424447238 0.692207214398 0)
(0.0356330347654 0.666524250363 0)
(0.0385798204142 0.640101033361 0)
(0.0411723376259 0.614094031184 0)
(0.043732026479 0.587811444687 0)
(0.0131611082508 1.18055139016 0)
(0.0223433849399 1.59769507736 0)
(0.0144182005409 1.68032359723 0)
(0.00652236599976 1.71528990373 0)
(-0.00188347512727 1.73911448141 0)
(-0.0107343022523 1.74714526177 0)
(-0.015617620694 1.7059273435 0)
(-0.00651415930035 1.58158003862 0)
(0.0187020351755 1.26854556584 0)
(0.0389748534726 1.04779502081 0)
(0.0467580186731 0.933537363734 0)
(0.052757539922 0.854576904206 0)
(0.0584523633634 0.794939161316 0)
(0.0637398659262 0.751351945718 0)
(0.0674009383799 0.722027884638 0)
(0.0689184303913 0.695721480715 0)
(0.0693649569095 0.66903178981 0)
(0.0693081236676 0.642056304179 0)
(0.0687397559715 0.615603785956 0)
(0.0679701127928 0.5889693837 0)
(0.0126977249922 1.19453157751 0)
(0.0216395786107 1.60983089399 0)
(0.0140584863153 1.70112188453 0)
(0.00609924033522 1.74344898192 0)
(-0.00270188415715 1.77188875424 0)
(-0.0112970549643 1.77515116896 0)
(-0.0147597172258 1.70820111475 0)
(0.00917764352474 1.46563724547 0)
(0.0422972999851 1.19405276553 0)
(0.057858373927 1.0344952564 0)
(0.0684997307377 0.933863328828 0)
(0.0777584780221 0.86126980609 0)
(0.0868189683957 0.806350912225 0)
(0.0946080287141 0.766352823917 0)
(0.0984478223895 0.735812425669 0)
(0.0984961368151 0.707302050592 0)
(0.0972209261132 0.679119847881 0)
(0.0952882297339 0.651095512114 0)
(0.0926301176557 0.62371316064 0)
(0.0895536290048 0.596191553885 0)
(0.0138049431821 1.20014709096 0)
(0.0260262727121 1.61004100189 0)
(0.0227960038721 1.70996353513 0)
(0.0194024331888 1.75920702051 0)
(0.0160848578232 1.78931119079 0)
(0.0163806842834 1.77894636018 0)
(0.0264948745553 1.67909253765 0)
(0.0446457487199 1.35251145098 0)
(0.0624206590022 1.15603801017 0)
(0.0765409775214 1.02507783607 0)
(0.0887558512352 0.936389638598 0)
(0.100959652664 0.871335252321 0)
(0.112834909197 0.822840863137 0)
(0.120757803029 0.785661025452 0)
(0.122662463151 0.7534061769 0)
(0.121496937135 0.723090415726 0)
(0.119486451842 0.693598757875 0)
(0.116478960143 0.66455005624 0)
(0.112523012011 0.636181020721 0)
(0.107926419643 0.607592277816 0)
(0.0137425196873 1.1953392158 0)
(0.0271716487932 1.59318053135 0)
(0.0265482978713 1.70114291004 0)
(0.0262056212276 1.75590816727 0)
(0.0267391081833 1.78410356319 0)
(0.0308976710119 1.75516502404 0)
(0.0483077079508 1.59875575568 0)
(0.070136194313 1.30176136219 0)
(0.0846591277198 1.13360771626 0)
(0.0975148457615 1.02083478827 0)
(0.110831162638 0.9418675511 0)
(0.125138472891 0.884756744991 0)
(0.136896951756 0.841948757351 0)
(0.141843046166 0.805523725601 0)
(0.141855529341 0.772186395349 0)
(0.140353585368 0.740916681368 0)
(0.137781607499 0.7105349741 0)
(0.133944083473 0.680721090677 0)
(0.128972695879 0.65149196443 0)
(0.123194395226 0.621816928481 0)
(0.0122110217414 1.19760646002 0)
(0.0233965501268 1.57563589747 0)
(0.022984042333 1.68368262104 0)
(0.025850819354 1.73910739531 0)
(0.0320570310603 1.76109364638 0)
(0.0433898564801 1.71243947139 0)
(0.0676075260696 1.48556500433 0)
(0.0919105198125 1.26499834982 0)
(0.10584897824 1.12189127769 0)
(0.119289998824 1.0220939114 0)
(0.13429706061 0.951647894589 0)
(0.148972278194 0.901856262295 0)
(0.157647608964 0.862007738197 0)
(0.159613609557 0.825699851441 0)
(0.158836802714 0.792161568554 0)
(0.156798882673 0.760352373291 0)
(0.153389149112 0.72937995214 0)
(0.148512674684 0.6990121816 0)
(0.142417716502 0.669021469533 0)
(0.135429684402 0.638241927373 0)
(0.00604286859308 1.24921333699 0)
(0.0098446120532 1.58354108234 0)
(0.0084772253001 1.67081694067 0)
(0.0140392111725 1.71069716089 0)
(0.0274640557912 1.71170769336 0)
(0.0580796282505 1.59894829235 0)
(0.0905910513547 1.39345073874 0)
(0.109244016409 1.2381188248 0)
(0.124638794414 1.1171692967 0)
(0.140279808522 1.028958429 0)
(0.15716245902 0.967120827391 0)
(0.170316420778 0.922537306532 0)
(0.175418438214 0.883698672083 0)
(0.175634644106 0.847746453743 0)
(0.174168933746 0.814068844979 0)
(0.171125911175 0.781755434766 0)
(0.166461621456 0.750274796034 0)
(0.160225045708 0.719412779735 0)
(0.152753864433 0.688630856235 0)
(0.144373268681 0.656560877443 0)
(-0.017383837683 1.48489483848 0)
(-0.0335841192712 1.61559996751 0)
(-0.0245214107821 1.64025757944 0)
(0.000741280473139 1.62176260535 0)
(0.0403371485484 1.59002836828 0)
(0.0771096821977 1.46580376576 0)
(0.102454819756 1.34020094606 0)
(0.12232055981 1.21912718359 0)
(0.140401842639 1.11821484284 0)
(0.159434313473 1.04200133282 0)
(0.177423807223 0.988704525109 0)
(0.187762775093 0.946829793685 0)
(0.190257867484 0.908419988476 0)
(0.189595114355 0.872572342502 0)
(0.187071118822 0.838408302365 0)
(0.182664664453 0.805390188668 0)
(0.176443292281 0.77332388765 0)
(0.168574756881 0.741813596345 0)
(0.159194799942 0.709509275025 0)
(0.148713392293 0.675469942691 0)
(0.00428162463475 1.76394240813 0)
(0.00846081215213 1.63769320224 0)
(0.0164570412624 1.5743332605 0)
(0.0356796045725 1.50591469114 0)
(0.0594191696947 1.4588536024 0)
(0.0845584159361 1.38677397889 0)
(0.108776726333 1.29928691634 0)
(0.131376582567 1.20639561142 0)
(0.153676536554 1.12466783131 0)
(0.176422224043 1.06190851484 0)
(0.193766505338 1.01544561506 0)
(0.200792601938 0.97463739555 0)
(0.201714385989 0.936524780315 0)
(0.200270950918 0.900252549831 0)
(0.196499464029 0.865103301698 0)
(0.190547449692 0.831067157837 0)
(0.182404800155 0.79796411441 0)
(0.171346882059 0.764336178223 0)
(0.158425425169 0.729526494605 0)
(0.146538863174 0.69403404363 0)
(0.022574088601 1.88659470069 0)
(0.044923452398 1.64701148756 0)
(0.0465424088364 1.52540070942 0)
(0.0547555160023 1.44217077481 0)
(0.0708425739016 1.39143264164 0)
(0.0922033857074 1.33552182236 0)
(0.116234048825 1.27066170992 0)
(0.141597571699 1.2013576478 0)
(0.168351853613 1.13876406756 0)
(0.191998077345 1.08862658798 0)
(0.205008245858 1.04596522553 0)
(0.209039559624 1.00598999366 0)
(0.209384534894 0.967880687842 0)
(0.206887883802 0.930514745266 0)
(0.201653661001 0.893725140852 0)
(0.193262162777 0.857733970015 0)
(0.180087762736 0.821435629383 0)
(0.16404536319 0.784735236665 0)
(0.151003145774 0.74880250295 0)
(0.14120920835 0.71301270353 0)
(0.024808337163 1.94602853091 0)
(0.0553788343338 1.64992053452 0)
(0.0628249455449 1.50959772386 0)
(0.0697101527392 1.41373044106 0)
(0.0830630005037 1.3544654295 0)
(0.102483805517 1.30602842529 0)
(0.127346420356 1.25800906037 0)
(0.15613664316 1.20863410679 0)
(0.183670478686 1.16234647539 0)
(0.201606434849 1.12019845837 0)
(0.209515187302 1.0800880733 0)
(0.212550122376 1.04131506309 0)
(0.212279301335 1.00261057417 0)
(0.208463803046 0.963122649688 0)
(0.200223682646 0.923041418606 0)
(0.184861451897 0.881976599639 0)
(0.165183319598 0.841589333257 0)
(0.149906367179 0.804136094604 0)
(0.141039677702 0.768433083645 0)
(0.132944499335 0.731552064949 0)
(0.0256030638698 1.98999169056 0)
(0.0663656363945 1.64077790218 0)
(0.0827740159091 1.50513129781 0)
(0.0891607538931 1.40799762447 0)
(0.101666938065 1.34342856487 0)
(0.120319224227 1.29870865059 0)
(0.146002327542 1.26382398763 0)
(0.17281993522 1.22936736054 0)
(0.192027763418 1.19330932116 0)
(0.202747828247 1.15655407972 0)
(0.208981452922 1.11973800592 0)
(0.211724202051 1.08194745201 0)
(0.21015357529 1.04157854522 0)
(0.202459996477 0.997250227793 0)
(0.184633494566 0.948849075057 0)
(0.160515256746 0.901608029358 0)
(0.14216376179 0.860472211756 0)
(0.132613051895 0.823677615771 0)
(0.12686080203 0.786901331895 0)
(0.118959871416 0.747230501813 0)
(0.0277316262822 1.99354974027 0)
(0.0789445703194 1.62927054234 0)
(0.103108754224 1.51220485219 0)
(0.109843646164 1.4219037256 0)
(0.123350881683 1.35519478638 0)
(0.141662288981 1.31386214168 0)
(0.162847631762 1.28794961553 0)
(0.179666616949 1.26240641797 0)
(0.191168369653 1.23355403331 0)
(0.199878038142 1.20268491679 0)
(0.205547192759 1.16943702342 0)
(0.206753965879 1.13158350616 0)
(0.199333638862 1.08526674311 0)
(0.177445202994 1.02777388219 0)
(0.1476520748 0.968164174226 0)
(0.125902290651 0.919324297554 0)
(0.115247917348 0.87908726649 0)
(0.109899311975 0.841366040221 0)
(0.105648873012 0.801809981558 0)
(0.0976796299925 0.758291464985 0)
(0.0325273246493 1.9631199224 0)
(0.0946803068178 1.63441826438 0)
(0.123116830033 1.53694184319 0)
(0.127691995071 1.45477120489 0)
(0.140189460229 1.38725269862 0)
(0.154898293518 1.3503205573 0)
(0.168651352231 1.33066442786 0)
(0.179095863339 1.31206186076 0)
(0.18809398147 1.29082799969 0)
(0.195671615487 1.26605889819 0)
(0.198146359898 1.23426038791 0)
(0.18732896954 1.18880914711 0)
(0.157757867387 1.12527788812 0)
(0.12162896196 1.04942388512 0)
(0.0976109546629 0.982718932286 0)
(0.0869654786561 0.934797754293 0)
(0.0820837266823 0.893606099189 0)
(0.079349850389 0.85340551361 0)
(0.0766813184203 0.810493141009 0)
(0.0702138352248 0.763137367406 0)
(0.0363991097686 1.96526402075 0)
(0.106677708076 1.68114909986 0)
(0.136261948613 1.59199781602 0)
(0.135670705749 1.50847425911 0)
(0.1449286438 1.43888965978 0)
(0.156781328575 1.40764716731 0)
(0.167277244548 1.39399180252 0)
(0.1747312178 1.38164230788 0)
(0.179821867853 1.36494726181 0)
(0.1758367572 1.34030244568 0)
(0.15313734326 1.29912497274 0)
(0.114757665725 1.23566188858 0)
(0.0771217719163 1.15130577234 0)
(0.0546235256081 1.0608783397 0)
(0.0462443977203 0.989816354597 0)
(0.043362880786 0.941471659176 0)
(0.0422808394326 0.898353439119 0)
(0.0425208854497 0.855865872993 0)
(0.0430782087548 0.810661697123 0)
(0.0400782721903 0.760571972077 0)
(0.0386078365934 2.05242079349 0)
(0.102463310583 1.81197521822 0)
(0.120621685268 1.68862622038 0)
(0.115295911861 1.58149602134 0)
(0.122101344484 1.5055227314 0)
(0.131355116399 1.47534702451 0)
(0.134971734282 1.46305789313 0)
(0.128547373635 1.44965219182 0)
(0.110267877965 1.42805749386 0)
(0.0793315377062 1.39554386503 0)
(0.0429919500047 1.34106960309 0)
(0.0144995538074 1.25813769283 0)
(0.000643927196582 1.1580992491 0)
(-0.00269995738961 1.05792789038 0)
(-0.00245348924817 0.983404491052 0)
(-0.00125831303774 0.934370686504 0)
(0.00122840214596 0.890231765763 0)
(0.00563535732621 0.847173548377 0)
(0.0105973334032 0.80155383574 0)
(0.0119119927122 0.750531387651 0)
(0.0551660160002 2.22882668226 0)
(0.0890020355288 2.08251915383 0)
(0.0456455709278 1.84510055114 0)
(0.0179111615444 1.67467082532 0)
(0.0107989069161 1.57512513305 0)
(0.00619761185484 1.52972938856 0)
(-0.00387788554687 1.50804968653 0)
(-0.0198759580765 1.48674470498 0)
(-0.0381184867232 1.45561029042 0)
(-0.0534388816953 1.41250588427 0)
(-0.0618913475382 1.34724252733 0)
(-0.061973920818 1.24915966885 0)
(-0.0565296922148 1.13929996725 0)
(-0.0505380495153 1.03560308187 0)
(-0.0455620863091 0.961899091725 0)
(-0.0406054718388 0.913338232489 0)
(-0.0340146671423 0.870027262194 0)
(-0.025036411494 0.828375082692 0)
(-0.0158398487744 0.78427066183 0)
(-0.0104790558856 0.734322466456 0)
(0.0572581683502 2.41077380918 0)
(0.0212211410813 2.5458683949 0)
(-0.110449136706 2.05925510615 0)
(-0.17319012176 1.78766939887 0)
(-0.208005906581 1.63973295515 0)
(-0.218654930306 1.55735623486 0)
(-0.213538017433 1.51024029078 0)
(-0.201079054807 1.47224936653 0)
(-0.185088209602 1.42896914047 0)
(-0.165490925065 1.37453159579 0)
(-0.143208330861 1.29940819125 0)
(-0.121376632049 1.19727206784 0)
(-0.102723315627 1.08999468861 0)
(-0.0884929767499 0.993363225765 0)
(-0.0782094810531 0.926578671948 0)
(-0.0690602511541 0.880798259241 0)
(-0.0582706563958 0.840494809521 0)
(-0.045272009509 0.802117571147 0)
(-0.0328209835417 0.761366535784 0)
(-0.0243365486585 0.714240245432 0)
(0.027912549452 2.50859163251 0)
(-0.0152072138238 3.02978352715 0)
(-0.152880267236 2.4074915121 0)
(-0.261602062674 1.93659207105 0)
(-0.327998044748 1.69699306423 0)
(-0.357369582899 1.5545594042 0)
(-0.350167397295 1.46276947989 0)
(-0.317867402783 1.3972348364 0)
(-0.276420017957 1.33850763083 0)
(-0.233799923471 1.27576492863 0)
(-0.192564247593 1.19965876722 0)
(-0.156353983724 1.10839467994 0)
(-0.128040764644 1.01750102524 0)
(-0.107825498224 0.93846257625 0)
(-0.0937969928773 0.88249911106 0)
(-0.0818076184972 0.841831934975 0)
(-0.0683262759096 0.806366926176 0)
(-0.0528857774977 0.772631198783 0)
(-0.0386387561763 0.736389245521 0)
(-0.0286573108715 0.692913951728 0)
(0.0171822561776 2.46519761724 0)
(0.0452224598514 3.14070683055 0)
(0.0349996285538 2.69249041768 0)
(-0.0386203682162 2.21286833768 0)
(-0.153115631917 1.92640947966 0)
(-0.248261710711 1.60411611679 0)
(-0.291917114805 1.4120329841 0)
(-0.294051993898 1.30236747187 0)
(-0.267413433859 1.22363688727 0)
(-0.228591981259 1.15553485804 0)
(-0.188676510049 1.08548080371 0)
(-0.153529486984 1.01068482186 0)
(-0.126194934303 0.941903444089 0)
(-0.106336779785 0.883025293582 0)
(-0.0916791743765 0.838090343806 0)
(-0.0789419447375 0.803489089493 0)
(-0.0648814081151 0.773395306724 0)
(-0.0489000555305 0.74457031854 0)
(-0.034402356964 0.712794264194 0)
(-0.0246428090259 0.672814412247 0)
(0.0184497512524 2.31355825819 0)
(0.0522587490978 2.97962946084 0)
(0.0671128457914 2.74179425344 0)
(0.0575303066113 2.43167872876 0)
(0.031831061245 2.18212956928 0)
(-0.0328163749288 1.83238482138 0)
(-0.117355101159 1.48827105893 0)
(-0.166914556076 1.25589663714 0)
(-0.177983665152 1.13987195203 0)
(-0.16512960403 1.0585088449 0)
(-0.141786920993 0.991223021989 0)
(-0.119086942793 0.928458033871 0)
(-0.101334757953 0.876651319942 0)
(-0.0878982207138 0.833516931788 0)
(-0.0763969049483 0.798632722859 0)
(-0.0647576407981 0.770134830505 0)
(-0.0513705332058 0.745038371488 0)
(-0.0361705434597 0.720622052283 0)
(-0.0227231303863 0.692577076638 0)
(-0.0144370026282 0.655565962439 0)
(0.13079801669 0.659067643632 0)
(0.116009879372 0.654763709985 0)
(0.103453218157 0.631383054994 0)
(0.0933774921979 0.600500402181 0)
(0.0804249710351 0.565346034131 0)
(0.0622042877297 0.526306453078 0)
(0.0420472820097 0.475643055552 0)
(0.0317522426584 0.40158096656 0)
(0.034532713192 0.348208880247 0)
(0.0423721416872 0.312634471884 0)
(0.0496068129974 0.282626931508 0)
(0.0522956576126 0.255336059208 0)
(0.0461204660756 0.231691926357 0)
(0.0305238201441 0.211168410033 0)
(0.00966789689117 0.190723341579 0)
(-0.0145801905155 0.163555711038 0)
(-0.0301140558471 0.142283016258 0)
(-0.0245877129776 0.1376263838 0)
(-0.00604586318539 0.150350053793 0)
(0.00230316943609 0.169116361966 0)
(0.14897165148 0.675609281187 0)
(0.133363008368 0.670109760897 0)
(0.121933586214 0.64805032179 0)
(0.11257196511 0.617950551063 0)
(0.100345282101 0.583042660192 0)
(0.0840172465143 0.543570160737 0)
(0.0689417691435 0.488757382754 0)
(0.0631547355899 0.412085989024 0)
(0.0655530752435 0.361931761428 0)
(0.0700038825152 0.324366041933 0)
(0.0730921877955 0.291069846772 0)
(0.0702931557673 0.259965072678 0)
(0.0540475723077 0.232272472875 0)
(0.0333614766378 0.210912503868 0)
(0.0230379060111 0.197672725185 0)
(0.00353842391319 0.179647037192 0)
(-0.035996839555 0.115483200704 0)
(-0.046638827957 0.110053431171 0)
(-0.0157079535657 0.121836498833 0)
(0.00186579871385 0.143774383082 0)
(0.163917386327 0.687323470205 0)
(0.150633435169 0.680564560971 0)
(0.142128408827 0.658407003531 0)
(0.134963677794 0.627699999237 0)
(0.126073276365 0.59177075444 0)
(0.115066682861 0.55084368266 0)
(0.1056496561 0.494355760893 0)
(0.10185360397 0.419029585167 0)
(0.102697006971 0.363725159467 0)
(0.104837423731 0.320470518611 0)
(0.105215965944 0.282069665439 0)
(0.100330590944 0.24654725972 0)
(0.0889701766707 0.215999029677 0)
(0.0857320457095 0.200135684258 0)
(0.0809808699882 0.224148525612 0)
(0.0431777098854 0.229511046173 0)
(-0.0281903636571 0.0961267431098 0)
(-0.0759719125915 0.0527922232548 0)
(-0.0441430334941 0.0714002116838 0)
(-0.0032912682791 0.108641792435 0)
(0.174529671049 0.692509051912 0)
(0.165127733288 0.684736411715 0)
(0.160078412045 0.661473332082 0)
(0.156471594694 0.629088508914 0)
(0.152170008653 0.591031710461 0)
(0.147173372951 0.547723474407 0)
(0.143054270962 0.491764695745 0)
(0.140905398002 0.420850086369 0)
(0.14040140324 0.359484795185 0)
(0.140918985143 0.309404754437 0)
(0.140232087541 0.264874757042 0)
(0.139214965736 0.223825352417 0)
(0.150298991534 0.194359268757 0)
(0.148769343112 0.188360186627 0)
(0.097254951783 0.25077977443 0)
(0.0340216791261 0.291638240654 0)
(-0.020183581421 0.116230946154 0)
(-0.0909289965147 -0.0141710104832 0)
(-0.119100726624 -0.00138469919817 0)
(-0.0531926041163 0.0409304007319 0)
(0.179797692265 0.691862025011 0)
(0.174162087345 0.683102311228 0)
(0.172381962652 0.658417586663 0)
(0.172051818374 0.623863774617 0)
(0.171744730404 0.583017324466 0)
(0.171736105423 0.536721336225 0)
(0.171969289927 0.481387745618 0)
(0.171968797645 0.417275476561 0)
(0.171182331377 0.355750878357 0)
(0.168019750763 0.301528492215 0)
(0.163198536102 0.251552428112 0)
(0.171418834071 0.208311838275 0)
(0.172540116456 0.185175225748 0)
(0.12307536569 0.203815678908 0)
(0.0661958647443 0.269451697934 0)
(0.0444784129856 0.317694933748 0)
(0.0165408255119 0.188197418453 0)
(-0.0428515390897 -0.0415835149717 0)
(-0.103420488754 -0.0434746203725 0)
(-0.0637928509843 -0.0297405708664 0)
(0.178799418666 0.687477314828 0)