/*--------------------------------*- C++ -*----------------------------------*\
| =========                 |                                                 |
| \\      /  F ield         | OpenFOAM: The Open Source CFD Toolbox           |
|  \\    /   O peration     | Version:  2312                                  |
|   \\  /    A nd           | Website:  www.openfoam.com                      |
|    \\/     M anipulation  |                                                 |
\*---------------------------------------------------------------------------*/
FoamFile
{
    version     2.0;
    format      ascii;
    arch        "LSB;label=32;scalar=64";
    class       volScalarField;
    location    "3.1/water";
    object      T.gas;
}
// * * * * * * * * * * * * * * * * * * * * * * * * * * * * * * * * * * * * * //

dimensions      [0 0 0 1 0 0 0];

internalField   nonuniform List<scalar> 
23300
(
333.104511831
333.104608416
333.104804586
333.105104792
333.105514651
333.106040584
333.10668954
333.107468695
333.108385102
333.10944526
333.110654611
333.112016976
333.113533953
333.115204336
333.117023607
333.118983563
333.121072156
333.123273572
333.125568593
333.127935223
333.130349532
333.13278666
333.13522187
333.137631572
333.139994229
333.142291056
333.144506505
333.146628493
333.1486484
333.150560875
333.152363489
333.154056296
333.155641343
333.157122188
333.158503445
333.159790382
333.160988595
333.162103737
333.163141324
333.164106587
333.165004381
333.16583907
333.166614121
333.16733267
333.167997535
333.16861123
333.169175994
333.169693815
333.170166458
333.170595494
333.170982325
333.171328209
333.171634285
333.171901594
333.1721311
333.172323707
333.172480277
333.172601649
333.172688647
333.172742097
333.172762833
333.172751708
333.172709595
333.172637393
333.172536021
333.172406419
333.172249535
333.172066316
333.171857685
333.171624518
333.171367604
333.171087592
333.170784904
333.170459609
333.170111192
333.169738193
333.169338201
333.168908682
333.16844761
333.167953651
333.167425881
333.166863615
333.166266322
333.165633594
333.164965127
333.16426072
333.163520269
333.162743766
333.161931288
333.161082989
333.160199086
333.159279847
333.158325574
333.157336582
333.156313189
333.155255691
333.154164343
333.153039342
333.151880801
333.150688728
333.149463004
333.148203357
333.14690934
333.145580302
333.144215364
333.142813388
333.141372954
333.139892329
333.138369448
333.136801908
333.135186665
333.133520013
333.13179768
333.130014815
333.128165997
333.126245277
333.124246293
333.122162474
333.119987368
333.117715136
333.115341251
333.112863416
333.11028271
333.107604905
333.104841855
333.102012728
333.099144805
333.096273465
333.093441004
333.09069408
333.088081513
333.085648876
333.083433696
333.081462899
333.079752228
333.078307612
333.077127791
333.076207225
333.075538407
333.075113326
333.104682655
333.10478517
333.104992374
333.105308239
333.105738056
333.106288061
333.106965086
333.107776206
333.108728338
333.109827774
333.111079655
333.112487386
333.11405204
333.115771783
333.11764139
333.11965192
333.121790589
333.124040909
333.126383088
333.128794696
333.131251527
333.133728603
333.136201215
333.138645918
333.141041391
333.143369099
333.145613731
333.147763395
333.149809594
333.151747018
333.153573197
333.15528807
333.156893517
333.158392892
333.159790589
333.161091664
333.162301515
333.163425636
333.16446942
333.16543803
333.166336307
333.167168675
333.167938601
333.168649264
333.169303555
333.169904087
333.170453217
333.17095307
333.171405561
333.171812426
333.17217524
333.172495444
333.172774364
333.173013235
333.173213216
333.173375409
333.173500875
333.173590647
333.173645745
333.173667181
333.173655975
333.173613155
333.173539763
333.173436856
333.173305505
333.173146787
333.172961781
333.172751555
333.172517148
333.172259545
333.171979645
333.171678209
333.171355784
333.171012589
333.170648351
333.170262102
333.169852193
333.169416676
333.168953315
333.168460284
333.167936163
333.167379858
333.166790524
333.166167506
333.1655103
333.164818536
333.164091953
333.163330393
333.162533784
333.161702126
333.160835481
333.159933957
333.158997691
333.158026839
333.157021554
333.15598197
333.154908189
333.153800256
333.152658141
333.151481721
333.150270754
333.149024857
333.147743484
333.146425899
333.14507115
333.143678042
333.142245106
333.140770566
333.139252318
333.137687897
333.13607431
333.134407914
333.132684534
333.130899454
333.129047423
333.127122706
333.125119192
333.123030589
333.120850739
333.118574085
333.116196322
333.113715258
333.111131879
333.108451583
333.105685465
333.102851483
333.099975236
333.097090024
333.094235915
333.091457644
333.08880156
333.086311605
333.084025459
333.081971883
333.080169815
333.078629276
333.077353599
333.076342196
333.07559305
333.075104041
333.104922668
333.1050331
333.105255747
333.105594088
333.10605296
333.10663819
333.107356227
333.108213733
333.109217134
333.110372116
333.111683068
333.113152492
333.114780417
333.116563865
333.118496423
333.120567988
333.12276472
333.125069261
333.127461197
333.129917762
333.132414715
333.134927322
333.137431353
333.139904005
333.142324691
333.144675619
333.14694216
333.14911299
333.151180028
333.153138215
333.154985171
333.156720779
333.158346749
333.159866178
333.161283151
333.162602396
333.163828988
333.16496812
333.166024928
333.167004365
333.16791112
333.168749605
333.169523188
333.170234974
333.170887815
333.171484315
333.172026853
333.172517602
333.172958547
333.173351513
333.173698186
333.17400013
333.17425881
333.17447561
333.174651851
333.174788802
333.174887702
333.174949765
333.174976194
333.174968191
333.174926961
333.17485372
333.174749693
333.174616115
333.174454228
333.174265275
333.174050488
333.173811077
333.173548213
333.173262996
333.172956428
333.172629356
333.172282404
333.171915876
333.171529634
333.171122967
333.170694524
333.170243116
333.169766828
333.169263807
333.168732413
333.168171259
333.16757919
333.16695526
333.166298698
333.165608888
333.164885347
333.164127702
333.16333568
333.162509091
333.16164781
333.160751769
333.159820939
333.158855314
333.157854903
333.156819708
333.155749708
333.154644847
333.153505007
333.152329997
333.151119525
333.149873179
333.148590406
333.147270482
333.14591249
333.144515288
333.143077484
333.141597397
333.140073031
333.138502032
333.13688159
333.13520829
333.133478239
333.131687061
333.1298299
333.127901471
333.125896165
333.123808229
333.121632052
333.119362587
333.116995934
333.114530096
333.111965928
333.109308207
333.106566765
333.103757515
333.100903145
333.098033234
333.095183525
333.092394227
333.089707421
333.087163873
333.08479991
333.082645125
333.080721457
333.079043855
333.077622232
333.076464058
333.075576652
333.074967597
333.105259293
333.105379052
333.105620114
333.105985548
333.106479688
333.10710781
333.107875744
333.108789445
333.109854508
333.111075634
333.112456066
333.113997003
333.115697055
333.117551766
333.119553268
333.121690111
333.123947327
333.126306715
333.128747369
333.131246411
333.133779852
333.136323535
333.138854055
333.141349593
333.143790602
333.146160301
333.148444962
333.150633991
333.152719839
333.154697769
333.156565522
333.15832293
333.159971507
333.161514053
333.162954295
333.164296567
333.165545551
333.166706066
333.167782914
333.168780759
333.169704056
333.170557049
333.1713431
333.172065145
333.172725906
333.1733279
333.173873451
333.174364706
333.174803654
333.175192145
333.175531912
333.175824586
333.176071716
333.176274785
333.176435226
333.176554435
333.176633787
333.17667464
333.176678351
333.176646282
333.176579802
333.176480292
333.176349147
333.176187769
333.175997565
333.175779935
333.175536262
333.175267893
333.17497612
333.174662148
333.174327058
333.173971757
333.173596914
333.173202879
333.1727896
333.172356542
333.171902656
333.171426923
333.170928168
333.17040472
333.169854959
333.169277396
333.168670703
333.168033721
333.167365455
333.166665061
333.165931832
333.165165183
333.164364637
333.16352981
333.162660401
333.161756176
333.160816953
333.159842594
333.158832989
333.157788038
333.156707641
333.155591679
333.154439994
333.153252374
333.152028532
333.150768081
333.149470517
333.14813519
333.146761283
333.145347776
333.143893426
333.142396727
333.140855879
333.139268748
333.137632785
333.1359449
333.134201584
333.132398907
333.130532523
333.128597724
333.126589534
333.124502871
333.122332808
333.120074936
333.117725871
333.115283902
333.112749793
333.110127685
333.107426045
333.104658519
333.101844529
333.099009383
333.096183738
333.093402278
333.09070168
333.088118127
333.085684848
333.08343027
333.081377281
333.079543925
333.077945469
333.076597466
333.075519071
333.074735161
333.105708577
333.105838662
333.106100144
333.106495684
333.107029067
333.107704886
333.108528159
333.109503884
333.11063654
333.111929542
333.11338469
333.115001615
333.116777287
333.118705618
333.120777207
333.122979277
333.125295821
333.127707964
333.130194534
333.132732791
333.135299266
333.137870626
333.140424515
333.142940278
333.145399548
333.147786647
333.1500888
333.15229617
333.154401742
333.156401086
333.158292044
333.160074368
333.16174935
333.163319466
333.164788052
333.16615902
333.167436626
333.168625279
333.169729406
333.170753339
333.171701251
333.17257711
333.173384374
333.17412575
333.174803774
333.175420817
333.175979092
333.176480665
333.176927474
333.17732134
333.17766399
333.177957071
333.178202162
333.178400797
333.17855447
333.178664654
333.17873281
333.178760395
333.178748873
333.178699718
333.178614421
333.178494488
333.17834144
333.178156811
333.177942136
333.177698942
333.17742873
333.177132962
333.176813025
333.17647021
333.176105665
333.175720354
333.175314992
333.174889993
333.174445401
333.173980848
333.173495542
333.172988308
333.172458672
333.171905336
333.171326814
333.170721653
333.170088485
333.169426053
333.168733229
333.168009016
333.167252543
333.166463063
333.165639941
333.164782643
333.163890728
333.162963836
333.162001675
333.161004014
333.159970663
333.158901467
333.157796285
333.156654976
333.155477387
333.154263326
333.15301255
333.151724739
333.150399479
333.149036235
333.147634324
333.146192894
333.144710888
333.143187018
333.141619728
333.140007158
333.138347069
333.136636739
333.13487309
333.133052679
333.13117172
333.129226123
333.127211589
333.125123754
333.122958416
333.120711846
333.118381223
333.115965173
333.113464431
333.110882581
333.108226824
333.105508665
333.102744387
333.099955152
333.097166577
333.094407715
333.091709468
333.089102646
333.086616024
333.084274857
333.082100344
333.080110431
333.078322296
333.076756703
333.075444267
333.074433054
333.1062797
333.106420617
333.106703521
333.107130641
333.107705148
333.108430845
333.109311785
333.110351821
333.111554112
333.112920592
333.114451442
333.116144596
333.117995316
333.119995887
333.122135452
333.12440005
333.126772829
333.129234469
333.131763766
333.134338345
333.136935446
333.139532713
333.142108931
333.144644662
333.147122724
333.149528515
333.151850164
333.154078532
333.156207074
333.158231613
333.160150043
333.161962001
333.16366853
333.165271763
333.166774633
333.168180618
333.169493537
333.170717377
333.171856169
333.172913889
333.173894396
333.174801386
333.175638442
333.176408013
333.17711242
333.177753851
333.178334371
333.178855927
333.179320363
333.179729433
333.180084813
333.180388122
333.180640928
333.180844766
333.181001148
333.181111575
333.181177546
333.181200566
333.181182155
333.181123849
333.181027205
333.180893802
333.180725238
333.18052312
333.180289062
333.180024666
333.179731507
333.179411111
333.179064927
333.178694295
333.178300409
333.177884272
333.177446647
333.176988011
333.176508507
333.176007916
333.17548565
333.174940773
333.17437231
333.173780048
333.173162704
333.172518957
333.171847506
333.171147111
333.17041662
333.169654982
333.168861256
333.168034612
333.167174329
333.166279792
333.165350484
333.164385977
333.163385925
333.162350052
333.161278145
333.160170034
333.159025583
333.157844677
333.156627199
333.155373019
333.154081972
333.152753836
333.151388318
333.149985021
333.148543428
333.14706287
333.145542504
333.143981277
333.142377899
333.140730805
333.139038089
333.137297412
333.135506133
333.133661307
333.131759703
333.129797846
333.127772103
333.125678814
333.123514481
333.121276045
333.118961237
333.116569036
333.114100194
333.111557841
333.108948085
333.10628055
333.103568736
333.100830083
333.098085621
333.095359153
333.092675991
333.09006139
333.087538952
333.085129371
333.082849935
333.080715337
333.078740468
333.076946359
333.075371085
333.074087714
333.106974079
333.107125884
333.10743031
333.107889123
333.108504827
333.109280355
333.110218695
333.111322443
333.112593329
333.114031713
333.115636111
333.117402758
333.119325271
333.121394424
333.12359808
333.1259213
333.12834662
333.130854498
333.133423898
333.136032969
333.138659765
333.141282956
333.143882472
333.146440037
333.148939578
333.151367467
333.153712634
333.15596653
333.158122994
333.160178026
333.162129516
333.163976949
333.165721097
333.167363739
333.1689074
333.170355128
333.171710304
333.172976496
333.174157335
333.175256432
333.176277314
333.177223386
333.178098425
333.178904615
333.179644046
333.180318707
333.180930488
333.18148119
333.181972535
333.182406176
333.182783709
333.183106688
333.183376634
333.183595046
333.183763411
333.183883217
333.183955957
333.183983136
333.183966279
333.183906934
333.183806673
333.183667088
333.183489795
333.18327642
333.183028594
333.182747935
333.182436036
333.182094433
333.181724589
333.181327855
333.180905437
333.180458357
333.179987413
333.179493138
333.17897577
333.178435229
333.177871112
333.177282707
333.176669026
333.176029423
333.175363812
333.174671068
333.173950044
333.173199616
333.172418709
333.171606321
333.17076154
333.169883547
333.168971627
333.168025164
333.167043641
333.166026634
333.164973809
333.163884908
333.162759746
333.161598194
333.160400169
333.159165621
333.157894514
333.156586812
333.15524246
333.153861365
333.152443375
333.150988255
333.149495668
333.147965147
333.146396069
333.144787627
333.1431388
333.141448325
333.139714634
333.137935767
333.13610951
333.134233396
333.132304721
333.130320595
333.128278009
333.126173953
333.124005589
333.12177047
333.119466846
333.117094026
333.11465281
333.11214596
333.109578669
333.106958969
333.104297983
333.101609948
333.098911905
333.096223004
333.093563458
333.090953217
333.088410583
333.085951017
333.083586534
333.081326241
333.079179036
333.077160696
333.07531008
333.073722605
333.107786542
333.107948917
333.108274219
333.108763735
333.109419272
333.110242855
333.111236364
333.112401102
333.113737352
333.115243914
333.11691769
333.118753319
333.120742919
333.122875944
333.125139193
333.127516975
333.129991428
333.132542977
333.135150895
333.137793941
333.140451016
333.143101788
333.145727256
333.148310205
333.150835535
333.153290459
333.155664573
333.157949801
333.160140263
333.16223206
333.164223025
333.16611245
333.167900821
333.169589556
333.171180776
333.172677105
333.1740815
333.175397112
333.176627183
333.177774959
333.178843627
333.179836265
333.180756833
333.181607355
333.182389701
333.183105647
333.18375689
333.184345065
333.184871748
333.185338468
333.185746716
333.186097957
333.186393632
333.186635174
333.186824016
333.186961593
333.187049353
333.187088763
333.18708131
333.187028504
333.186931882
333.186793001
333.18661344
333.186394788
333.186138637
333.185846566
333.185520126
333.185160817
333.184770065
333.184349189
333.183899375
333.183421639
333.182916792
333.182385415
333.181827828
333.181244076
333.180633924
333.179996867
333.179332156
333.178638827
333.177916481
333.177165328
333.176384444
333.175572898
333.174729781
333.173854232
333.172945459
333.172002751
333.171025485
333.170013134
333.168965262
333.167881526
333.166761671
333.165605528
333.164412997
333.163184047
333.161918698
333.16061701
333.159279069
333.15790497
333.156494798
333.155048616
333.153566435
333.152048203
333.150493776
333.148902897
333.147275171
333.145610039
333.14390675
333.142164332
333.14038156
333.138556837
333.136688352
333.134774086
333.132811827
333.130799216
333.128733813
333.126613199
333.124435118
333.122197675
333.119899574
333.117540425
333.115121079
333.112643998
333.110113614
333.107536623
333.104922158
333.102281756
333.099629065
333.096979231
333.094347982
333.091750454
333.089199902
333.086706473
333.084276335
333.081911681
333.079612791
333.077385348
333.075261455
333.073353125
333.108707052
333.108879398
333.109224383
333.109742814
333.110435801
333.11130447
333.112349605
333.113571253
333.114968303
333.116538092
333.118276034
333.120175339
333.122226822
333.124418835
333.126737334
333.129166088
333.131687017
333.134280648
333.136926649
333.139604416
333.142293665
333.144974988
333.147630336
333.150243412
333.152799942
333.155287826
333.157697185
333.160020297
333.162251463
333.164386807
333.166424053
333.168362271
333.170201642
333.17194322
333.173588728
333.175140376
333.176600708
333.177972477
333.17925855
333.180461831
333.181585209
333.182631522
333.183603976
333.184505504
333.185337629
333.186101853
333.186799655
333.187432481
333.188001745
333.188508837
333.188955122
333.189341955
333.189670679
333.189942638
333.190159179
333.190321661
333.190431458
333.190489961
333.190498584
333.190458764
333.190371962
333.190239657
333.190063346
333.189844537
333.189584734
333.189285434
333.1889481
333.188574151
333.188164936
333.18772171
333.187245604
333.186737604
333.186198518
333.185628952
333.185029295
333.1843997
333.183740083
333.183050134
333.182329326
333.181576946
333.18079212
333.179974505
333.179124891
333.178242609
333.177326972
333.176377331
333.175393095
333.17437374
333.173318822
333.172227978
333.171100932
333.169937498
333.168737571
333.167501131
333.16622823
333.164918987
333.163573578
333.162192219
333.160775158
333.159322657
333.157834978
333.156312362
333.154755011
333.15316307
333.151536604
333.149875577
333.148179828
333.146449046
333.144682745
333.142880239
333.141040644
333.139162706
333.137244993
333.135285897
333.133283656
333.131236391
333.129142168
333.126999087
333.124805408
333.122559707
333.120261086
333.117909404
333.115505557
333.113051756
333.110551791
333.108011242
333.105437578
333.102840077
333.100229537
333.097617705
333.095016448
333.092436664
333.08988702
333.087372615
333.084893746
333.082445171
333.080017032
333.07760132
333.075216503
333.072984525
333.109722561
333.109904101
333.110267228
333.110812288
333.11153973
333.112449823
333.113542322
333.114816098
333.116268768
333.117896345
333.119692933
333.121650511
333.123758807
333.126005287
333.128375271
333.130852165
333.133417814
333.136052934
333.138737626
333.141451903
333.144176229
333.146892009
333.149582013
333.152230706
333.15482448
333.157351773
333.159803093
333.162170954
333.164449743
333.16663554
333.168725906
333.17071966
333.172616662
333.1744176
333.176123802
333.177737074
333.179259559
333.180693624
333.182041768
333.183306556
333.184490565
333.185596351
333.186626439
333.187584664
333.188472255
333.189290468
333.190040565
333.190723798
333.191341414
333.191894648
333.192384733
333.192812898
333.193180375
333.193488401
333.193738223
333.193931101
333.194068312
333.19415115
333.194180931
333.19415899
333.194086681
333.193965377
333.193796461
333.193581326
333.193321359
333.193017937
333.192672409
333.192286081
333.191860198
333.191395921
333.190894311
333.190356299
333.189782671
333.189174046
333.18853086
333.187853359
333.187141595
333.18639543
333.185614549
333.184798479
333.183946614
333.183058246
333.182132735
333.181171955
333.180175383
333.179142645
333.178073419
333.176967435
333.175824489
333.174644453
333.173427275
333.172172987
333.1708817
333.169553603
333.168188952
333.166788073
333.165351341
333.163879177
333.162372032
333.160830371
333.159254662
333.157645357
333.156002871
333.154327569
333.152619742
333.150879584
333.149107177
333.147302461
333.145465215
333.143595033
333.14169137
333.139753302
333.137779747
333.135769478
333.133721139
333.131633282
333.129504419
333.127333106
333.125118042
333.122858211
333.120553042
333.118202604
333.11580782
333.113370676
333.110894418
333.108383685
333.10584455
333.103284401
333.100711646
333.098135169
333.095563548
333.09300401
333.090461155
333.087935467
333.085421652
333.082907025
333.080370902
333.07778926
333.075161505
333.072613802
333.110818673
333.11100854
333.111388098
333.111957273
333.112715906
333.113663484
333.114798829
333.116119764
333.117622781
333.119302741
333.121152637
333.123163424
333.125323954
333.127621011
333.130039457
333.132562484
333.135171958
333.13784884
333.14057366
333.143327001
333.146089984
333.148844705
333.151574604
333.154264757
333.156902066
333.15947536
333.161975405
333.164394841
333.166728054
333.168971009
333.171121061
333.173176748
333.175137592
333.177003908
333.178776634
333.180457178
333.182047292
333.183548966
333.184964337
333.186295631
333.1875451
333.188714975
333.189807417
333.190826691
333.191773982
333.192650368
333.193456904
333.194194653
333.194864686
333.195468084
333.196005939
333.196479352
333.196889434
333.197237308
333.19752411
333.197750993
333.197919124
333.198029686
333.198083881
333.198082926
333.198028054
333.197920511
333.197761549
333.197552426
333.197294395
333.196988696
333.196636543
333.196239114
333.195797535
333.195312861
333.194786065
333.194218015
333.193609459
333.192961015
333.192273153
333.191546194
333.190780305
333.189975502
333.189131664
333.18824854
333.187325771
333.186362912
333.185359443
333.184314727
333.183230918
333.182108259
333.180946761
333.179746449
333.178507399
333.17722976
333.175913756
333.174559684
333.173167917
333.171738902
333.170273149
333.16877123
333.167233768
333.165661426
333.164054894
333.162414877
333.160742084
333.159037202
333.157300889
333.155533751
333.153736323
333.151909049
333.150052263
333.148166166
333.146250804
333.144306046
333.142331695
333.140327141
333.138291635
333.136224303
333.134124157
333.131990135
333.129821145
333.127616137
333.125374189
333.123094626
333.120777149
333.118421993
333.116030087
333.113603215
333.11114415
333.108656729
333.106145843
333.103617294
333.101077481
333.098532875
333.09598926
333.093450709
333.090918261
333.088388254
333.085850212
333.08328427
333.080658779
333.077932393
333.075081693
333.072233354
333.111980973
333.112178283
333.112572534
333.113163283
333.113949834
333.114930986
333.116104748
333.117468034
333.119016377
333.120743676
333.122642004
333.1247015
333.126910335
333.129254791
333.131719424
333.134287324
333.136940449
333.139660027
333.142426992
333.14522243
333.14802802
333.150826417
333.15360159
333.156339075
333.159026138
333.161651863
333.164207153
333.16668467
333.169078717
333.171385081
333.173600865
333.175724295
333.177754538
333.179691531
333.18153582
333.183288423
333.184950707
333.186524297
333.188010986
333.189412682
333.190731351
333.19196899
333.193127597
333.194210105
333.195219518
333.196156518
333.197021883
333.19781646
333.19854114
333.199196848
333.199784535
333.200305176
333.200759762
333.201149304
333.201474828
333.201737375
333.201938002
333.202077778
333.202157787
333.202179124
333.202142893
333.202050208
333.201902184
333.201699939
333.201444583
333.201137213
333.200778905
333.200370703
333.199913607
333.199408563
333.198856451
333.198258066
333.197614115
333.196925201
333.196191817
333.195414342
333.194593041
333.193728064
333.192819461
333.191867185
333.190871112
333.189831052
333.188746772
333.187618009
333.186444516
333.185227302
333.183968599
333.182668677
333.18132789
333.179946697
333.178525619
333.177065251
333.175566262
333.174029387
333.172455426
333.170845233
333.16919971
333.167519796
333.165806453
333.164060659
333.162283389
333.160475599
333.158638213
333.156772104
333.154878074
333.152956835
333.151008992
333.149035019
333.147035238
333.145009798
333.142958846
333.14088209
333.138779108
333.136649351
333.134492176
333.132306866
333.130092681
333.127848915
333.125574972
333.123270464
333.120935316
333.118569886
333.116175097
333.113752542
333.111304575
333.10883434
333.106345725
333.103843184
333.101331419
333.098814858
333.096296908
333.09377893
333.091258855
333.088729322
333.086175101
333.083569532
333.080870175
333.078017797
333.074963887
333.071834222
333.113196009
333.113399911
333.11380719
333.114417088
333.115228452
333.116239496
333.117447542
333.118848744
333.120437844
333.122207957
333.124150433
333.126254774
333.128508654
333.130898006
333.133407203
333.13601932
333.138716454
333.1414801
333.144291559
333.147132345
333.149984585
333.152831374
333.155657071
333.158447529
333.161190244
333.163874426
333.166491004
333.169032567
333.171493255
333.17386862
333.176155464
333.178351672
333.180456038
333.182468109
333.18438804
333.186216458
333.187954357
333.189603005
333.191163861
333.192638524
333.194028679
333.195336068
333.19656246
333.197709653
333.198782237
333.199780663
333.200705502
333.201557413
333.202337124
333.203045414
333.203683106
333.204251058
333.204750152
333.205181296
333.205545414
333.205843447
333.206076346
333.206245076
333.206350607
333.206393915
333.206375983
333.206297794
333.206160332
333.205964575
333.205711494
333.205402048
333.205037173
333.204617784
333.204144757
333.203618929
333.203041083
333.202411945
333.20173217
333.201002342
333.200222965
333.199394461
333.198517173
333.197591366
333.196617238
333.195594922
333.194524505
333.193406038
333.192239551
333.191025073
333.189762657
333.188452399
333.187094008
333.185691596
333.184245791
333.182757487
333.181227486
333.179656698
333.178046102
333.176396744
333.17470973
333.172986219
333.171227416
333.169434559
333.16760891
333.165751743
333.163864327
333.161947913
333.160003715
333.158032899
333.156036557
333.154015694
333.151971207
333.149903864
333.147814289
333.145702936
333.143570167
333.141416156
333.13924078
333.1370438
333.134824886
333.132583642
333.130319643
333.128032488
333.125721865
333.123387626
333.121029879
333.118649081
333.116246126
333.113822429
333.111379969
333.108921286
333.106449399
333.103967612
333.101479178
333.098986786
333.096491806
333.093993255
333.09148634
333.088960398
333.086395853
333.083759656
333.080998919
333.078036466
333.07479767
333.071408114
333.11445198
333.114661691
333.115080463
333.115707284
333.116540623
333.117578214
333.118816815
333.120251967
333.121877779
333.123686756
333.125669693
333.127815631
333.130111895
333.132544202
333.135096847
333.137752953
333.140494784
333.143304093
333.146162497
333.149051863
333.151954667
333.15485432
333.157735444
333.160584081
333.163387827
333.166135903
333.16881916
333.171430023
333.173962396
333.176411536
333.178773904
333.181047008
333.18322925
333.185319777
333.187318344
333.189225194
333.191040952
333.192766536
333.194403084
333.195951894
333.197414374
333.198791994
333.200086241
333.201298537
333.202433644
333.203492578
333.204475802
333.205383816
333.2062172
333.206976605
333.207662744
333.208276373
333.208818288
333.209289309
333.209690279
333.210022053
333.210285496
333.210481478
333.210610873
333.210674552
333.210673384
333.210608236
333.210479966
333.210289424
333.21003745
333.209724869
333.209352489
333.208921095
333.208431446
333.207884271
333.20728026
333.206620063
333.205904283
333.205133475
333.204308141
333.203428734
333.202495654
333.20150926
333.20046987
333.199377771
333.198233232
333.19703651
333.195787867
333.194487578
333.193135947
333.19173331
333.190280041
333.188776685
333.187224389
333.185627635
333.183987015
333.182303842
333.180579402
333.178815054
333.17701222
333.175172374
333.173297036
333.171387759
333.169446121
333.167473711
333.165472114
333.163442894
333.161387585
333.159307664
333.157204541
333.155079536
333.152933861
333.150768602
333.1485847
333.146382933
333.144163904
333.141928258
333.139676169
333.137407704
333.135122833
333.132821461
333.130503453
333.128168684
333.125817091
333.123448737
333.121063881
333.118663049
333.116247103
333.113817283
333.111375232
333.108922953
333.10646271
333.103996809
333.101527259
333.099055246
333.096580383
333.094099643
333.091605831
333.089085315
333.086514535
333.083854456
333.081042154
333.07798279
333.074575565
333.070948309
333.115739245
333.115954057
333.116382942
333.117024689
333.117877466
333.118938625
333.120204479
333.12167009
333.12332908
333.125173502
333.12719375
333.129378552
333.131715018
333.134188759
333.136784073
333.139484184
333.142271536
333.14512812
333.148035827
333.150976794
333.153933751
333.156890317
333.159831257
333.162742679
333.165612167
333.168428845
333.171183386
333.173867968
333.176476192
333.179002959
333.181444345
333.183797452
333.186060266
333.188231521
333.190310571
333.192297272
333.194191888
333.195995003
333.197707449
333.199330254
333.200864591
333.202311751
333.203673118
333.204950182
333.206144609
333.207261289
333.208300173
333.209261498
333.210145676
333.21095324
333.21168481
333.212341071
333.212922753
333.21343062
333.213865455
333.214228054
333.214519215
333.214739737
333.214890415
333.214972031
333.214985358
333.214931159
333.214810179
333.214623151
333.21437079
333.214053799
333.213672859
333.213228634
333.212721767
333.212152879
333.211522567
333.2108314
333.210079922
333.209268648
333.208398066
333.207468639
333.206480809
333.205434998
333.20433162
333.203171087
333.201953815
333.200680236
333.199350808
333.197966024
333.196526422
333.195032596
333.193485209
333.191885012
333.190232832
333.18852935
333.186778003
333.184982302
333.183143577
333.18126352
333.179343862
333.177386391
333.175392943
333.173365395
333.171305647
333.169215618
333.167097221
333.164952358
333.162782893
333.160590643
333.158377354
333.156144686
333.153894191
333.151627294
333.149345276
333.147049252
333.144740156
333.142419057
333.140086439
333.137742674
333.135388032
333.133022706
333.130646836
333.128260554
333.125864022
333.12345749
333.121041346
333.118616171
333.116182782
333.113742257
333.111295929
333.108845326
333.10639204
333.103937509
333.101482653
333.09902735
333.096569679
333.094104813
333.091623412
333.089109162
333.086534829