/*--------------------------------*- C++ -*----------------------------------*\
| =========                 |                                                 |
| \\      /  F ield         | OpenFOAM: The Open Source CFD Toolbox           |
|  \\    /   O peration     | Version:  2312                                  |
|   \\  /    A nd           | Website:  www.openfoam.com                      |
|    \\/     M anipulation  |                                                 |
\*---------------------------------------------------------------------------*/
FoamFile
{
    version     2.0;
    format      ascii;
    arch        "LSB;label=32;scalar=64";
    class       volVectorField;
    location    "3.1/water";
    object      U.gas;
}
// * * * * * * * * * * * * * * * * * * * * * * * * * * * * * * * * * * * * * //

dimensions      [0 1 -1 0 0 0 0];

internalField   nonuniform List<vector> 
23300
(
(-0.00195668243998 0.136043702597 0)
(-0.00196947384952 0.136030662467 0)
(-8.90524733057e-05 0.135990579911 0)
(-0.000237186463403 0.135943730633 0)
(-0.000412937171547 0.135893987547 0)
(-0.00064062842623 0.13583947531 0)
(-0.000924179736658 0.135786836397 0)
(-0.00126974268885 0.135733312189 0)
(-0.00167436752185 0.135686232254 0)
(-0.00213808257794 0.135641594239 0)
(-0.00265620507191 0.135606689206 0)
(-0.00322570801583 0.135576471979 0)
(-0.00384147102294 0.135557669312 0)
(-0.00449944018268 0.135544393712 0)
(-0.0051947124147 0.135542753867 0)
(-0.00592342522851 0.135546179279 0)
(-0.00668115856992 0.135560327197 0)
(-0.00746449869475 0.135578200506 0)
(-0.00826923687372 0.13560529485 0)
(-0.00909207124826 0.13563444921 0)
(-0.00992853507816 0.135671268916 0)
(-0.0107749703739 0.135708608833 0)
(-0.0116263786822 0.13575235105 0)
(-0.0124785404486 0.135795452497 0)
(-0.0133259275804 0.135844123964 0)
(-0.0141637883571 0.135891424803 0)
(-0.0149863023652 0.135943866082 0)
(-0.0157884081937 0.135994581603 0)
(-0.0165642986532 0.13605031711 0)
(-0.0173088435247 0.136104244009 0)
(-0.0180165733071 0.136163269131 0)
(-0.018682556297 0.136220586565 0)
(-0.0193019359673 0.136283193359 0)
(-0.0198701926081 0.136344299822 0)
(-0.0203833307884 0.136410927122 0)
(-0.0208374487974 0.136476314218 0)
(-0.0212295882138 0.136547442596 0)
(-0.0215565955469 0.136617592773 0)
(-0.0218166618783 0.136693646397 0)
(-0.0220073754062 0.136768945417 0)
(-0.0221275050774 0.136850193997 0)
(-0.0221750534036 0.136930778419 0)
(-0.0221509502657 0.137017164293 0)
(-0.0220548476356 0.137102857874 0)
(-0.0218880595866 0.137194075719 0)
(-0.0216504188047 0.137284415686 0)
(-0.0213441822909 0.137379743445 0)
(-0.020969915665 0.137473748132 0)
(-0.0205307103632 0.137571913289 0)
(-0.0200277790895 0.137668025741 0)
(-0.0194649118688 0.137767159226 0)
(-0.0188439064751 0.137863197336 0)
(-0.0181691143624 0.137960780336 0)
(-0.0174428481803 0.13805387458 0)
(-0.0166699055431 0.138146673456 0)
(-0.0158530680059 0.138233214179 0)
(-0.014997476242 0.138317245316 0)
(-0.0141063412791 0.138392867197 0)
(-0.0131850957292 0.138463414347 0)
(-0.0122373994083 0.138523072314 0)
(-0.0112689908266 0.138574838379 0)
(-0.0102840621238 0.138613052844 0)
(-0.00928878629437 0.138640525569 0)
(-0.00828809037453 0.138651908608 0)
(-0.00728882665177 0.138650080076 0)
(-0.00629695914711 0.138630283986 0)
(-0.00532038322757 0.1385958798 0)
(-0.00436648190155 0.138543186102 0)
(-0.00344453535098 0.138476715308 0)
(-0.00256344290687 0.138394691504 0)
(-0.00173331578682 0.138303924779 0)
(-0.000962066371385 0.138206006858 0)
(-0.000253013427785 0.138111881233 0)
(0.000407497094434 0.138028209601 0)
(0.00105118244691 0.13796943515 0)
(0.00169530074192 0.137940018501 0)
(0.00231669914738 0.137945383001 0)
(0.0029005548972 0.137981950037 0)
(0.00347540256925 0.138047100349 0)
(0.00408274036083 0.138126381372 0)
(0.00474180813929 0.138211975887 0)
(0.00545309896944 0.138292687919 0)
(0.00620902849104 0.138365670778 0)
(0.00700066193926 0.13842426139 0)
(0.00781792447555 0.138468928132 0)
(0.00865199315974 0.138495766053 0)
(0.00949386702469 0.138507136426 0)
(0.010336140471 0.13850081282 0)
(0.0111712909797 0.138480208558 0)
(0.0119933363594 0.138444094682 0)
(0.0127960428127 0.138396372763 0)
(0.0135745770092 0.138336336314 0)
(0.0143237028065 0.138267979169 0)
(0.0150394608675 0.138190788582 0)
(0.0157173707106 0.138108591103 0)
(0.016354148899 0.138020864286 0)
(0.0169459263801 0.137931117854 0)
(0.0174899936496 0.13783871003 0)
(0.017983026332 0.13774676579 0)
(0.0184228492418 0.137654482728 0)
(0.0188066731666 0.13756458628 0)
(0.0191328637968 0.137476111666 0)
(0.0193991859748 0.137391400955 0)
(0.0196045722336 0.137309347785 0)
(0.019747382383 0.137231939764 0)
(0.0198271642116 0.137157953993 0)
(0.0198429313742 0.137089051734 0)
(0.0197948990279 0.137023912112 0)
(0.0196826357666 0.136963895217 0)
(0.0195068088394 0.136907692753 0)
(0.0192675387189 0.136856563318 0)
(0.0189659814993 0.136809187717 0)
(0.0186026549255 0.136766512198 0)
(0.0181791519071 0.136727196533 0)
(0.0176965960924 0.136692023749 0)
(0.0171572747505 0.136659698138 0)
(0.0165630364487 0.136630851098 0)
(0.0159168906977 0.136604230638 0)
(0.0152214394847 0.136580320249 0)
(0.0144804524813 0.136557911541 0)
(0.0136973244987 0.13653734613 0)
(0.0128766165689 0.136517466851 0)
(0.0120225133878 0.13649849631 0)
(0.0111402962331 0.136479367793 0)
(0.0102347373152 0.136460258555 0)
(0.00931142585848 0.136440310235 0)
(0.00837500691599 0.136419840563 0)
(0.00743033137461 0.136398463402 0)
(0.00648067464287 0.13637698225 0)
(0.00552922482355 0.136355866152 0)
(0.00457836045334 0.136336715881 0)
(0.00363311807067 0.136320883757 0)
(0.00270324272925 0.136310233682 0)
(0.00180930403575 0.136305669004 0)
(0.000986025185727 0.136307209162 0)
(0.000287171321939 0.136312839863 0)
(-0.000214599140221 0.136318747977 0)
(-0.000435074806772 0.136319670525 0)
(-0.0027316516577 0.136306483205 0)
(-0.00249948660762 0.136282649068 0)
(-0.00118476864105 0.247522236108 0)
(-0.00144188254601 0.247535339293 0)
(-0.000634314990889 0.247516633121 0)
(-0.000890445846559 0.24749738142 0)
(-0.00116942202893 0.247482459286 0)
(-0.00147611971516 0.247468282053 0)
(-0.00181426650928 0.247461381298 0)
(-0.00218844996298 0.247457017262 0)
(-0.00260010427473 0.247462774726 0)
(-0.0030509106041 0.24747246538 0)
(-0.00354077656988 0.2474934885 0)
(-0.00406973897103 0.247518377194 0)
(-0.00463669939506 0.247553932923 0)
(-0.0052404983809 0.247591680295 0)
(-0.00587927105484 0.247637752228 0)
(-0.00655100005176 0.247683012347 0)
(-0.00725299130664 0.247733233604 0)
(-0.00798235466994 0.247779043375 0)
(-0.00873543370065 0.247826312202 0)
(-0.00950839347406 0.247865821306 0)
(-0.0102965971149 0.247903930792 0)
(-0.0110953158085 0.247931824228 0)
(-0.0118991190659 0.247956561063 0)
(-0.0127026495193 0.24796980746 0)
(-0.0135000404414 0.247979350268 0)
(-0.0142856568493 0.247977288232 0)
(-0.0150535893067 0.247972035404 0)
(-0.0157982900335 0.247956008308 0)
(-0.0165141587826 0.247938086567 0)
(-0.017196013653 0.247910873995 0)
(-0.0178388294913 0.247883534121 0)
(-0.018438018083 0.247848743184 0)
(-0.0189893339731 0.247815775336 0)
(-0.019488933076 0.247777292203 0)
(-0.0199334878251 0.247742524459 0)
(-0.020320015329 0.24770406702 0)
(-0.0206461949415 0.247670980803 0)
(-0.0209099506821 0.247635774675 0)
(-0.0211099970288 0.247607239997 0)
(-0.0212451785327 0.247577806979 0)
(-0.0213149443761 0.247555895255 0)
(-0.0213187363411 0.247533952994 0)
(-0.0212574192211 0.247520085187 0)
(-0.0211316830747 0.247506654797 0)
(-0.0209429556451 0.247501272667 0)
(-0.0206924154193 0.247496345705 0)
(-0.0203822349045 0.247499010183 0)
(-0.0200142121954 0.247501743505 0)
(-0.0195911429701 0.24751119596 0)
(-0.0191153643228 0.247519953717 0)
(-0.0185901973336 0.247534175367 0)
(-0.0180184494847 0.24754658215 0)
(-0.017403871632 0.247562842146 0)
(-0.0167496552775 0.247575827118 0)
(-0.0160598730835 0.247590725982 0)
(-0.0153380133148 0.247600573433 0)
(-0.0145883546625 0.24761010918 0)
(-0.0138145660061 0.247612550937 0)
(-0.0130209956982 0.247612249819 0)
(-0.0122113668481 0.247602654376 0)
(-0.0113899499222 0.247587838643 0)
(-0.0105603679732 0.247561583044 0)
(-0.0097266485278 0.247527872565 0)
(-0.00889214869907 0.24748100805 0)
(-0.00806046247024 0.247425183737 0)
(-0.00723444520163 0.247355534849 0)
(-0.00641695188023 0.247276911908 0)
(-0.00560989940527 0.247185771612 0)
(-0.00481473329112 0.247088268085 0)
(-0.0040313353531 0.246982893379 0)
(-0.0032579479168 0.246877984084 0)
(-0.00248943087216 0.246774953883 0)
(-0.00171614022947 0.246685049709 0)
(-0.000922382534356 0.246612245391 0)
(-9.52905153727e-05 0.24656687887 0)
(0.000753703817202 0.246547315058 0)
(0.00159120077885 0.246555567229 0)
(0.00239050642935 0.246589585982 0)
(0.0031434458683 0.246654689857 0)
(0.00386143894878 0.246740831751 0)
(0.00456213596957 0.246842965609 0)
(0.00525715767129 0.246949507885 0)
(0.00595247920962 0.247057490658 0)
(0.00665086017706 0.247158664089 0)
(0.00735265330457 0.247252953165 0)
(0.00805716575678 0.247334882106 0)
(0.00876261732233 0.247406415539 0)
(0.00946695431996 0.247464004676 0)
(0.010167480389 0.247510883344 0)
(0.0108614911546 0.247544751183 0)
(0.0115457988126 0.247569520395 0)
(0.0122173234355 0.247583630129 0)
(0.0128725935976 0.247591239799 0)
(0.0135083366528 0.24759116586 0)
(0.0141209680303 0.247587519505 0)
(0.0147071830519 0.247579254622 0)
(0.0152634404655 0.247570248114 0)
(0.0157865547261 0.247559445833 0)
(0.0162731685015 0.247550385829 0)
(0.0167203399067 0.247541928676 0)
(0.0171250083282 0.247537225594 0)
(0.017484576377 0.247535019368 0)
(0.0177963670859 0.247538061706 0)
(0.018058197369 0.247544971476 0)
(0.0182678323576 0.247558107246 0)
(0.0184235505516 0.247575969862 0)
(0.0185235946264 0.247600538431 0)
(0.0185667376677 0.247630205976 0)
(0.0185518580507 0.247666594225 0)
(0.0184785087305 0.247708069761 0)
(0.0183459737457 0.247756090474 0)
(0.0181538282593 0.24780900512 0)
(0.0179017847899 0.247867856402 0)
(0.0175902071682 0.247930893224 0)
(0.0172195296212 0.247998869278 0)
(0.0167907884215 0.248069980743 0)
(0.0163051321825 0.248144680772 0)
(0.0157643648409 0.24822108516 0)
(0.0151704789836 0.248299314136 0)
(0.0145262068565 0.248377352331 0)
(0.0138345807099 0.248454924875 0)
(0.0130994933064 0.248529798806 0)
(0.0123252722943 0.24860120188 0)
(0.0115172192355 0.248666562169 0)
(0.0106811341669 0.248724493976 0)
(0.00982372908141 0.24877200519 0)
(0.00895195403967 0.248807121395 0)
(0.00807313139465 0.24882665061 0)
(0.00719400040819 0.248828560988 0)
(0.00632070969787 0.248810378588 0)
(0.0054581021603 0.248771291949 0)
(0.00461055171623 0.248710948081 0)
(0.00378277985853 0.248630838795 0)
(0.00298259012046 0.248532960224 0)
(0.00222328520873 0.248420214498 0)
(0.0015269504262 0.24829525308 0)
(0.000926525902896 0.248160970574 0)
(0.000472673536389 0.248021336509 0)
(-0.00115726579728 0.247877183472 0)
(-0.00130234244275 0.247754387433 0)
(-0.00126241467739 0.227247760438 0)
(-0.00155656444746 0.227290112976 0)
(-0.000722577442461 0.227336833483 0)
(-0.00100757770815 0.227398195969 0)
(-0.00131762773151 0.227476097062 0)
(-0.00165749616327 0.227568246784 0)
(-0.00203035600833 0.227673950933 0)
(-0.00244004309633 0.227790426381 0)
(-0.00288774249759 0.227917176569 0)
(-0.00337483789677 0.228050657555 0)
(-0.00390077833974 0.228190112493 0)
(-0.00446479430627 0.228331263647 0)
(-0.00506516118629 0.228472803469 0)
(-0.00569997643933 0.228609923579 0)
(-0.00636668694507 0.228740935355 0)
(-0.00706267104763 0.228860872619 0)
(-0.00778474975247 0.228968098535 0)
(-0.00852969894395 0.229057979368 0)
(-0.00929371078309 0.229129427814 0)
(-0.0100729428619 0.2291785773 0)
(-0.0108629341348 0.229205272116 0)
(-0.0116592416068 0.229206665488 0)
(-0.0124568736541 0.229183693517 0)
(-0.0132509621414 0.22913456709 0)
(-0.0140362285946 0.229061274317 0)
(-0.0148076356335 0.228962955637 0)
(-0.0155599283108 0.228842465866 0)
(-0.0162881827384 0.228699649277 0)
(-0.0169874350761 0.228537976564 0)
(-0.0176530946457 0.228357734527 0)
(-0.018280711063 0.228162734596 0)
(-0.0188662083267 0.227953449529 0)
(-0.0194058045416 0.227733780927 0)
(-0.0198960609008 0.227504169791 0)
(-0.0203339898355 0.227268398408 0)
(-0.0207168910228 0.227026714432 0)
(-0.0210426436731 0.226782637097 0)
(-0.0213093362149 0.226536124829 0)
(-0.0215157590804 0.226290346735 0)
(-0.0216608465348 0.226044937486 0)
(-0.0217437384274 0.225802674504 0)
(-0.0217635303956 0.225562986926 0)
(-0.021721213931 0.22532841316 0)
(-0.0216176404135 0.225098055661 0)
(-0.0214540338678 0.22487402605 0)
(-0.021231397884 0.224655200738 0)
(-0.020951627075 0.224443445662 0)
(-0.0206162898766 0.224237530639 0)
(-0.020227839258 0.224039126176 0)
(-0.0197883286602 0.223846955021 0)
(-0.0193006782538 0.223662536996 0)
(-0.018767352071 0.223484600417 0)
(-0.0181916307782 0.223314558071 0)
(-0.0175762950154 0.223151188436 0)
(-0.016924874862 0.222995832261 0)
(-0.0162403649582 0.222847353318 0)
(-0.0155264084438 0.222707054264 0)
(-0.0147860801633 0.22257391371 0)
(-0.0140229863862 0.222449225632 0)
(-0.0132401314396 0.222332108753 0)
(-0.0124409071536 0.222223881215 0)
(-0.0116280646281 0.222123826735 0)
(-0.010804588782 0.222033319516 0)
(-0.00997277130689 0.221951830644 0)
(-0.0091349514841 0.221880821116 0)
(-0.00829268021988 0.221819956983 0)
(-0.00744731475433 0.221770782525 0)
(-0.00659922189169 0.221733097979 0)
(-0.00574818242373 0.2217084069 0)
(-0.0048925515525 0.221696361926 0)
(-0.00402942859983 0.221697917509 0)
(-0.00315373289924 0.221711639186 0)
(-0.00225859390171 0.221736305713 0)
(-0.00133630265896 0.221766666994 0)
(-0.000383699150125 0.221795703285 0)
(0.000581155678009 0.221814079154 0)
(0.00152966421032 0.221818146699 0)
(0.00244927790373 0.221809320357 0)
(0.00333039709951 0.221798016929 0)
(0.00416951785777 0.221793541536 0)
(0.00497471831812 0.221801182672 0)
(0.00575428219292 0.221822144859 0)
(0.00651425436685 0.221857444739 0)
(0.00725882339031 0.221905931781 0)
(0.00799025424165 0.221967457681 0)
(0.00870984240977 0.222040437501 0)
(0.0094177221172 0.222124598847 0)
(0.0101136196622 0.222218457492 0)
(0.0107964921278 0.222321873724 0)
(0.0114651518229 0.222433575318 0)
(0.0121178232293 0.222553588875 0)
(0.012752721083 0.222680853744 0)
(0.0133675832083 0.222815543731 0)
(0.0139602334269 0.2229567827 0)
(0.0145281057978 0.223104856758 0)
(0.0150688050312 0.223259037719 0)
(0.0155796293003 0.223419684899 0)
(0.0160581248025 0.223586178498 0)
(0.0165016037447 0.223758909803 0)
(0.0169076936084 0.223937327844 0)
(0.017273852438 0.224121817939 0)
(0.0175979080473 0.224311861617 0)
(0.017877568498 0.224507803072 0)
(0.0181109524508 0.224709123456 0)
(0.0182960985022 0.224916096227 0)
(0.0184314841642 0.225128174948 0)
(0.0185155364431 0.225345539621 0)
(0.0185471465906 0.2255675998 0)
(0.0185252784191 0.225794429597 0)
(0.0184495895668 0.226025362882 0)
(0.0183194684697 0.226260394933 0)
(0.0181344404876 0.226498810659 0)
(0.0178942102879 0.226740366647 0)
(0.0175991215695 0.226984133818 0)
(0.0172495853922 0.227229600475 0)
(0.0168465666528 0.227475584884 0)
(0.0163911446676 0.227721234307 0)
(0.015884998959 0.227965028991 0)
(0.0153299866731 0.228205669525 0)
(0.0147286273062 0.228441163303 0)
(0.014083689418 0.228669594396 0)
(0.013398658736 0.228888282502 0)
(0.01267730243 0.229094432872 0)
(0.0119240692432 0.229284372849 0)
(0.0111435505493 0.229454110424 0)
(0.0103407088869 0.229598709382 0)
(0.00952012622996 0.229712868502 0)
(0.00868600343929 0.22979060051 0)
(0.00784127479908 0.229826036315 0)
(0.00698772922 0.229813591663 0)
(0.00612571522093 0.229749067112 0)
(0.00525547892794 0.229630142118 0)
(0.00437868259688 0.229457332582 0)
(0.00350179588303 0.229234187867 0)
(0.0026392408689 0.22896759866 0)
(0.00181721672558 0.22866768261 0)
(0.00107639617026 0.228348193343 0)
(0.000475890909486 0.228027419917 0)
(-0.00140166074012 0.227724977934 0)
(-0.00151135368852 0.227524866371 0)
(-0.00124662427239 0.231053574897 0)
(-0.00156685934103 0.231084873227 0)
(-0.000794547621185 0.231143251429 0)
(-0.001117890983 0.231223872899 0)
(-0.00146543215317 0.231327350256 0)
(-0.00184352311713 0.231452586088 0)
(-0.00225501916713 0.231597930775 0)
(-0.00270338693763 0.231761211404 0)
(-0.00318988511651 0.231940419008 0)
(-0.00371518818392 0.232132486614 0)
(-0.00427849446147 0.232334578148 0)
(-0.00487876385553 0.232542550202 0)
(-0.0055137563667 0.232752640319 0)
(-0.00618109403138 0.232959803706 0)
(-0.00687771599128 0.233159613162 0)
(-0.00760052257583 0.233346680794 0)
(-0.0083459107045 0.233516561423 0)
(-0.00911032823328 0.233664271167 0)
(-0.0098897460007 0.233786094451 0)
(-0.0106802358231 0.233878137429 0)
(-0.0114773919598 0.233937994923 0)
(-0.012276954871 0.23396327352 0)
(-0.0130742391385 0.233953133945 0)
(-0.0138647757555 0.233906766214 0)
(-0.0146437803856 0.233824845036 0)
(-0.015406755045 0.23370795761 0)
(-0.0161490316744 0.233558023187 0)
(-0.0168662792062 0.233376692843 0)
(-0.0175541455584 0.233166765835 0)
(-0.018208625681 0.232930569473 0)
(-0.0188258385689 0.23267139947 0)
(-0.0194022318927 0.2323918941 0)
(-0.0199345155089 0.232095507481 0)
(-0.0204196815942 0.231784880694 0)
(-0.0208551184772 0.231463356559 0)
(-0.0212384361151 0.231133356956 0)
(-0.0215677636942 0.2307979335 0)
(-0.0218413722732 0.230459150359 0)
(-0.0220581578791 0.230119666687 0)
(-0.0222171084416 0.229781131913 0)
(-0.0223173097049 0.229445796556 0)
(-0.0223576443364 0.229114854996 0)
(-0.0223388297513 0.228790157855 0)
(-0.0222616947357 0.228472725291 0)
(-0.0221274080271 0.228164034123 0)
(-0.0219367043765 0.227864653018 0)
(-0.0216911382128 0.227575805836 0)
(-0.0213919228127 0.227297861248 0)
(-0.0210410898485 0.227031851062 0)
(-0.0206402616038 0.226778003094 0)
(-0.0201918559468 0.226537204579 0)
(-0.0196978319764 0.226309590285 0)
(-0.0191608981049 0.226095937191 0)
(-0.0185832641721 0.225896314271 0)
(-0.0179678198926 0.225711402007 0)
(-0.0173169270022 0.225541213791 0)
(-0.0166335338584 0.225386332546 0)
(-0.0159200332905 0.22524670644 0)
(-0.015179292838 0.225122802427 0)
(-0.0144136008111 0.225014480617 0)
(-0.0136255942227 0.224922064003 0)
(-0.0128173052216 0.224845287652 0)
(-0.0119909817072 0.224784290383 0)
(-0.0111482385747 0.224738633913 0)
(-0.0102907644894 0.224708219182 0)
(-0.00941956568878 0.224692357668 0)
(-0.00853555884655 0.22469061555 0)
(-0.00763888296611 0.224701910778 0)
(-0.00672937871212 0.224725277559 0)
(-0.00580594301143 0.224758943856 0)
(-0.0048669583267 0.224800999385 0)
(-0.00390983703016 0.224848401288 0)
(-0.00293197088328 0.224897533848 0)
(-0.00193162620311 0.22494325288 0)
(-0.000910917407515 0.224979967145 0)
(0.000115963641773 0.225001915114 0)
(0.00112591785129 0.225010019076 0)
(0.00211057974392 0.225003819579 0)
(0.00306998648673 0.224985687224 0)
(0.00399724416102 0.22496443023 0)
(0.00488927645178 0.224945564074 0)
(0.00574970243972 0.224932883507 0)
(0.00658154804934 0.224929312418 0)
(0.00738751137318 0.224936616824 0)
(0.00816931199845 0.224956274452 0)
(0.00892828503898 0.224989029194 0)
(0.00966497499098 0.225035631473 0)
(0.0103797442786 0.225096314523 0)
(0.0110723320884 0.225171448444 0)
(0.0117424186307 0.225260985204 0)
(0.0123891545621 0.225365068217 0)
(0.0130117040671 0.22548347425 0)
(0.0136087677395 0.225616195416 0)
(0.0141791203935 0.225762889072 0)
(0.0147211348994 0.225923438357 0)
(0.0152333180618 0.22609741648 0)
(0.0157138383239 0.226284625379 0)
(0.0161610593378 0.226484576663 0)
(0.0165730692118 0.226697008134 0)
(0.016948208431 0.226921384468 0)
(0.0172846003015 0.227157389245 0)
(0.0175806714337 0.227404446275 0)
(0.0178346816669 0.227662186228 0)
(0.0180452348322 0.22792999068 0)
(0.018210809544 0.228207431577 0)
(0.0183302602743 0.228493838771 0)
(0.0184023503964 0.228788712602 0)
(0.0184262423371 0.2290913165 0)
(0.0184011319122 0.229401061964 0)
(0.018326928375 0.229717141019 0)
(0.0182032215612 0.230038931505 0)
(0.018029572641 0.230365531336 0)
(0.0178057236293 0.230696043559 0)
(0.0175320480944 0.231029273952 0)
(0.0172089413714 0.231364016652 0)
(0.0168372858063 0.231698729987 0)
(0.0164180284428 0.232031786183 0)
(0.0159526369757 0.232361162986 0)
(0.0154426854076 0.232684654179 0)
(0.0148902985459 0.232999571931 0)
(0.0142977338291 0.233302914581 0)
(0.0136677939982 0.233591079517 0)
(0.0130033686725 0.233859996982 0)
(0.0123077628127 0.23410487723 0)
(0.0115841277335 0.234320359101 0)
(0.0108356290196 0.234500375826 0)
(0.0100647056421 0.234638443908 0)
(0.00927308904995 0.234727807468 0)
(0.00846104214106 0.234762030969 0)
(0.00762762267088 0.234735525084 0)
(0.0067705882977 0.234644398131 0)
(0.00588784707155 0.234487089633 0)
(0.00497903681035 0.234264981212 0)
(0.00404884618986 0.233982558626 0)
(0.00311012422216 0.233647454163 0)
(0.00218773798533 0.233270471723 0)
(0.00132088876538 0.232866332124 0)
(0.000564965282919 0.232455541252 0)
(-0.00136516491795 0.232063887726 0)
(-0.00147651262307 0.231842522847 0)
(-0.00126439592807 0.230966322047 0)
(-0.00160901651812 0.230997535975 0)
(-0.000860754172121 0.231070453226 0)
(-0.00121947323095 0.231175100891 0)
(-0.00160265472891 0.231311066563 0)
(-0.0020167105205 0.231476718571 0)
(-0.00246524520929 0.231669611981 0)
(-0.00295120176207 0.231887033272 0)
(-0.00347529362795 0.232125631896 0)
(-0.00403819010835 0.232381421023 0)
(-0.00463872139474 0.232649977565 0)
(-0.00527521031799 0.232925987533 0)
(-0.00594506068726 0.233203870068 0)
(-0.00664539923971 0.233477297918 0)
(-0.00737268619189 0.233739994455 0)
(-0.00812340405789 0.23398533884 0)
(-0.00889356603436 0.234207192948 0)
(-0.0096793679804 0.234399577715 0)
(-0.0104766139889 0.234557403606 0)
(-0.0112813630274 0.234676160378 0)
(-0.0120893025436 0.234752485569 0)
(-0.0128964072408 0.234783817652 0)
(-0.0136983180339 0.234768800266 0)
(-0.0144909899728 0.234706889283 0)
(-0.0152701188488 0.234598634465 0)
(-0.0160317364229 0.234445252894 0)
(-0.0167717228241 0.234248842285 0)
(-0.0174862992492 0.234011942635 0)
(-0.0181716532027 0.233737729081 0)
(-0.0188242932415 0.233429573617 0)
(-0.0194408195378 0.233091251063 0)
(-0.0200181120298 0.232726508679 0)
(-0.0205532674947 0.232339307796 0)
(-0.0210436048363 0.231933399366 0)
(-0.0214867878234 0.231512613627 0)
(-0.0218806327299 0.231080439183 0)
(-0.0222234205757 0.230640366339 0)
(-0.0225135045976 0.230195461506 0)
(-0.0227498124293 0.229748762785 0)
(-0.0229312543826 0.229302842836 0)
(-0.0230569695814 0.228860267402 0)
(-0.023125634453 0.228422978072 0)
(-0.0231372746762 0.227993083105 0)
(-0.0230925939054 0.227572437525 0)
(-0.022992849092 0.227162705431 0)
(-0.0228384352313 0.226765149053 0)
(-0.0226305362965 0.226381151428 0)
(-0.022369957295 0.226011721331 0)
(-0.0220582872969 0.225658021876 0)
(-0.0216966748101 0.225320870863 0)
(-0.0212870321224 0.225001260794 0)
(-0.020830788512 0.224699862236 0)
(-0.0203300939994 0.224417524397 0)
(-0.0197865861729 0.224154789303 0)
(-0.0192025599579 0.223912363511 0)
(-0.0185797784601 0.223690652345 0)
(-0.0179205778778 0.223490196161 0)
(-0.0172267502009 0.223311230237 0)
(-0.0165005634465 0.223154081566 0)
(-0.0157437350518 0.223018759763 0)
(-0.0149583532398 0.222905314202 0)
(-0.0141459547579 0.222813456569 0)
(-0.0133083439971 0.222742880845 0)
(-0.0124467766804 0.222692916028 0)
(-0.01156267621 0.222662813346 0)
(-0.0106569159439 0.222651419928 0)
(-0.00973044053834 0.222657436025 0)
(-0.00878363011938 0.222679094837 0)
(-0.0078168473326 0.222714389862 0)
(-0.00682988910019 0.222760741021 0)
(-0.00582255813146 0.222815194008 0)
(-0.0047943621416 0.222874075051 0)
(-0.00374551144911 0.22293322504 0)
(-0.00267742814517 0.222987834613 0)
(-0.00159477166238 0.223033135102 0)
(-0.000505539148187 0.223065077664 0)
(0.000570375105289 0.223083777334 0)
(0.00161770095995 0.223092143556 0)
(0.0026421587255 0.223088987861 0)
(0.00364301389082 0.223077530431 0)
(0.00461115593901 0.223065555335 0)
(0.00554531022143 0.223056951491 0)
(0.00644616654136 0.223055465493 0)
(0.00731474417355 0.223064045226 0)
(0.00815170949604 0.223085162423 0)
(0.00895782088934 0.223120724641 0)
(0.00973339665574 0.223172312317 0)
(0.0104788432042 0.223241073466 0)
(0.0111941387424 0.223327937126 0)
(0.0118793593847 0.223433489098 0)
(0.0125341614757 0.22355816831 0)
(0.0131583083284 0.223702133191 0)
(0.0137511583815 0.223865450555 0)
(0.0143121942623 0.224047955158 0)
(0.0148405190443 0.22424943419 0)
(0.0153353881146 0.224469481821 0)
(0.0157957143813 0.224707680073 0)
(0.0162205999197 0.224963449177 0)
(0.0166088480338 0.225236224153 0)
(0.0169594918796 0.225525302539 0)
(0.0172713120734 0.225830015562 0)
(0.01754335879 0.226149573987 0)
(0.0177744731452 0.226483232326 0)
(0.0179638009447 0.22683013435 0)
(0.018110317846 0.227189469229 0)
(0.0182133330079 0.227560317883 0)
(0.0182720181912 0.227941800429 0)
(0.0182858998299 0.228332925722 0)
(0.0182545079179 0.228732731306 0)
(0.0181781219558 0.229140152808 0)
(0.0180566201463 0.229554195059 0)
(0.017889679882 0.22997368594 0)
(0.0176771458862 0.230397341788 0)
(0.017419503642 0.230823658092 0)
(0.0171172043357 0.231251002086 0)
(0.0167711246789 0.231677462612 0)
(0.0163821387717 0.232100922905 0)
(0.0159515638952 0.232518907436 0)
(0.0154807344482 0.232928633362 0)
(0.0149714285247 0.233326852998 0)
(0.0144254294467 0.233709884182 0)
(0.0138449104397 0.234073453854 0)
(0.0132319474555 0.234412722032 0)
(0.0125888143009 0.23472215767 0)
(0.0119173880794 0.234995610314 0)
(0.0112192999808 0.235226302252 0)
(0.0104952034972 0.235407062241 0)
(0.0097448283267 0.235530567754 0)
(0.00896628642502 0.235589861702 0)
(0.00815640710285 0.235578898625 0)
(0.00731068823896 0.235493264031 0)
(0.00642472296209 0.235330761493 0)
(0.00549566044308 0.235091913045 0)
(0.00452540100693 0.234780160278 0)
(0.00352376293497 0.234402018972 0)
(0.00251275567154 0.233967491715 0)
(0.00152957716533 0.233491604737 0)
(0.00062948031866 0.232998045417 0)
(-0.00130381324144 0.23252241896 0)
(-0.00140796535075 0.232254305812 0)
(-0.00128441356348 0.231653937459 0)
(-0.0016517826521 0.231689024591 0)
(-0.00092221977713 0.231776423524 0)
(-0.00131300151182 0.231903889756 0)
(-0.00172877141964 0.232070622679 0)
(-0.00217627882281 0.232274503264 0)
(-0.00265864086096 0.232512400286 0)
(-0.00317894447402 0.232780759828 0)
(-0.00373815809003 0.233075198254 0)
(-0.00433615960324 0.23339064291 0)
(-0.00497153481737 0.233721215209 0)
(-0.00564242246309 0.234060288939 0)
(-0.00634574071566 0.234400674909 0)
(-0.00707822209304 0.234734640389 0)
(-0.00783593289633 0.235054320009 0)
(-0.00861500267034 0.235351797483 0)
(-0.00941115304943 0.235619553357 0)
(-0.0102203844797 0.235850593793 0)
(-0.0110383907804 0.236038795327 0)
(-0.011861246251 0.236179021758 0)
(-0.0126847429936 0.236267289194 0)
(-0.0135050758495 0.236300829493 0)
(-0.0143181734741 0.236278070372 0)
(-0.0151203578143 0.236198644831 0)
(-0.0159077272001 0.236063228647 0)
(-0.0166767511535 0.235873518056 0)
(-0.0174237496322 0.235631985907 0)
(-0.0181453815764 0.235341854763 0)
(-0.0188382526536 0.2350068257 0)
(-0.0194992613302 0.23463106221 0)
(-0.0201253640241 0.234218932957 0)
(-0.0207137526451 0.233775012127 0)
(-0.021261797845 0.233303862312 0)
(-0.0217670382696 0.232810046135 0)
(-0.022227316187 0.23229796608 0)
(-0.022640566733 0.231771878565 0)
(-0.0230051496915 0.231235797739 0)
(-0.0233194343007 0.230693499139 0)
(-0.0235823249982 0.230148489647 0)
(-0.0237926511048 0.229603990132 0)
(-0.0239497425417 0.229062955871 0)
(-0.024051954771 0.228527791199 0)
(-0.0240983705456 0.228001043737 0)
(-0.0240896139854 0.22748508618 0)
(-0.0240271161663 0.226981879033 0)
(-0.0239109403843 0.226493134847 0)
(-0.0237419160411 0.226020489523 0)
(-0.0235204568363 0.225565352983 0)
(-0.0232477349191 0.225129103897 0)
(-0.0229244513262 0.224712915776 0)
(-0.0225520491492 0.224317960382 0)
(-0.0221314688634 0.223945215848 0)
(-0.0216643559353 0.223595668376 0)
(-0.021151835466 0.223270111692 0)
(-0.0205956812022 0.222969337332 0)
(-0.0199971412716 0.222693935275 0)
(-0.0193580402349 0.222444464729 0)
(-0.0186796810363 0.222221263531 0)
(-0.0179638610756 0.222024595245 0)
(-0.017211869331 0.221854474043 0)
(-0.0164254051365 0.22171078681 0)
(-0.0156056806969 0.221593136987 0)
(-0.0147542403883 0.221500944589 0)
(-0.0138721704794 0.22143331036 0)
(-0.0129608224141 0.221389098132 0)
(-0.012021121869 0.221366815679 0)
(-0.0110542082785 0.221364684545 0)
(-0.0100608338716 0.221380530931 0)
(-0.00904195035403 0.221411847433 0)
(-0.00799821313199 0.221455689457 0)
(-0.00693061185927 0.221508744546 0)
(-0.00584019822137 0.221567263153 0)
(-0.00472899802641 0.221627214944 0)
(-0.00360016821186 0.22168441152 0)
(-0.00245912622016 0.221735009561 0)
(-0.00131332286416 0.221776158247 0)
(-0.000174294960987 0.221806256397 0)
(0.000939929616815 0.221829296899 0)
(0.00202330305592 0.221847430594 0)
(0.00308501699468 0.221858054529 0)
(0.00412069772996 0.221865658017 0)
(0.0051216290578 0.221876432459 0)
(0.00608666994854 0.221893720448 0)
(0.00701547185657 0.221920819363 0)
(0.00790768399941 0.221960590784 0)
(0.00876336518705 0.22201546831 0)
(0.0095823879612 0.222087491011 0)
(0.010364935079 0.222178329688 0)
(0.0111109327245 0.222289315331 0)
(0.0118205545122 0.222421461988 0)
(0.012493671277 0.222575499963 0)
(0.0131303665172 0.222751892233 0)
(0.0137303972264 0.222950872754 0)
(0.0142937163835 0.223172455964 0)
(0.0148199445828 0.223416479392 0)
(0.0153088974802 0.223682604634 0)
(0.0157600689757 0.2239703638 0)
(0.0161731607832 0.224279150923 0)
(0.0165475758832 0.224608271511 0)
(0.0168829464439 0.224956924236 0)
(0.0171786361157 0.225324252007 0)
(0.017434263185 0.225709313821 0)
(0.0176492101589 0.226111135864 0)
(0.017823139306 0.226528674161 0)
(0.0179555087707 0.226960864213 0)
(0.0180460785916 0.227406575383 0)
(0.0180944329059 0.227864658493 0)
(0.0181004742197 0.228333894205 0)
(0.0180640906196 0.2288130396 0)
(0.017985970483 0.229300788892 0)
(0.0178663186716 0.229795866566 0)
(0.0177049476111 0.230296863793 0)
(0.0175018186998 0.230802202323 0)