/*--------------------------------*- C++ -*----------------------------------*\
| =========                 |                                                 |
| \\      /  F ield         | OpenFOAM: The Open Source CFD Toolbox           |
|  \\    /   O peration     | Version:  2312                                  |
|   \\  /    A nd           | Website:  www.openfoam.com                      |
|    \\/     M anipulation  |                                                 |
\*---------------------------------------------------------------------------*/
FoamFile
{
    version     2.0;
    format      ascii;
    arch        "LSB;label=32;scalar=64";
    class       volScalarField;
    location    "0.995/heater";
    object      T;
}
// * * * * * * * * * * * * * * * * * * * * * * * * * * * * * * * * * * * * * //

dimensions      [0 0 0 1 0 0 0];

internalField   nonuniform List<scalar> 
150
(
786.504996214
786.37036405
786.101209027
785.697620498
785.15970303
786.573364439
786.438924818
786.170185916
785.767237832
785.229901619
786.667218316
786.53303336
786.264883038
785.862930927
785.326657782
786.788771818
786.654936002
786.38753925
785.986794433
785.451814907
786.939365766
786.806099623
786.539894637
786.141007697
785.60797933
787.118231525
786.98584652
786.721512552
786.32566592
785.79599728
787.320788816
787.189657908
786.928244734
786.537883363
786.015162819
787.536256358
787.406442544
787.148426081
786.765595094
786.254000169
787.756361708
787.627824711
787.373487842
787.000523634
786.507201382
787.9764311
787.848995443
787.597859926
787.235048983
786.765499386
788.192461617
788.066030381
787.817587567
787.465203293
787.033212399
788.396353046
788.270755456
788.023967044
787.677115124
787.282679594
788.582292785
788.457458466
788.211924
787.867225881
787.48930714
788.744748275
788.620654016
788.376262395
788.032719575
787.657573878
788.877015964
788.75358811
788.510144127
788.167212249
787.792436746
788.970132464
788.847159628
788.604273827
788.26136875
787.885789358
789.019160913
788.89640222
788.653604279
788.309985743
787.932436698
789.021826495
788.899038432
788.655819137
788.310591314
787.92940357
788.978163662
788.855091452
788.610748125
788.262314102
787.874449702
788.891317281
788.767809384
788.521903669
788.169147972
787.77333087
788.764966539
788.64084596
788.392837291
788.033908477
787.62763907
788.608433864
788.483471892
788.232906099
787.865875368
787.443502881
788.444882481
788.318940934
788.06579236
787.68931475
787.238948218
788.307567486
788.180852922
787.926146722
787.543696181
787.061798263
788.216579328
788.089405283
787.83402159
787.449218198
786.938731155
788.179111696
788.051810288
787.796399935
787.412117079
786.895128192
788.19433259
788.067312767
787.812486626
787.429939464
786.917155716
788.255135125
788.12884527
787.875183795
787.494575685
786.988042309
788.34941648
788.224264393
787.972312111
787.593529216
787.093302828
788.461925744
788.338366382
788.088781335
787.711844563
787.213808978
)
;

boundaryField
{
    emptyPatch
    {
        type            empty;
    }
    minY
    {
        type            zeroGradient;
    }
    maxY
    {
        type            zeroGradient;
    }
    minX
    {
        type            zeroGradient;
    }
    heater_to_water
    {
        type            compressible::turbulentTemperatureTwoPhaseRadCoupledMixed;
        refValue        nonuniform List<scalar> 
60
(
336.781681511
335.896903686
335.896119839
336.517612605
335.679135839
336.724597353
336.723127791
336.136113548
336.134276118
337.235690187
337.233415592
336.782287847
337.959226528
337.309779661
337.306833674
332.828084146
332.825271676
322.371696605
322.369617267
316.9057777
320.113476275
347.03113255
347.027395391
498.619226809
498.616673095
535.770266474
535.768231133
548.419333751
549.669124341
552.801067311
552.799950869
550.785570948
550.784995163
551.278583081
551.278651913
546.601874749
540.076117003
528.31308014
528.31431648
513.071686974
513.073425224
510.825132875
510.827614021
520.881395847
528.68373695
533.700814215
533.703527812
499.797585524
499.799979343
364.1035316
364.104467996
330.767740997
322.747882697
324.545593958
324.545027452
339.276297471
339.27498445
364.602036121
364.599864411
369.011316949
)
;
        refGradient     uniform 0;
        valueFraction   nonuniform List<scalar> 
60
(
0.000745258914687
0.000745523282399
0.000745539819821
0.000745105723056
0.000745544951467
0.000745050541018
0.000745080803062
0.000745524419578
0.000745562902259
0.000745100028951
0.00074514620637
0.000745596297672
0.000745255485056
0.000745644580959
0.000745704296124
0.000745478527796
0.000745543446501
0.000721419887042
0.000721488640734
0.000694478351127
0.0007125454456
0.000743546415556
0.000743606431626
0.000598812016581
0.000598819744426
0.000594695132604
0.000594700282925
0.000593441305554
0.000594628582746
0.000593498294088
0.000593500922721
0.000594627245291
0.000594628614387
0.000593867278787
0.000593867115664
0.000594700935206
0.0005943596659
0.000594700994038
0.000594697764883
0.000595637827136
0.00059563295404
0.000598470639413
0.000598463576585
0.000599665431016
0.000599374389
0.000599042991714
0.000599036020183
0.000612226348577
0.000612218993227
0.000736641863716
0.000736630996165
0.000731455330268
0.000715954111756
0.000728255530918
0.000728272901992
0.000746068695302
0.000746094198365
0.000726029792961
0.000726054541145
0.000725469676538
)
;
        source          uniform 0;
        value           nonuniform List<scalar> 
60
(
784.826899207
784.826121048
784.896259358
784.896917491
784.992800978
784.993802211
785.118854189
785.118217491
785.274264542
785.275293256
785.463187882
785.462649628
785.682748126
785.682089532
785.920881022
785.917643568
786.170822757
786.174225808
786.432379438
786.441128439
786.702928475
786.708467963
786.956751576
787.111273303
787.315723923
787.339010469
787.506878378
787.514703187
787.64990436
787.65203231
787.745300898
787.743838312
787.790451471
787.790925145
787.78790299
787.784924383
787.726254179
787.719174109
787.618227536
787.608904542
787.463330561
787.461205928
787.276925362
787.282621817
787.082485606
787.085576735
786.908338976
786.884239008
786.762932508
786.627246197
786.585120081
786.562923985
786.586401681
786.582000914
786.65295274
786.655713709
786.760585896
786.787959326
786.90811335
786.911560898
)
;
        kappaMethod     solidThermo;
        Tnbr            T.liquid;
        region          solid;
        otherPhase      gas;
    }
    procBoundary3to0
    {
        type            processor;
        value           nonuniform List<scalar> 5(788.57483683 788.453537519 788.207381765 787.832942662 787.335287401);
    }
    procBoundary3to2
    {
        type            processor;
        value           nonuniform List<scalar> 5(786.456352983 786.321602738 786.052210671 785.648285787 785.110114648);
    }
}


// ************************************************************************* //
