/*--------------------------------*- C++ -*----------------------------------*\
| =========                 |                                                 |
| \\      /  F ield         | OpenFOAM: The Open Source CFD Toolbox           |
|  \\    /   O peration     | Version:  2312                                  |
|   \\  /    A nd           | Website:  www.openfoam.com                      |
|    \\/     M anipulation  |                                                 |
\*---------------------------------------------------------------------------*/
FoamFile
{
    version     2.0;
    format      ascii;
    arch        "LSB;label=32;scalar=64";
    class       volScalarField;
    location    "0.185/water";
    object      d.gas;
}
// * * * * * * * * * * * * * * * * * * * * * * * * * * * * * * * * * * * * * //

dimensions      [0 1 0 0 0 0 0];

internalField   nonuniform List<scalar> 
1497
(
0.00499398768144
0.00499398765951
0.0049939875872
0.00499398664918
0.00499397689403
0.00499395735764
0.00499393352344
0.00499390692645
0.00499387816816
0.00499384843533
0.00499381746703
0.00499378623097
0.00499375624433
0.0049939983364
0.00499399835257
0.00499399836843
0.00499399837729
0.00499399838166
0.00499399837676
0.00499399836801
0.00499399835124
0.0049939983353
0.00499399763641
0.00499399493366
0.00499398557697
0.004993970176
0.00499395187373
0.00499392923529
0.00499390459427
0.00499387862506
0.00499385102702
0.00499382271295
0.00499379424338
0.00499400826115
0.0049940082651
0.00499400827165
0.00499400827517
0.0049940082781
0.00499400828657
0.00499400830869
0.00499400833475
0.00499400837159
0.00499400747387
0.00499400302
0.00499399243512
0.00499397965396
0.00499396427828
0.00499394427864
0.00499392164725
0.00499389740215
0.00499387229145
0.00499384546758
0.00499381769661
0.00499401723997
0.00499401725578
0.00499401727506
0.00499401729242
0.00499401731199
0.00499401734444
0.00499401739077
0.00499401744895
0.0049940175302
0.00499401715295
0.00499401326086
0.00499400269336
0.00499399086698
0.00499397614964
0.00499395579897
0.00499393315492
0.00499390990962
0.00499388597563
0.00499385984574
0.00499383279191
0.00499402540322
0.00499402540944
0.00499402541702
0.0049940254272
0.00499402544498
0.00499402547333
0.00499402551291
0.00499402556743
0.00499402565231
0.0049940250624
0.00499402158332
0.00499401168371
0.00499399933626
0.00499398352905
0.0049939633968
0.00499394027719
0.00499391737657
0.00499389430906
0.00499386858814
0.00499384202156
0.0049940326083
0.00499403261838
0.00499403262477
0.00499403262882
0.00499403263806
0.004994032652
0.00499403267213
0.00499403270915
0.00499403278227
0.00499403139735
0.00499402687536
0.00499401675212
0.00499400397386
0.00499398850503
0.00499396754625
0.00499394486761
0.00499392224202
0.00499389820013
0.00499387415166
0.00499384817903
0.00499403905982
0.00499403905751
0.00499403904384
0.0049940390203
0.00499403900116
0.00499403898609
0.0049940389782
0.00499403899375
0.00499403905338
0.00499403679928
0.00499403097957
0.00499402036837
0.00499400699312
0.00499399055561
0.00499397042673
0.00499394730256
0.00499392289942
0.00499390210773
0.00499387954659
0.00499385369457
0.00499404489234
0.00499404488354
0.00499404484632
0.00499404479066
0.00499404473536
0.00499404468342
0.00499404464177
0.00499404462701
0.0049940446557
0.0049940412085
0.00499403352996
0.00499402126464
0.00499400704692
0.00499399205749
0.00499397160161
0.00499394847085
0.00499392810746
0.00499391015971
0.00499388648647
0.00499385845122
0.00499405061955
0.00499405059001
0.00499405051652
0.00499405041404
0.0049940503027
0.0049940501944
0.00499405010126
0.00499405003675
0.00499404967362
0.00499404420804
0.00499403452464
0.00499402065521
0.00499400698535
0.00499399265176
0.00499397434621
0.00499395235232
0.00499393650836
0.00499392001118
0.00499389174226
0.00499386081817
0.00499405695548
0.00499405689546
0.00499405677079
0.00499405655912
0.00499405627366
0.00499405605978
0.0049940559532
0.00499405544703
0.0049940523039
0.0049940439013
0.00499403168845
0.00499401646642
0.00499400370062
0.00499399280561
0.00499397555436
0.00499396235448
0.00499395210007
0.00499392534404
0.00499389435834
0.00499386218075
0.00499406592621
0.00499406577924
0.00499406545328
0.00499406524976
0.00499406487312
0.00499406469488
0.0049940637162
0.00499405995611
0.00499405162027
0.00499403933613
0.00499402457598
0.00499400990614
0.00499400302438
0.00499399613107
0.0049939875297
0.0049939824124
0.00499396087477
0.00499393218266
0.00499390244926
0.00499386659373
0.00499407986014
0.00499407986451
0.00499407591977
0.00499407384112
0.00499407173078
0.00499406753402
0.00499406147142
0.00499405343632
0.00499404240946
0.00499402921344
0.00499401666244
0.00499401164995
0.00499401446772
0.00499401544478
0.00499401555662
0.00499400260484
0.0049939782209
0.00499395260701
0.0049939186582
0.00499387812009
0.00499409461103
0.00499409440856
0.00499408620003
0.00499408152395
0.00499407656727
0.00499406987803
0.00499406158626
0.00499405232426
0.00499404301541
0.00499403676403
0.00499403740053
0.00499404645586
0.00499405603761
0.0049940617705
0.00499405787628
0.00499403991054
0.00499401775222
0.00499398767216
0.00499394905888
0.00499391579108
0.00499411420596
0.00499412652261
0.00499411693512
0.00499410850781
0.00499410039175
0.0049940917227
0.00499408482437
0.00499408246286
0.00499408528503
0.00499409328886
0.00499410621842
0.00499412003813
0.00499413052084
0.00499413275604
0.00499412233085
0.00499410416804
0.00499407862834
0.00499404442838
0.00499401523599
0.00499399443067
0.00499413217763
0.00499418256302
0.00499416526962
0.00499414831531
0.00499413989419
0.00499413865257
0.00499414501796
0.00499415731497
0.00499417069611
0.00499418448797
0.00499420025652
0.00499421592317
0.00499422484246
0.00499422235394
0.00499421148404
0.00499419354047
0.00499416957911
0.00499415304467
0.00499414446121
0.00499415123875
0.0049941467801
0.00499423352805
0.00499420152399
0.00499418287221
0.00499419190916
0.00499420956948
0.00499422591247
0.00499424106316
0.00499425340304
0.00499427270214
0.00499429787854
0.00499431901647
0.00499432782827
0.00499432920734
0.00499432528017
0.00499432038747
0.00499432957216
0.0049943479799
0.00499442462866
0.00499464950875
0.00499415754568
0.0049942497194
0.00499421603886
0.00499422211766
0.00499425109494
0.0049942622607
0.00499427779223
0.00499428930996
0.00499431328063
0.00499435283988
0.00499439319518
0.00499442158917
0.00499443908826
0.00499445343632
0.00499447456458
0.0049945178136
0.00499458080249
0.00499473578685
0.00499493933697
0.00499490306154
0.00499416324956
0.00499423695421
0.00499422515881
0.00499424492266
0.00499425047863
0.0049942699135
0.00499428628161
0.00499431729457
0.00499435738132
0.00499440943975
0.00499448142591
0.00499452174388
0.00499455622438
0.00499460633451
0.00499467916449
0.00499478012645
0.00499498117121
0.00499511224696
0.00499504253619
0.00499499983135
0.00499416548555
0.00499426175625
0.00499424250557
0.00499420912541
0.00499421842076
0.00499422606862
0.004994259473
0.00499430600611
0.00499436096244
0.00499446442513
0.00499454578815
0.00499461505007
0.00499469976142
0.0049948023166
0.00499494298703
0.00499516677012
0.00499524692638
0.00499518543543
0.00499515078951
0.00499512459752
0.00499369664851
0.00499387126541
0.00499387918542
0.00499389667319
0.00499393441803
0.00499399501466
0.00499407312709
0.0049941747473
0.00499431693637
0.0049944483084
0.00499460455541
0.00499474780115
0.0049949168569
0.00499511540852
0.00499531761305
0.00499537085525
0.00499533192019
0.00499530602675
0.0049952898218
0.00499527361445
0.00499297605439
0.00499324674874
0.00499332396303
0.00499338636778
0.00499350822247
0.00499366645673
0.00499385504053
0.00499410439522
0.0049943053579
0.00499452592187
0.00499474501722
0.00499498447939
0.00499522952409
0.004995414456
0.0049954761873
0.00499546832283
0.00499545247407
0.00499544248084
0.0049954317304
0.00499541683959
0.00499407355266
0.00499452973445
0.00499441469385
0.00499432449245
0.00499428262511
0.00499427014165
0.00499436411035
0.00499450409576
0.00499468313276
0.0049948765674
0.00499508294267
0.00499529485834
0.00499547024473
0.00499556590625
0.00499558976502
0.0049955892181
0.004995586374
0.00499557983338
0.0049955697116
0.00499555677472
0.00499639734794
0.00499651326304
0.00499643115736
0.00499630962707
0.00499613460368
0.00499589967111
0.00499565044583
0.00499552790157
0.00499551096714
0.00499553495592
0.00499557721201
0.00499563247897
0.00499568567034
0.00499571798783
0.00499572670112
0.00499572605562
0.00499572031467
0.00499571327406
0.00499570329668
0.00499569125172
0.0049966484046
0.00499664889199
0.00499664913551
0.00499664930984
0.00499664931889
0.00499664253101
0.00499659434545
0.00499638824266
0.0049961684921
0.00499605432001
0.00499597665686
0.00499590875441
0.00499586508438
0.00499584705162
0.00499584018706
0.00499583859773
0.00499583727651
0.00499583089315
0.00499582364189
0.0049958108484
0.0049966628044
0.0049966628657
0.0049966629799
0.00499666319373
0.00499666351578
0.00499666394724
0.00499666419753
0.004996682141
0.0049965568594
0.00499635853322
0.00499623860073
0.0049961331548
0.0049960260796
0.00499595291843
0.00499592792429
0.00499592762551
0.00499593203415
0.00499593115552
0.00499592682507
0.00499591901091
0.0049966746594
0.00499667468545
0.00499667475756
0.00499667487082
0.004996675029
0.00499667524627
0.00499667555507
0.00499667584657
0.00499669718969
0.00499658117482
0.00499642583434
0.00499632015734
0.00499621154185
0.00499609945789
0.00499603121075
0.00499602003442
0.00499602827989
0.00499602753741
0.00499602430347
0.00499601769871
0.00499668614466
0.00499668616489
0.00499668619
0.00499668622814
0.00499668627223
0.00499668632782
0.0049966863879
0.00499668646414
0.00499669040027
0.00499669239121
0.00499657200873
0.00499645387907
0.00499636072002
0.00499625605676
0.0049961546817
0.00499610969205
0.00499611193023
0.00499611455112
0.0049961130483
0.00499610903226
0.00499669740755
0.00499669740585
0.00499669741346
0.00499669743508
0.00499669747596
0.00499669754579
0.00499669765162
0.00499669781572
0.00499669804619
0.00499670635413
0.00499667229977
0.00499656262212
0.00499647065425
0.00499638719126
0.00499629257103
0.00499621564333
0.00499619666337
0.00499620138717
0.00499619889017
0.00499619203789
0.00499670807942
0.00499670809052
0.00499670809739
0.00499670809895
0.00499670811331
0.00499670814606
0.0049967081896
0.00499670823299
0.00499670827521
0.00499670947284
0.00499670741166
0.0049966465636
0.00499655798442
0.00499648145885
0.00499640616781
0.00499632924553
0.00499629062348
0.00499628640742
0.00499627963919
0.0049962715582
0.00499671858538
0.00499671857634
0.00499671856157
0.00499671853695
0.00499671854024
0.00499671857635
0.00499671863879
0.0049967187222
0.00499671882202
0.00499671913664
0.00499671933096
0.00499669145341
0.00499662443628
0.00499655270025
0.00499648623546
0.00499642270411
0.00499637534466
0.00499636119801
0.00499635327887
0.00499634251173
0.00499672878678
0.00499672878954
0.00499672877625
0.00499672874743
0.0049967287515
0.00499672878538
0.004996728843
0.00499672892469
0.00499672902834
0.00499672919557
0.00499672841357
0.00499671164876
0.00499666704405
0.00499660602758
0.00499654543
0.0049964918118
0.00499645217168
0.00499642500775
0.00499641587521
0.00499640680026
0.00499673905122
0.00499673903626
0.00499673899311
0.00499673894945
0.00499673893536
0.00499673893646
0.00499673894395
0.00499673895391
0.00499673896127
0.00499673889338
0.00499673689618
0.0049967223671
0.00499668928357
0.00499663888778
0.0049965832929
0.00499653821288
0.00499650870205
0.00499647988933
0.00499647125123
0.00499646025813
0.00499674946088
0.00499674944718
0.00499674940997
0.00499674939195
0.0049967493956
0.0049967494028
0.00499674940779
0.00499674940784
0.00499674940699
0.00499674892826
0.00499674552596
0.00499673075251
0.00499670035769
0.00499665618682
0.00499660697248
0.00499658194451
0.00499655643274
0.00499653004972
0.00499651981237
0.00499650777891
0.00499676039576
0.00499676037563
0.00499676034986
0.00499676036218
0.00499676039345
0.00499676042277
0.0049967604451
0.00499676045829
0.00499676047181
0.00499675904
0.00499675437321
0.00499673972172
0.00499671098143
0.0049966728889
0.00499663100486
0.00499663056285
0.00499659004277
0.00499657275716
0.00499656463933
0.00499655096572
0.00499677185249
0.00499677183152
0.00499677183838
0.00499677189597
0.0049967719684
0.00499677203132
0.00499677207776
0.00499677210883
0.00499677214031
0.00499676944307
0.00499676298028
0.00499674768955
0.00499672055352
0.00499668732539
0.0049966612324
0.00499666959296
0.0049966230345
0.0049966098136
0.00499660111547
0.00499658760461
0.00499678385119
0.00499678383084
0.00499678386686
0.00499678395634
0.00499678405483
0.00499678413235
0.0049967841768
0.00499678418746
0.00499678415721
0.00499678040448
0.00499677187443
0.00499675457232
0.00499672892615
0.00499670354295
0.00499670032135
0.00499669626719
0.00499665471648
0.00499664325414
0.00499663377852
0.00499661870268
0.00499679607679
0.00499679607869
0.00499679615438
0.00499679628014
0.00499679641803
0.00499679654328
0.00499679665396
0.00499679676393
0.00499679608457
0.00499679166689
0.00499678141975
0.00499676229177
0.00499673889198
0.00499672024336
0.00499673963291
0.00499671133145
0.00499668494793
0.00499667548438
0.00499666253469
0.00499664615312
0.00499680798173
0.00499680802866
0.0049968081354
0.00499680827001
0.0049968084097
0.00499680853965
0.00499680866252
0.00499680879178
0.0049968074974
0.00499680243345
0.00499679101591
0.0049967708486
0.0049967509334
0.00499674539651
0.00499677759805
0.0049967287364
0.00499671210395
0.00499670140114
0.00499668515289
0.00499666992022
0.00499372774559
0.00499370264576
0.00499367922263
0.00499365770965
0.00499363780649
0.0049936172256
0.00499361364229
0.00499361797085
0.00499359646384
0.00499358782973
0.0049935809408
0.00499357359
0.0049935651087
0.00499355740424
0.00499355119289
0.00499354627062
0.00499354244915
0.00499353945112
0.00499353708866
0.00499353527779
0.0049937680682
0.00499374218352
0.00499371832824
0.00499369633658
0.00499367276842
0.00499365335823
0.00499365644401
0.0049936583746
0.00499363682067
0.0049936276015
0.00499362110685
0.00499361499817
0.00499360881822
0.00499360337285
0.00499359910503
0.00499359576379
0.0049935931699
0.00499359099715
0.00499358895657
0.0049935869024
0.00499379195369
0.0049937689558
0.00499374507091
0.00499371948278
0.00499369425727
0.00499367823773
0.00499369641852
0.00499368279851
0.00499366609151
0.00499365883009
0.00499365193049
0.00499364611694
0.00499364098134
0.00499363680957
0.0049936337003
0.00499363133219
0.00499362953686
0.00499362798827
0.00499362626846
0.00499362401342
0.00499380731536
0.0049937853114
0.00499375995994
0.00499373266002
0.00499370602865
0.00499369346326
0.0049937221071
0.00499370452358
0.0049936894264
0.00499368053553
0.00499367342733
0.00499366832763
0.00499366419369
0.00499366119653
0.00499365912505
0.00499365755785
0.00499365642738
0.00499365546572
0.00499365417875
0.00499365184573
0.00499381692279
0.00499379455973
0.00499376778819
0.00499373949081
0.00499371672363
0.0049937126764
0.00499374874042
0.0049937182436
0.00499370291519
0.00499369356673
0.00499368785891
0.00499368443937
0.00499368180467
0.0049936801213
0.00499367914117
0.004993678424
0.00499367793584
0.00499367755751
0.00499367682104
0.00499367457878
0.00499382325397
0.00499379923296
0.00499377102135
0.00499374254855
0.00499372441779
0.00499374244629
0.00499376414138
0.00499373121646
0.00499371789719
0.00499370851314
0.00499370364353
0.00499370105182
0.00499369925239
0.00499369836246
0.00499369800288
0.00499369783165
0.00499369779504
0.004993697845
0.00499369765159
0.00499369564897
0.00499382749053
0.00499380027142
0.00499377052943
0.00499374509877
0.00499373080586
0.00499376875998
0.00499377754175
0.00499374640347
0.00499373233494
0.00499372403805
0.00499372020499
0.0049937183527
0.00499371737813
0.00499371724834
0.0049937174554
0.00499371773421
0.0049937180902
0.00499371848672
0.00499371880611
0.00499371722558
0.0049938294956
0.00499379893998
0.00499376744368
0.00499374477641
0.00499373705382
0.00499380215763
0.00499378004825
0.0049937535507
0.00499374072319
0.00499373564616
0.00499373468174
0.0049937351054
0.00499373616148
0.00499373760679
0.00499373894961
0.0049937400756
0.00499374104742
0.00499374188511
0.00499374269173
0.00499374171968
0.00499382882944
0.00499379488804
0.00499376788346
0.00499375068843
0.00499375771129
0.00499382777336
0.00499378392255
0.00499376303076
0.00499375361869
0.00499375219383
0.00499375427335
0.00499375741122
0.00499376089806
0.00499376422731
0.00499376699674
0.00499376921876
0.00499377099105
0.00499377237435
0.00499377358716
0.00499377316771
0.0049938267674
0.0049937927638
0.00499376748737
0.00499374950166
0.00499380982461
0.00499384809512
0.00499380087204
0.0049937834628
0.00499377846263
0.00499378042732
0.00499378537718
0.00499379131723
0.00499379727071
0.00499380253532
0.00499380682569
0.00499381024085
0.0049938129178
0.00499381494296
0.00499381646889
0.00499381639854
0.0049938273314
0.00499379641677
0.00499377156123
0.00499376693232
0.0049938964639
0.0049938620539
0.00499382475952
0.00499381378537
0.00499381624083
0.00499382325714
0.00499383224919
0.00499384176482
0.00499385047542
0.00499385778149
0.00499386362081
0.0049938682092
0.00499387173827
0.00499387434789
0.00499387614013
0.00499387636847
0.00499384485065
0.00499381826894
0.00499379944697
0.0049939105057
0.00499396877135
0.00499390748363
0.00499388165556
0.0049938788444
0.00499388625873
0.00499389582525
0.0049939069878
0.00499391846377
0.00499392858171
0.00499393692551
0.00499394356961
0.00499394875746
0.00499395269289
0.00499395555699
0.00499395748572
0.00499395804331
0.00499388858693
0.00499386421458
0.00499395092864
0.00499411309803
0.00499403907654
0.00499399718544
0.00499397976912
0.00499398363357
0.00499399245917
0.00499400237502
0.00499401381672
0.00499402525077
0.00499403511225
0.00499404319107
0.0049940496259
0.00499405462995
0.00499405838198
0.00499406109259
0.0049940629135
0.00499406372702
0.00499397065867
0.00499407801011
0.00499427903372
0.00499421038262
0.00499415625396
0.00499412495919
0.00499411829519
0.0049941255427
0.00499413319457
0.00499414164367
0.00499415141224
0.00499416082884
0.00499416883817
0.00499417538225
0.00499418060364
0.00499418464607
0.00499418764767
0.00499418980813
0.00499419123097
0.00499419215833
0.00499431117772
0.00499448954215
0.00499443311677
0.00499436583825
0.00499432788385
0.00499430164901
0.0049942999696
0.00499430219034
0.00499430452377
0.00499430857197
0.00499431410637
0.00499431955202
0.00499432426943
0.00499432819062
0.00499433136623
0.00499433383777
0.00499433567503
0.0049943369581
0.004994337761
0.00499433863776
0.00499472600268
0.00499466208566
0.00499460537389
0.00499456667705
0.00499452459813
0.00499450216336
0.00499449666253
0.00499449156459
0.00499448814175
0.00499448734594
0.00499448826043
0.00499448959818
0.00499449096062
0.0049944922141
0.00499449331261
0.0049944942162
0.0049944948721
0.00499449524033
0.00499449539226
0.00499449610395
0.00499484742255
0.00499480330491
0.00499476503692
0.00499472633799
0.00499469507904
0.00499468329511
0.00499467723314
0.00499467039272
0.00499466505926
0.00499466203854
0.00499466045144
0.00499465943092
0.00499465877241
0.00499465836108
0.00499465814108
0.00499465801839
0.00499465785563
0.00499465756914
0.00499465717807
0.00499465765777
0.00499496268882
0.00499493734476
0.00499490687201
0.00499487158707
0.00499485246751
0.00499484843578
0.0049948432657
0.00499483699936
0.00499483184795
0.00499482852205
0.0049948262141
0.00499482437646
0.00499482294174
0.00499482185535
0.00499482106319
0.00499482045439
0.00499481990572
0.00499481928926
0.00499481851431
0.00499481872649
0.00499510403273
0.00499508163777
0.00499504611728
0.0049950165637
0.00499500853596
0.00499500761977
0.00499500292712
0.00499499686944
0.00499499210266
0.00499498899859
0.00499498657446
0.00499498450457
0.00499498281138
0.00499498146842
0.0049949804197
0.00499497958646
0.00499497886734
0.00499497812379
0.00499497716883
0.00499497718211
0.00499525312787
0.00499522872283
0.00499518950951
0.00499516916346
0.00499516852113
0.00499516716028
0.00499516127449
0.00499515449106
0.00499514922531
0.00499514589575
0.00499514313699
0.00499514073361
0.00499513872188
0.0049951370809
0.00499513576545
0.00499513470992
0.00499513381555
0.00499513295579
0.0049951319931
0.00499513194688
0.00499539778556
0.004995369295
0.00499533505372
0.00499532593216
0.00499532662702
0.00499532120319
0.00499531538531
0.00499530898064
0.00499530346766
0.00499529932937
0.00499529579691
0.00499529275918
0.00499529021396
0.00499528813352
0.00499528646525
0.00499528513448
0.00499528403744
0.00499528306638
0.00499528213876
0.00499528210428
0.0049955411625
0.00499550711397
0.00499548150747
0.00499547926995
0.00499547514805
0.00499546991642
0.00499546468355
0.00499545832563
0.00499545242667
0.0049954471861
0.00499544263901
0.0049954388149
0.00499543564403
0.00499543306295
0.00499543099661
0.00499542935763
0.00499542804036
0.00499542694559
0.00499542602941
0.00499542594302
0.00499567673048
0.00499564140495
0.00499562528131
0.00499562288046
0.00499561766594
0.00499561073618
0.00499560504395
0.00499559869109
0.00499559235361
0.00499558623702
0.00499558091359
0.00499557650221
0.00499557286891
0.0049955699112
0.00499556753762
0.00499556565638
0.00499556416449
0.00499556297809
0.00499556207677
0.00499556190022
0.0049957954574
0.00499576554331
0.00499575898936
0.00499575462245
0.00499574507531
0.00499573836824
0.00499573191551
0.00499572622541
0.00499572055513
0.00499571435055
0.00499570875899
0.0049957041326
0.0049957003262
0.00499569721297
0.00499569470019
0.00499569270314
0.00499569112856
0.00499568990367
0.00499568903859
0.00499568876035
0.00499589929057
0.004995878522
0.00499587493978
0.00499586756008
0.00499586018103
0.00499585325366
0.00499584703045
0.00499584238695
0.00499583721175
0.00499583134249
0.00499582578891
0.00499582117491
0.00499581738545
0.00499581427347
0.00499581174711
0.00499580973367
0.00499580815029
0.00499580694357
0.004995806147
0.00499580577586
0.00499599611173
0.00499598435858
0.00499597879884
0.00499597201747
0.00499596369609
0.00499595756254
0.00499595245786
0.00499594730226
0.00499594262273
0.00499593737752
0.00499593210635
0.00499592765693
0.0049959240019
0.00499592098718
0.00499591852388
0.00499591654954
0.00499591500274
0.00499591384549
0.00499591314082
0.0049959127045
0.00499609033115
0.00499608202255
0.00499607557245
0.00499606619978
0.0049960591007
0.00499605288375
0.00499604721304
0.00499604278408
0.00499603808341
0.00499603331395
0.00499602836423
0.00499602411101
0.00499602062082
0.00499601773514
0.00499601536494
0.00499601345619
0.00499601195866
0.00499601085503
0.00499601024104
0.00499600977493
0.00499617785864
0.00499616852902
0.00499616032335
0.00499615235022
0.00499614437529
0.00499613853929
0.00499613369434
0.00499612822884
0.00499612369959
0.00499611942987
0.0049961149485
0.0049961109999
0.00499610774067
0.00499610502604
0.00499610277959
0.00499610095698
0.00499609952225
0.00499609847085
0.00499609793871
0.00499609747444
0.00499625719904
0.00499624671958
0.0049962380829
0.00499622955082
0.0049962231346
0.00499621723557
0.00499621121895
0.0049962063647
0.00499620145173
0.00499619720508
0.00499619300883
0.00499618930586
0.00499618624618
0.004996183683
0.00499618155054
0.00499617981088
0.00499617843228
0.00499617742388
0.00499617695274
0.00499617647246
0.0049963292729
0.00499631815985
0.00499630888624
0.00499630157382
0.00499629384218
0.00499628774856
0.00499628240274
0.00499627633892
0.00499627145413
0.00499626724032
0.00499626323878
0.00499625975431
0.00499625688249
0.00499625446311
0.00499625244436
0.00499625079144
0.00499624947689
0.00499624850945
0.00499624807523
0.00499624750053
0.00499639300033
0.00499638136515
0.00499637226393
0.00499636432881
0.00499635788118
0.00499635114635
0.00499634459583
0.00499633940084
0.00499633428784
0.00499633008567
0.00499632625262
0.0049963229996
0.00499632032758
0.00499631806877
0.00499631618441
0.00499631464274
0.00499631341446
0.00499631251051
0.00499631209076
0.00499631139645
0.00499644675759
0.00499643558729
0.00499642761849
0.00499642145493
0.00499641352783
0.0049964076788
0.00499640293893
0.00499639608274
0.00499639059541
0.00499638635033
0.00499638269571
0.00499637971826
0.00499637728659
0.00499637522556
0.00499637350746
0.00499637210023
0.00499637097588
0.00499637013806
0.00499636971904
0.00499636896186
0.00499649417681
0.00499648370467
0.00499647721338
0.00499647096619
0.00499646598786
0.00499646027947
0.0049964525368
0.00499644587977
0.00499644065121
0.00499643667636
0.00499643340384
0.00499643081219
0.00499642867974
0.00499642686235
0.0049964253428
0.00499642409244
0.00499642308229
0.00499642231694
0.00499642190218
0.00499642113469
0.00499653710025
0.00499652734421
0.00499652244396
0.00499651873924
0.00499651205181
0.00499650537943
0.00499649879789
0.00499649175034
0.00499648659619
0.00499648284395
0.0049964798986
0.00499647760427
0.00499647570022
0.00499647408302
0.00499647273352
0.00499647161947
0.00499647071274
0.00499647000968
0.00499646959946
0.00499646884335
0.0049965742182
0.00499656655113
0.00499656379917
0.00499656010475
0.00499655556057
0.00499654881803
0.00499654034971
0.00499653358298
0.00499652874216
0.00499652536198
0.00499652277729
0.00499652075146
0.00499651905358
0.00499651761862
0.00499651642292
0.00499651543353
0.00499651461874
0.0049965139748
0.00499651357273
0.00499651283787
0.00499660662648
0.00499660257015
0.00499660152258
0.00499659998601
0.00499659413038
0.00499658667519
0.0049965796551
0.00499657254808
0.00499656782687
0.00499656474632
0.00499656249354
0.00499656072697
0.00499655924458
0.00499655800109
0.00499655696768
0.00499655610912
0.00499655539558
0.00499655481544
0.00499655443149
0.00499655372535
0.0049966368097
0.00499663615686
0.00499663604643
0.00499663490749
0.00499663013666
0.00499662310429
0.00499661467326
0.00499660787578
0.004996603572
0.00499660097503
0.00499659921248
0.00499659783352
0.00499659666951
0.00499659569748
0.00499659488749
0.00499659420915
0.004996593632
0.00499659314606
0.00499659280361
0.00499659213713
0.00499666590726
0.00499666692058
0.00499666715361
0.00499666712818
)
;

boundaryField
{
    emptyPatch
    {
        type            empty;
    }
    minY
    {
        type            calculated;
        value           nonuniform List<scalar> 0();
    }
    maxY
    {
        type            calculated;
        value           nonuniform List<scalar> 0();
    }
    water_to_cooler
    {
        type            calculated;
        value           nonuniform List<scalar> 
37
(
0.00499353527779
0.0049935869024
0.00499362401342
0.00499365184573
0.00499367457878
0.00499369564897
0.00499371722558
0.00499374171968
0.00499377316771
0.00499381639854
0.00499387636847
0.00499395804331
0.00499406372702
0.00499419215833
0.00499433863776
0.00499449610395
0.00499465765777
0.00499481872649
0.00499497718211
0.00499513194688
0.00499528210428
0.00499542594302
0.00499556190022
0.00499568876035
0.00499580577586
0.0049959127045
0.00499600977493
0.00499609747444
0.00499617647246
0.00499624750053
0.00499631139645
0.00499636896186
0.00499642113469
0.00499646884335
0.00499651283787
0.00499655372535
0.00499659213713
)
;
    }
    water_to_heater
    {
        type            calculated;
        value           nonuniform List<scalar> 
60
(
0.00499398876127
0.0049939998848
0.00499400136987
0.00499401268854
0.00499401321608
0.0049940243866
0.00499402417811
0.00499403138792
0.00499402932802
0.00499404067943
0.0049940380076
0.00499404931328
0.00499404647282
0.004994057841
0.00499405552885
0.00499406447205
0.00499406976664
0.00499408131723
0.00499408655476
0.00499409970974
0.00499410835972
0.0049941248847
0.00499413019043
0.00499414465091
0.00499414165745
0.00499415990838
0.00499415051145
0.00499417083321
0.00499415498422
0.00499418404783
0.00499369342154
0.0049929733687
0.00499402502559
0.00499408601685
0.00499637272068
0.00499641541772
0.00499664121748
0.00499665965416
0.00499666085843
0.00499667294199
0.00499667656858
0.00499668712172
0.00499669036813
0.00499670115172
0.00499670378391
0.00499671434911
0.00499671692353
0.0049967271086
0.00499672926439
0.00499674004995
0.00499674240467
0.00499675306653
0.00499675595469
0.00499676674169
0.00499677009626
0.00499678208864
0.00499678569186
0.00499679713006
0.0049967986863
0.00499681328412
)
;
    }
    procBoundary1to0
    {
        type            processor;
        value           nonuniform List<scalar> 
41
(
0.00499681915193
0.00499681929601
0.00499681943606
0.00499681957038
0.00499681970133
0.00499681982648
0.00499681995109
0.00499682009346
0.00499681832171
0.00499681244474
0.00499680023077
0.00499678075743
0.00499676890968
0.00499678181147
0.00499679856203
0.00499674621673
0.00499673305079
0.00499672039833
0.00499670222635
0.00499669167835
0.00499666214839
0.00499665443701
0.00499664684297
0.00499664037807
0.00499663654461
0.00499663459175
0.00499663352379
0.00499663270489
0.00499663200579
0.00499663142246
0.00499663093109
0.00499663050583
0.00499663012268
0.00499662977236
0.00499662950395
0.00499662889527
0.00499669358529
0.00499669447599
0.00499669571035
0.00499666214839
0.00499669526174
)
;
    }
    procBoundary1to3
    {
        type            processor;
        value           nonuniform List<scalar> 
41
(
0.00499397632208
0.00499397635052
0.00499397663082
0.00499397742947
0.00499396508616
0.00499393725209
0.00499390496814
0.00499387126637
0.00499383631755
0.00499380058666
0.00499376446122
0.00499372896129
0.00499369582537
0.00499398772462
0.00499398772412
0.00499398772447
0.00499398772473
0.00499398772814
0.00499398772537
0.00499398770831
0.00499398770831
0.00499366393808
0.00499363900675
0.00499361881091
0.00499360278313
0.00499358261981
0.00499356291557
0.00499355116421
0.00499356819558
0.00499354443358
0.00499353399887
0.00499352655227
0.0049935158342
0.00499350302446
0.00499349173107
0.00499348255243
0.00499347525256
0.00499346966453
0.00499346558664
0.00499346284336
0.00499346128767
)
;
    }
}

