/*--------------------------------*- C++ -*----------------------------------*\
| =========                 |                                                 |
| \\      /  F ield         | OpenFOAM: The Open Source CFD Toolbox           |
|  \\    /   O peration     | Version:  2312                                  |
|   \\  /    A nd           | Website:  www.openfoam.com                      |
|    \\/     M anipulation  |                                                 |
\*---------------------------------------------------------------------------*/
FoamFile
{
    version     2.0;
    format      ascii;
    arch        "LSB;label=32;scalar=64";
    class       volScalarField;
    location    "0.39/cooler";
    object      T;
}
// * * * * * * * * * * * * * * * * * * * * * * * * * * * * * * * * * * * * * //

dimensions      [0 0 0 1 0 0 0];

internalField   nonuniform List<scalar> 
187
(
300.000006467
300.000004957
300.000003886
300.000003208
300.000002881
300.000006127
300.000004774
300.000003794
300.000003164
300.000002858
300.000005755
300.000004544
300.000003651
300.000003069
300.000002784
300.00000539
300.000004302
300.000003485
300.000002946
300.00000268
300.000005017
300.000004031
300.000003278
300.000002778
300.00000253
300.000004623
300.000003716
300.000003019
300.000002554
300.000002323
300.000004292
300.00000344
300.000002787
300.000002353
300.000002139
300.0000041
300.000003275
300.000002651
300.00000224
300.000002039
300.000004057
300.000003223
300.000002611
300.000002217
300.000002025
300.000004095
300.000003215
300.000002598
300.000002211
300.000002025
300.000004189
300.000003212
300.000002563
300.00000217
300.000001984
300.000004342
300.000003204
300.000002488
300.000002071
300.00000188
300.000004526
300.000003161
300.000002348
300.000001894
300.000001692
300.000004799
300.000003148
300.00000221
300.00000171
300.000001493
300.000005183
300.0000032
300.000002122
300.00000157
300.000001338
300.000005598
300.000003275
300.000002062
300.000001464
300.00000122
300.000005909
300.000003294
300.000001985
300.000001365
300.00000112
300.000005965
300.000003186
300.000001861
300.000001259
300.000001027
300.000005675
300.000002931
300.000001691
300.000001149
300.000000946
300.000005152
300.00000261
300.000001515
300.000001052
300.000000881
300.000004641
300.000002342
300.000001379
300.000000979
300.000000832
300.000004336
300.000002192
300.000001302
300.000000935
300.000000801
300.000004288
300.000002153
300.000001271
300.000000911
300.000000781
300.000004456
300.000002204
300.000001283
300.000000913
300.000000782
300.000004787
300.000002335
300.000001342
300.000000949
300.00000081
300.000005115
300.000002453
300.000001402
300.000000996
300.000000853
300.000005289
300.0000025
300.000001443
300.000001046
300.000000909
300.000005216
300.00000245
300.000001454
300.000001091
300.000000965
300.000004781
300.000002275
300.000001428
300.000001125
300.000001016
300.000004054
300.000002013
300.000001356
300.000001119
300.000001031
300.000003345
300.000001801
300.000001313
300.000001131
300.000001058
300.000002795
300.000001656
300.000001301
300.000001159
300.000001099
300.000002375
300.000001537
300.000001284
300.000001173
300.000001121
300.000002006
300.000001426
300.000001248
300.000001156
300.000001108
300.000001711
300.000001335
300.000001204
300.000001119
300.000001072
300.000001501
300.000001267
300.000001155
300.00000107
300.00000102
300.000001367
300.000001211
300.000001098
300.000001005
300.000000952
300.000000927
300.000000872
)
;

boundaryField
{
    emptyPatch
    {
        type            empty;
    }
    minY
    {
        type            zeroGradient;
    }
    maxY
    {
        type            zeroGradient;
    }
    maxX
    {
        type            zeroGradient;
    }
    cooler_to_water
    {
        type            compressible::turbulentTemperatureTwoPhaseRadCoupledMixed;
        refValue        nonuniform List<scalar> 
37
(
300.000044141
300.000042955
300.000041454
300.000039652
300.000037639
300.000035747
300.000034467
300.000034345
300.000035854
300.00003957
300.000046059
300.000056076
300.000070222
300.00008874
300.000110596
300.000133836
300.000155921
300.000173145
300.000181692
300.000180233
300.000172223
300.000163156
300.000160586
300.000167753
300.000183221
300.000202698
300.00022079
300.000234103
300.000238906
300.000231683
300.000212606
300.000183899
300.000151466
300.000118983
300.00008669
300.000057033
300.000033034
)
;
        refGradient     uniform 0;
        valueFraction   nonuniform List<scalar> 
37
(
0.0260302089718
0.0235116881442
0.0214123046049
0.0196926163557
0.0183448704578
0.0174458552067
0.0169045777148
0.0165863436458
0.0164208234778
0.0163688920424
0.0163835011514
0.0164179650595
0.0164225475182
0.016378168875
0.0163980369076
0.0165335258431
0.0166114680761
0.0165834999706
0.016514829708
0.0164460857732
0.016391804876
0.0163642174872
0.0163818249111
0.0164518553111
0.0165537005358
0.0162424486886
0.0161109527449
0.0158349005551
0.0152182885383
0.0139311509319
0.0120979685973
0.0104401359499
0.0101560038291
0.0101674181957
0.010148114551
0.0101651750143
0.0101493180761
)
;
        source          uniform 0;
        value           nonuniform List<scalar> 
37
(
300.000007443
300.000006989
300.000006516
300.000006062
300.000005613
300.000005164
300.0000048
300.0000046
300.000004577
300.000004673
300.000004871
300.000005186
300.000005596
300.000006163
300.000006896
300.000007698
300.000008376
300.000008709
300.00000855
300.000007998
300.000007355
300.000006904
300.000006818
300.000007111
300.000007705
300.000008286
300.000008718
300.000008795
300.000008297
300.000007181
300.00000584
300.000004658
300.000003867
300.000003177
300.000002559
300.000002056
300.000001683
)
;
        kappaMethod     solidThermo;
        Tnbr            T.liquid;
        region          solid;
        otherPhase      gas;
    }
    procBoundary2to0
    {
        type            processor;
        value           nonuniform List<scalar> 5(300.000006698 300.000005048 300.000003905 300.000003196 300.000002858);
    }
    procBoundary2to3
    {
        type            processor;
        value           nonuniform List<scalar> 6(300.000001285 300.000001154 300.000001027 300.000001027 300.000000857 300.000000803);
    }
}


// ************************************************************************* //
