/*--------------------------------*- C++ -*----------------------------------*\
| =========                 |                                                 |
| \\      /  F ield         | OpenFOAM: The Open Source CFD Toolbox           |
|  \\    /   O peration     | Version:  2312                                  |
|   \\  /    A nd           | Website:  www.openfoam.com                      |
|    \\/     M anipulation  |                                                 |
\*---------------------------------------------------------------------------*/
FoamFile
{
    version     2.0;
    format      ascii;
    arch        "LSB;label=32;scalar=64";
    class       surfaceScalarField;
    location    "0.165/water";
    object      phi.gas;
}
// * * * * * * * * * * * * * * * * * * * * * * * * * * * * * * * * * * * * * //

dimensions      [0 3 -1 0 0 0 0];

oriented        oriented;

internalField   nonuniform List<scalar> 
2914
(
4.22205268139e-09
4.64958832963e-07
1.05056608836e-08
7.03842203919e-07
3.60720249868e-08
7.92856944665e-07
6.52081969109e-08
8.62596823128e-07
8.70415788759e-08
9.37584580536e-07
1.03220950301e-07
1.0053916451e-06
1.17901073242e-07
1.05439670821e-06
1.35415717655e-07
1.06996246767e-06
1.61059055354e-07
1.04234885676e-06
1.96346613351e-07
9.5496404527e-07
2.14639685089e-07
9.07380308045e-07
2.29900975498e-07
8.72699931189e-07
2.46683342748e-07
8.45343970979e-07
2.68903694083e-07
8.25133176425e-07
2.96403580094e-07
8.16936921282e-07
3.14534661084e-07
8.13716396447e-07
3.19772740978e-07
8.07264801706e-07
3.20700521756e-07
7.95703510899e-07
3.14741038395e-07
7.76192597046e-07
7.46662821448e-07
2.97210015922e-07
-1.92025894529e-08
4.97970103098e-07
-2.87207043157e-08
7.12587280826e-07
-1.04728547107e-08
7.82255905153e-07
1.5494784124e-08
8.47484696885e-07
3.64686082176e-08
9.27440051716e-07
5.34200260773e-08
9.99359001546e-07
7.21277975433e-08
1.04824835584e-06
9.94090347995e-08
1.05875318442e-06
1.75674508082e-07
9.87103957819e-07
2.13449889538e-07
9.4316632118e-07
2.3964053386e-07
9.10268206507e-07
2.62079059842e-07
8.82631691059e-07
2.87219546322e-07
8.59637398406e-07
3.2025458442e-07
8.4410954862e-07
3.54449108577e-07
8.39341829366e-07
3.69761253569e-07
8.3640821465e-07
3.71840232247e-07
8.29311181268e-07
3.69870890626e-07
8.17442203352e-07
3.60882890774e-07
7.95654838711e-07
7.62722762865e-07
3.42864865192e-07
-6.3087764467e-08
5.93353227391e-07
-1.10125819922e-07
7.71699172903e-07
-8.42326397032e-08
7.70106785779e-07
-5.02083329099e-08
8.29562026734e-07
-2.48443172257e-08
9.19315283694e-07
-1.61723101543e-09
9.93367578299e-07
3.46407168855e-08
1.03062764375e-06
1.28160651722e-07
9.87508676405e-07
1.86806270059e-07
9.5577729987e-07
2.26950789639e-07
9.35065176476e-07
2.58957448211e-07
9.13695755167e-07
2.89311703803e-07
8.93420444016e-07
3.25270423925e-07
8.76511287021e-07
3.69963044243e-07
8.68067014274e-07
4.02740217303e-07
8.66552889359e-07
4.10851234106e-07
8.629038862e-07
4.10196841085e-07
8.55743753137e-07
4.01884061585e-07
8.42393697864e-07
3.87903679674e-07
8.16298416673e-07
7.80868252964e-07
3.7481753031e-07
-2.01329308179e-07
8.80416861618e-07
-2.80576630367e-07
8.77668587361e-07
-2.22622233956e-07
7.27865148175e-07
-1.59207465816e-07
7.870930408e-07
-8.84052527622e-08
8.72243150731e-07
-1.11342352838e-08
9.39962616692e-07
8.69590917876e-08
9.58003953724e-07
1.52071618621e-07
9.51171652923e-07
1.99817164094e-07
9.41731494187e-07
2.41092896349e-07
9.31599531699e-07
2.78370076235e-07
9.19275121748e-07
3.18000002919e-07
9.06729761039e-07
3.67318679882e-07
8.98269192581e-07
4.16586669967e-07
8.97224795339e-07
4.38470517198e-07
8.96978001351e-07
4.41195692077e-07
8.92934526776e-07
4.31687760456e-07
8.84861125432e-07
4.09934829691e-07
8.66519584337e-07
3.97452690036e-07
8.36967403435e-07
8.01403914926e-07
3.9601557012e-07
-4.24976919948e-07
1.39124752844e-06
-2.09812053131e-07
7.05699766949e-07
-1.82952724384e-07
7.1024636751e-07
-1.40343826623e-07
7.64708318361e-07
-7.45435521116e-08
8.33473704199e-07
8.27504293332e-09
8.88074390375e-07
8.58019266253e-08
9.14156873361e-07
1.50045188584e-07
9.23969634618e-07
2.03953612502e-07
9.28553843117e-07
2.51362146628e-07
9.2945416504e-07
2.97893175723e-07
9.26848660019e-07
3.51735809015e-07
9.24320881852e-07
4.12443906982e-07
9.26197391597e-07
4.51048852323e-07
9.29865201589e-07
4.60894883198e-07
9.29972817428e-07
4.56298553077e-07
9.26086505944e-07
4.23850971685e-07
9.11822741789e-07
3.93285110818e-07
8.88560168742e-07
3.96916206718e-07
8.59555188126e-07
8.25027083156e-07
4.07549906702e-07
-6.79122628313e-08
1.53577749169e-06
-1.23093674675e-07
7.76250114614e-07
-1.26510555872e-07
7.16358162148e-07
-1.05940816025e-07
7.57545667814e-07
-5.4834203359e-08
8.11507917003e-07
1.5933349152e-08
8.56296511244e-07
8.92321464415e-08
8.84988621981e-07
1.54647973301e-07
9.05979087087e-07
2.12794033166e-07
9.21484977634e-07
2.6786072324e-07
9.32670675908e-07
3.27745800854e-07
9.40966571735e-07
3.95814016008e-07
9.49870120998e-07
4.47262569526e-07
9.59124969875e-07
4.67551510128e-07
9.65131649467e-07
4.7187486746e-07
9.6781355202e-07
4.36411603924e-07
9.5787078837e-07
3.81630326171e-07
9.33748556177e-07
3.64189275727e-07
9.11358917742e-07
3.9089004549e-07
8.85317941833e-07
8.4864148429e-07
3.99343335608e-07
1.42457092041e-07
1.48367353545e-06
2.83514675391e-08
8.89893868723e-07
-3.53144682606e-08
7.67201672408e-07
-5.29379410194e-08
7.77379457805e-07
-2.3186319836e-08
8.08835985625e-07
3.71687486866e-08
8.41553219539e-07
1.05395306988e-07
8.72081728906e-07
1.71281380973e-07
9.00941185566e-07
2.34428909474e-07
9.25938958259e-07
3.0055755811e-07
9.46899647077e-07
3.72590801518e-07
9.65784577936e-07
4.29571469886e-07
9.8246919713e-07
4.58464426823e-07
9.95923570876e-07
4.7364409062e-07
1.00767879923e-06
4.44424679031e-07
1.00893976867e-06
3.67694707388e-07
9.8142891245e-07
3.18823178646e-07
9.53847603259e-07
3.28447506968e-07
9.36453487216e-07
3.7033358138e-07
9.12628922082e-07
8.6787166594e-07
3.56732802229e-07
2.8853594575e-07
1.37685290983e-06
1.94113926543e-07
9.79409367107e-07
8.79290540668e-08
8.49603714674e-07
3.19415701289e-08
8.30704128487e-07
3.25378897333e-08
8.31135701928e-07
7.42641454e-08
8.47178829506e-07
1.33693907746e-07
8.77680644961e-07
1.99668351811e-07
9.12066935673e-07
2.70125054531e-07
9.43829345104e-07
3.40897200399e-07
9.71989567782e-07
3.96723361444e-07
9.96406255057e-07
4.30951394803e-07
1.01794830706e-06
4.5625652515e-07
1.03945873943e-06
4.37937394959e-07
1.05476523732e-06
3.41074762159e-07
1.04187163723e-06
2.62567923482e-07
9.96681408732e-07
2.47140403125e-07
9.72444795427e-07
2.80422885605e-07
9.60021275988e-07
3.18527915995e-07
9.35024306494e-07
8.81594767837e-07
2.91626426842e-07
3.45533813671e-07
1.30330095208e-06
2.77958132632e-07
1.04509635665e-06
1.58989189691e-07
9.42921920249e-07
8.96222043752e-08
9.02879024465e-07
7.68021535644e-08
8.68004047795e-07
1.01699449645e-07
8.65496379411e-07
1.50679153803e-07
8.9405553684e-07
2.13794273146e-07
9.30238448807e-07
2.80080842102e-07
9.63758324609e-07
3.34969003709e-07
9.93934196117e-07
3.77292048004e-07
1.02202594756e-06
4.10304348361e-07
1.04951624019e-06
3.94121571911e-07
1.07425776953e-06
2.91849511119e-07
1.08582915525e-06
1.86499837221e-07
1.0617161604e-06
1.54971208259e-07
1.00220931442e-06
1.682611249e-07
9.80695055821e-07
2.09140400552e-07
9.71383525996e-07
2.41656928444e-07
9.45966386709e-07
8.88690603884e-07
2.23018973215e-07
3.31921413615e-07
1.28234690461e-06
2.35860339584e-07
1.12087568685e-06
1.17952166653e-07
1.04574634677e-06
5.46570591371e-08
9.77541756766e-07
4.18974349999e-08
9.06960842623e-07
5.76247814003e-08
8.86261104428e-07
9.69496120836e-08
9.06538672964e-07
1.52990005106e-07
9.38790398935e-07
2.13081699467e-07
9.69538990082e-07
2.65730371109e-07
9.98389341885e-07
2.99687272588e-07
1.02679684793e-06
2.79308369828e-07
1.05576777033e-06
1.92903382259e-07
1.08126657623e-06
9.88661234305e-08
1.09504739422e-06
6.0857853148e-08
1.06213788318e-06
6.60577865639e-08
9.92544073058e-07
8.66776245813e-08
9.70877698636e-07
1.25905650142e-07
9.65113857629e-07
1.65124014287e-07
9.44574303484e-07
8.90086714008e-07
1.68735285199e-07
3.40216674038e-07
1.25550451317e-06
1.83497499425e-07
1.19939581361e-06
5.13849593971e-08
1.14431077966e-06
-1.9675962223e-08
1.04081807396e-06
-5.3932325435e-08
9.45638507832e-07
-6.20845433116e-08
9.07259083366e-07
-4.43829770717e-08
9.12289638572e-07
-4.25943257309e-09
9.33823998886e-07
4.33487579581e-08
9.56013102271e-07
7.50448084384e-08
9.8006355902e-07
6.85523648069e-08
1.00915692857e-06
2.87123210219e-08
1.0407725454e-06
-9.35490869833e-09
1.06766131754e-06
-1.79198893435e-08
1.07604750963e-06
-4.30819699924e-09
1.03711653576e-06
8.15395077132e-09
9.68954037143e-07
2.28370315049e-08
9.46856910043e-07
6.35452413211e-08
9.45620883086e-07
1.13851736112e-07
9.33293313121e-07
8.87341396364e-07
1.45415504708e-07
4.03415040319e-07
1.08570799083e-06
2.06019402978e-07
1.25280901095e-06
1.05698308293e-07
1.18444184517e-06
3.36140486623e-08
1.06713222375e-06
-4.19548276399e-08
9.73990374895e-07
-1.15338601587e-07
9.31192620862e-07
-1.72588114181e-07
9.25219563218e-07
-2.03645406818e-07
9.35483557582e-07
-2.0943644624e-07
9.47741191543e-07
-1.97357867375e-07
9.61344199858e-07
-1.79731875696e-07
9.81982825425e-07
-1.5356463967e-07
1.00439213351e-06
-1.15129846097e-07
1.02373660067e-06
-7.0580111722e-08
1.02682530659e-06
-3.32774370092e-08
9.90526187033e-07
-1.4456449866e-08
9.34178874438e-07
-2.31610050242e-09
9.16387121202e-07
3.93046384003e-08
9.19412897035e-07
9.99171156791e-08
9.159662638e-07
8.81260518147e-07
1.54739534083e-07
3.48400011213e-07
8.21701854429e-07
3.85931722839e-07
1.09965148056e-06
3.85544571216e-07
1.12448037059e-06
3.07810484221e-07
1.08701305954e-06
1.7946030601e-07
1.03437235133e-06
3.8457077402e-08
9.90470834226e-07
-1.07660411774e-07
9.74517811147e-07
-2.40105346209e-07
9.69113087219e-07
-3.27211291865e-07
9.59667353871e-07
-3.43957193542e-07
9.47276554299e-07
-3.01919893067e-07
9.44656547012e-07
-2.31452515039e-07
9.50685263459e-07
-1.54617654118e-07
9.59420786158e-07
-8.24982480051e-08
9.59199449044e-07
-2.89614310071e-08
9.33424384899e-07
-1.9195830327e-09
8.96412539821e-07
1.31650426714e-08
8.87085049795e-07
5.26587202509e-08
8.93828699878e-07
1.19225766739e-07
8.97870319741e-07
8.74414354416e-07
1.88313213328e-07
1.76261970299e-07
6.38331551403e-07
2.79204308839e-07
9.50375873854e-07
3.51604036553e-07
1.01546598613e-06
3.73346076551e-07
1.02115053259e-06
3.39707229109e-07
1.01927060331e-06
2.52749608185e-07
1.02402561668e-06
1.27104876086e-07
1.03653611914e-06
-2.8924083475e-08
1.04864657259e-06
-1.80916633284e-07
1.0267588411e-06
-2.6234351621e-07
9.55541513786e-07
-2.6690424767e-07
9.17244394569e-07
-2.12583604151e-07
9.02023495636e-07
-1.33397351634e-07
8.9990188816e-07
-5.16658546255e-08
8.97665098664e-07
6.90242407389e-09
8.84526642268e-07
3.76223073376e-08
8.67044402913e-07
5.72242771896e-08
8.652598207e-07
9.41001451219e-08
8.74687681536e-07
1.60435588536e-07
8.84058685648e-07
8.70481583024e-07
2.37193300358e-07
1.01647933666e-07
5.30672227812e-07
1.95598038354e-07
8.36290317273e-07
2.63300839277e-07
9.26586739909e-07
2.99019837376e-07
9.64511525718e-07
3.08105947415e-07
9.91462432872e-07
2.94426048515e-07
1.01940035554e-06
2.58178129018e-07
1.05078508428e-06
1.98639085532e-07
1.07893596924e-06
1.05490006356e-07
1.08264660276e-06
-3.30638572949e-08
1.03904279871e-06
-9.0022613347e-08
9.13974989334e-07
-9.67989312078e-08
8.81303201985e-07
-5.39265160776e-08
8.6157111816e-07
6.32255833378e-09
8.54952835247e-07
5.78649731835e-08
8.52417535342e-07
9.07612576653e-08
8.4806341121e-07
1.15486203064e-07
8.51976241852e-07
1.51110387535e-07
8.63501036646e-07
2.13403462218e-07
8.7615267178e-07
8.70462960274e-07
2.93896491963e-07
6.50964423596e-08
4.64661639486e-07
1.32700550836e-07
7.53546648324e-07
1.88711384368e-07
8.54933097594e-07
2.32702979751e-07
9.08724276075e-07
2.66165723055e-07
9.50608025874e-07
2.89067873151e-07
9.91863273512e-07
3.00806933616e-07
1.03470152256e-06
2.98679949761e-07
1.07498679539e-06
2.75269635224e-07
1.09518550886e-06
2.26397998643e-07
1.06770123355e-06
1.21046744087e-07
9.80945866267e-07
7.38972876553e-08
8.88647994313e-07
6.93453157796e-08
8.50197378095e-07
9.13240551605e-08
8.3416222582e-07
1.22215140679e-07
8.32729694872e-07
1.51239146794e-07
8.36075294708e-07
1.77522843773e-07
8.44517129996e-07
2.10998278667e-07
8.58185002297e-07
2.68444777818e-07
8.73495697263e-07
8.74624378031e-07
3.49735581859e-07
4.69972476094e-08
4.1768377634e-07
9.77611712719e-08
6.89167374697e-07
1.45040391534e-07
7.94127969502e-07
1.88948826715e-07
8.55265507856e-07
2.28957378515e-07
9.0464817225e-07
2.64049269084e-07
9.52801473209e-07
2.93647617035e-07
1.00201569693e-06
3.1642633943e-07
1.04949877048e-06
3.2344838562e-07
1.0833129898e-06
3.06259077429e-07
1.07685297812e-06
2.59459978845e-07
1.01049242119e-06
2.17779161841e-07
9.04638118643e-07
1.94738509719e-07
8.54956015146e-07
1.93426191182e-07
8.29672857964e-07
2.04361228957e-07
8.24511020651e-07
2.21159291142e-07
8.29892357226e-07
2.41173526153e-07
8.41076607557e-07
2.70369809725e-07
8.57025077581e-07
3.23433360863e-07
8.75227806387e-07
8.82690481235e-07
4.05248773975e-07
3.76228927024e-08
3.81039512729e-07
7.76454251894e-08
6.36580649601e-07
1.18224549374e-07
7.40806427383e-07
1.58733918807e-07
8.05182933545e-07
1.97295081268e-07
8.59020253166e-07
2.33517008031e-07
9.11120040243e-07
2.66979780704e-07
9.63944928564e-07
2.96491643336e-07
1.0156004196e-06
3.18086553191e-07
1.05728524559e-06
3.29388363433e-07
1.06221808879e-06
3.25740044818e-07
1.01207390988e-06
3.04478336916e-07
9.19983527664e-07
2.87897515384e-07
8.6467764476e-07
2.8218191521e-07
8.33687489372e-07
2.85984001562e-07
8.24260474588e-07
2.94305777839e-07
8.29616103492e-07
3.07231731989e-07
8.42425701822e-07
3.31646104254e-07
8.6059760153e-07
3.80684659745e-07
8.81826561914e-07
8.95201256877e-07
4.63299700912e-07
2.94992922499e-08
3.5236706122e-07
6.09520059718e-08
5.93773147419e-07
9.71390418679e-08
6.93048208354e-07
1.353802678e-07
7.57952168361e-07
1.71135076345e-07
8.15683668992e-07
2.04269744298e-07
8.71437489274e-07
2.35804449035e-07
9.26587822746e-07
2.65479216063e-07
9.8022484911e-07
2.93020964183e-07
1.02478588677e-06
3.18399183742e-07
1.0347714158e-06
3.39415246687e-07
9.93968286342e-07
3.42529747143e-07
9.22813957792e-07
3.43018567552e-07
8.70678039681e-07
3.45357366693e-07
8.39716383844e-07
3.51996494715e-07
8.28371887596e-07
3.60976267726e-07
8.33958966142e-07
3.72320422426e-07
8.48385582928e-07
3.93964617557e-07
8.68986804353e-07
4.40598644922e-07
8.93555047351e-07
9.12869048271e-07
5.25607814486e-07
1.98406393407e-08
3.34366399836e-07
4.06785743375e-08
5.63436491083e-07
7.3103382276e-08
6.52146720238e-07
1.1092528522e-07
7.14239759584e-07
1.46133054575e-07
7.75043834933e-07
1.75687644442e-07
8.35780845863e-07
2.02780151673e-07
8.93395726836e-07
2.29821572438e-07
9.47245106227e-07
2.60465415534e-07
9.8981620226e-07
2.96517852899e-07
9.98766558719e-07
3.31138760018e-07
9.64860905449e-07
3.59375880664e-07
9.05427289677e-07
3.7499360955e-07
8.698685044e-07
3.87982316211e-07
8.43830468431e-07
4.02296978647e-07
8.33858159674e-07
4.1790240073e-07
8.40926335772e-07
4.33247744006e-07
8.57667262715e-07
4.55891771104e-07
8.81283397562e-07
5.03960636044e-07
9.09735722002e-07
9.3549291274e-07
5.96960706345e-07
2.7946480147e-09
3.34581822213e-07
1.03596271227e-08
5.50143539298e-07
3.70035854542e-08
6.22423189286e-07
7.36712518816e-08
6.77582293551e-07
1.09698061919e-07
7.39192938318e-07
1.38733562209e-07
8.04864854504e-07
1.64121463498e-07
8.64986305165e-07
1.91748764368e-07
9.17042400218e-07
2.29296335179e-07
9.52948009964e-07
2.78201216319e-07
9.56376187018e-07
3.32477181757e-07
9.23233011154e-07
3.7023120768e-07
8.84812235138e-07
3.96679645738e-07
8.63642917546e-07
4.19185639719e-07
8.45168895482e-07
4.42564798645e-07
8.39451146646e-07
4.68145538742e-07
8.49591222671e-07
4.91340498311e-07
8.69813611583e-07
5.18677016298e-07
8.97249079256e-07
5.73576244369e-07
9.30520605265e-07
9.64455213701e-07
6.82866954221e-07
-2.74822064591e-08
3.67617544238e-07
-3.71709944616e-08
5.60522394748e-07
-1.9268039252e-08
6.08350596929e-07
1.56279668545e-08
6.49799173284e-07
5.31199256927e-08
7.09659478095e-07
8.5751404877e-08
7.78580961298e-07
1.1568548442e-07
8.39951914868e-07
1.49934824042e-07
8.88428789694e-07
1.96923790583e-07
9.15512395084e-07
2.60588108429e-07
9.08233636124e-07
3.33234876321e-07
8.71595951499e-07
3.76448820262e-07
8.67139710254e-07
4.12327193512e-07
8.55759680579e-07
4.44482891363e-07
8.45581076497e-07
4.79527422502e-07
8.46616425049e-07
5.18694238775e-07
8.61579256566e-07
5.51131957574e-07
8.86256255418e-07
5.86427319194e-07
9.17881214074e-07
6.55738592558e-07
9.57392963825e-07
1.00401112362e-06
7.98419674181e-07
-9.90246762474e-08
4.81443651172e-07
-1.57096151755e-07
6.36399285894e-07
-1.16375220798e-07
5.8067197373e-07
-6.37420417792e-08
6.12083253821e-07
-1.0902338926e-08
6.73128762553e-07
3.2137921116e-08
7.51966998457e-07
7.23839717753e-08
8.15484577463e-07
1.22659263595e-07
8.5466948478e-07
2.03210258665e-07
8.54689238711e-07
2.85761122113e-07
8.51640329274e-07
3.34426239384e-07
8.5412079109e-07
3.82191394556e-07
8.54216909124e-07
4.26269211729e-07
8.50368568357e-07
4.70568273928e-07
8.49116709596e-07
5.22791480595e-07
8.58411849238e-07
5.75178227655e-07
8.79457649025e-07
6.13894040119e-07
9.08243303273e-07
6.62788004921e-07
9.45384782161e-07
7.60716116136e-07
9.95630068376e-07
1.06882944037e-06
9.65626210428e-07
-2.25299649708e-07
7.42214792123e-07
-1.5044430788e-07
5.95213717701e-07
-1.21760443873e-07
5.64462685716e-07
-8.850857256e-08
5.99222672249e-07
-4.31632911297e-08
6.5079255543e-07
2.00086911238e-08
7.13753604752e-07
9.3063321978e-08
7.67955810053e-07
1.71274116256e-07
8.03933303734e-07
2.33223617261e-07
8.2421774146e-07
2.86087740852e-07
8.36074154941e-07
3.39545375332e-07
8.42532702195e-07
3.92829490616e-07
8.47516259397e-07
4.47527524493e-07
8.51349630828e-07
5.10236225887e-07
8.59513898816e-07
5.79852605377e-07
8.77258665911e-07
6.3483470453e-07
9.03157469111e-07
6.81978682029e-07
9.36911653667e-07
7.59971862939e-07
9.8613945243e-07
9.19107076036e-07
1.06084788759e-06
1.14448085715e-06
9.99555198399e-07
-1.98216355384e-07
9.85604571256e-07
-1.38667480164e-07
5.74920300851e-07
-1.14942577798e-07
5.55277104336e-07
-7.48345219946e-08
5.86887019331e-07
-2.71362444331e-08
6.33433071838e-07
3.04643859282e-08
6.89464479684e-07
9.44357565103e-08
7.3970882629e-07
1.59654312458e-07
7.77987866174e-07
2.24108521235e-07
8.04446784566e-07
2.8787330829e-07
8.22927420579e-07
3.50842914086e-07
8.36997824325e-07
4.17016800262e-07
8.48755935048e-07
4.91846597215e-07
8.60892729034e-07
5.73457511295e-07
8.77878067676e-07
6.42597639743e-07
9.0073323409e-07
6.99290476682e-07
9.31315467038e-07
7.80371606661e-07
9.79474424846e-07
9.16087880116e-07
1.05151496566e-06
9.64042085426e-07
1.12146097758e-06
1.1611733094e-06
6.54916614844e-07
-1.48021313962e-08
1.05659909965e-06
-6.4297417265e-08
6.5167322585e-07
-8.35276502078e-08
5.78966784883e-07
-6.07792178116e-08
5.8939174616e-07
-1.68862011524e-08
6.27300642838e-07
3.84762110673e-08
6.78694852135e-07
1.00481294697e-07
7.26944645836e-07
1.66540548918e-07
7.66986976017e-07
2.36053903445e-07
7.98707122711e-07
3.09497108131e-07
8.23272922666e-07
3.89139648526e-07
8.43213869503e-07
4.76795472168e-07
8.61190985572e-07
5.65655142522e-07
8.78969755403e-07
6.41075898236e-07
8.98875064736e-07
7.10667493667e-07
9.25926105637e-07
8.12301400204e-07
9.71018907625e-07
9.28106379482e-07
1.03069215636e-06
8.74999461049e-07
1.07672808347e-06
5.83507917395e-07
1.116448356e-06
1.21674834818e-06
2.9848581712e-07
1.95953962546e-07
1.04925635013e-06
1.17445490321e-07
7.59554633846e-07
3.08084944065e-08
6.46716379072e-07
-3.11797247842e-10
6.2319114055e-07
1.48148968082e-08
6.42589184652e-07
5.92010271966e-08
6.88247921294e-07
1.19174786818e-07
7.34567242104e-07
1.89414357739e-07
7.75284057956e-07
2.70513580505e-07
8.09791291879e-07
3.60980318235e-07
8.38420664921e-07
4.56515345105e-07
8.61553644801e-07
5.46521581696e-07
8.80251976945e-07
6.24039005256e-07
8.9800777183e-07
7.08063450971e-07
9.21128408288e-07
8.32465912392e-07
9.55969593165e-07
8.9211602737e-07
9.89375703258e-07
7.15947625144e-07
1.01047854199e-06
4.46280235298e-07
1.0602250336e-06
2.42980055215e-07
1.15714915832e-06
1.27530736667e-06
1.48017152549e-07
3.05755481559e-07
1.03604769098e-06
2.51638933134e-07
8.44361421752e-07
1.43524845898e-07
7.3207602448e-07
8.0959037029e-08
6.83702211848e-07
6.32464788006e-08
6.79876147252e-07
8.5146436436e-08
7.15879666778e-07
1.38022611744e-07
7.57771720971e-07
2.0936090891e-07
7.96909597837e-07
2.95333831907e-07
8.31596862691e-07
3.86650597643e-07
8.61320551647e-07
4.77177022676e-07
8.86246669961e-07
5.66419422471e-07
9.08181494218e-07
6.67520820793e-07
9.29433431945e-07
7.78497990435e-07
9.45921295355e-07
7.36946939643e-07
9.49824829101e-07
4.98666877437e-07
9.55015793719e-07
2.91722623769e-07
9.96711414122e-07
1.76506636012e-07
1.08129454045e-06
1.18214333303e-07
1.19076290788e-06
1.29982155605e-06
8.84659727196e-08
3.39309188528e-07
1.03545259131e-06
2.70919655901e-07
9.16175071534e-07
1.63851928296e-07
8.18871294759e-07
9.24049447867e-08
7.55263916038e-07
6.25275289653e-08
7.28014202042e-07
7.06920524252e-08
7.46744178277e-07
1.13331963081e-07
7.81388345455e-07
1.73827737168e-07
8.18735171408e-07
2.54146862239e-07
8.56692768536e-07
3.48987628227e-07
8.95813867705e-07
4.52923369699e-07
9.352633084e-07
5.51696738948e-07
9.66529014032e-07
5.8499819499e-07
9.71970941241e-07
4.50349094613e-07
9.5315554395e-07
2.34449904605e-07
9.46609997104e-07
9.81593979637e-08
9.59706796352e-07
5.01161807624e-08
9.98674269838e-07
4.30540382053e-08
1.07093157715e-06
4.7076655382e-08
1.17387188502e-06
1.2860139174e-06
4.50539425636e-08
3.38000490424e-07
1.01294382794e-06
2.38305136903e-07
9.4969223141e-07
1.48510929185e-07
8.71468547384e-07
8.2123460486e-08
8.02181901098e-07
4.95402185864e-08
7.61598434986e-07
5.0802565637e-08
7.60885797819e-07
8.56325956856e-08
7.82420887796e-07
1.44764049881e-07
8.16195490183e-07
2.29638112293e-07
8.5911497886e-07
3.12805591689e-07
9.12235018863e-07
3.35789443795e-07
9.6996892596e-07
2.47004214945e-07
1.0125073014e-06
6.64308651817e-08
1.02474806969e-06
-1.01008151831e-07
1.00215328383e-06
-1.89061063446e-07
9.80358874072e-07
-2.05824544651e-07
9.71923792165e-07
-1.83239734831e-07
9.83788327917e-07
-1.30868979299e-07
1.02546654177e-06
-6.39937435492e-08
1.10241454648e-06
1.21360006599e-06
-9.47040330254e-09
3.79634180903e-07
8.75253718471e-07
3.27265388944e-07
8.75979003784e-07
2.75469023325e-07
8.56884209433e-07
2.26401918277e-07
8.0676062038e-07
1.93329088452e-07
7.66668297707e-07
1.78703259101e-07
7.56867246947e-07
1.79410596193e-07
7.67796159375e-07
1.83733500208e-07
7.93580497039e-07
1.71531235546e-07
8.33542688251e-07
9.93920959424e-08
8.91344614932e-07
-3.82492462018e-08
9.63230788856e-07
-2.14332539283e-07
1.03732748388e-06
-3.85720237117e-07
1.07835203694e-06
-4.80363810075e-07
1.04449522582e-06
-5.04637140125e-07
1.00237372586e-06
-4.84239930743e-07
9.72077796112e-07
-4.2293894564e-07
9.56293254415e-07
-3.31970705998e-07
9.69999454124e-07
-2.20188714438e-07
1.01504490334e-06
1.09696193996e-06
-1.0361239123e-07
4.3600196882e-07
5.81670951423e-07
4.13511712381e-07
7.84222124989e-07
4.09414777545e-07
8.05784605082e-07
3.97819194926e-07
7.84460604922e-07
3.73006459886e-07
7.61563240908e-07
3.35997277764e-07
7.57119792579e-07
2.82212391878e-07
7.70133015412e-07
1.97620937978e-07
7.99327194547e-07
7.64604383079e-08
8.46244183618e-07
-5.84772820128e-08
9.11197949571e-07
-1.81652564115e-07
9.90853640603e-07
-2.86024448619e-07
1.06065270544e-06
-3.90625610246e-07
1.10450251875e-06
-5.03097875278e-07
1.08021810981e-06
-5.79703629007e-07
1.01021847391e-06
-6.13408949016e-07
9.68435635795e-07
-5.77540572946e-07
9.29451162377e-07
-4.81663859392e-07
9.13684288165e-07
-3.53500055983e-07
9.35987214045e-07
9.87906571708e-07
-2.09888163569e-07
1.80165681253e-07
4.55898297527e-07
2.29021990231e-07
6.85427343181e-07
2.80201753282e-07
7.31851195323e-07
3.28900397802e-07
7.24898796124e-07
3.56652984095e-07
7.2192496968e-07
3.55519906447e-07
7.37241569612e-07
3.23236681507e-07
7.68701674953e-07
2.56522004181e-07
8.1709328428e-07
1.66706431335e-07
8.80032059342e-07
8.46255287541e-08
9.49533084625e-07
3.18839925582e-08
1.01711928005e-06
-2.6095099079e-09
1.07629033032e-06
-3.79834431553e-08
1.12040252745e-06
-1.27909407835e-07
1.13242405827e-06
-3.04817176424e-07
1.11741386858e-06
-4.71126369226e-07
1.03369713347e-06
-5.55242278418e-07
9.31644333306e-07
-5.19652351465e-07
8.72936120556e-07
-4.13771057882e-07
8.6773615312e-07
8.99939474935e-07
-2.7385651532e-07
8.84649239349e-08
3.98871116328e-07
1.23846700037e-07
6.26784584336e-07
1.71015109256e-07
6.74642038883e-07
2.2402660059e-07
6.71897913389e-07
2.70115629019e-07
6.78249561463e-07
3.02364824902e-07
7.04826739752e-07
3.1461689095e-07
7.51007056123e-07
2.99846051494e-07
8.19750442086e-07
2.67102253228e-07
8.99023780443e-07
2.34128683182e-07
9.74114732573e-07
2.10851236026e-07
1.03734681713e-06
1.95235570473e-07
1.09059588878e-06
1.78804003986e-07
1.13478429881e-06
1.37766672987e-07
1.16469370657e-06
5.09330816061e-08
1.17904300606e-06
-1.38574754982e-07
1.16885211257e-06
-3.55709190473e-07
1.0455342882e-06
-4.25822278537e-07
8.67275975572e-07
-3.76403523636e-07
8.21246736731e-07
8.30114829452e-07
-2.71719789552e-07
4.47842731914e-08
3.86982845984e-07
5.96824814201e-08
5.9516992627e-07
1.04773711872e-07
6.27555745779e-07
1.72586347141e-07
6.125560956e-07
2.58525967452e-07
6.03004599065e-07
3.28069099088e-07
6.43731049996e-07
3.647405517e-07
7.16935671363e-07
3.72610858125e-07
8.07125893327e-07
3.53287809698e-07
9.11923219288e-07
3.272959913e-07
9.96865127116e-07
3.04017530252e-07
1.05975852549e-06
2.82786574699e-07
1.1108979485e-06
2.60350167054e-07
1.15578063231e-06
2.28534694023e-07
1.19466941986e-06
1.74883097465e-07
1.22849663594e-06
8.15822691647e-08
1.24894811025e-06
-1.19890092245e-07
1.20073495333e-06
-2.4638417814e-07
9.23612161512e-07
-2.58970196527e-07
8.08659424661e-07
7.85669355294e-07
-1.94530102047e-07
-1.29091309057e-08
4.45932651662e-07
-3.40105765964e-08
6.2514116992e-07
5.00234238981e-09
6.05047265911e-07
1.31392147198e-07
5.04756021153e-07
2.53062227821e-07
5.00861395862e-07
3.795220952e-07
5.30391436676e-07
4.70371632279e-07
6.25599091539e-07
4.41898933009e-07
8.23898970184e-07
3.9822486618e-07
9.4557654562e-07
3.59017179953e-07
1.03229004319e-06
3.25495775099e-07
1.09160551709e-06
2.95317263251e-07
1.13875425996e-06
2.66236149276e-07
1.18179290869e-06
2.34008329932e-07
1.22347100637e-06
1.94582266479e-07
1.26498830153e-06
1.40837746296e-07
1.30093153926e-06
6.63045561561e-08
1.27256347012e-06
-7.96791743444e-08
1.05208362396e-06
-1.1046089666e-07
8.26422522715e-07
7.70319871857e-07
-6.98355854492e-08
5.53830400135e-08
9.14377779428e-08
1.44131583642e-07
1.68127495118e-07
1.99139780543e-07
2.2063436799e-07
2.34706103061e-07
2.51327290485e-07
2.51840859981e-07
2.46586572245e-07
2.36515608253e-07
2.22253974284e-07
2.042366922e-07
1.82067578352e-07
1.54313014079e-07
1.19410572057e-07
7.64400441414e-08
2.68611110255e-08
2.567349448e-08
6.205581751e-08
7.52970783201e-08
4.73932649531e-07
5.95931495479e-08
3.99480003308e-07
3.77654550445e-08
3.6809518068e-07
1.38201283929e-08
3.4886362131e-07
-1.68829704107e-09
3.32590654022e-07
-2.92509975048e-09
3.16861103017e-07
-1.12053010481e-08
2.95702854516e-07
-3.62817420085e-08
2.76358316684e-07
-4.18555594217e-08
2.54415258466e-07
-3.60264644394e-08
2.30833330032e-07
-2.92076412323e-08
2.08766256506e-07
-2.25830219151e-08
1.88223308947e-07
-1.63879662336e-08
1.68981753349e-07
-1.0717206811e-08
1.50844260054e-07
-4.69606813161e-09
1.34123793484e-07
1.20095163365e-07
2.83146407045e-07
6.89022766238e-07
2.55196631035e-07
6.28192988516e-07
1.62902660588e-07
5.98494707552e-07
1.02960588129e-07
5.70216960513e-07
8.60252584694e-08
4.71602143069e-07
7.42899503623e-08
4.01291165678e-07
5.51264442984e-08
3.70726226753e-07
3.16167047488e-08
3.51193052911e-07
1.56755791608e-08
3.34394035226e-07
1.39341458498e-08
3.1822971644e-07
1.76337418061e-08
2.96559965135e-07
-4.80054752463e-09
2.74268600537e-07
-2.05015986019e-08
2.52264118573e-07
-1.9256515385e-08
2.28630354517e-07
-1.58059684785e-08
2.06614005808e-07
-1.22526503477e-08
1.86166710813e-07
-8.85599907815e-09
1.67053980863e-07
-5.75898870699e-09
1.49073157491e-07
-3.29859475041e-09
1.32516570487e-07
1.18611971914e-07
3.27161609905e-07
7.03933808023e-07
2.70741473257e-07
6.42320709308e-07
1.56713699861e-07
6.23928216881e-07
1.01855569773e-07
5.81005431838e-07
9.06438112915e-08
4.6906453345e-07
8.28112045593e-08
4.05260420227e-07
6.50992528116e-08
3.75765052612e-07
4.22366651952e-08
3.55728412366e-07
2.66537240808e-08
3.38186949969e-07
2.53987900969e-08
3.2133412674e-07
3.60661980088e-08
2.99603788254e-07
2.06380750951e-08
2.75242391263e-07
1.71546479203e-09
2.52610371811e-07
-1.02935740393e-09
2.28719423482e-07
-1.03700846856e-09
2.06573091541e-07
-7.32527084786e-10
1.86063785674e-07
-3.61745156268e-10
1.66946629032e-07
-1.07708599332e-10
1.49013162289e-07
-9.9995795743e-10
1.32538292525e-07
1.18688732982e-07
3.54520347379e-07
7.21943600747e-07
2.63908031399e-07
6.5902537558e-07
1.36038677317e-07
6.54916783585e-07
9.38384811266e-08
5.8882216142e-07
8.98569909512e-08
4.6618361955e-07
8.49525453982e-08
4.10171632646e-07
6.68754844157e-08
3.81855338333e-07
4.49566475895e-08
3.61290068737e-07
3.06664838014e-08
3.4298929574e-07
3.06485378091e-08
3.25388808671e-07
4.52912250144e-08
3.03469458652e-07
3.78998348481e-08
2.78307113083e-07
2.01964340317e-08
2.54878984977e-07
1.49904583204e-08
2.30662829251e-07
1.21608389242e-08
2.08285271817e-07
9.71413515988e-09
1.87611993332e-07
7.46126654508e-09
1.68398975423e-07
5.17720103828e-09
1.50432795091e-07
1.6923270604e-09
1.33977863418e-07
1.20139578913e-07
3.6045627589e-07
7.41813472669e-07
2.30005571433e-07
6.78910722701e-07
1.06768440495e-07
6.90044391246e-07
8.51905718977e-08