/*--------------------------------*- C++ -*----------------------------------*\
| =========                 |                                                 |
| \\      /  F ield         | OpenFOAM: The Open Source CFD Toolbox           |
|  \\    /   O peration     | Version:  2312                                  |
|   \\  /    A nd           | Website:  www.openfoam.com                      |
|    \\/     M anipulation  |                                                 |
\*---------------------------------------------------------------------------*/
FoamFile
{
    version     2.0;
    format      ascii;
    arch        "LSB;label=32;scalar=64";
    class       volScalarField;
    location    "0.185/water";
    object      p_rgh;
}
// * * * * * * * * * * * * * * * * * * * * * * * * * * * * * * * * * * * * * //

dimensions      [1 -1 -2 0 0 0 0];

internalField   nonuniform List<scalar> 
1503
(
101362.193929
101358.80255
101358.247288
101357.597755
101356.962569
101356.369695
101355.821109
101355.321704
101354.876056
101354.482371
101354.138363
101353.840823
101353.584843
101353.365907
101353.180097
101353.02434
101352.896019
101352.793239
101352.714555
101352.659084
101345.232526
101350.21596
101353.403584
101354.815279
101355.017692
101354.918741
101354.712823
101354.47759
101354.231603
101353.988048
101353.761904
101353.558895
101353.376989
101353.213849
101353.068505
101352.941164
101352.832334
101352.742744
101352.673072
101352.624046
101333.130896
101339.871743
101346.414295
101350.252153
101351.897152
101352.63559
101352.944994
101353.053262
101353.067721
101353.031967
101352.969856
101352.89963
101352.830074
101352.763042
101352.69856
101352.637564
101352.581738
101352.533389
101352.4949
101352.468517
101323.657818
101330.926976
101339.782827
101345.797193
101349.062832
101350.760918
101351.567309
101351.922696
101352.082264
101352.159188
101352.195773
101352.211696
101352.218086
101352.220284
101352.219466
101352.216086
101352.210968
101352.205785
101352.202595
101352.203529
101315.087369
101321.741982
101331.240912
101339.200753
101344.775066
101348.309059
101350.213663
101351.072265
101351.413239
101351.553765
101351.625148
101351.670987
101351.705466
101351.735271
101351.762682
101351.788102
101351.811457
101351.833278
101351.854455
101351.876073
101308.927967
101314.283803
101322.531248
101330.874647
101338.299051
101344.174807
101348.060333
101350.106233
101350.927061
101351.1831
101351.258996
101351.292672
101351.317114
101351.34072
101351.3664
101351.394607
101351.42466
101351.456101
101351.488623
101351.52207
101303.660576
101308.198753
101314.732275
101322.013583
101329.887126
101337.596989
101343.941282
101348.140196
101350.200163
101350.869769
101350.992025
101350.995134
101350.988395
101350.987987
101350.996861
101351.015184
101351.041574
101351.074611
101351.112804
101351.154766
101298.21047
101302.769853
101308.12337
101313.819998
101320.907308
101329.181891
101337.395753
101344.128056
101348.400017
101350.218075
101350.624725
101350.629423
101350.596628
101350.578284
101350.577401
101350.593105
101350.622972
101350.664462
101350.714861
101350.771486
101292.198598
101296.853052
101300.949891
101305.46474
101311.73093
101319.954611
101329.050621
101337.673438
101344.541393
101348.53023
101349.852054
101350.01788
101350.003982
101350.004499
101350.02789
101350.07129
101350.13096
101350.203323
101350.284597
101350.371308
101285.273692
101288.967224
101291.821707
101295.559739
101301.590645
101309.945705
101319.369885
101328.979676
101337.969944
101344.855476
101348.198712
101348.992107
101349.118178
101349.208998
101349.316606
101349.437203
101349.566682
101349.701603
101349.838406
101349.973925
101274.753321
101277.827842
101280.260083
101283.830293
101290.143186
101298.771216
101308.364662
101318.388552
101328.680234
101338.412745
101345.03055
101347.459104
101348.004496
101348.27453
101348.528425
101348.772935
101349.006388
101349.228101
101349.436839
101349.631448
101258.627033
101263.681688
101268.108363
101272.098446
101278.325503
101286.894272
101296.593899
101306.777886
101317.632444
101329.251018
101339.670906
101345.339108
101346.971747
101347.503587
101347.911798
101348.280025
101348.612225
101348.912069
101349.181923
101349.423579
101243.769226
101253.080036
101259.409728
101263.429357
101268.818011
101276.586823
101285.972573
101296.141143
101306.886191
101318.783267
101331.755598
101341.995701
101346.247751
101347.2903
101347.780188
101348.197104
101348.565369
101348.890412
101349.176291
101349.426407
101239.153244
101249.01042
101254.241006
101258.207083
101263.29101
101270.417414
101278.8812
101288.307816
101298.119831
101308.746834
101321.725626
101335.906868
101345.054846
101347.701834
101348.276542
101348.636753
101348.951236
101349.226609
101349.465702
101349.671453
101233.11919
101243.404331
101248.055482
101252.801136
101259.068451
101267.107216
101275.726447
101283.763181
101291.774156
101300.075641
101310.981268
101326.560816
101341.603583
101348.180227
101349.299659
101349.542243
101349.725651
101349.883642
101350.017315
101350.128497
101228.869637
101241.374117
101244.770342
101249.517928
101256.357967
101265.19176
101274.304428
101282.221414
101288.088766
101293.472403
101301.482844
101316.143823
101335.334711
101347.764979
101350.608288
101350.776354
101350.767548
101350.753659
101350.735714
101350.713835
101224.707129
101238.819432
101241.611141
101246.826081
101254.874987
101265.063878
101274.769011
101282.030756
101286.042749
101288.751494
101294.285959
101307.446123
101328.124661
101345.908257
101351.801174
101352.118265
101351.883173
101351.664824
101351.471128
101351.298872
101220.608602
101239.04606
101242.095016
101247.937481
101256.84592
101267.809333
101277.423264
101282.991634
101284.22696
101284.82496
101288.769477
101300.969463
101321.832599
101343.026288
101352.406936
101353.222989
101352.790492
101352.381638
101352.027805
101351.722412
101214.691795
101236.658422
101242.088907
101250.256286
101260.362031
101271.458693
101279.665851
101281.546965
101281.044492
101280.370829
101283.106928
101294.793722
101315.930194
101339.418275
101352.020084
101353.690734
101353.171639
101352.649228
101352.20294
101351.824383
101206.241065
101232.793325
101240.221618
101250.343376
101261.328645
101271.665366
101277.376105
101276.789961
101275.789366
101273.312351
101275.449329
101286.581549
101308.133146
101333.930742
101350.097383
101353.198543
101352.78678
101352.27923
101351.852501
101351.496731
101197.478349
101227.472451
101235.452126
101245.170772
101255.916577
101265.809833
101270.830627
101269.759027
101266.112295
101262.763939
101264.328338
101274.190557
101295.042504
101323.556596
101345.386265
101351.502887
101351.564141
101351.223989
101350.948966
101350.7282
101190.203733
101221.751706
101228.069503
101236.533735
101247.000709
101256.476129
101260.024742
101257.446159
101252.748669
101250.151422
101251.398805
101257.420466
101273.23061
101303.178936
101334.776004
101348.128136
101349.6343
101349.621803
101349.614511
101349.627386
101185.800563
101211.654126
101215.204311
101220.933426
101230.390061
101239.674419
101242.819781
101240.98321
101239.087698
101240.550998
101242.513317
101243.055871
101248.220725
101273.044286
101313.669283
101341.348445
101347.231467
101347.794204
101348.110708
101348.40823
101175.194272
101190.18564
101188.604623
101191.799712
101202.669702
101215.257855
101221.895948
101224.822581
101228.920365
101233.461036
101235.621322
101235.530971
101235.878689
101244.929619
101282.101694
101327.111487
101343.999722
101346.086111
101346.744944
101347.324386
101157.139616
101157.78188
101152.877016
101156.184999
101170.750263
101189.183081
101202.160901
101211.425522
101221.172515
101229.674995
101232.756648
101230.376389
101229.25554
101229.85716
101253.475628
101304.474146
101338.285216
101344.726289
101345.81737
101346.62122
101135.989867
101128.860442
101125.269304
101128.900045
101143.886427
101166.31495
101185.780311
101201.32551
101216.380441
101230.018254
101234.339147
101230.490338
101224.820898
101224.645077
101237.051977
101281.331534
101328.451019
101343.536089
101345.552548
101346.489026
101112.677556
101112.417992
101112.412512
101114.61583
101126.273945
101149.048969
101173.325393
101194.781079
101214.815604
101231.534278
101234.129095
101232.975745
101225.954432
101221.674225
101230.235031
101265.004092
101316.027386
101341.908404
101346.025595
101347.023448
101097.20552
101105.516371
101106.189173
101107.874689
101117.064365
101138.804509
101165.772534
101191.936183
101215.945705
101231.492433
101232.681422
101233.090905
101230.463251
101224.206194
101228.67903
101254.196164
101303.675045
101339.350524
101347.113213
101348.206414
101092.914869
101102.000792
101103.152045
101103.673502
101112.345107
101134.255741
101163.050827
101192.146454
101219.876383
101231.788172
101232.205822
101232.755734
101232.479441
101230.109634
101228.949578
101245.59624
101291.541436
101335.521144
101348.524607
101349.929999
101089.802255
101098.355467
101099.802989
101100.238316
101109.099335
101132.080805
101162.74267
101195.74154
101225.586873
101232.225314
101232.421464
101232.820189
101232.905886
101232.03963
101228.21172
101236.936591
101277.998001
101329.63953
101349.843764
101352.061338
101085.739051
101097.591685
101097.507645
101098.000632
101108.387389
101133.437865
101167.099617
101203.35826
101230.992489
101233.096732
101233.159403
101233.072725
101233.137962
101232.60052
101226.116288
101227.14894
101262.614669
101320.721374
101350.430908
101354.472262
101084.41216
101097.75986
101095.74619
101098.201738
101111.917225
101140.12009
101176.785503
101214.172366
101234.23636
101234.053519
101233.808365
101233.817988
101233.184673
101232.860726
101222.603607
101214.015593
101246.675641
101308.560316
101349.450447
101356.99439
101080.402271
101100.876521
101098.612921
101103.458484
101120.757798
101151.915374
101190.246736
101226.124154
101235.445336
101234.855208
101234.619355
101233.996631
101233.728035
101232.543985
101216.215868
101207.677083
101232.761327
101294.050375
101346.275888
101359.366042
101078.14121
101102.989611
101102.897968
101111.397501
101132.869727
101166.832424
101205.320004
101234.388286
101235.851886
101235.307917
101234.63283
101234.4097
101233.262691
101232.577391
101208.044536
101206.183954
101223.034347
101279.979377
101341.081023
101361.27471
101072.126047
101106.854942
101109.383862
101122.479611
101148.369235
101184.391552
101221.331111
101236.712904
101235.692396
101234.961793
101234.613957
101233.567704
101233.16061
101226.971729
101204.583854
101204.73488
101216.178602
101268.04919
101334.372425
101362.319963
101069.529126
101109.337385
101116.818713
101135.387801
101165.510148
101202.050693
101233.240867
101235.817093
101234.891888
101234.363082
101233.225769
101232.839924
101231.09101
101216.394757
101202.485856
101202.050365
101210.571039
101257.332256
101326.135837
101362.08292
101063.540653
101115.15695
101128.752511
101151.858127
101184.073795
101218.052404
101235.987737
101234.675622
101233.889423
101232.671079
101232.210642
101230.597833
101229.722671
101204.9481
101199.469971
101199.401009
101204.662533
101246.023392
101315.542998
101359.95149
101061.408198
101121.680572
101143.484761
101170.347121
101201.454277
101229.42189
101234.252612
101233.170667
101231.831736
101231.224091
101229.464137
101228.727633
101223.260776
101197.248216
101196.354545
101195.489927
101198.321829
101233.81698
101301.41792
101354.948548
101352.62689
101352.617476
101352.628258
101352.656694
101352.700916
101352.759751
101352.832439
101352.91869
101353.018498
101353.132189
101353.260332
101353.403891
101353.564397
101353.744356
101353.94719
101354.174772
101354.423726
101354.699325
101355.071851
101358.824022
101352.596473
101352.590297
101352.60322
101352.632618
101352.676442
101352.733094
101352.801192
101352.879616
101352.967337
101353.063559
101353.167751
101353.279941
101353.400809
101353.531279
101353.670272
101353.811751
101353.948369
101354.081992
101354.230661
101354.238422
101352.45549
101352.456539
101352.470741
101352.496201
101352.531059
101352.573536
101352.621938
101352.674817
101352.730907
101352.789344
101352.849672
101352.911891
101352.975913
101353.040269
101353.100279
101353.149054
101353.183174
101353.20799
101353.234284
101353.131506
101352.209129
101352.22006
101352.236726
101352.258417
101352.284029
101352.312395
101352.342396
101352.373224
101352.40432
101352.435563
101352.467099
101352.499133
101352.531153
101352.561028
101352.584955
101352.600446
101352.610843
101352.625934
101352.645801
101352.55594
101351.897281
101351.917826
101351.938665
101351.959987
101351.98138
101352.002448
101352.02283
101352.042473
101352.061508
101352.080364
101352.099465
101352.11894
101352.137961
101352.154411
101352.165724
101352.171882
101352.178059
101352.18985
101352.19661
101352.118891
101351.554121
101351.583115
101351.60972
101351.634332
101351.6568
101351.677209
101351.695684
101351.712644
101351.728578
101351.744118
101351.759655
101351.775099
101351.789386
101351.800587
101351.807187
101351.810894
101351.817513
101351.827076
101351.827016
101351.767293
101351.19663
101351.235242
101351.270345
101351.301976
101351.330041
101351.354837
101351.376733
101351.396382
101351.414418
101351.431499
101351.447905
101351.463377
101351.476807
101351.486653
101351.492477
101351.49731
101351.505835
101351.512625
101351.50888
101351.463511
101350.829121
101350.882979
101350.931659
101350.975044
101351.013155
101351.046505
101351.075679
101351.101521
101351.12476
101351.146072
101351.165668
101351.183248
101351.197819
101351.208346
101351.215402
101351.222804
101351.232546
101351.236457
101351.231783
101351.197262
101350.457069
101350.535478
101350.604719
101350.66527
101350.717706
101350.763048
101350.80227
101350.836523
101350.866718
101350.893634
101350.917527
101350.938186
101350.954858
101350.967097
101350.976407
101350.986697
101350.996579
101350.998302
101350.994171
101350.967485
101350.101203
101350.213175
101350.308932
101350.390591
101350.45995
101350.518968
101350.569289
101350.612557
101350.65
101350.682617
101350.710819
101350.73459
101350.753497
101350.767733
101350.779594
101350.792207
101350.801279
101350.801735
101350.798626
101350.777628
101349.805701
101349.953326
101350.075724
101350.177531
101350.262292
101350.333212
101350.392788
101350.443266
101350.486262
101350.523051
101350.554253
101350.580079
101350.600453
101350.616201
101350.630155
101350.643842
101350.651421
101350.651257
101350.649048
101350.632176
101349.632503
101349.804317
101349.943239
101350.056382
101350.14893
101350.22521
101350.288444
101350.341365
101350.385883
101350.423478
101350.454914
101350.480585
101350.500732
101350.516747
101350.531585
101350.544689
101350.550256
101350.549618
101350.547906
101350.53399
101349.637598
101349.80748
101349.942173
101350.049994
101350.136855
101350.207533
101350.265471
101350.313508
101350.353558
101350.387084
101350.414828
101350.437234
101350.454775
101350.469254
101350.483193
101350.493966
101350.497053
101350.495638
101350.4939
101350.482004
101349.841558
101349.975402
101350.079396
101350.161144
101350.225911
101350.277932
101350.320129
101350.354897
101350.383743
101350.407807
101350.427574
101350.443373
101350.455787
101350.466801
101350.477886
101350.484835
101350.485021
101350.48231
101350.48002
101350.469378
101350.216086
101350.281444
101350.329796
101350.366185
101350.393862
101350.415498
101350.432735
101350.446961
101350.458857
101350.468932
101350.477196
101350.483721
101350.489076
101350.495119
101350.501756
101350.503952
101350.500967
101350.496496
101350.493226
101350.483204
101350.68825
101350.662045
101350.637722
101350.616135
101350.597344
101350.581593
101350.568613
101350.558334
101350.550288
101350.544142
101350.539292
101350.535479
101350.533156
101350.533695
101350.535164
101350.532505
101350.526423
101350.520018
101350.51556
101350.505678
101351.148817
101351.02457
101350.924272
101350.843425
101350.77812
101350.725647
101350.683486
101350.649891
101350.623133
101350.601984
101350.585239
101350.572337
101350.563561
101350.559431
101350.556256
101350.549596
101350.541011
101350.532939
101350.527385
101350.517343
101351.465857
101351.260723
101351.099883
101350.973419
101350.87349
101350.794533
101350.731916
101350.682386
101350.643134
101350.612231
101350.588063
101350.569931
101350.557934
101350.551486
101350.545544
101350.536695
101350.526825
101350.517858
101350.511649
101350.501377
101351.51353
101351.271063
101351.085267
101350.942373
101350.831794
101350.74604
101350.679124
101350.626908
101350.586028
101350.554304
101350.530104
101350.512865
101350.502562
101350.497433
101350.49174
101350.483258
101350.473874
101350.465222
101350.459104
101350.448758
101351.211758
101350.996321
101350.836504
101350.717798
101350.629118
101350.562739
101350.512619
101350.474751
101350.446025
101350.424663
101350.409529
101350.400549
101350.397691
101350.398195
101350.396369
101350.391164
101350.38434
101350.377464
101350.372375
101350.362329
101350.560715
101350.444094
101350.365892
101350.314902
101350.282414
101350.262576
101350.250866
101350.244605
101350.241855
101350.241948
101350.24478
101350.25111
101350.261071
101350.27128
101350.276773
101350.27754
101350.275254
101350.271567
101350.268434
101350.259178
101349.656487
101349.699344
101349.7489
101349.801086
101349.852272
101349.900431
101349.943989
101349.982653
101350.016433
101350.046356
101350.073752
101350.100484
101350.127006
101350.149799
101350.165101
101350.173763
101350.177457
101350.178012
101350.177549
101350.169595
101348.67608
101348.910441
101349.111618
101349.284842
101349.433155
101349.559528
101349.666178
101349.755795
101349.830769
101349.894099
101349.948738
101349.997753
101350.042027
101350.078352
101350.104395
101350.121654
101350.131886
101350.137109
101350.139629
101350.133365
101347.828826
101348.251608
101348.600811
101348.891279
101349.133002
101349.334127
101349.500756
101349.638585
101349.752355
101349.846978
101349.926941
101349.996434
101350.056767
101350.105358
101350.141272
101350.166443
101350.182737
101350.192325
101350.19767
101350.193285
101347.31468
101347.887794
101348.354512
101348.737483
101349.052445
101349.311834
101349.52495
101349.69994
101349.843438
101349.96187
101350.060932
101350.145678
101350.217726
101350.275248
101350.318477
101350.349569
101350.370464
101350.383403
101350.390946
101350.388369
101347.287216
101347.944712
101348.477352
101348.911869
101349.267243
101349.558419
101349.796574
101349.9913
101350.150326
101350.28097
101350.389627
101350.481817
101350.559246
101350.620786
101350.667474
101350.701497
101350.72477
101350.739505
101350.748269
101350.747207
101347.824857
101348.487298
101349.023904
101349.460892
101349.817389
101350.108657
101350.346152
101350.539702
101350.697208
101350.826143
101350.93303
101351.023382
101351.098732
101351.158442
101351.203958
101351.237303
101351.260263
101351.274894
101351.283669
101351.283634
101348.919545
101349.512174
101349.993238
101350.384737
101350.703397
101350.962926
101351.17367
101351.344621
101351.483017
101351.595821
101351.689137
101351.768022
101351.833552
101351.885313
101351.924766
101351.953622
101351.973402
101351.985906
101351.993401
101351.993801
101350.495531
101350.96157
101351.33918
101351.6449
101351.891899
101352.091346
101352.251632
101352.380214
101352.483074
101352.566158
101352.63472
101352.692977
101352.741307
101352.779206
101352.807838
101352.828466
101352.842248
101352.850612
101352.855531
101352.855696
101352.453827
101352.752906
101352.990534
101353.178231
101353.325534
101353.440781
101353.530042
101353.598854
101353.651569
101353.692777
101353.726535
101353.755915
101353.780359
101353.798983
101353.8124
101353.82133
101353.826471
101353.828807
101353.829926
101353.829163
101354.700903
101354.798249
101354.864669
101354.906789
101354.930339
101354.940607
101354.941057
101354.935011
101354.924904
101354.913681
101354.903935
101354.897298
101354.892048
101354.886632
101354.880938
101354.875058
101354.869166
101354.863733
101354.859908
101354.85748
101357.136442
101356.998022
101356.864272
101356.736277
101356.615184
101356.502718
101356.39934
101356.305805
101356.222338
101356.15
101356.08965
101356.04121
101356.001535
101355.96816
101355.940112
101355.916805
101355.897837
101355.883135
101355.873358
101355.868531
101359.626922
101359.226813
101358.869511
101358.552021
101358.270125
101358.021455
101357.803013
101357.612647
101357.448114
101357.308381
101357.192372
101357.098042
101357.020591
101356.956425
101356.903639
101356.860931
101356.82731
101356.80214
101356.785575
101356.777596
101362.009051
101361.333939
101360.7383
101360.219657
101359.767633
101359.375204
101359.035528
101358.743271
101358.493548
101358.283153
101358.108936
101357.966702
101357.849794
101357.753369
101357.674539
101357.611298
101357.562067
101357.525668
101357.501747
101357.489932
101364.072485
101363.141648
101362.309924
101361.590771
101360.968774
101360.432624
101359.971739
101359.577629
101359.242799
101358.961917
101358.729779
101358.539942
101358.383803
101358.255194
101358.150267
101358.066324
101358.001256
101357.953365
101357.92182
101357.90555
101365.627028
101364.485626
101363.429851
101362.519261
101361.734825
101361.061378
101360.48489
101359.993749
101359.577981
101359.23024
101358.943339
101358.708579
101358.515415
101358.356361
101358.226634
101358.122915
101358.042605
101357.983577
101357.94454
101357.923393
101366.487737
101365.220621
101363.955624
101362.867404
101361.933055
101361.13398
101360.452428
101359.87371
101359.385328
101358.977925
101358.642484
101358.368033
101358.142274
101357.956317
101357.804632
101357.68322
101357.58919
101357.519978
101357.473968
101357.447631
101366.421686
101365.200287
101363.745475
)
;

boundaryField
{
    emptyPatch
    {
        type            empty;
    }
    minY
    {
        type            zeroGradient;
    }
    maxY
    {
        type            prghTotalPressure;
        U               U.gas;
        p0              nonuniform List<scalar> 0();
        value           nonuniform List<scalar> 0();
    }
    water_to_cooler
    {
        type            fixedFluxPressure;
        gradient        uniform 0;
        value           nonuniform List<scalar> 
37
(
101358.824022
101354.238422
101353.131506
101352.55594
101352.118891
101351.767293
101351.463511
101351.197262
101350.967485
101350.777628
101350.632176
101350.53399
101350.482004
101350.469378
101350.483204
101350.505678
101350.517343
101350.501377
101350.448758
101350.362329
101350.259178
101350.169595
101350.133365
101350.193285
101350.388369
101350.747207
101351.283634
101351.993801
101352.855696
101353.829163
101354.85748
101355.868531
101356.777596
101357.489932
101357.90555
101357.923393
101357.447631
)
;
    }
    water_to_heater
    {
        type            fixedFluxPressure;
        gradient        uniform 0;
        value           nonuniform List<scalar> 
61
(
101362.193929
101345.232526
101345.232526
101333.130896
101333.130896
101323.657818
101323.657818
101315.087369
101308.927967
101303.660576
101303.660576
101298.21047
101298.21047
101292.198598
101292.198598
101285.273692
101274.753321
101258.627033
101258.627033
101243.769226
101243.769226
101239.153244
101239.153244
101233.11919
101228.869637
101224.707129
101224.707129
101220.608602
101220.608602
101214.691795
101214.691795
101206.241065
101197.478349
101190.203733
101190.203733
101185.800563
101185.800563
101175.194272
101175.194272
101157.139616
101135.989867
101112.677556
101112.677556
101097.20552
101097.20552
101092.914869
101092.914869
101089.802255
101085.739051
101084.41216
101084.41216
101080.402271
101080.402271
101078.14121
101078.14121
101072.126047
101069.529126
101063.540653
101063.540653
101061.408198
101061.408198
)
;
    }
    procBoundary2to3
    {
        type            processor;
        value           nonuniform List<scalar> 
41
(
101054.972371
101132.735144
101160.578932
101189.371331
101214.806838
101233.066443
101232.469148
101231.034195
101230.285209
101228.156103
101227.255354
101224.915949
101214.404846
101193.985849
101191.853049
101191.058631
101192.104262
101218.867765
101280.777755
101345.603502
101362.497902
101361.432807
101360.525704
101359.755799
101359.104376
101358.556729
101358.101268
101357.727209
101357.421571
101357.17022
101356.963311
101356.79418
101356.658727
101356.553353
101356.47589
101356.424183
101356.393025
101365.103647
101364.253236
101362.497902
101362.642096
)
;
    }
}


// ************************************************************************* //
