/*--------------------------------*- C++ -*----------------------------------*\
| =========                 |                                                 |
| \\      /  F ield         | OpenFOAM: The Open Source CFD Toolbox           |
|  \\    /   O peration     | Version:  2312                                  |
|   \\  /    A nd           | Website:  www.openfoam.com                      |
|    \\/     M anipulation  |                                                 |
\*---------------------------------------------------------------------------*/
FoamFile
{
    version     2.0;
    format      ascii;
    arch        "LSB;label=32;scalar=64";
    class       volScalarField;
    location    "0.19/water";
    object      k.gas;
}
// * * * * * * * * * * * * * * * * * * * * * * * * * * * * * * * * * * * * * //

dimensions      [0 2 -2 0 0 0 0];

internalField   nonuniform List<scalar> 
1497
(
0.079971914281
0.0533443734549
0.0338715666692
0.020610293346
0.0126001688472
0.00835132054462
0.00601931508484
0.00435017968217
0.00291743390489
0.00178539992601
0.00107566215231
0.000717478666689
0.000605850489713
3.82871221575
1.62875597077
0.839824739441
0.474800963203
0.28530754186
0.183248123884
0.126161852672
0.0902974372363
0.0638361083554
0.0422081945595
0.025973922981
0.0157747289668
0.0100684120197
0.00708530482192
0.00519869565688
0.00364570790123
0.00235446839545
0.00145872499449
0.000946777413371
0.000711927017911
3.61556246896
1.55437862405
0.80526894516
0.457370576306
0.277309980664
0.180872773734
0.12773071954
0.0945458082237
0.069368596396
0.0479247030739
0.030342580032
0.0187517171096
0.0119274838383
0.00825674896459
0.0060934816408
0.00442417653845
0.00301371594648
0.00195380529014
0.00128125934966
0.000917710135398
3.39310789856
1.46848333267
0.761146977127
0.433918829402
0.265091112578
0.174819744718
0.125562857703
0.0949659234261
0.0713231209358
0.0505540371426
0.0329465167214
0.0209141042611
0.0135502695601
0.00940130904166
0.00696467428797
0.00518366551373
0.00369481534736
0.00251376335125
0.00169870153491
0.00120745110867
3.20830999691
1.38836249383
0.716387878774
0.409297877963
0.251731003181
0.167490401128
0.121526050861
0.0929545865309
0.0706916439472
0.0509077279987
0.0341097816134
0.0222326962363
0.0147271342493
0.0103528312402
0.00773384305868
0.00586794256092
0.00433506263701
0.0030829439636
0.00216158340873
0.00155520895228
3.05477398512
1.31679957416
0.674572865972
0.385945722167
0.238972864626
0.160198740389
0.116726160274
0.0895134000512
0.0683684820373
0.0497359243509
0.0342163941277
0.0229149530167
0.0155262212247
0.0110857125455
0.0083744873527
0.00646104351559
0.00491325842633
0.00363154668481
0.0026402797613
0.00193404582638
2.91740476827
1.25109116024
0.635687259187
0.364381736639
0.227153183332
0.153056400208
0.111477323822
0.0852063113466
0.0650181005492
0.047666472014
0.0335915254609
0.0230864436421
0.0159921536018
0.0116064699216
0.00888253954002
0.00696423211184
0.00542831174189
0.00414645848428
0.00311201312629
0.00231655471108
2.79159398468
1.18770630176
0.598350206453
0.343318650224
0.215053049183
0.145315933553
0.105565436673
0.0801994904874
0.0610031472518
0.0450297305779
0.0323835257417
0.0227743659135
0.0161194519711
0.0119124403823
0.00925971927894
0.00738388198257
0.00588490709743
0.00462152714612
0.00355794873035
0.00267343782213
2.68489880712
1.12829146392
0.560828413481
0.320631884814
0.201221610568
0.136220709405
0.0987035491
0.0745395355163
0.0565024283746
0.0419570865925
0.0306560715315
0.0220011660608
0.0159173497427
0.0120123741149
0.00951511335625
0.00772804213969
0.00628697622615
0.00505074637619
0.00395750003985
0.00297036516984
2.62472665235
1.0761151214
0.52235401807
0.295762042085
0.185506291143
0.125782318258
0.0910217177016
0.0684193394808
0.0516988479568
0.0385487106764
0.0285333129447
0.0208637690772
0.0154480255594
0.0119441868843
0.00967037810358
0.00800644107555
0.00663581720946
0.00542387013975
0.00428190123338
0.00316831271724
2.62872448587
1.032827225
0.48723638236
0.271706826821
0.169159087282
0.114754512905
0.083062776486
0.0622446249658
0.0468924262228
0.0351225762919
0.0262574995988
0.0195356422291
0.0148265986577
0.0117741115129
0.0097571416774
0.0082291557761
0.00692791893046
0.00571698477405
0.00448823538932
0.00323078428164
2.71496143899
1.000113883
0.454663443448
0.249712637485
0.154708690989
0.10443999673
0.0755751826335
0.0565863137044
0.0426533148261
0.0320865053391
0.0241102870387
0.0182253810605
0.0141894520142
0.011578916154
0.00980830314272
0.00840256451269
0.00714646934831
0.00588516751453
0.00453470443276
0.00313413049354
2.91019854552
0.974411463858
0.423362850308
0.230018840862
0.142946682468
0.0967430946443
0.0701969088485
0.0525608638088
0.0394785819341
0.0296087592939
0.0223030631529
0.0171121441435
0.0136562680509
0.0114216841404
0.0098437666433
0.00851967273722
0.00725157541615
0.00588216801153
0.0043972740419
0.00286509585199
3.16058948262
0.972040470456
0.406705271369
0.217608574352
0.134202974325
0.0912420126358
0.0660722116247
0.0492835361865
0.0369415981708
0.027669184266
0.0209221869899
0.0162903749338
0.0132856029605
0.011320113107
0.00985162471444
0.00854424890778
0.00718798660211
0.00568040459668
0.00405513324888
0.00243080131265
3.2596089242
0.978372093163
0.389770098733
0.201606009299
0.12348275893
0.0842001646854
0.0613713575552
0.0460845554072
0.0347425773613
0.0261441045594
0.0199228445228
0.0157357090199
0.0130432609776
0.0112265849906
0.00978339105686
0.00841010182558
0.00691117650467
0.00525331332653
0.00349718433207
0.0018809480749
3.15162446624
0.952037270862
0.364059103396
0.180868328927
0.110032635065
0.0759966211394
0.0563248658073
0.0429259514454
0.0327516456167
0.0248884893958
0.0191585845839
0.0153204746767
0.0128263908639
0.011055971766
0.00956138280383
0.00804972356829
0.00638790755198
0.00457491207768
0.00277048646103
0.00130835531662
3.13826631467
0.885501652987
0.334825489713
0.162719677107
0.0987538657863
0.0691281368579
0.0520800743059
0.0402504091327
0.0310395578245
0.0237854650354
0.0184688078281
0.0148947269252
0.0125086744831
0.0107184318582
0.009101081157
0.00741952521655
0.00558828825535
0.00368055289322
0.00198621442866
0.000821062878758
3.0863998547
0.871708394991
0.320269966219
0.15420637909
0.0937485131891
0.0658668372944
0.0497536091582
0.0384993390471
0.0296742224054
0.0227213321345
0.0176840848623
0.0143162441076
0.0119981741902
0.0101304099927
0.00835363612175
0.00649196491106
0.0045330132176
0.0026940065338
0.00129558657036
0.000502551852597
2.60602003759
0.786546045601
0.30231228595
0.152772015497
0.0952210154631
0.0667277161855
0.0495738360307
0.0376015920103
0.0284413109997
0.0215015769649
0.0166817677634
0.0135092460247
0.0112203240674
0.00923903775324
0.00728921419631
0.00527354218759
0.00335441102903
0.0018116594514
0.000815740535775
0.000397032291566
1.87730554234
0.64385696346
0.277583247894
0.154353624939
0.100551681839
0.070062721819
0.050492436436
0.0369570320105
0.0270606297364
0.0200045971867
0.0153864420157
0.0124002642053
0.0101138358593
0.00800490441981
0.00590154601864
0.00389724231415
0.00227785424126
0.00120797950599
0.000632708230566
0.000378065889437
1.38034367076
0.540169834656
0.263319869953
0.159654868602
0.107146007671
0.0737887179261
0.0514590731115
0.0360847903696
0.0253325646591
0.0181625476294
0.0137537113266
0.010941371972
0.00864650110192
0.00643649769496
0.00433541219249
0.00261618031336
0.00153788864595
0.000877453990629
0.000530688213961
0.00041567158606
1.20324026259
0.505867197181
0.269402384406
0.171097829399
0.115134234641
0.0778726165932
0.0522176867385
0.0346905305279
0.0231186876921
0.0160075918661
0.0118537829432
0.00916339780606
0.00690959521113
0.00475270951192
0.00292394728787
0.00172818126878
0.00102377226658
0.000725583112657
0.000597247676369
0.000483599815563
1.18356883585
0.524232167796
0.295966372516
0.190321857892
0.126611571569
0.0828998217706
0.05245902172
0.0324853265034
0.0204340653603
0.0136918374278
0.0098740564275
0.0073054564252
0.00518715911894
0.00331378633114
0.00186305365442
0.0010612737985
0.000888006290181
0.000821365364569
0.000693459042555
0.000548702996471
1.17415923456
0.569636095559
0.340861809414
0.220855751121
0.142919383863
0.0880645008046
0.0512516643411
0.0293085406275
0.0175257409457
0.0114162550536
0.00795043738153
0.00557576921894
0.00373022090999
0.00207061557772
0.00108212219842
0.000914039884621
0.000987755613661
0.000940306446464
0.000792937346239
0.000622816071574
1.16218079362
0.659777561651
0.417135622544
0.265848792538
0.161678581128
0.0909910461297
0.048274270411
0.0259664617659
0.0150591896928
0.00951454384385
0.0062913950129
0.00415306178056
0.00243772379033
0.00123371066111
0.000872671034946
0.000934239338561
0.00108798531253
0.00106190476441
0.000907575408116
0.000712264050892
1.38183790819
0.862444749638
0.543304816241
0.326693078733
0.179874471521
0.0910361003323
0.0453746504052
0.0241136590777
0.0139009355006
0.00847972675264
0.00527064584847
0.00321313565182
0.00173718975947
0.000975917649671
0.000821087059585
0.000917336958482
0.00115523249261
0.00119358221013
0.00103825882275
0.000822416621037
2.04853402168
1.25787826358
0.728110083932
0.391018952306
0.193999485104
0.0936452130392
0.0477366503087
0.0264143609951
0.0153474615543
0.00907856270735
0.00535726035635
0.00310849068531
0.00169421812538
0.000962016444608
0.000757030022389
0.000848489469331
0.00117903726242
0.0013258639179
0.00118431190172
0.000949566215227
3.33199412338
1.7941178452
0.873007178224
0.425249393221
0.208119142536
0.107649253095
0.0602601397312
0.0351865368527
0.0206180303525
0.011959593102
0.00683962748851
0.00383498108956
0.00210337609181
0.00113240764677
0.000722885924352
0.000746190543325
0.00114722131149
0.00145727634249
0.00133198263306
0.00108395090261
4.61245708193
2.05607966187
0.94517086687
0.45653395178
0.233990785594
0.131065099492
0.0798563513503
0.0498279668313
0.0300440717624
0.017362573168
0.00978384642716
0.00538194646957
0.00283644874918
0.00146843296224
0.000781850164226
0.000649038127544
0.00106700127682
0.00157370585175
0.00147452147066
0.0012086962904
4.96449372231
2.14491291231
1.0091882669
0.505723947637
0.272534375852
0.160427178616
0.101600673043
0.0659217693523
0.0416533880495
0.0248710478775
0.0140524716776
0.00770611280064
0.00404499306316
0.00193171924728
0.000928145049028
0.000601685666159
0.000946381583301
0.00167399095244
0.00159514549337
0.00131129144588
4.85097517279
2.16831733039
1.04487310231
0.541060171386
0.305516013345
0.188453342314
0.123663048542
0.0824560214305
0.0534823904975
0.0331172008193
0.0193212992235
0.0106365944811
0.00564652230097
0.00271393114218
0.00110871371138
0.000609568555381
0.000820376934784
0.00174028677659
0.00168455626242
0.00137936224287
4.67824061009
2.13114331444
1.04804801286
0.557525568971
0.325615398423
0.208100653644
0.14194488877
0.0983565310531
0.0657493990234
0.0413023636366
0.0247361932849
0.0139401397234
0.00748809940558
0.00371343891896
0.00148329013598
0.000642201030401
0.000741958683102
0.00176661059346
0.0017240718698
0.00140137518344
4.53851488422
2.07659546423
1.03170111064
0.5588268565
0.33529412725
0.220540625616
0.154776868467
0.111144031723
0.0776464401004
0.0495179908828
0.0297632900217
0.0172043252496
0.00944423632707
0.00481402871051
0.0019973808027
0.000728991991056
0.000716841278227
0.0017425529369
0.00171244854552
0.00136447673104
4.44643142428
2.02619405179
1.00481770908
0.550042216628
0.337676683041
0.227276809663
0.162831086892
0.11958079772
0.0859970252996
0.0571969052905
0.034525566405
0.0202110749185
0.0113638421647
0.00595144249851
0.00257801564059
0.000919518589854
0.00074735296707
0.00168552560517
0.00165301756811
0.00126806724154
4.40508977332
1.98714306067
0.977030905539
0.539774283513
0.337862413268
0.23127449434
0.168068842428
0.125243146106
0.0917761100868
0.0632484797002
0.039015031677
0.0230300385467
0.0131707053288
0.00707607040703
0.00319679235158
0.00117559341297
0.000827109621965
0.0016040987161
0.00155983573646
0.00112131236009
4.39473873756
1.95856017412
0.95550775468
0.534489639979
0.339250977585
0.234616175707
0.171923790443
0.129203281072
0.0957111729354
0.0671556209359
0.0426801897363
0.0257053289795
0.0148707443579
0.0081646787248
0.00384157124736
0.00147005956625
0.000922577025345
0.001510576282
0.0014381685101
0.000962321765953
4.38485939007
1.93009048557
0.944020757453
0.53620280517
0.343239733676
0.238467761032
0.175360119592
0.132307024721
0.0985539607617
0.0696600508521
0.0453182648908
0.027927835633
0.0164556075286
0.00920181604905
0.00450573126782
0.00178214078368
0.00103426280262
0.00142287631968
0.00129371245826
0.000827295866424
4.33256974789
1.89379800246
0.942407747189
0.543596070233
0.349690125574
0.24318254896
0.178858149998
0.135074536369
0.100885526187
0.0714864206204
0.0472879947419
0.0296300064659
0.0177198731944
0.0101102096977
0.00517346089915
0.00206564815515
0.00115031043522
0.00135346804461
0.00113319511559
0.000727053191895
0.000596758772569
0.000618152233412
0.000585951300365
0.000471515183167
0.000308551046745
0.000163960173435
8.56687321764e-05
9.02920558612e-05
0.000104078314719
9.88891275214e-05
5.62553398872e-05
2.36363135824e-05
0.000274731316492
0.00418174273415
0.00818709459345
0.0114525544114
0.0138069736945
0.0156706390311
0.0183701204459
0.0284352558704
0.000661933575377
0.000664515859267
0.00063343260131
0.000504369201394
0.000318596706806
0.000161647412402
8.36727492225e-05
9.29171818692e-05
0.000107465790611
0.000104203501793
6.30397888376e-05
3.43790926148e-05
0.000141550804428
0.00318729794829
0.00824635745409
0.0117246508529
0.0142098757951
0.0160990093285
0.0186055446764
0.0276940762171
0.000778022347508
0.000739840947697
0.00067820449713
0.000517205041199
0.000307211013737
0.000141832598234
8.11993063367e-05
9.57392579383e-05
0.000111365006146
0.000103821070973
6.58787034321e-05
3.98714664107e-05
0.000159084840325
0.00198022574278
0.00815786147575
0.0119205925263
0.0144790298725
0.0164254077311
0.0188198119687
0.0267849490697
0.000962228444207
0.000853191505167
0.000724501743421
0.000511415831629
0.000280356384181
0.000116631391336
7.85913565296e-05
9.89433915783e-05
0.000115302012542
0.000100549345589
6.64488309729e-05
4.39127932294e-05
0.000193462151115
0.00152344402115
0.00765773191124
0.0119803285751
0.0145871855485
0.0165261900711
0.0189673999184
0.0258363255762
0.00120269025886
0.000990891078709
0.000766291417923
0.000490833096588
0.000246416840273
9.48591263605e-05
7.96497662345e-05
0.000104274907111
0.000119418393533
9.69437550822e-05
6.62041276217e-05
4.69693516003e-05
0.000244128418067
0.00150275370265
0.00707111984519
0.0118197698821
0.0144477208604
0.0163873197981
0.0189491190113
0.024936403696
0.00146818267217
0.00113223072687
0.000793276411828
0.000459001607647
0.000204690445529
8.05282266943e-05
8.45109341622e-05
0.000110432242511
0.000121368522624
9.42175442587e-05
6.33987295081e-05
5.09355360283e-05
0.000304982321198
0.00176998047204
0.00692576207281
0.011522914867
0.0140714586678
0.0159752398663
0.0187848583224
0.0241458185983
0.00172700959369
0.00124886788094
0.000795444351107
0.000414863199715
0.000158430605834
7.14124763732e-05
9.0223285037e-05
0.000115967934453
0.000120216596714
9.28170714554e-05
5.92667948728e-05
5.92755066748e-05
0.000389241462364
0.00227886371411
0.00714625590459
0.0112221959449
0.013574607199
0.0153975416664
0.0185000622094
0.0234947661507
0.00194551855783
0.00131652206103
0.000763778512554
0.000350632607675
0.000120987281449
6.76826922795e-05
9.63903549301e-05
0.00012146306431
0.000119342548547
9.22382534621e-05
5.62965724771e-05
8.52602973189e-05
0.000524097429216
0.00298435533663
0.0074612189106
0.0109695271212
0.0130954092507
0.0148232266687
0.0181856088778
0.0230015407263
0.00208834416028
0.00131608889724
0.000689217948308
0.00027430630401
9.20717253878e-05
6.91650845706e-05
0.000102149263502
0.000124998654051
0.000117262158589
9.1266193421e-05
5.42772317827e-05
0.000112742922316
0.000730214059755
0.00367126025319
0.00768303280987
0.0107550914189
0.0127106229382
0.0143993424745
0.0181276413516
0.0226707242984
0.00212739087743
0.0012372441373
0.000577254401799
0.000202532441353
7.43573535704e-05
7.66004751228e-05
0.00010674364053
0.000125183729636
0.000114529336643
8.62625454879e-05
5.30796699625e-05
0.00014269138639
0.0010127881265
0.00420365576461
0.00778824909598
0.010559642071
0.0124856253616
0.0143301648062
0.0184668459414
0.022459919989
0.0020463092442
0.00108187403708
0.000443110131313
0.000140420529498
6.920211601e-05
9.15313561132e-05
0.000112457666109
0.000125852358239
0.00011222957289
8.20639646829e-05
5.29324065361e-05
0.000184399730495
0.00135703264932
0.00457210638421
0.00784496689049
0.0105578878287
0.0125997516888
0.0146176298092
0.0190355396395
0.0223266554951
0.00183978279606
0.000867072711416
0.000310513853331
9.7335988242e-05
7.38444217288e-05
0.000102236494214
0.000119509999397
0.000125495662347
0.000109958076969
7.85651386096e-05
5.66889975196e-05
0.000244412058824
0.00173868646045
0.00488657259106
0.00804129745586
0.0107761015296
0.0128964678878
0.0150951591394
0.0198009058649
0.0222507667007
0.00152412183329
0.000628925793047
0.000197631082995
8.04945165353e-05
8.40633856752e-05
0.000107743873864
0.000123810194932
0.000123669978956
0.000104449640078
7.53380951997e-05
6.76871245333e-05
0.000331591602616
0.0021427672861
0.00519975361003
0.00829196488339
0.0110661685353
0.0133616228775
0.0160528201319
0.0207050996493
0.0222205581761
0.0011439210135
0.000409311418139
0.000126443649749
8.43466065994e-05
0.000101809034546
0.00011595759948
0.000128466852266
0.000120924502072
9.79874496415e-05
7.15064087486e-05
7.95818827732e-05
0.000459956329758
0.00254395139173
0.00552766158072
0.00860638311561
0.0115028891665
0.0141522144506
0.0178095944599
0.0213302576102
0.022227521997
0.000769011323886
0.000243848564104
0.000104485085739
9.62294533257e-05
0.000106647665385
0.000123083484526
0.000130679230261
0.000116955284981
9.20812042047e-05
6.618032346e-05
8.95404823438e-05
0.000635495310216
0.00292006875967
0.00589052464749
0.00903843003846
0.0122025836668
0.0156513965802
0.0198249790455
0.0216207982597
0.0222673081537
0.000464913515056
0.000164801683788
0.000109625666789
0.000107345769599
0.000114282494716
0.000129662368304
0.000129662102969
0.000109802827613
8.55796812313e-05
5.92591358146e-05
0.000104096681715
0.000847172084222
0.00329392701957
0.0063402126899
0.00968556717301
0.0134549552816
0.0178138798297
0.020743721917
0.0218084507572
0.0223430146787
0.000288317919785
0.000154096347643
0.000124416220311
0.000109955360947
0.000119916962386
0.000135519992234
0.00012631423839
0.000103945998735
7.76103562869e-05
5.68620589554e-05
0.000129338679321
0.00109802462513
0.00373373046433
0.00697212133386
0.0107646584892
0.0152411992969
0.0190488171854
0.0209915978591
0.0219853558121
0.0224908183252
0.000240295159197
0.000174488083168
0.000125309723767
0.000113244751067
0.00012498696428
0.000139362628763
0.000122925650633
9.86998314803e-05
6.84116146917e-05
5.57698336684e-05
0.000169994363804
0.00142871862497
0.0043384682277
0.00795810148759
0.0122238667751
0.0163373478799
0.0192501830001
0.0211370996704
0.0221829330461
0.022750375036
0.000260482048413
0.000179527178375
0.000128645461989
0.000115266099506
0.000130075808477
0.000141952611992
0.000121452454366
9.42272473492e-05
5.90204392898e-05
4.54298750649e-05
0.000235067607577
0.00189354496242
0.00521402214774
0.00916559140238
0.0131273798416
0.0164966679954
0.0192714754714
0.0212324177414
0.0224277600469
0.0231779680819
0.000277597007601
0.00019003344173
0.00012922337797
0.000117676487402
0.000134548443661
0.000144644199911
0.000122615602503
9.09446370399e-05
5.03808575599e-05
3.84719339576e-05
0.000342582165009
0.00249065310355
0.00611174612864
0.00985084635272
0.0132953713892
0.0165059030001
0.0192717433867
0.0213120302399
0.0226822422425
0.0236914583164
0.000312637560547
0.000195653399655
0.000130712547858
0.000120635544753
0.00013793553567
0.000147303512595
0.000126348281944
8.93426145084e-05
4.56650478441e-05
3.98616648597e-05
0.000485167211944
0.00297048056562
0.00652822494967
0.00999779579485
0.0133278572699
0.0164963059805
0.0192685341692
0.0213875766069
0.0229214896035
0.0242198667304
0.000342146186059
0.000201529986727
0.000134154029701
0.000123724359093
0.000139477141265
0.000149142625276
0.000131921457729
9.1920322519e-05
4.95506475105e-05
5.13585536718e-05
0.000584977154012
0.00314724157417
0.00661936773953
0.010039895945
0.0133323156902
0.0164714488548
0.0192611468429
0.0214600296392
0.0231443075572
0.0247378559924
0.000372238174111
0.000210963117525
0.000139369379565
0.000126294088989
0.000138572621497
0.000150242548684
0.000138021119989
9.69106180054e-05
5.1440129282e-05
5.67374064764e-05
0.000604361875812
0.00318565759355
0.00664772664811
0.0100571156574
0.0133215041241
0.0164385675832
0.019253114218
0.0215341396317
0.0233554635362
0.02523047176
0.000404908316435
0.000225547086287
0.000146027093067
0.000127945932842
0.000135783671549
0.000150125683647
0.000143465336712
0.000103524490861
5.35887974649e-05
5.14475840667e-05
0.000594204285103
0.00319957258214
0.00666303604287
0.0100689120694
0.0133105988088
0.0164077070761
0.0192494476286
0.0216142883561
0.0235590991783
0.0256841930715
0.000443611801515
0.000245265650616
0.000153898203999
0.000128158519393
0.000132232209627
0.000148500638863
0.000147225600519
0.000110754567051
5.2634961614e-05
4.54570932341e-05
0.000581448459341
0.00321388502945
0.0066822080279
0.0100894184044
0.0133107152095
0.0163855637477
0.0192520322089
0.0217016010926
0.0237574766374
0.0260878995137
0.000492656157521
0.000269871642159
0.000162224305145
0.00012673211994
0.000128576221384
0.000145718723734
0.000148986344928
0.000117154759382
5.79287593613e-05
3.75393461988e-05
0.000573788586488
0.0032412322952
0.00671728301668
0.0101285392604
0.0133297448097
0.0163769676363
0.0192613792241
0.021795525913
0.0239519782903
0.0264336873651
0.000552513196923
0.000298040118294
0.000169474119675
0.000124927567847
0.000125019509961
0.000142183622175
0.000148477626612
0.000119322473963
6.67138918807e-05
3.25301718192e-05
0.00057104644736
0.00329199552885
0.00677892684052
0.0101950441515
0.0133751148231
0.0163874080251
0.0192787217083
0.0218951476265
0.0241440156917
0.0267179800539
0.000616746954638
0.000325205277964
0.000174376174966
0.000122866974739
0.000121329810844
0.000138101918914
0.000145848303082
0.000118932162467
7.3110671407e-05
3.49022962026e-05
0.000543152761497
0.00337034824066
0.00687691412644
0.0102974276838
0.0134538284507
0.016422254022
0.0193047383872
0.021998101521
0.0243358663815
0.0269450807163
0.000677902752047
0.000346567797522
0.000177158817205
0.000120761374425
0.000117684020866
0.000133911741627
0.000142083783643
0.000117195936985
7.61199351566e-05
4.15110289878e-05
0.000462119141684
0.00346616936604
0.00701714202288
0.0104408607417
0.0135693991219
0.0164846956157
0.0193402625083
0.0221005135353
0.0245307111121
0.0271284462655
0.000730202917584
0.000358155488476
0.000178117412073
0.000118723602212
0.000114326276219
0.000130100168389
0.000138046933389
0.000114319762825
7.58737597205e-05
4.62133459885e-05
0.000372811348012
0.0035514447874
0.00719790515508
0.0106234078666
0.013719063511
0.0165724132458
0.0193820371989
0.022197053506
0.0247319357499
0.0272869653765
0.000756792661858
0.000359263082675
0.000176669132019
0.000116319450004
0.000111219655787
0.000126751695733
0.000134260010611
0.000110761496491
7.33925899237e-05
4.72719771275e-05
0.000326730885914
0.00360659821879
0.00741207962518
0.010838739995
0.0138971111891
0.0166827196772
0.0194305865249
0.0222847765238
0.0249406297383
0.0274359954263
0.000748619950366
0.000350173660321
0.000172547688749
0.00011307156522
0.000108261090713
0.000123852318562
0.000131042482053
0.000107113362375
6.98662249313e-05
4.80456325071e-05
0.000326858267766
0.00367352041271
0.00765052191744
0.0110778541746
0.014095831442
0.0168115934309
0.0194876297152
0.0223641214627
0.0251561576939
0.0275860263646
0.000707795422456
0.000332629914273
0.000166312457112
0.000109231938841
0.000105564160899
0.000121492543591
0.000128752416134
0.000104133957568
6.56428171122e-05
4.9269292145e-05
0.000361995444312
0.00382937923672
0.00790909097426
0.0113308333624
0.0143067564276
0.0169536979389
0.0195534588704
0.0224360474782
0.0253764498648
0.0277461873226
0.000644730675121
0.000311339592131
0.000158938800954
0.000105275772312
0.00010321093695
0.000119850617495
0.000127668766149
0.000102498373926
6.18033502684e-05
5.09447507918e-05
0.000423785712605
0.00407366979801
0.00818204926436
0.0115880801211
0.0145219159414
0.0171034358339
0.0196267639434
0.0225007059734
0.0255987882509
0.0279287256111
0.000576264329482
0.000289649544042
0.000151449153697
0.000101577949084
0.000101207985259
0.000118982484394
0.000127884433411
0.000102663258481
5.93670149525e-05
5.27444241737e-05
0.000527985170804
0.00441622505391
0.00846044793229
0.0118424438837
0.0147358426629
0.0172567685708
0.0197061345374
0.0225577862739
0.0258199504818
0.0281521000997
0.000515400937913
0.000269562350443
0.000144587459159
9.82202142981e-05
9.95452831567e-05
0.000118890450842
0.000129326288386
0.000104997018841
5.88207055179e-05
5.52655153239e-05
0.000653646528101
0.00479670848386
0.00873641818323
0.0120912638815
0.0149467305798
0.01741221653
0.0197915277047
0.0226090293168
0.0260351362381
0.0284342633917
0.000465621156949
0.000252152719961
0.000138533945295
9.50159455391e-05
9.80119988159e-05
0.000119523183363
0.00013186832388
0.000109798770553
6.06091985894e-05
5.939742718e-05
0.000749957553076
0.00512516936758
0.00900398128066
0.0123368508851
0.0151567343549
0.0175709916258
0.0198841781126
0.0226575364407
0.0262378801839
0.0287949989659
0.000427020927326
0.00023769560632
0.000132697298539
9.16532024263e-05
)
;

boundaryField
{
    emptyPatch
    {
        type            empty;
    }
    minY
    {
        type            fixedValue;
        value           nonuniform List<scalar> 0();
    }
    maxY
    {
        type            inletOutlet;
        inletValue      nonuniform List<scalar> 0();
        value           nonuniform List<scalar> 0();
    }
    maxX
    {
        type            kqRWallFunction;
        value           nonuniform List<scalar> 
37
(
0.0284352558704
0.0276940762171
0.0267849490697
0.0258363255762
0.024936403696
0.0241458185983
0.0234947661507
0.0230015407263
0.0226707242984
0.022459919989
0.0223266554951
0.0222507667007
0.0222205581761
0.022227521997
0.0222673081537
0.0223430146787
0.0224908183252
0.022750375036
0.0231779680819
0.0236914583164
0.0242198667304
0.0247378559924
0.02523047176
0.0256841930715
0.0260878995137
0.0264336873651
0.0267179800539
0.0269450807163
0.0271284462655
0.0272869653765
0.0274359954263
0.0275860263646
0.0277461873226
0.0279287256111
0.0281521000997
0.0284342633917
0.0287949989659
)
;
    }
    water_to_heater
    {
        type            kqRWallFunction;
        value           nonuniform List<scalar> 
60
(
3.82871221575
3.82871221575
3.61556246896
3.61556246896
3.39310789856
3.39310789856
3.20830999691
3.05477398512
2.91740476827
2.91740476827
2.79159398468
2.79159398468
2.68489880712
2.68489880712
2.62472665235
2.62872448587
2.71496143899
2.71496143899
2.91019854552
2.91019854552
3.16058948262
3.16058948262
3.2596089242
3.15162446624
3.13826631467
3.13826631467
3.0863998547
3.0863998547
2.60602003759
2.60602003759
1.87730554234
1.38034367076
1.20324026259
1.20324026259
1.18356883585
1.18356883585
1.17415923456
1.17415923456
1.16218079362
1.38183790819
2.04853402168
2.04853402168
3.33199412338
3.33199412338
4.61245708193
4.61245708193
4.96449372231
4.85097517279
4.67824061009
4.67824061009
4.53851488422
4.53851488422
4.44643142428
4.44643142428
4.40508977332
4.39473873756
4.38485939007
4.38485939007
4.33256974789
4.33256974789
)
;
    }
    procBoundary1to0
    {
        type            processor;
        value           nonuniform List<scalar> 
41
(
4.21096007916
1.84006705578
0.941067196343
0.550658802984
0.355664851668
0.247338507122
0.181705064195
0.137122947423
0.102495651719
0.0727666893173
0.0486090377363
0.0307878782088
0.0186127687147
0.0107972144566
0.0057323152172
0.0022535779994
0.00125130932804
0.0012899643265
0.000996040862356
0.000661270792222
9.65349889262e-05
0.000120846900983
0.000135512921144
0.000116975850586
6.4212338202e-05
6.50435223345e-05
0.000812026980853
0.00540561883727
0.00927297699946
0.0125868221231
0.0153714763622
0.0177368253316
0.019987634822
0.0227109400616
0.0264267722111
0.0292623569787
0.000398364706455
0.00022528310001
0.000126103991233
9.65349889262e-05
8.77724337406e-05
)
;
    }
    procBoundary1to3
    {
        type            processor;
        value           nonuniform List<scalar> 
41
(
0.065033789367
0.0409802709972
0.0251402575205
0.0154547021717
0.0100063260106
0.00703290407226
0.00513756621906
0.00360905099233
0.00229552701223
0.00133900998178
0.000806508784405
0.000589194997316
0.000551824519127
3.71850141476
1.69428274626
0.861110202935
0.479540620682
0.283079026031
0.177483209482
0.117598266198
0.117598266198
0.000564727393554
0.000572878028947
0.000527220777139
0.000417156189853
0.000273959383047
0.00015007012537
8.19105438797e-05
8.80980843672e-05
9.98607954211e-05
8.57228948399e-05
4.64862385161e-05
1.77102182465e-05
0.00112536325139
0.0046130830142
0.00823708365784
0.011220100587
0.0134218736974
0.0152713860709
0.0181591594665
0.0287539394872
)
;
    }
}


// ************************************************************************* //
