/*--------------------------------*- C++ -*----------------------------------*\
| =========                 |                                                 |
| \\      /  F ield         | OpenFOAM: The Open Source CFD Toolbox           |
|  \\    /   O peration     | Version:  2312                                  |
|   \\  /    A nd           | Website:  www.openfoam.com                      |
|    \\/     M anipulation  |                                                 |
\*---------------------------------------------------------------------------*/
FoamFile
{
    version     2.0;
    format      ascii;
    arch        "LSB;label=32;scalar=64";
    class       volScalarField;
    location    "2.9/water";
    object      Ct2;
}
// * * * * * * * * * * * * * * * * * * * * * * * * * * * * * * * * * * * * * //

dimensions      [0 0 0 0 0 0 0];

internalField   nonuniform List<scalar> 
23300
(
8.96943929049
8.96958841884
8.9698330163
8.97014349553
8.97049581291
8.97087049832
8.97125239487
8.97162979984
8.97199407707
8.97233907972
8.9726608924
8.97295732876
8.97322767049
8.97347222411
8.97369208818
8.97388881333
8.97406424483
8.97422030279
8.97435890974
8.97448187134
8.97459086777
8.97468739939
8.97477281275
8.9748482794
8.97491483415
8.97497336659
8.97502465935
8.97506938224
8.97510812576
8.97514139386
8.97516963219
8.97519321865
8.97521248729
8.9752277171
8.97523915274
8.97524699213
8.97525140496
8.97525251931
8.97525043843
8.97524522593
8.97523692046
8.97522551749
8.97521101746
8.97519341357
8.97517266469
8.97514868865
8.9751213818
8.97509060389
8.9750561944
8.97501795535
8.97497566722
8.97492907069
8.97487788294
8.97482177885
8.97476040834
8.97469337751
8.97462026817
8.97454061984
8.97445395311
8.97435975431
8.97425750539
8.97414667385
8.97402675325
8.97389726264
8.97375780339
8.97360807455
8.97344795497
8.97327754539
8.9730972923
8.97290807949
8.97271143051
8.97250970795
8.97230649359
8.97210706478
8.97191924573
8.97175464149
8.97163055178
8.97157063969
8.97158933974
8.9716695749
8.97179138469
8.97194042786
8.97210675758
8.97228327233
8.97246478193
8.97264737949
8.97282811742
8.9730047505
8.97317561436
8.97333949137
8.97349555047
8.97364325696
8.97378233264
8.97391268781
8.97403439237
8.97414762456
8.97425265112
8.97434979023
8.97443939938
8.97452184964
8.97459751953
8.97466677779
8.9747299813
8.97478746374
8.97483953594
8.97488647819
8.97492854152
8.9749659417
8.97499885923
8.97502743093
8.97505173991
8.97507181425
8.97508771224
8.97509943055
8.97510690648
8.97511001296
8.9751085533
8.97510224896
8.9750907262
8.97507349438
8.97504992
8.97501918867
8.97498025702
8.97493178563
8.97487205308
8.97479884264
8.97470930493
8.97459979994
8.97446574875
8.97430155322
8.97410070442
8.97385626562
8.97356196953
8.97321411107
8.97281416664
8.97237159045
8.9719058059
8.97144668606
8.97103371952
8.97072589474
8.96579631119
8.9659460628
8.96622323649
8.96659941864
8.96704723653
8.96754136028
8.96805980168
8.9685842883
8.96910034087
8.96959700885
8.97006658519
8.97050412272
8.97090700493
8.97127441696
8.97160692137
8.97190601115
8.97217379026
8.97241266919
8.9726251798
8.9728138079
8.97298091856
8.97312868488
8.97325908092
8.97337386264
8.97347459179
8.97356263782
8.97363921023
8.97370536463
8.97376203322
8.97381002817
8.97385006718
8.97388277284
8.97390869351
8.97392829938
8.973942
8.97395013812
8.97395300486
8.97395083216
8.97394380612
8.97393205831
8.97391567773
8.97389470133
8.97386915986
8.97383906635
8.97380438752
8.973765039
8.97372089984
8.973671805
8.97361755684
8.97355791577
8.97349261055
8.97342132862
8.9733437263
8.97325941976
8.97316799614
8.97306900625
8.97296197812
8.97284641305
8.97272180355
8.97258763538
8.97244341301
8.97228867107
8.97212301169
8.97194613032
8.97175787093
8.97155827296
8.97134765344
8.97112668661
8.97089652899
8.97065895395
8.97041655096
8.97017295611
8.96993317442
8.96970394542
8.96949416468
8.9693151466
8.96918031109
8.96910288462
8.96908988517
8.96913677539
8.9692333856
8.96936895029
8.9695338046
8.9697197885
8.96992018981
8.9701295331
8.97034338423
8.97055816672
8.97077102931
8.97097972499
8.97118252304
8.97137812267
8.97156558755
8.97174427942
8.97191380715
8.9720739756
8.97222474686
8.97236620203
8.97249851299
8.97262191494
8.97273668667
8.97284313156
8.97294156431
8.97303229814
8.97311563596
8.97319186159
8.97326123336
8.9733239771
8.97338027967
8.97343028067
8.97347406298
8.97351160828
8.97354294341
8.97356802695
8.97358673976
8.97359887585
8.97360413034
8.97360208361
8.97359218041
8.97357370263
8.97354573375
8.97350711294
8.97345637614
8.97339168208
8.97331072222
8.97321061785
8.97308781563
8.97293800946
8.9727561434
8.97253659229
8.97227366477
8.97196260896
8.97160126386
8.97119230512
8.97074558864
8.97027940442
8.96981867595
8.96938746942
8.96899218338
8.96858734486
8.96799785931
8.96808684545
8.96825884935
8.96850077772
8.96879757929
8.9691336688
8.96949424123
8.96986607841
8.97023802608
8.97060115142
8.97094873743
8.97127609188
8.97158030409
8.97185991806
8.97211462794
8.97234496144
8.97255202531
8.97273727363
8.97290234551
8.97304893012
8.97317868867
8.97329319278
8.97339390214
8.97348214531
8.97355912544
8.97362591968
8.97368349478
8.97373271141
8.97377434053
8.9738090667
8.97383750203
8.97386018711
8.97387760236
8.97389016699
8.97389824865
8.97390216121
8.97390217358
8.97389850694
8.97389134322
8.97388082235
8.97386705086
8.97385009995
8.97382999869
8.9738067564
8.97378035602
8.9737507482
8.97371785845
8.97368158369
8.97364179908
8.97359835417
8.97355107924
8.97349978154
8.9734442516
8.97338426031
8.97331956592
8.97324991261
8.97317503928
8.97309468069
8.97300857925
8.97291649043
8.97281819919
8.97271353163
8.97260237841
8.97248471484
8.97236063389
8.9722303775
8.97209438197
8.97195332383
8.97180818158
8.97166030013
8.97151147264
8.97136402406
8.97122090445
8.97108576182
8.97096297421
8.97085755886
8.97077483805
8.97071954584
8.97069448847
8.97069954082
8.97073210737
8.97078844533
8.97086453786
8.97095648067
8.97106069016
8.9711739791
8.97129357429
8.97141709833
8.97154254375
8.97166823678
8.97179280448
8.9719151375
8.97203435846
8.97214978816
8.97226091802
8.97236738151
8.97246893166
8.97256541808
8.97265676948
8.97274297576
8.972824075
8.97290013978
8.9729712677
8.97303757115
8.97309917043
8.97315618585
8.97320873256
8.97325691403
8.97330081767
8.97334050962
8.9733760329
8.97340737116
8.97343448877
8.97345731076
8.9734757131
8.97348951187
8.97349845232
8.97350219529
8.97350030197
8.97349221443
8.97347723305
8.97345448869
8.97342291119
8.97338119437
8.97332776237
8.97326074497
8.97317797924
8.9730770658
8.97295552711
8.9728111349
8.97264249083
8.97244993519
8.97223679278
8.97201079575
8.97178522697
8.97157895218
8.97141425955
8.9713116678
8.97128179111
8.97131783973
8.96877740675
8.96884499947
8.96897566064
8.96916173306
8.96939312354
8.96965863944
8.96994706469
8.97024792178
8.97055200644
8.97085166481
8.97114090688
8.97141534302
8.97167204546
8.97190932105
8.97212648287
8.97232360037
8.97250129184
8.97266053014
8.9728025032
8.97292849464
8.97303981191
8.97313772708
8.97322345168
8.97329811381
8.97336275759
8.97341833726
8.97346572619
8.97350571628
8.97353902875
8.97356631369
8.97358815984
8.97360509293
8.97361758422
8.97362604803
8.97363084969
8.97363230286
8.97363067753
8.9736261976
8.97361904924
8.97360937892
8.97359730231
8.97358290462
8.97356620155
8.97354718307
8.97352582269
8.9735020707
8.97347586016
8.97344710326
8.97341569768
8.9733815232
8.97334444802
8.97330432562
8.97326100118
8.97321430916
8.97316408023
8.97311014012
8.97305231782
8.97299044636
8.97292437319
8.97285396386
8.97277911564
8.97269976529
8.97261590717
8.97252760627
8.97243502193
8.97233842719
8.97223823891
8.9721350438
8.97202963492
8.97192304296
8.97181657553
8.97171184555
8.97161079679
8.97151569908
8.97142910886
8.97135375125
8.9712923025
8.97124703267
8.97121930569
8.97120955161
8.97121711868
8.97124045972
8.97127770681
8.97132681564
8.97138573962
8.97145252567
8.97152537533
8.97160266985
8.97168298259
8.97176507362
8.97184788322
8.97193051576
8.97201222718
8.97209240662
8.97217056325
8.97224630902
8.97231934686
8.97238945567
8.97245648046
8.97252031968
8.97258091737
8.97263825268
8.97269233375
8.97274318918
8.97279086329
8.97283540916
8.97287688496
8.97291534819
8.97295085307
8.9729834464
8.97301316726
8.97304003971
8.9730640002
8.97308496652
8.9731028182
8.97311738581
8.9731284413
8.97313568575
8.97313873714
8.9731371154
8.97313022754
8.97311735135
8.97309762179
8.97307002152
8.97303338464
8.97298642288
8.97292779517
8.97285624748
8.97277086518
8.97267148773
8.97255933948
8.97243790479
8.97231400707
8.97219890489
8.97210898595
8.97206535108
8.97209138526
8.97220760723
8.9724237642
8.97273012143
8.96946028161
8.96951309462
8.96961517534
8.9697614337
8.96994467244
8.97015661231
8.97038867773
8.97063261802
8.97088097845
8.97112739426
8.97136674059
8.97159513923
8.97180988209
8.97200927848
8.97219248357
8.97235930852
8.9725100534
8.97264535274
8.97276605796
8.97287313927
8.97296762075
8.97305052943
8.97312286778
8.97318559211
8.97323960557
8.97328575079
8.97332481154
8.97335751054
8.97338451346
8.97340642785
8.97342380722
8.97343714995
8.97344690328
8.97345346238
8.97345717471
8.97345833957
8.97345721321
8.97345400898
8.97344890317
8.97344203568
8.97343351623
8.97342342938
8.97341178384
8.97339854817
8.97338368227
8.97336713126
8.9733488292
8.97332869711
8.97330664693
8.97328258013
8.97325639186
8.97322796973
8.97319719817
8.97316395765
8.97312812954
8.97308959604
8.97304824597
8.97300397596
8.97295669762
8.97290634058
8.97285286162
8.97279625009
8.97273653969
8.97267381676
8.97260823493
8.97254002642
8.97246951934
8.97239715115
8.97232348703
8.97224923283
8.97217525002
8.97210256089
8.97203234893
8.97196593962
8.97190476317
8.97185028137
8.97180388127
8.97176673185
8.97173958602
8.97172274296
8.97171621886
8.97171948792
8.9717316757
8.97175181196
8.97177883909
8.97181168534
8.97184931164
8.97189073949
8.97193507097
8.97198149558
8.97202929481
8.97207783886
8.97212658433
8.97217506699
8.97222289705
8.97226975096
8.97231536616
8.97235953315
8.97240209051
8.97244291763
8.9724819303
8.97251907423
8.97255432134
8.97258766408
8.97261911235
8.97264868865
8.97267642564
8.97270236216
8.97272654173
8.97274901008
8.97276981557
8.9727890089
8.97280653822
8.97282233276
8.97283629068
8.97284826997
8.97285808005
8.97286547155
8.9728701269
8.97287164992
8.97286955755
8.97286327371
8.97285213003
8.9728353771
8.97281221607
8.97278186175
8.97274365757
8.97269726732
8.97264297857
8.97258215437
8.97251786522
8.97245570245
8.97240470623
8.97237820891
8.97239418128
8.97247437108
8.97264121548
8.97291145117
8.97328604247
8.97373834831
8.96995389815
8.96999684624
8.97007978579
8.97019898147
8.97034890584
8.97052308846
8.97071470894
8.97091709491
8.97112411614
8.97133045354
8.97153174632
8.97172462701
8.97190667563
8.97207631304
8.97223266777
8.97237543025
8.97250471731
8.97262095012
8.97272475563
8.97281688737
8.97289816772
8.97296944536
8.97303156706
8.97308535831
8.97313161173
8.97317107952
8.97320446935
8.97323244172
8.97325560864
8.97327453276
8.9732897271
8.97330165508
8.97331073104
8.97331732119
8.97332174517
8.97332427786
8.97332515208
8.97332456116
8.97332266242
8.97331958018
8.97331540984
8.97331022047
8.9733040334
8.97329679904
8.97328845702
8.97327894558
8.97326819612
8.97325613332
8.97324267701
8.97322774229
8.97321124166
8.9731930852
8.97317318299
8.97315144541
8.97312778599
8.97310212213
8.97307437853
8.97304448865
8.97301239898
8.97297807153
8.97294148927
8.97290265988
8.97286162256
8.97281845322
8.97277327255
8.97272625245
8.97267762481
8.97262768816
8.97257681565
8.97252545963
8.97247415572
8.97242352087
8.97237424769
8.97232708872
8.97228283223
8.97224226369
8.97220611608
8.97217500763
8.97214939791
8.97212945848
8.97211523861
8.97210673667
8.97210360522
8.97210536756
8.97211152694
8.97212154234
8.97213486331
8.97215094929
8.97216928478
8.97218938778
8.97221081646
8.97223317121
8.97225609636
8.97227927896
8.97230244811
8.97232537225
8.97234785748
8.97236974428
8.97239090538
8.9724112424
8.97243068365
8.97244918081
8.97246670685
8.97248325293
8.97249882657
8.97251344885
8.97252715293
8.97253998188
8.97255198786
8.97256323122
8.97257378126
8.97258371657
8.97259301441
8.97260163192
8.97260950042
8.97261651801
8.97262254242
8.97262738312
8.97263079449
8.97263246969
8.9726320381
8.97262906769
8.97262307718
8.97261356332
8.97260005286
8.97258219144
8.97255988798
8.972533537
8.97250434677
8.97247479967
8.97244926095
8.97243471924
8.97244157493
8.97248426675
8.97258131589
8.9727540388
8.97302274758
8.97339894037
8.97387265257
8.97439802142
8.97033289586
8.97036885935
8.97043826496
8.97053813962
8.97066399742
8.97081054684
8.97097216893
8.97114332514
8.97131888579
8.97149436339
8.97166604333
8.97183102386
8.97198718474
8.97213310671
8.97226796493
8.97239141344
8.97250347472
8.97260444166
8.97269479564
8.97277514188
8.97284615942
8.97290856504
8.97296308643
8.9730104444
8.97305133937
8.9730864433
8.97311639273
8.97314178532
8.9731631759
8.97318107534
8.97319594835
8.97320821386
8.97321824424
8.97322636709
8.97323286579
8.97323798239
8.97324191939
8.9732448433
8.97324688722
8.97324815462
8.97324872237
8.97324864103
8.9732479502
8.97324658946
8.97324448341
8.97324156252
8.97323775476
8.9732329861
8.97322718137
8.9732202647
8.97321216054
8.97320279411
8.9731920927
8.97317998617
8.97316640855
8.97315129871
8.97313460235
8.97311627304
8.97309627473
8.97307458329
8.97305118963
8.97302610187
8.97299934909
8.97297098419
8.97294108803
8.97290977267
8.97287718557
8.97284351238
8.97280898013
8.97277385827
8.97273845895
8.97270313417
8.97266827065
8.97263428011
8.97260158584
8.97257060386
8.97254172016
8.97251526583
8.97249149264
8.97247054899
8.97245242854
8.97243714701
8.9724247426
8.97241501788
8.97240772275
8.97240261797
8.97239944247
8.97239792963
8.97239781553
8.97239884583
8.9724007803
8.97240339604
8.97240649003
8.97240988004
8.97241340561
8.97241692784
8.97242032953
8.97242351424
8.97242640597
8.97242894793
8.97243110193
8.97243284696
8.97243417851
8.97243510712
8.97243565771
8.97243586825
8.97243578925
8.97243548286
8.97243502286
8.97243449471
8.97243399675
8.97243364101
8.97243344226
8.97243339758
8.97243348331
8.97243364898
8.97243381165
8.97243385022
8.97243360123
8.97243285668
8.97243136648
8.97242884793
8.97242500713
8.97241957829
8.97241239047
8.97240347365
8.9723932209
8.972382626
8.97237361845
8.97236951352
8.9723755821
8.97239971133
8.97245306151
8.97255050472
8.97271042011
8.9729530669
8.97329620616
8.97374603678
8.97428196589
8.97483966868
8.97062614949
8.97065705144
8.97071669763
8.97080254904
8.9709107955
8.97103693554
8.97117618412
8.97132381819
8.97147545616
8.97162725701
8.97177603149
8.97191927755
8.97205515381
8.97218241326
8.97230031398
8.97240852392
8.97250702885
8.97259605166
8.9726759837
8.97274733109
8.97281067155
8.97286662355
8.97291582161
8.97295890005
8.97299647908
8.97302915669
8.97305750052
8.97308204404
8.97310328162
8.97312166726
8.9731376119
8.97315148402
8.97316360867
8.97317426962
8.97318370987
8.97319213489
8.97319971427
8.97320658549
8.97321285633
8.97321860863
8.97322390082
8.97322877195
8.97323325244
8.97323730706
8.97324084891
8.97324379985
8.97324608375
8.97324762664
8.97324835665
8.97324820393
8.97324710124
8.97324498398
8.97324179099
8.97323746464
8.97323195182
8.9732252041
8.97321717902
8.9732078404
8.97319715986
8.97318511746
8.97317170346
8.97315691927
8.97314077949
8.97312331308
8.97310456551
8.97308460003
8.97306349959
8.97304136775
8.97301832977
8.97299453246
8.97297014365
8.97294534992
8.97292035342
8.97289536661
8.97287060549
8.97284628081
8.97282258807
8.97279969652
8.97277773927
8.97275680889
8.97273693278
8.97271805825
8.97270020345
8.97268345585
8.97266772232
8.97265287485
8.97263881391
8.9726254267
8.97261260174
8.97260022597
8.97258819106
8.97257639462
8.97256474259
8.97255315039
8.97254154431
8.97252986198
8.9725180533
8.97250608047
8.97249391858
8.9724815554
8.97246899171
8.972456241
8.97244332965
8.97243029657
8.97241719336
8.97240408401
8.97239104519
8.97237816623
8.97236554982
8.97235331273
8.97234158755
8.97233052415
8.97232018072
8.97231060197
8.97230181742
8.9722938364
8.97228664392
8.97228019708
8.97227442347
8.97226922246
8.97226447219
8.97226004492
8.97225583587
8.97225181159
8.97224808708
8.97224504291
8.97224349702
8.97224494773
8.97225190439
8.97226831704
8.97230010089
8.97235571921
8.97244672486
8.97258804596
8.97279759199
8.97309437558
8.97349367537
8.97399682657
8.9745733427
8.97514160258
8.97085771964
8.97088488394
8.97093738839
8.97101292911
8.97110814795
8.97121908484
8.97134154227
8.97147138891
8.97160480244
8.97173844099
8.97186953592
8.97199591898
8.97211599567
8.97222868602
8.97233334583
8.97242968487
8.97251768748
8.97259754436
8.97266959365
8.97273427553
8.97279209478
8.97284359419
8.97288933226
8.97292986869
8.97296575109
8.97299750734
8.9730256375
8.97305061016
8.97307285756
8.97309277458
8.97311071617
8.97312699833
8.97314189739
8.97315565237
8.97316846576
8.97318050674
8.97319191295
8.97320279412
8.97321323434
8.97322329556
8.9732330199
8.97324243235
8.97325155013
8.97326038266
8.97326883756
8.97327682548
8.97328426748
8.97329108934
8.97329722136
8.97330259787
8.97330715743
8.97331084241
8.97331359937
8.97331537875
8.97331613546
8.97331582856
8.97331442207
8.9733118847
8.97330819083
8.97330332045
8.97329726014
8.97329000323
8.97328155089
8.97327191235
8.97326110599
8.97324915958
8.97323611117
8.97322200909
8.97320691236
8.97319089019
8.97317402152
8.97315639367
8.97313810063
8.97311924049
8.97309991242
8.97308021276
8.97306023081
8.97304004438
8.97301971587
8.97299928815
8.97297878717
8.97295819902
8.97293746341
8.97291658389
8.97289570118
8.97287478544
8.97285376152
8.97283261157
8.97281129801
8.97278979
8.97276805517
8.97274606396
8.97272379102
8.9727012155
8.97267832253
8.97265510375
8.97263155835
8.97260769346
8.97258352505
8.9725590782
8.97253438792
8.97250949941
8.97248446876
8.97245936325
8.9724342621
8.97240925684
8.97238445215
8.97235996654
8.9723359336
8.97231250327
8.972289844
8.9722681454
8.97224751344
8.97222804414
8.97220982476
8.9721929295
8.97217741699
8.9721633286
8.97215068933
8.9721395123
8.97212980968
8.97212161292
8.97211500756
8.97211018837
8.97210754367
8.9721077791
8.97211209376
8.97212242221
8.97214175494
8.97217454305
8.97222717769
8.97230850303
8.97243026163
8.97260726056
8.97285683537
8.97319677705
8.97364008871
8.97418364518
8.97478759789
8.97535430664
8.97104444577
8.97106881646
8.97111605883
8.97118397326
8.97126950784
8.9713690782
8.97147890452
8.97159528713
8.97171482319
8.97183455593
8.97195205134
8.97206541655
8.9721732702
8.97227468609
8.97236912025
8.97245633769
8.97253634138
8.97260931276
8.9726755598
8.972735478
8.97278951738
8.97283815969
8.97288189855
8.97292122689
8.97295662492
8.9729885536
8.9730174472
8.97304371045
8.97306771417
8.97308979484
8.97311025256
8.97312935236
8.97314732389
8.97316436394
8.97318063735
8.97319628022
8.97321140164
8.97322608707
8.97324040041
8.97325438719
8.97326807667
8.97328148464
8.97329460668
8.97330748139
8.9733200543
8.97333221632
8.9733438854
8.9733549863
8.97336545054
8.9733752153
8.97338422321
8.97339242143
8.97339976181
8.97340620012
8.97341169638
8.97341621422
8.97341972127
8.97342218865
8.97342359147
8.9734239084
8.97342312221
8.97342121951
8.97341819124
8.97341403253
8.97340874316
8.9734023274
8.97339479436
8.97338615776
8.97337643607
8.97336565203
8.97335383245
8.97334100742
8.97332720965
8.97331247332
8.97329683287
8.97328032149
8.97326296952
8.97324480279
8.97322584112
8.9732060972
8.9731855748
8.97316427085
8.97314216373
8.97311919006
8.97309532688
8.97307075411
8.97304546884
8.97301943443
8.97299266673
8.97296516544
8.97293693668
8.97290798979
8.97287833497
8.97284798659
8.97281696318
8.97278528791
8.97275298975
8.97272010386
8.97268667262
8.97265274613
8.97261838326
8.97258365214
8.97254863133
8.97251341039
8.97247809111
8.97244278826
8.97240763103
8.97237276402
8.97233834911
8.97230456709
8.97227162033
8.97223973696
8.97220907339
8.972179777
8.97215199384
8.97212586473
8.97210152431
8.97207910125
8.97205872143
8.97204051529
8.97202463222
8.97201126493
8.97200068901
8.97199332311
8.97198981824
8.97199118523
8.97199897178
8.97201550009
8.97204417435
8.9720898601
8.97215932219
8.97226167776
8.97240876334
8.97261520645
8.97289777568
8.97327313447
8.97375219279
8.97432760586
8.97495048401
8.97550868829
8.97119882365
8.97122108796
8.97126444625
8.9713267113
8.97140503832
8.97149610364
8.97159642519
8.97170261966
8.97181159977
8.97192070671
8.97202777299
8.97213113217
8.97222958485
8.97232234257
8.97240895755
8.97248925456
8.9725632652
8.9726311744
8.9726932735
8.97274992605
8.97280153848
8.97284854074
8.97289136875
8.97293045424
8.97296621421
8.97299904599
8.97302932098
8.9730573828
8.97308354382
8.97310808543
8.97313125655
8.97315327536
8.97317432924
8.9731945774
8.97321415181
8.97323316028
8.97325168796
8.97326980042
8.97328754552
8.97330495613
8.97332205214
8.97333884298
8.97335532073
8.9733714998
8.97338740264
8.97340290997
8.97341793466
8.9734323991
8.97344623516
8.97345938178
8.97347178438
8.97348339348
8.97349416464
8.97350405737
8.9735130352
8.97352106481
8.97352811621
8.97353416198
8.97353917751
8.97354314044
8.97354603086
8.97354783085
8.97354852476
8.97354809877
8.97354654116
8.97354384197
8.97353999313
8.9735349882
8.97352882238
8.97352149224
8.97351299559
8.9735033312
8.97349249852
8.97348049733
8.97346732737
8.97345298788
8.97343747718
8.97342079215
8.97340292785
8.97338387708
8.97336363014
8.97334217386
8.97331949011
8.97329556522
8.97327032566
8.97324374018
8.97321596053
8.97318701936
8.97315691952
8.97312567017
8.97309329308
8.9730598042
8.97302523168
8.97298960349
8.972952951
8.9729153106
8.9728767238
8.97283723787
8.97279690703
8.97275579298
8.97271396616
8.97267150647
8.97262850461
8.97258506301
8.97254129738
8.97249733779
8.97245333052
8.97240943949
8.97236584853
8.97232276352
8.97228041544
8.97223906651
8.97219892438
8.97216018445
8.97212304924
8.97208772468
8.97205442066
8.97202335302
8.97199474895
8.97196885685
8.97194596386
8.97192642368
8.97191069994
8.97189943025
8.97189351884
8.97189426586
8.97190354338
8.97192402693
8.97195948956
8.97201515733
8.97209811074
8.97221768697
8.97238578229
8.97261684497
8.97292712345
8.97333224563
8.97384114358
8.97444236283
8.97507821435
8.97562386154
8.97133018692
8.9713508512
8.97139134862
8.97144943641
8.9715224065
8.9716071142
8.97170028865
8.97179877819
8.97189973406
8.97200072927
8.97209980966
8.97219549566
8.97228674287
8.97237288475
8.97245356269
8.9725286607
8.97259824285
8.97266250384
8.97272172557
8.97277624688
8.97282643723
8.97287268047
8.97291535983
8.97295485006
8.97299150893
8.97302567396
8.97305765761
8.97308774666
8.97311619965
8.97314324792
8.97316909459
8.97319391658
8.97321786478
8.97324106653
8.97326362658
8.97328562972
8.97330714219
8.97332821421
8.9733488816
8.97336916792
8.9733890861
8.97340863957
8.97342782394
8.97344662863
8.9734651318
8.97348323758
8.97350084229
8.97351786838
8.97353424787
8.97354992081
8.97356483459
8.97357894228
8.97359220227
8.97360457693
8.97361603253
8.97362653817
8.97363606582
8.97364458942
8.973652085
8.97365852994
8.97366390312
8.9736681843
8.97367135429
8.97367339444
8.97367428679
8.97367401371
8.9736725579
8.97366990222
8.97366602963
8.97366092307
8.97365456541
8.97364693935
8.97363802743
8.973627812
8.97361627514
8.97360339876
8.97358916452
8.97357355389
8.97355654811
8.97353812824
8.973518275
8.97349696852
8.9734741887
8.9734499103
8.97342411712
8.97339674486
8.9733677615
8.97333721724
8.97330522453
8.97327180266
8.97323692709
8.97320064671
8.9731629773
8.97312394363
8.97308357997
8.9730419215
8.97299900898
8.97295488937
8.9729096164
8.97286325151
8.97281586522
8.97276753808
8.97271836219
8.97266844245
8.97261789836
8.97256686556
8.97251549794
8.97246396959
8.97241247749
8.97236124413
8.97231052117
8.97226059762
8.97221173119
8.97216415894
8.97211813456
8.97207392451
8.97203181008
8.97199209114
8.9719550936
8.97192118168
8.97189077811
8.97186439501
8.97184268035
8.97182648504
8.97181695779
8.97181567515
8.97182481536
8.97184738347
8.9718874923
8.97195069651
8.97204436217
8.97217802572
8.97236364081
8.97261550054
8.97294938524
8.9733799558
8.97391422563
8.97453667277
8.97518106607
8.9757118623
8.97144565933
8.97146509754
8.97150349604
8.97155850449
8.97162750042
8.97170745828
8.97179525488
8.97188790803
8.97198274982
8.97207753519
8.97217048267
8.97226026833
8.97234598077
8.9724270612
8.97250323251
8.97257443513
8.97264076602
8.97270243201
8.97275970906
8.97281291503
8.97286238623
8.97290846412
8.97295148285
8.97299176391
8.97302960973
8.97306530227
8.97309909979
8.97313123736
8.97316192536
8.97319135092
8.97321967757
8.97324704718
8.97327358032
8.97329937838
8.97332452454
8.97334908579
8.97337311425
8.97339664904
8.97341971779
8.97344233821
8.97346451966
8.97348626429
8.97350756897
8.97352840844
8.97354884543
8.97356888368
8.97358839733
8.973607304
8.97362553383
8.97364302704
8.97365973238
8.97367560484
8.97369060509
8.97370469792
8.97371785198
8.97373003862
8.97374123177
8.97375140699
8.97376054145
8.9737686132
8.97377560116
8.97378148455
8.97378624294
8.97378985576
8.97379230237
8.97379356172
8.97379361237
8.97379243226
8.97378999877
8.97378628859
8.97378127773
8.97377494157
8.9737672549
8.97375819205
8.97374772696
8.97373583339
8.973722485
8.97370765562
8.97369131929
8.97367345045
8.97365402396
8.97363301506
8.97361039888
8.973586151
8.97356024372
8.97353264899
8.9735033301
8.97347223761
8.97343933707
8.97340478069
8.97336857943
8.97333074277
8.97329127461
8.97325020966
8.97320756176
8.97316335847
8.97311763389
8.97307042472
8.97302177542
8.97297173837
8.97292037503
8.97286775723
8.97281396902
8.97275910812
8.97270328808
8.97264664014
8.97258931583
8.97253148934
8.97247336071
8.97241515904
8.97235714679
8.97229963008
8.9722429139
8.97218726818
8.97213298987
8.97208039863
8.97202984053
8.97198169349
8.97193637678
8.97189436548
8.97185621325
8.97182258582
8.97179431017
8.97177244394
8.97175837197
8.97175393633
8.97176160776
8.97178470424
8.97182766012
8.97189634098
8.97199838538
8.97214352576
8.97234378528
8.9726133323
8.97296752406
8.97342010018
8.97397618187
8.97461620184
8.97526569748
8.97578047188
8.97155081675
8.97156930233
8.97160616409
8.97165890349
8.97172494552
8.9718013398
8.97188506398
8.97197325908
8.97206339557
8.97215337331
8.97224155286
8.97232674232
8.97240814614
8.97248530182
8.97255800688
8.97262625471
8.97269017409
8.97274998444
8.97280595706
8.97285839069
8.97290759065
8.97295385844
8.97299748197
8.97303873278
8.97307786178
8.97311509981
8.97315065593
8.97318471899
8.97321745703
8.97324901916
8.97327953546
8.97330911887
8.97333786553
8.97336585646
8.97339315837
8.9734198251
8.97344589872
8.9734714108
8.97349638373
8.97352083173
8.97354476232
8.97356817708
8.97359107311
8.97361343253
8.97363527116
8.97365668411
8.9736775474
8.97369777318
8.97371728933
8.97373603583
8.97375396211
8.97377102459
8.97378718584
8.97380241279
8.97381667637
8.97382995015
8.97384221016
8.97385343387
8.97386360012
8.97387268832
8.9738806784
8.97388755028
8.9738932838
8.97389785832
8.97390125273
8.97390344513
8.97390441288
8.97390413238
8.97390257913
8.97389972765
8.97389555155
8.97389002357
8.97388311565
8.97387479912
8.97386504481
8.97385382324
8.9738411048
8.97382685996
8.97381105939
8.97379367417
8.97377467576
8.97375403607
8.97373172732
8.9737077215
8.97368199013
8.97365450374
8.97362522553
8.97359413941
8.97356117206
8.97352629149
8.97348952945
8.9734509798
8.97341064569
8.97336851256
8.97332460919
8.97327895079
8.97323154689
8.9731824239
8.97313161325
8.97307915126
8.97302508413
8.9729694685
8.97291237309
8.9728538807
8.97279409065
8.97273312103
8.9726711117
8.97260822722
8.97254466051
8.97248063671
8.97241641822
8.97235231678
8.97228868084
8.97222580262
8.9721640124
8.97210367362
8.97204518806
8.97198900316
8.97193562354
8.97188562765
8.97183969289
8.97179863165
8.97176344279
8.97173538319
8.97171606537
8.97170758745
8.97171270192
8.97173502829
8.97177931133
8.97185171891
8.97196015892
8.97211456573
8.9723270498
8.97261168458
8.97298344065
8.97345516712
8.97403010613
8.97468467317
8.97533654032
8.97583486206
8.97165017978
8.97166790722
8.97170363488
8.97175468475
8.97181850127
8.97189217659
8.97197275494
8.97205746712
8.97214389105
8.97223004464
8.97231440863
8.97239590616
8.97247384516
8.97254785115
8.97261779112
8.97268370856
8.97274576279
8.9728041855
8.97285924363
8.97291121754
8.97296038269
8.97300700229
8.97305132022
8.97309356085
8.97313392716
8.97317260306
8.97320975318
8.97324552541
8.97328005106
8.97331344688
8.97334581525
8.97337724567
8.9734078151
8.97343758903
8.97346662206
8.97349495875
8.97352263451
8.97354967622
8.97357610343
8.97360192883
8.97362715954
8.97365179735
8.97367583936
8.97369927835
8.97372208194
8.97374439666
8.97376616293
8.97378726031
8.9738076179
8.97382717521
8.97384588214
8.97386369637
8.97388058221
8.97389650867
8.9739114489
8.97392537875
8.97393827649
8.97395012177
8.97396089541
8.97397057867
8.97397915308
8.97398659998
8.97399290038
8.97399803462
8.9740019823
8.9740047221
8.97400623171
8.97400648773
8.9740054657
8.97400314004
8.97399948413
8.97399447041
8.97398807039
8.97398025489
8.97397099406
8.97396025769
8.97394801521
8.97393423603
8.9739188895
8.97390194518
8.97388337278
8.97386314225
8.9738412236
8.97381758677
8.97379220124
8.97376503531
8.97373605831
8.97370523219
8.9736725158
8.97363787785
8.97360125803
8.97356261686
8.97352202375
8.97347951749
8.9734351043
8.97338874923
8.97334049325
8.97329033609
8.97323828194
8.97318435382
8.9731285808
8.97307099902
8.97301165733
8.97295061841
8.97288796125
8.9728237839
8.97275820694
8.97269137679
8.97262347003
8.97255469778
8.97248531119
8.97241561508
8.97234599596
8.97227675743
8.97220825262
8.97214087746
8.97207507848
8.97201136195
8.97195030737
8.97189258655
8.9718389911
8.97179047083
8.97174818762
8.97171358869
8.97168850548
8.97167528319
8.97167694731
8.97169741069
8.97174172214
8.97181634887
8.97192947083
8.97209123496
8.9723138589
8.97261134899