/*--------------------------------*- C++ -*----------------------------------*\
| =========                 |                                                 |
| \\      /  F ield         | OpenFOAM: The Open Source CFD Toolbox           |
|  \\    /   O peration     | Version:  2312                                  |
|   \\  /    A nd           | Website:  www.openfoam.com                      |
|    \\/     M anipulation  |                                                 |
\*---------------------------------------------------------------------------*/
FoamFile
{
    version     2.0;
    format      ascii;
    arch        "LSB;label=32;scalar=64";
    class       volScalarField;
    location    "0.45/water";
    object      T.gas;
}
// * * * * * * * * * * * * * * * * * * * * * * * * * * * * * * * * * * * * * //

dimensions      [0 0 0 1 0 0 0];

internalField   nonuniform List<scalar> 
1504
(
392.430648053
335.063751673
313.092335706
304.523549853
301.425729036
300.513212681
300.28907312
300.202731642
300.144153636
300.09570969
300.054218425
300.021937427
300.004892536
300.000678565
300.000083918
300.000009026
300
300
300
300
392.713827885
334.999467644
312.61555997
304.098980473
301.268571765
300.498627975
300.2993348
300.213440666
300.152881779
300.102094317
300.058266341
300.024059125
300.005646709
300.000847704
300.00011226
300.000013057
300
300
300
300
391.980314593
333.506583938
310.642174159
303.113706165
301.030674363
300.456473727
300.296844497
300.217985637
300.157603441
300.105391167
300.060180358
300.02516086
300.006138595
300.000971189
300.000134855
300.000016822
300.000000423
300
300
300
393.944970821
327.156845172
307.411702505
302.291665982
300.835902898
300.421254473
300.29181638
300.220018673
300.160330355
300.107007992
300.061061706
300.025860565
300.006551379
300.00108046
300.000156059
300.000021207
300.000001341
300
300
300
420.900038186
325.540061719
305.96599433
301.807337956
300.715301913
300.404550826
300.295397056
300.22582155
300.165155131
300.110105209
300.063125361
300.027382118
300.007346819
300.00128924
300.000195849
300.000029233
300.000002969
300
300
300
465.416027253
340.765799026
309.531541009
302.05197391
300.761445746
300.440560813
300.31786232
300.241172954
300.175902545
300.117384781
300.068131561
300.030767971
300.009000203
300.001750372
300.000287654
300.000046478
300.000006042
300
300
300
487.81153657
355.97567514
315.807904464
304.010907293
301.313499293
300.621653559
300.382992799
300.270838541
300.193493723
300.128904414
300.075932133
300.035939312
300.011665591
300.002598904
300.000471124
300.000081386
300.000011928
300
300
300
499.123738591
366.285046412
321.501476843
306.688921418
302.268026949
300.959359058
300.505020052
300.319469208
300.217588871
300.143039096
300.084996006
300.041743327
300.014907634
300.003823794
300.000782923
300.000144388
300.00002281
300.00000051
300
300
506.113339618
371.053332163
324.234254257
308.159290706
303.061654197
301.315563026
300.652768584
300.380636072
300.245732203
300.157746117
300.093663446
300.047008839
300.018069501
300.005218864
300.001206124
300.000238378
300.000039761
300.000002515
300
300
508.797758184
370.987536323
324.004550854
308.385052627
303.49026648
301.577495581
300.779912083
300.437795295
300.271726357
300.170067887
300.100109332
300.0507668
300.020580333
300.006483922
300.001658604
300.00034955
300.000060477
300.000005339
300
300
510.169795535
367.906706325
322.256263042
308.477945008
303.721888889
301.727843383
300.860087543
300.47700949
300.289353231
300.177119016
300.102951161
300.05250782
300.022144505
300.007453543
300.002042132
300.00045107
300.000080081
300.000008173
300
300
509.500023726
364.109734473
321.278649833
308.745964784
303.867321905
301.797381185
300.896791579
300.495744978
300.294696141
300.177312133
300.10172448
300.052082061
300.022660942
300.008008593
300.002276164
300.00051759
300.000094499
300.000010328
300
300
509.676700585
361.293631807
322.576017902
309.216103216
303.999285017
301.830870488
300.908969419
300.496205035
300.286994139
300.170711199
300.097183276
300.050065697
300.022337155
300.00814877
300.002351003
300.000538079
300.000100116
300.000011062
300
300
510.18373936
365.885520554
323.96002118
309.562160101
304.050975416
301.828244458
300.894910516
300.472287153
300.269697424
300.159005602
300.090771874
300.047251615
300.021482972
300.007946183
300.002305895
300.000524612
300.000098543
300.000009802
300
300
512.451408336
366.834978201
323.837797632
309.344370957
303.911559988
301.738669557
300.820865826
300.428608118
300.243985474
300.144450797
300.083545866
300.044272862
300.020416756
300.007638145
300.002218147
300.000497469
300.000089305
300.000006733
300
300
514.94223398
366.801163019
323.398963098
309.012301199
303.633809346
301.530009662
300.711219281
300.371799686
300.214853912
300.129977133
300.077262087
300.041957122
300.019568344
300.007433956
300.002151802
300.000461325
300.000073595
300.000003069
300
300
516.287500913
367.960646497
323.16503475
308.371280444
303.116621282
301.261951028
300.580482008
300.311567894
300.187564324
300.118893677
300.073335532
300.041132247
300.019506862
300.007450475
300.002097874
300.000412291
300.000053999
300.000000473
300
300
492.849054769
364.407308689
320.930503772
306.938642054
302.443256695
300.956851851
300.453375404
300.259006592
300.168242526
300.112684712
300.072611124
300.04187575
300.020249998
300.007671852
300.002046933
300.000354957
300.000034229
300
300
300
438.77345116
351.951308719
316.51623358
305.266138686
301.741076397
300.686087075
300.349667614
300.224898281
300.158262643
300.112220664
300.07478373
300.044356525
300.021729014
300.008123211
300.002033121
300.000310262
300.000020699
300.000000681
300
300
401.030652773
339.280677597
312.760300051
303.785814919
301.166111351
300.477841349
300.290826653
300.210821177
300.159224717
300.11718495
300.080464372
300.048907624
300.024543488
300.009183603
300.002260273
300.000331858
300.000020128
300.000002433
300.000002861
300
384.588239133
334.757013276
311.264694309
302.667492287
300.736436196
300.386496191
300.279587577
300.218549884
300.170678734
300.128683531
300.090641507
300.056955192
300.029708199
300.011582578
300.00297711
300.000466246
300.000035808
300.000003902
300.000005774
300.000002116
392.799832299
343.140585856
313.510271986
302.640325334
300.737502905
300.407355764
300.308292839
300.246882876
300.195202473
300.148982707
300.107007145
300.069337644
300.037653655
300.015345299
300.004143637
300.000698268
300.000065038
300.00000477
300.000006151
300.000004897
448.142685738
361.430585777
318.921003
303.778983471
300.981678478
300.486698726
300.360262027
300.29169135
300.233123404
300.179397525
300.130222238
300.086209274
300.048535821
300.02063769
300.005853782
300.001061535
300.000115089
300.000005949
300.000004561
300.000005499
528.503517972
372.268200022
321.069389646
304.77932489
301.258672839
300.577225833
300.412999627
300.336193136
300.27115724
300.211523685
300.156353744
300.105495305
300.061340406
300.027215025
300.008167874
300.001616502
300.000206592
300.000012649
300.000002641
300.000003772
560.913658017
376.872995558
321.630607687
305.231651892
301.417742351
300.637714539
300.45393228
300.372224831
300.301761529
300.237298338
300.178229274
300.123523028
300.074091379
300.034455144
300.011186354
300.002517482
300.000399706
300.000040454
300.000003614
300.000001506
569.101126558
377.166760415
321.64346758
305.4914707
301.51850298
300.680397072
300.488919311
300.399701104
300.324736939
300.257017834
300.195188541
300.138177582
300.085256531
300.041982653
300.015195401
300.0040157
300.000787869
300.000111193
300.000010784
300.000000405
565.4721325
377.648044703
323.136279086
306.483938115
301.881123933
300.801351016
300.542308218
300.425998026
300.34265535
300.271756812
300.207846556
300.148639712
300.093318424
300.048021457
300.018943433
300.005644575
300.001286713
300.000220912
300.000026629
300.000001212
525.194815044
377.324357632
326.117449956
308.472454165
302.730005977
301.119800056
300.653720863
300.468557074
300.363178326
300.285149755
300.218020596
300.15555051
300.098390159
300.052108932
300.021797328
300.007085204
300.001789389
300.000350787
300.000050492
300.000004001
460.822541481
366.713237182
326.509157765
310.027686204
303.717731283
301.595019017
300.847683907
300.543907504
300.394686289
300.30146719
300.227749956
300.160472422
300.101682756
300.054887467
300.024005245
300.008298123
300.002268528
300.000485753
300.000079932
300.000008238
425.121626547
356.458135696
324.70245988
310.536815673
304.444790221
302.067617369
301.08205886
300.646333084
300.438692221
300.322287901
300.237620701
300.165071749
300.104467038
300.057313735
300.025934187
300.009447866
300.002732865
300.000628745
300.000112958
300.00001401
411.559538261
349.151129279
322.372581257
310.364308755
304.843437097
302.42937529
301.295927627
300.751881289
300.487561074
300.345182516
300.247467038
300.169803201
300.107521313
300.059885679
300.028007466
300.010622068
300.003238408
300.000784746
300.000152145
300.000021297
413.312257539
347.813088224
321.363383557
310.173909708
305.063227371
302.667768894
301.450393321
300.835576008
300.529438592
300.36523547
300.256029731
300.174177199
300.110679403
300.062777671
300.03020903
300.011924485
300.003779168
300.000963479
300.000196976
300.000031115
417.824450067
347.582702937
320.724769406
309.900410956
305.094557171
302.736115455
301.508674087
300.874685733
300.552299828
300.376802308
300.26077928
300.176988763
300.113393219
300.065534906
300.032510145
300.013244882
300.004365957
300.001154631
300.00024913
300.000044349
420.044854439
345.669128715
319.151210026
309.061524438
304.690820673
302.555000708
301.437340676
300.851680862
300.546588373
300.374528276
300.258879267
300.176686773
300.114719686
300.067858945
300.034597544
300.01456609
300.004942996
300.001357426
300.000314602
300.000061881
420.710773965
339.262447763
315.522348472
307.272981554
303.810228904
302.128645124
301.241973795
300.767983321
300.511160257
300.355880353
300.249363263
300.172849942
300.114710561
300.069672211
300.036672906
300.015879546
300.005562928
300.001623934
300.000406593
300.000087851
419.934395264
334.072419495
311.88802535
305.321288804
302.800676802
301.620140159
300.998274297
300.656364464
300.457419262
300.326032965
300.235180389
300.16760273
300.114663641
300.072144277
300.03931573
300.017693733
300.006561456
300.002050119
300.000567537
300.00014113
418.971369456
333.868222746
309.954861808
303.960631813
302.021193862
301.20501331
300.789285915
300.551862039
300.400204987
300.297800551
300.22301429
300.165068849
300.117651016
300.077318074
300.044315791
300.02094434
300.008229896
300.002826079
300.000890383
300.000261261
415.676785112
337.730528082
310.454487084
303.529979943
301.620470102
300.953996699
300.648970994
300
300
300
300
300
300
300
300
300
300
300
300
300
300
300
300
300
300
300
300
300
300
300
300
300
300
300
300
300
300
300
300
300
300
300
300
300
300
300
300
300
300
300
300
300
300
300
300
300
300
300
300
300
300
300
300
300
300
300
300
300
300
300
300
300
300
300
300
300
300
300
300
300
300
300
300
300
300
300
300
300
300
300
300
300
300
300
300
300
300
300
300
300
300
300
300
300
300
300
300
300
300
300
300
300
300
300
300
300
300
300
300
300
300
300
300
300
300
300
300
300
300
300
300
300
300
300
300
300
300
300
300
300
300
300
300
300
300
300
300
300
300
300
300
300
300
300
300
300
300
300
300
300
300
300
300
300
300
300
300
300.000000004
300
300
300
300
300
300
300
300
300
300
300
300
300
300
300
300
300
300
300
300.000000069
300
300
300
300
300
300
300
300
300
300
300
300
300
300
300
300
300
300
300
300.000000181
300
300
300
300
300
300
300
300
300
300
300
300
300
300
300
300
300
300
300
300.000000256
300.000000001
300
300
300
300
300
300
300
300
300
300
300
300
300
300
300
300
300
300
300.000000187
300.000000001
300
300
300
300
300
300
300
300
300
300
300
300
300
300
300
300
300
300
300.000000008
300.000000003
300
300
300
300
300
300
300
300
300
300
300
300
300
300
300
300
300.000000014
300
300
300.000000018
300
300
300
300
300
300
300
300
300
300
300
300
300
300
300
300
300.000000106
300
300
300.000000059
300
300
300
300
300
300
300
300
300
300
300
300
300
300
300
300
300.000000107
300
300
300.000000074
300
300
300
300
300
300
300
300
300
300
300
300
300
300
300
300
300.00000005
300
300
300
300
300
300
300
300
300
300
300
300
300
300
300
300
300
300
300
300
300
300
300
300
300
300
300
300
300
300
300
300
300
300
300
300
300
300
300
300
300
300
300
300
300
300
300
300
300
300
300
300
300
300
300
300
300
300
300
300
300
300
300
300
300
300
300
300
300
300
300
300
300
300
300
300
300
300
300
300
300
300
300
300
300
300
300
300
300
300
300
300
300
300
300
300
300
300
300.000000431
300
300
300
300
300
300
300
300
300
300
300
300
300
300
300
300
300
300.00000001
300.000000039
300.000000968
300
300
300
300
300
300
300
300
300
300
300
300
300
300
300
300.000000017
300.000000151
300.000000286
300.00000035
300.000000807
300
300
300
300
300
300
300
300
300
300
300
300
300
300
300.000000155
300.00000044
300.000000772
300.000001024
300.000001106
300.000000287
300
300
300
300
300
300
300
300
300
300
300
300.000000003
300.00000033
300.000000885
300.000001643
300.000002525
300.000003279
300.00000367
300.000003626
300
300
300
300
300
300
300
300
300
300
300.00000015
300.000000869
300.000002031
300.000003633
300.000005708
300.000008022
300.000010059
300.000011412
300.000011714
300.000011173
300
300
300
300
300.000000023
300
300
300
300
300.000001185
300.000003663
300.000006554
300.000010194
300.000014628
300.000019192
300.000023011
300.000025659
300.000026828
300.000026469
300.000025281
300
300
300
300
300
300.000000164
300
300.000001
300.000003443
300.000006894
300.000013535
300.000020358
300.000027281
300.000033664
300.000038494
300.000041726
300.000043416
300.000043641
300.000042665
300.000041189
300
300
300
300
300
300.000000382
300.000002053
300.000006315
300.000012296
300.000019128
300.000027807
300.00003857
300.000045429
300.000049982
300.000053049
300.000054865
300.000055552
300.000055253
300.000054196
300.0000528
300.000000025
300
300
300
300
300.000001154
300.000006717
300.000014553
300.00002345
300.000032037
300.000039406
300.000047843
300.00005153
300.000054425
300.000057391
300.000059468
300.000060332
300.000060254
300.000059504
300.000058365
300.000001074
300
300
300
300
300.000002106
300.000011083
300.000020942
300.000030269
300.000037453
300.000041663
300.000043227
300.000044495
300.000047946
300.000053158
300.000057625
300.000059828
300.000060505
300.000060259
300.000059436
300.000003049
300
300
300
300
300.000001983
300.000012237
300.000022585
300.000030521
300.000034729
300.000035092
300.000033808
300.000033691
300.000037493
300.000044235
300.000051731
300.000056227
300.000058148
300.000058604
300.000058148
300.000006148
300
300
300
300
300.000001087
300.000010536
300.000020702
300.00002771
300.000030516
300.00002866
300.00002588
300.000025567
300.000027665
300.000035234
300.000044322
300.000051223
300.000054529
300.00005544
300.000055862
300.000010236
300.000000996
300
300
300
300.000000917
300.000008041
300.000016719
300.000022981
300.00002526
300.000024034
300.000021381
300.000019614
300.000021302
300.000025256
300.000036486
300.00004608
300.000051716
300.000053607
300.000050936
300.000016694
300.000003126
300.000000871
300.000000373
300.000000314
300.00000162
300.000006437
300.00001241
300.000017174
300.0000192
300.000018684
300.000016927
300.000015841
300.000016618
300.000020001
300.000025633
300.000037271
300.000048174
300.000052102
300.00004729
300.000033321
300.000008395
300.000002792
300.000002005
300.000002066
300.000002834
300.000005527
300.000008842
300.000011373
300.000012476
300.000012182
300.000011149
300.000010606
300.000011683
300.00001479
300.000019968
300.000027716
300.000043106
300.000050243
300.000045737
300.0000752
300.000022838
300.0000079
300.000004069
300.000003415
300.000003686
300.000004757
300.000005876
300.000006274
300.000005789
300.000004982
300.000004117
300.000003364
300.000002366
300.000000801
300
300.000000109
300.000040331
300.000045791
300.000045375
)
;

boundaryField
{
    emptyPatch
    {
        type            empty;
    }
    minY
    {
        type            fixedValue;
        value           nonuniform List<scalar> 0();
    }
    maxY
    {
        type            inletOutlet;
        inletValue      nonuniform List<scalar> 0();
        value           nonuniform List<scalar> 0();
    }
    water_to_cooler
    {
        type            copiedFixedValue;
        sourceFieldName T.liquid;
        value           nonuniform List<scalar> 
38
(
300
300
300
300
300
300
300
300
300
300
300
300
300
300
300
300
300
300.000000001
300.000000003
300.000000006
300.000000013
300.000000025
300.000000049
300.000000101
300.000000214
300.00000051
300.000001266
300.000002661
300.000004417
300.000006032
300.000007262
300.000008146
300.000008745
300.000008872
300.000008645
300.000008508
300.000008342
300.000008236
)
;
    }
    water_to_heater
    {
        type            copiedFixedValue;
        sourceFieldName T.liquid;
        value           nonuniform List<scalar> 
60
(
792.416361877
792.437271434
792.437310918
792.485881126
792.484578938
792.563066381
792.574372344
792.671185237
792.753570167
792.851261416
792.867805252
792.970272343
792.980140814
793.078641733
793.073515572
793.170434271
793.177359982
793.277175633
793.270733336
793.384016878
793.377711493
793.479265011
793.485342922
793.580933461
793.575942677
793.66039983
793.662786418
793.707619297
793.627138873
793.693080443
793.689545248
793.740445507
793.745016496
793.773485373
793.76679369
793.789404694
793.931027964
793.893886558
793.924323427
793.849654719
793.854028319
793.742603154
793.73545286
793.541681103
793.440951554
793.390990983
793.374559894
793.355962401
793.353020959
793.357180946
793.359027105
793.394700208
793.394850822
793.447205282
793.44788483
793.510217457
793.50943687
793.576336874
793.576120838
793.658858904
)
;
    }
    procBoundary3to1
    {
        type            processor;
        value           nonuniform List<scalar> 
41
(
300.474527648
300.361519616
300.280953529
300.219603386
300.170310165
300.126947363
300.087320271
300.052417508
300.0262106
300.0111632
300.004254218
300.001503746
300.00049793
405.715060324
339.875981701
312.003507219
303.888066742
301.613405527
300.889331178
300.474527648
300.597294494
300.000161296
300.000053862
300.000019263
300.000008355
300.000005198
300.000004563
300.000004681
300.000004603
300.000003873
300.000002542
300.000000858
300
300
300
300
300
300
300.000101392
300.000096068
300.00005761
)
;
    }
    procBoundary3to2
    {
        type            processor;
        value           nonuniform List<scalar> 
41
(
390.779222961
334.332640161
312.895482526
304.502942952
301.39192419
300.47657055
300.265360407
300.186585488
300.131807016
300.086655211
300.048341711
300.018973482
300.003966842
300.000498812
300.000056716
300.000005266
300
300
300
300
300
300
300
300
300
300
300
300
300
300
300
300
300
300
300
300
300
300
300
300
300
)
;
    }
}


// ************************************************************************* //
