/*--------------------------------*- C++ -*----------------------------------*\
| =========                 |                                                 |
| \\      /  F ield         | OpenFOAM: The Open Source CFD Toolbox           |
|  \\    /   O peration     | Version:  2312                                  |
|   \\  /    A nd           | Website:  www.openfoam.com                      |
|    \\/     M anipulation  |                                                 |
\*---------------------------------------------------------------------------*/
FoamFile
{
    version     2.0;
    format      ascii;
    arch        "LSB;label=32;scalar=64";
    class       volVectorField;
    location    "0.34/water";
    object      U.gas;
}
// * * * * * * * * * * * * * * * * * * * * * * * * * * * * * * * * * * * * * //

dimensions      [0 1 -1 0 0 0 0];

internalField   nonuniform List<vector> 
1497
(
(0.183857741015 1.18045697737 0)
(0.198740608697 1.13484440768 0)
(0.206425491307 1.0969945154 0)
(0.211047582361 1.06227238745 0)
(0.212376335145 1.025504831 0)
(0.207828448471 0.981732872423 0)
(0.197411470082 0.931239388164 0)
(0.183269071034 0.87994885424 0)
(0.16784898829 0.832072087956 0)
(0.153428499723 0.786791585051 0)
(0.142732903298 0.742813345515 0)
(0.137193992981 0.700103672352 0)
(0.136024470479 0.658863116757 0)
(0.0356074576283 1.69367000906 0)
(0.0862310534997 1.41863007654 0)
(0.0988189114881 1.37709057752 0)
(0.100069201268 1.37494129797 0)
(0.109941099393 1.36226794204 0)
(0.12531320628 1.31877768641 0)
(0.144695560838 1.25906054359 0)
(0.161851215863 1.21166148426 0)
(0.17289594495 1.1751342339 0)
(0.180669994003 1.14487684021 0)
(0.185920085744 1.11616077101 0)
(0.184277936819 1.07975806975 0)
(0.172093508079 1.02521387676 0)
(0.151621380023 0.956859845623 0)
(0.130666090913 0.8909261649 0)
(0.115318866766 0.835360596033 0)
(0.106938483022 0.786234014761 0)
(0.104184532076 0.739398720912 0)
(0.105281439988 0.693711052193 0)
(0.109467839013 0.649416822663 0)
(0.0471247003768 1.73294195579 0)
(0.101790128931 1.46007522639 0)
(0.10414896515 1.39871436885 0)
(0.0984433067925 1.39164905917 0)
(0.101290362416 1.37817638151 0)
(0.111817655657 1.33543672268 0)
(0.127180008599 1.27975467465 0)
(0.141012430119 1.23875322736 0)
(0.150028734876 1.20883933891 0)
(0.153827258776 1.18539310146 0)
(0.148949060248 1.16158736198 0)
(0.130643392498 1.12545788644 0)
(0.102027698641 1.05495971168 0)
(0.0757647296178 0.96242811749 0)
(0.0608853684907 0.879681802735 0)
(0.0572106327773 0.817117026515 0)
(0.0606781903465 0.767290001786 0)
(0.0675802094903 0.719969121352 0)
(0.0761569900251 0.673236901599 0)
(0.0861348054059 0.627853285614 0)
(0.0630705699156 1.67250965796 0)
(0.125584567431 1.45523575364 0)
(0.120056175094 1.38187772989 0)
(0.114176009362 1.37090844843 0)
(0.115740243705 1.35999877813 0)
(0.122360272564 1.32270040625 0)
(0.128822672876 1.27215681973 0)
(0.12907325118 1.23162035038 0)
(0.120904248399 1.20145471763 0)
(0.105156376392 1.17737172152 0)
(0.0849687037652 1.1507711644 0)
(0.0614982015575 1.12302505999 0)
(0.0374442751689 1.05197958572 0)
(0.0221342925519 0.942182672347 0)
(0.0187432952659 0.847104071119 0)
(0.023489490414 0.778301206426 0)
(0.0334697682586 0.728822180049 0)
(0.0465147630627 0.684347931005 0)
(0.0605297484455 0.639792368049 0)
(0.0746823379343 0.595942987193 0)
(0.0721443875247 1.46324227825 0)
(0.144802191066 1.33048001485 0)
(0.148571685591 1.27820930527 0)
(0.155504341229 1.27994358616 0)
(0.16093587315 1.29044454283 0)
(0.159488289355 1.27624607166 0)
(0.146979517356 1.24304949107 0)
(0.124169825304 1.20821281346 0)
(0.0961633147274 1.17577189596 0)
(0.0696413150148 1.14425190073 0)
(0.0505962998927 1.10594908248 0)
(0.0418306717075 1.07583815558 0)
(0.0348984820717 1.03112296065 0)
(0.0278941875465 0.914033463397 0)
(0.0269614994661 0.810737225124 0)
(0.0307864221083 0.73676046947 0)
(0.0389661088836 0.68518734144 0)
(0.0511284312908 0.643883373051 0)
(0.0652551237674 0.602710225684 0)
(0.0796041310548 0.561494700806 0)
(0.0776228687113 1.06741990913 0)
(0.157492597234 1.1457622056 0)
(0.165080842502 1.14698118268 0)
(0.175502276212 1.16945344401 0)
(0.18338676969 1.20585838042 0)
(0.184170951618 1.22657927603 0)
(0.175700860343 1.22468665062 0)
(0.159889145952 1.20930509319 0)
(0.139295361622 1.18724560356 0)
(0.115666530918 1.16066672433 0)
(0.0890822565451 1.12480622271 0)
(0.0622100160855 1.08059321131 0)
(0.0481855496638 1.01941165397 0)
(0.0481819989695 0.894371267919 0)
(0.0516136246994 0.785995363653 0)
(0.0566206747365 0.708664603241 0)
(0.0636644114868 0.65360725719 0)
(0.0733282944699 0.612554982902 0)
(0.0845583168616 0.573024374049 0)
(0.0958576741755 0.533356594947 0)
(0.0418649615305 0.747031307545 0)
(0.0896571652443 0.997759478315 0)
(0.102161194615 1.04698248175 0)
(0.113597007087 1.08788006501 0)
(0.120458392338 1.14506176077 0)
(0.121800014378 1.19638244994 0)
(0.118447459814 1.22339674944 0)
(0.11140326206 1.22950390965 0)
(0.101358599414 1.22385717271 0)
(0.0891497874518 1.21055385346 0)
(0.0755931912293 1.18643295556 0)
(0.0637049450719 1.13201541305 0)
(0.0576432937214 1.02542148966 0)
(0.0610443894345 0.878021118889 0)
(0.0697804687782 0.770985889181 0)
(0.0780353490014 0.694051292749 0)
(0.0866854560787 0.637604670103 0)
(0.0961159502902 0.595278413171 0)
(0.105250226633 0.555385587362 0)
(0.113323012434 0.515715637171 0)
(0.0297989677177 0.675973555965 0)
(0.0571090474872 0.930204762549 0)
(0.0526689330173 1.00579455641 0)
(0.0488768259727 1.06191355364 0)
(0.0458789121013 1.13017808137 0)
(0.0445859417785 1.19214864878 0)
(0.0444273708705 1.23083063953 0)
(0.0438966854075 1.24720096892 0)
(0.0421243297764 1.25004942627 0)
(0.0390248697704 1.24185762419 0)
(0.0360362940046 1.2170792177 0)
(0.0366778395246 1.14810939896 0)
(0.0485729766142 1.00839248517 0)
(0.0661371256038 0.855604529182 0)
(0.0793056971078 0.758710503388 0)
(0.0903731496356 0.686407175817 0)
(0.101250724625 0.631595692026 0)
(0.111723504021 0.588805772418 0)
(0.12004491747 0.548030923469 0)
(0.12606640266 0.50786608391 0)
(0.0231371732572 0.73765505142 0)
(0.0299533001147 0.997199308042 0)
(-0.00492457234189 1.09720439484 0)
(-0.0394626731548 1.14929268965 0)
(-0.0614445274996 1.17514952686 0)
(-0.0665196735711 1.20670269574 0)
(-0.0602661700021 1.22640430131 0)
(-0.0486892550328 1.23947897562 0)
(-0.0366059348154 1.24525005888 0)
(-0.0255633960337 1.23981022705 0)
(-0.0139195896448 1.20916792954 0)
(0.00733094096964 1.10745274441 0)
(0.0398595014049 0.939293205307 0)
(0.0665382274527 0.827321083219 0)
(0.0825316893285 0.746207833732 0)
(0.0962660788936 0.681847349175 0)
(0.109677353754 0.631394710154 0)
(0.121207318862 0.589131486139 0)
(0.12887680598 0.547776062985 0)
(0.133684061798 0.507609898091 0)
(0.00827902114033 0.982728907956 0)
(-0.0222591987805 1.26191445533 0)
(-0.102760191758 1.39682821874 0)
(-0.185161106984 1.42972827962 0)
(-0.257565459484 1.37225012755 0)
(-0.277518320367 1.19231284752 0)
(-0.239815369967 1.14190661518 0)
(-0.186809487381 1.14949847488 0)
(-0.134854458099 1.16418399147 0)
(-0.0880855567855 1.17035387511 0)
(-0.0409576680869 1.12466767261 0)
(0.00903849432023 1.00376050711 0)
(0.044879212245 0.875864233721 0)
(0.0654311613713 0.80116978274 0)
(0.0831772840546 0.735185363231 0)
(0.0997280954562 0.680378571671 0)
(0.115001907339 0.635029692579 0)
(0.12620981857 0.593450960572 0)
(0.133256812862 0.552477617986 0)
(0.136914714863 0.513043257606 0)
(0.0149683448325 1.30373857548 0)
(-0.00919035524219 1.64002215253 0)
(-0.0813429198395 1.7668984257 0)
(-0.148621222877 1.78497410403 0)
(-0.212575505296 1.65265931953 0)
(-0.235538615475 1.12941086128 0)
(-0.214377624771 1.02562748561 0)
(-0.178037279936 1.02421148294 0)
(-0.130487400099 1.03747750051 0)
(-0.0773154185636 1.04519919444 0)
(-0.0262204521028 0.999608689626 0)
(0.0131600288864 0.907902485157 0)
(0.0411023915577 0.837880055459 0)
(0.0635438544217 0.779220979325 0)
(0.0836280690204 0.72686724346 0)
(0.102361488517 0.681148607434 0)
(0.117406712659 0.639805058225 0)
(0.127784669658 0.599665594091 0)
(0.134860879204 0.56084114382 0)
(0.133647425507 0.520552818649 0)
(0.0243521019813 1.52059518703 0)
(0.0245900123849 1.91630102277 0)
(-0.0201547249915 2.01051828348 0)
(-0.0620367087441 2.02401142645 0)
(-0.110291186472 1.87419909809 0)
(-0.148698193303 1.10446441424 0)
(-0.158408327856 0.96373211621 0)
(-0.141269628691 0.944188741066 0)
(-0.104440919638 0.942906898242 0)
(-0.0610858906434 0.939780900701 0)
(-0.0193931446704 0.908508160863 0)
(0.0151956169878 0.852424275067 0)
(0.0420260933264 0.804435808028 0)
(0.0649935792971 0.761278768826 0)
(0.0862472900194 0.720222050305 0)
(0.10418721747 0.681278005749 0)
(0.117692984684 0.643512570052 0)
(0.128235699279 0.606787354918 0)
(0.129978196997 0.569115513258 0)
(0.116397334464 0.523440215496 0)
(0.0289538354811 1.58622624271 0)
(0.0512430657691 2.00264196607 0)
(0.0433769161184 2.07422340971 0)
(0.0433250106127 2.07793266966 0)
(0.0437066284916 1.95672208014 0)
(-0.0165318576098 1.33830088101 0)
(-0.0885421520478 0.95084051815 0)
(-0.0981294837887 0.892811539209 0)
(-0.0806746014235 0.878374864878 0)
(-0.0473880508623 0.870560498996 0)
(-0.0112651733375 0.846390806677 0)
(0.0198124316467 0.811025932563 0)
(0.045429580411 0.778603496759 0)
(0.0681678120069 0.745929087587 0)
(0.0877041486272 0.712301258784 0)
(0.103498221907 0.678520729949 0)
(0.116279708095 0.645204995801 0)
(0.119394050186 0.611229239889 0)
(0.105257653639 0.570592952192 0)
(0.0855742804433 0.519363299799 0)
(0.0223269751053 1.51777062574 0)
(0.047936498844 1.95859274571 0)
(0.0533140847587 2.0187395432 0)
(0.0572005707886 2.0152652527 0)
(0.0563263739765 1.92807957935 0)
(0.0345217085047 1.61358629755 0)
(-0.00627556012101 1.01293981803 0)
(-0.0377181180493 0.883284770805 0)
(-0.0438868465514 0.835899332811 0)
(-0.0287859464555 0.816531809539 0)
(-0.00359887879964 0.797745388181 0)
(0.0227496132819 0.77653170347 0)
(0.0465223313972 0.753584347588 0)
(0.0669670116794 0.727713454906 0)
(0.0843511697208 0.699907797337 0)
(0.0979623272601 0.671453811058 0)
(0.100261989705 0.64219270613 0)
(0.086229091903 0.60853113993 0)
(0.0680203118141 0.56500241109 0)
(0.0601789700342 0.511126171216 0)
(0.026314995173 1.36272437395 0)
(0.0630327694533 1.84279844035 0)
(0.0817360839925 1.92027445656 0)
(0.0986466518377 1.91948737328 0)
(0.115150227104 1.85856172401 0)
(0.122526614147 1.65220640738 0)
(0.0800227642992 1.2130955865 0)
(0.0217986156892 0.925559460492 0)
(-0.000623529752498 0.827797767014 0)
(-0.00312971074772 0.780941230081 0)
(0.00883768786193 0.758157262559 0)
(0.026622438232 0.74313770093 0)
(0.0452270831028 0.725917604512 0)
(0.0624734301584 0.705717891389 0)
(0.07526693816 0.683978949928 0)
(0.0760486506499 0.661026037719 0)
(0.0632545852602 0.634712811652 0)
(0.0489512983019 0.601603706886 0)
(0.0441198511482 0.555917691465 0)
(0.0476075451527 0.499941179668 0)
(0.0231596248642 1.17734964109 0)
(0.0578888530936 1.68273150914 0)
(0.0796068631265 1.78760503228 0)
(0.0987346013914 1.79737341203 0)
(0.114050303827 1.75584369292 0)
(0.120101937357 1.62254559302 0)
(0.108921577156 1.38768998316 0)
(0.0700172845297 1.04261382894 0)
(0.0312235614017 0.852908985316 0)
(0.0187969080347 0.767880407651 0)
(0.020969514111 0.731964081659 0)
(0.0309571259213 0.715490987049 0)
(0.0436215911908 0.700816648793 0)
(0.0537544551625 0.685236821403 0)
(0.0540281919142 0.66977493757 0)
(0.0437901884884 0.651845423419 0)
(0.0335633997765 0.627851374624 0)
(0.0312375487793 0.593669680048 0)
(0.0354176320627 0.543942499446 0)
(0.0421739541362 0.487109949175 0)
(0.0184176071932 1.03048937693 0)
(0.045772135742 1.53045132297 0)
(0.0642223487039 1.65700713595 0)
(0.082914994366 1.68382921219 0)
(0.0995198821244 1.66705912714 0)
(0.10910878291 1.58710967175 0)
(0.104036020231 1.43204002371 0)
(0.0746444250264 1.19716340487 0)
(0.0414642402498 0.895285860719 0)
(0.0278932792966 0.768931620941 0)
(0.0267121611314 0.71731938902 0)
(0.0310378613345 0.696149877409 0)
(0.0364075059272 0.682071393283 0)
(0.0374496654298 0.670491519253 0)
(0.0316282935458 0.660724327467 0)
(0.024757254861 0.646814228165 0)
(0.0234353465967 0.622427218502 0)
(0.0270469463575 0.583853384846 0)
(0.0330332197012 0.530965736654 0)
(0.0401602502911 0.47548957445 0)
(0.0141608751432 0.937870010364 0)
(0.0333053835386 1.41666371297 0)
(0.0448380738595 1.55070560124 0)
(0.0585256975501 1.58869798883 0)
(0.071991309222 1.5905268539 0)
(0.0810033231561 1.54972894827 0)
(0.0816582062169 1.45271638046 0)
(0.073331626719 1.28857840756 0)
(0.0453522087475 0.996626402636 0)
(0.0227285370018 0.772745812043 0)
(0.0224982700061 0.708308120812 0)
(0.0242477311432 0.683707476488 0)
(0.0255993355773 0.669986556799 0)
(0.0245558357749 0.661664813961 0)
(0.0218421503697 0.656222495567 0)
(0.0209798023484 0.644030063998 0)
(0.0230297523189 0.61643782267 0)
(0.0273109048294 0.573448118124 0)
(0.0334467397717 0.520218448775 0)
(0.0402957976448 0.467563468979 0)
(0.0110047196452 0.890527211644 0)
(0.0234473682574 1.34763057842 0)
(0.0279159101528 1.48054659053 0)
(0.034540967901 1.52433434993 0)
(0.0411483441024 1.5394808945 0)
(0.0450366315622 1.52654243054 0)
(0.0431570454964 1.46522631399 0)
(0.0342812253535 1.3332943077 0)
(0.0208882127353 1.1016526343 0)
(0.0136836751974 0.775774556318 0)
(0.0146558515814 0.702881622728 0)
(0.0166046561693 0.67668691368 0)
(0.0184162042904 0.663366808054 0)
(0.0194414658429 0.656948076826 0)
(0.0201987128893 0.65362187148 0)
(0.0220396331971 0.640560775015 0)
(0.0252813135129 0.610134096286 0)
(0.0299367783602 0.56537393308 0)
(0.0357848227846 0.513950535838 0)
(0.0419410121845 0.464626134684 0)
(0.00925906847118 0.872393447494 0)
(0.0182003916699 1.31213772113 0)
(0.0190687492352 1.4407004699 0)
(0.0220960412133 1.48728013169 0)
(0.0252079310872 1.51265314611 0)
(0.0265293922354 1.51793111744 0)
(0.0250763822693 1.47976733872 0)
(0.021109956378 1.36632057129 0)
(0.0153751997543 1.14254691346 0)
(0.0116660625141 0.780936539881 0)
(0.0119622465792 0.701570814313 0)
(0.0139139188166 0.673758904978 0)
(0.0163081074766 0.660206749414 0)
(0.018516789262 0.653981322809 0)
(0.0210891722349 0.650329326163 0)
(0.0248390436616 0.635916222811 0)
(0.0294166952647 0.60508708586 0)
(0.0343515646746 0.561576265024 0)
(0.0395442746425 0.512842812914 0)
(0.0447654042185 0.467253541657 0)
(0.00815694636613 0.87027902392 0)
(0.0153200103165 1.29480674394 0)
(0.0152764413032 1.41602828152 0)
(0.0180703631759 1.46295348527 0)
(0.0207379149323 1.49781754872 0)
(0.0214518671142 1.51481957546 0)
(0.020431809369 1.48850059213 0)
(0.018610208558 1.38040824754 0)
(0.0179859202175 1.15662312899 0)
(0.0173091776733 0.790871588951 0)
(0.0164506948692 0.705178085876 0)
(0.0173511238981 0.674403786863 0)
(0.019270770878 0.659550157009 0)
(0.0219333531248 0.652137560458 0)
(0.0258141759319 0.646949598514 0)
(0.0307343966762 0.632251521444 0)
(0.0356973273858 0.603095275549 0)
(0.0402320661231 0.56237994296 0)
(0.0444340379321 0.516882092718 0)
(0.0483768366746 0.47578766009 0)
(0.00640826803221 0.884624660924 0)
(0.0107186919716 1.29218727141 0)
(0.00996893441368 1.39857562549 0)
(0.0138994493917 1.44334630653 0)
(0.0178278007071 1.48857649402 0)
(0.0192407419329 1.51573307037 0)
(0.0186035502825 1.49699235073 0)
(0.0174803571028 1.38908449383 0)
(0.0228932335073 1.13911336355 0)
(0.02793663108 0.804795085735 0)
(0.0268707501504 0.714544051102 0)
(0.0269667915878 0.679523105891 0)
(0.0283850089449 0.662389894164 0)
(0.0310785391616 0.653091898388 0)
(0.0350523052181 0.646072140282 0)
(0.0396666466723 0.631739567073 0)
(0.0439141942638 0.604904747979 0)
(0.0474724006152 0.567567812472 0)
(0.0504631530599 0.52614371296 0)
(0.0525581987977 0.490084277264 0)
(0.00400446734842 0.922986631569 0)
(0.00393961173363 1.31006937836 0)
(0.00107616837262 1.38944294318 0)
(0.00554134764399 1.42758091303 0)
(0.0115969277806 1.48077591281 0)
(0.0158333630665 1.51802347666 0)
(0.0179810685552 1.50526471584 0)
(0.0193440432483 1.39729266999 0)
(0.0313213815391 1.08472500965 0)
(0.0426197904475 0.820834679164 0)
(0.0425269019277 0.729701620382 0)
(0.0427325814179 0.690089259503 0)
(0.0437844079736 0.670128094855 0)
(0.0456914236955 0.658703357041 0)
(0.0483342269307 0.649567392931 0)
(0.0513752776602 0.635294067084 0)
(0.0541972984125 0.610660864098 0)
(0.0564492319095 0.577035574606 0)
(0.0578724592871 0.540675386441 0)
(0.0573958223473 0.509050348511 0)
(-8.20040464918e-05 1.00067678821 0)
(-0.00752833264254 1.36107747802 0)
(-0.014862662125 1.39584744567 0)
(-0.0112619312013 1.41758484082 0)
(-0.00233644428133 1.46764653021 0)
(0.00878862605112 1.50781922159 0)
(0.0206367334128 1.49629844198 0)
(0.03556170276 1.37998977861 0)
(0.0516965172148 1.03268451846 0)
(0.0602231660092 0.837546654235 0)
(0.0621767964362 0.749554541203 0)
(0.0636128978765 0.706242300819 0)
(0.0648344555404 0.683731638379 0)
(0.0655426830072 0.670208054538 0)
(0.0658852374673 0.658663367859 0)
(0.0664516641304 0.643592638052 0)
(0.0673149585937 0.620673407246 0)
(0.067873297477 0.590796334821 0)
(0.067271712928 0.559391032871 0)
(0.0639788174479 0.530942846489 0)
(-0.0104086788293 1.17508592666 0)
(-0.0356599986679 1.49397728793 0)
(-0.057758821146 1.45432167112 0)
(-0.0626245232072 1.42064738221 0)
(-0.050556593779 1.43683726476 0)
(-0.0308039744924 1.47598168613 0)
(-0.00764628376113 1.4494318111 0)
(0.0330417566397 1.26753396442 0)
(0.0682974748525 1.00429265859 0)
(0.0787368688427 0.853726330543 0)
(0.0833777992581 0.772477436706 0)
(0.0868678198371 0.727509262838 0)
(0.0892351071778 0.703422700775 0)
(0.0893989781358 0.687808484291 0)
(0.0875902014131 0.673617369525 0)
(0.0854967618615 0.656954025374 0)
(0.083967512218 0.634889134396 0)
(0.0823312980889 0.607851843391 0)
(0.0794613620598 0.579797147205 0)
(0.0740287100465 0.55360311177 0)
(-0.0272263107531 1.51395997978 0)
(-0.0798658010527 1.77020435537 0)
(-0.134829058377 1.66365468336 0)
(-0.149900748908 1.36688564008 0)
(-0.109138738503 1.31463918802 0)
(-0.0528575687655 1.35104683351 0)
(0.00905983262354 1.30884319999 0)
(0.0566806390617 1.13648044837 0)
(0.0809443579497 0.981409011823 0)
(0.0940832624308 0.867598647705 0)
(0.102088446366 0.796129038421 0)
(0.108471984631 0.752508746415 0)
(0.112590215959 0.727904048239 0)
(0.11271458026 0.709963403195 0)
(0.109807936572 0.692841613583 0)
(0.106182962492 0.674026078813 0)
(0.10269857339 0.651567631995 0)
(0.099071287823 0.625617522546 0)
(0.094738481837 0.599100869174 0)
(0.088968042535 0.574385177571 0)
(0.00528158016414 1.75482238917 0)
(0.00345618870918 2.01423535082 0)
(-0.0179705390933 1.89731618599 0)
(-0.0363957279564 1.31962299162 0)
(-0.0326689102836 1.18153132096 0)
(-0.00773445708756 1.19288748705 0)
(0.0280994629631 1.15273620086 0)
(0.0621608840527 1.06332158505 0)
(0.0874961666832 0.960112656876 0)
(0.104285511779 0.876834886956 0)
(0.116614901306 0.817939038389 0)
(0.126551054383 0.779314113579 0)
(0.132107581392 0.754793217963 0)
(0.131932345124 0.734193056651 0)
(0.128757184702 0.714016166381 0)
(0.124833411914 0.692518117559 0)
(0.120481967085 0.668306962356 0)
(0.116048430186 0.641665452629 0)
(0.111943600004 0.615133858988 0)
(0.108027593615 0.590663758299 0)
(0.0206125589962 1.82784425112 0)
(0.0508549921292 2.04450172241 0)
(0.0547066261733 1.99999015478 0)
(0.0354661587603 1.38499591557 0)
(0.0191012495427 1.15191317394 0)
(0.0248465872593 1.1095812335 0)
(0.0470934364253 1.07086067536 0)
(0.0734719259225 1.01005904213 0)
(0.0965285064468 0.943072637776 0)
(0.115171735923 0.884695728808 0)
(0.130713764049 0.839535029629 0)
(0.142147898136 0.807305077533 0)
(0.146632826105 0.782311582247 0)
(0.145490762712 0.759042919594 0)
(0.142369251252 0.735785940417 0)
(0.138482273792 0.711065366678 0)
(0.134052007128 0.683974058787 0)
(0.129985135196 0.655164442368 0)
(0.127489497962 0.627171873152 0)
(0.126656848919 0.601230020788 0)
(0.0490439403225 1.86733394053 0)
(0.102320877203 1.97203648066 0)
(0.104950929347 2.02039051573 0)
(0.0901273587657 1.4874335696 0)
(0.0682363413852 1.18280955114 0)
(0.0608021629253 1.07641458313 0)
(0.0701287581315 1.02561666918 0)
(0.0887616341355 0.981628220345 0)
(0.109646895359 0.937864299751 0)
(0.129167207764 0.897986289162 0)
(0.144488578141 0.864161670565 0)
(0.15249609844 0.835787257561 0)
(0.153817853021 0.809835271534 0)
(0.152011478417 0.784294466242 0)
(0.148980641679 0.757833576747 0)
(0.144969601645 0.729387415365 0)
(0.140474113517 0.698566486956 0)
(0.137218880958 0.666726677973 0)
(0.136664250187 0.63626770935 0)
(0.138199912744 0.607191268149 0)
(0.062488026384 1.8315012915 0)
(0.122247490337 1.90214656295 0)
(0.124362513392 1.96099415 0)
(0.120169700366 1.56876286025 0)
(0.103121192952 1.24272289663 0)
(0.0937890031812 1.08397450983 0)
(0.0971056823581 1.0132742438 0)
(0.110358620728 0.975649575567 0)
(0.127954250953 0.94651263141 0)
(0.142893176745 0.918354182695 0)
(0.151323548566 0.891112260385 0)
(0.154218201826 0.864682137226 0)
(0.153972996627 0.838278629217 0)
(0.151824076775 0.810552855855 0)
(0.14808198346 0.780469331065 0)
(0.14287107669 0.747548299611 0)
(0.13784121539 0.712641619755 0)
(0.135557185261 0.677754009658 0)
(0.135996804811 0.644140942487 0)
(0.1377261481 0.610844207514 0)
(0.0609757785642 1.78398592781 0)
(0.120779081103 1.83754775958 0)
(0.123133640156 1.86711887203 0)
(0.125139329379 1.60539980179 0)
(0.119952477373 1.29939877717 0)
(0.116565519385 1.11241063709 0)
(0.121058869103 1.02511572374 0)
(0.131244203362 0.989592554711 0)
(0.141082846845 0.967434782155 0)
(0.146816856844 0.945286622142 0)
(0.149545228606 0.921816116257 0)
(0.1501758097 0.897072017291 0)
(0.148673686776 0.869865342816 0)
(0.144708483979 0.838643618041 0)
(0.137915101437 0.803295765128 0)
(0.130349727476 0.765501985207 0)
(0.125625917547 0.727166438524 0)
(0.124035207893 0.689296904866 0)
(0.123312415281 0.651940313701 0)
(0.12233377022 0.61393856276 0)
(0.0548366268149 1.76201981285 0)
(0.11189226966 1.78636910735 0)
(0.116399432055 1.80315204731 0)
(0.120233140274 1.61491287551 0)
(0.122859740248 1.34107318038 0)
(0.127001210201 1.1465318279 0)
(0.133847324214 1.05353374663 0)
(0.139409423028 1.01957029739 0)
(0.141079992918 1.00002549084 0)
(0.141153536584 0.981100636068 0)
(0.141092278167 0.960094701227 0)
(0.13950610964 0.93535244746 0)
(0.134433768779 0.904272207319 0)
(0.124872970186 0.866078842794 0)
(0.114349751306 0.824983217599 0)
(0.107580370293 0.783646089634 0)
(0.104453676642 0.742502013492 0)
(0.101656547823 0.701226637622 0)
(0.0970166289724 0.660011270609 0)
(0.0881503398315 0.617036386632 0)
(0.0488149891955 1.7904795227 0)
(0.0995726039053 1.77910582918 0)
(0.102757946449 1.7840956179 0)
(0.10570411516 1.63481522823 0)
(0.112226160537 1.37144648036 0)
(0.12188540269 1.17951040014 0)
(0.128241187533 1.09279865838 0)
(0.128115266997 1.06099148412 0)
(0.124954829481 1.04249568364 0)
(0.122544948839 1.02476281553 0)
(0.119485070278 1.00315759125 0)
(0.112069175173 0.974146733631 0)
(0.0996078024846 0.934896267954 0)
(0.0873587395984 0.889264200471 0)
(0.0803226432017 0.844937682381 0)
(0.0773335137967 0.8011544765 0)
(0.0743876725568 0.756836541504 0)
(0.0683292728378 0.712015800748 0)
(0.0567165526175 0.667613227664 0)
(0.0367867704553 0.622181157865 0)
(0.0519857305468 1.87088966963 0)
(0.104221235706 1.82758360148 0)
(0.0984548519121 1.82422351616 0)
(0.0885959652512 1.69051319143 0)
(0.0891347966521 1.40051423955 0)
(0.0960061652656 1.21074388901 0)
(0.0965899756418 1.13515983177 0)
(0.0914413610978 1.1043623711 0)
(0.0855673247313 1.08441050975 0)
(0.0793391521564 1.06449026954 0)
(0.0699104594889 1.03902337962 0)
(0.0576205381613 1.00341420513 0)
(0.0473276096771 0.95597362522 0)
(0.042515063749 0.90648179305 0)
(0.0414934501624 0.860469138649 0)
(0.0405896775301 0.814051307951 0)
(0.0366343115267 0.766554709131 0)
(0.0270623337609 0.719280771279 0)
(0.0102086536676 0.674224846565 0)
(-0.0133860482915 0.632817148077 0)
(0.0615109759089 1.97417219518 0)
(0.12175972498 1.91993410805 0)
(0.0994956360327 1.95404832706 0)
(0.0632508933775 1.81262117856 0)
(0.0444691054125 1.45389997771 0)
(0.0361681407364 1.25391585182 0)
(0.0259908520393 1.17468388984 0)
(0.0165245001588 1.13622296882 0)
(0.00913268496611 1.11070710825 0)
(0.00253952978428 1.08652141988 0)
(-0.00304311117575 1.05684784593 0)
(-0.0060517546576 1.01644981562 0)
(-0.00561867898457 0.963793443949 0)
(-0.00288928506729 0.913042476375 0)
(-0.000133564733503 0.865793166163 0)
(0.00037581231914 0.817710313033 0)
(-0.003287049627 0.768931446395 0)
(-0.0123202452416 0.721837024262 0)
(-0.026387160401 0.679711663576 0)
(-0.0446290609332 0.64712663059 0)
(0.0772382413106 2.02360832525 0)
(0.139959723754 2.01444514963 0)
(0.0844896713187 2.17526860318 0)
(0.0169531778176 1.99421509328 0)
(-0.0272663308896 1.55007121434 0)
(-0.0607134574739 1.32081063133 0)
(-0.0846910937882 1.2078764403 0)
(-0.0936318536145 1.14453491383 0)
(-0.0916804087879 1.10839738335 0)
(-0.0846574199938 1.079068127 0)
(-0.0749926561368 1.04614317704 0)
(-0.0640665662867 1.00361257867 0)
(-0.0535332793615 0.950706055352 0)
(-0.0444069498988 0.901836006586 0)
(-0.037508073607 0.855874401783 0)
(-0.0338023457674 0.809305569331 0)
(-0.033872169619 0.76281222246 0)
(-0.037659379895 0.719018481372 0)
(-0.0442707505406 0.681621237776 0)
(-0.0540930939983 0.657167954588 0)
(0.0704426346738 1.93045717629 0)
(0.110314089213 2.04004093801 0)
(0.0455835999843 2.37208080714 0)
(-0.00913545004084 2.12456613903 0)
(-0.0563859807946 1.66097565097 0)
(-0.109053518221 1.39902867428 0)
(-0.150800741532 1.23569388822 0)
(-0.167978467159 1.12881735505 0)
(-0.161398698971 1.07160260156 0)
(-0.142525845014 1.03458478747 0)
(-0.120739564918 1.00040322855 0)
(-0.0997543543165 0.960410611035 0)
(-0.0815197597774 0.914608760566 0)
(-0.0669521282307 0.871785867018 0)
(-0.0558768899216 0.83083098907 0)
(-0.0482508546566 0.789494594299 0)
(-0.044057215037 0.748444329464 0)
(-0.0425576446618 0.709924173965 0)
(-0.0425903512182 0.677088887743 0)
(-0.0453391314963 0.65731810157 0)
(0.0607672087357 1.63887931761 0)
(0.104640545985 1.98540566259 0)
(0.104391967908 2.2889897829 0)
(0.118463365813 2.10751591367 0)
(0.0863835844002 1.78942749793 0)
(0.0124459937642 1.56947565024 0)
(-0.0667552163085 1.32992714791 0)
(-0.118285420195 1.13207002706 0)
(-0.136613963496 1.03056291327 0)
(-0.130559044951 0.975873757165 0)
(-0.112743070352 0.938952223592 0)
(-0.0926661506136 0.90316828805 0)
(-0.0740753251994 0.867599225961 0)
(-0.0581222124044 0.832834646601 0)
(-0.0454489482462 0.798647247265 0)
(-0.0362425820338 0.764070065256 0)
(-0.0303098436283 0.729387931 0)
(-0.0267100153204 0.696452327509 0)
(-0.0237967400588 0.667489107932 0)
(-0.0226216713533 0.648825052433 0)
(0.138348353364 0.623144167609 0)
(0.144051181248 0.59722485823 0)
(0.152329407719 0.574361924725 0)
(0.161058316615 0.546374491102 0)
(0.168106356871 0.5120040683 0)
(0.17310016784 0.473758250623 0)
(0.176883600252 0.43354198506 0)
(0.179755298122 0.392342736363 0)
(0.181247102631 0.351350136969 0)
(0.180662392547 0.311918601578 0)
(0.177215773101 0.275602661071 0)
(0.170640276252 0.243587347631 0)
(0.161612524478 0.215080499293 0)
(0.152749638705 0.189060396408 0)
(0.146427982718 0.167569468868 0)
(0.139106665855 0.16662382724 0)
(0.110696564528 0.250735093338 0)
(0.0247828273035 0.421706236088 0)
(-0.0513519101545 -0.0741277744799 0)
(-0.0325580840134 -0.140959004556 0)
(0.116866296886 0.609573819103 0)
(0.127418698717 0.577027211718 0)
(0.14013957743 0.547321320845 0)
(0.154096300759 0.51628911496 0)
(0.167968701201 0.482122167268 0)
(0.180337224647 0.445288332587 0)
(0.191287647076 0.405849976082 0)
(0.201837259392 0.365238952117 0)
(0.212651921443 0.32504644742 0)
(0.223716101473 0.286708998041 0)
(0.234725041775 0.251417123786 0)
(0.245895403358 0.219469640887 0)
(0.261126020646 0.189889226028 0)
(0.284536584525 0.166289721727 0)
(0.315348905577 0.158500147471 0)
(0.317886416138 0.193646210837 0)
(0.250902712428 0.423865000873 0)
(0.0263309618 1.12050118233 0)
(-0.115375314004 -0.159565482112 0)
(-0.042560083918 -0.206436654633 0)
(0.0980927148698 0.586306216858 0)
(0.112665851565 0.550139998384 0)
(0.129293097286 0.515738029614 0)
(0.146664057198 0.480181076409 0)
(0.16411946745 0.442946655456 0)
(0.180802455392 0.404546968428 0)
(0.195896547842 0.365533709028 0)
(0.210086205495 0.324373551759 0)
(0.22431873777 0.282541805419 0)
(0.23809285751 0.241748560966 0)
(0.250338089674 0.202554975245 0)
(0.26500605289 0.163821080451 0)
(0.289127614744 0.128015341256 0)
(0.324103860891 0.105435831673 0)
(0.317964702949 0.118851593817 0)
(0.196147018625 0.425475694666 0)
(0.0158058901861 0.830930576161 0)
(-0.0724730623269 1.41126992406 0)
(-0.0572060812006 -0.248962368563 0)
(-0.0190989865627 -0.300928218767 0)
(0.0895898162983 0.55526720655 0)
(0.105893452972 0.518409859094 0)
(0.123628823515 0.482081351072 0)
(0.142241470916 0.444020742622 0)
(0.160726386752 0.403830977028 0)
(0.177982106193 0.361966050201 0)
(0.193328620985 0.320719061112 0)
(0.207224281983 0.279813972028 0)
(0.22046622318 0.237829380743 0)
(0.231577228294 0.195563534551 0)
(0.241908914872 0.152560611095 0)
(0.260911977083 0.108135441352 0)
(0.295495782702 0.0738322485177 0)
(0.292300397878 0.0661317529374 0)
(0.169090553848 0.349273882394 0)
(0.0244015012937 0.812076936457 0)
(-0.0218637182475 1.14659820995 0)
(-0.0364355629574 1.16340579223 0)
(-0.0372024834412 -0.239649244623 0)
(-0.0118477947485 -0.304189842392 0)
(0.094162014646 0.522758244045 0)
(0.109446349094 0.486750495727 0)
(0.12560287862 0.450332736889 0)
(0.142450711134 0.411420684345 0)
(0.159500968563 0.369639563886 0)
(0.175421553044 0.325595731124 0)
(0.189098067118 0.280530065045 0)
(0.20033046891 0.237263753897 0)
(0.208702610391 0.195976615495 0)
(0.214373135465 0.153469244579 0)
(0.225801223654 0.106807159382 0)
(0.257300948806 0.0611214496836 0)
(0.267710955338 0.0358639618435 0)
(0.179631808776 0.183434821731 0)
(0.0583794105422 0.716426656246 0)
(0.000224568972232 1.01261595031 0)
(-0.0161533690143 1.14561382187 0)