/*--------------------------------*- C++ -*----------------------------------*\
| =========                 |                                                 |
| \\      /  F ield         | OpenFOAM: The Open Source CFD Toolbox           |
|  \\    /   O peration     | Version:  2312                                  |
|   \\  /    A nd           | Website:  www.openfoam.com                      |
|    \\/     M anipulation  |                                                 |
\*---------------------------------------------------------------------------*/
FoamFile
{
    version     2.0;
    format      ascii;
    arch        "LSB;label=32;scalar=64";
    class       volScalarField;
    location    "0.135/water";
    object      epsilon.gas;
}
// * * * * * * * * * * * * * * * * * * * * * * * * * * * * * * * * * * * * * //

dimensions      [0 2 -3 0 0 0 0];

internalField   nonuniform List<scalar> 
1503
(
17.8888412071
2.82685628626
0.526805885235
0.125077948711
0.0397622449445
0.00774343263593
0.00202457993722
0.000916780758945
0.000609659607038
0.000500583336916
0.00045512297663
0.000434064203129
0.000423453098868
0.000417644176547
0.000414198583374
0.000412016925637
0.000410577172713
0.000409611355141
0.000408968808357
0.000408558995906
568.180547478
109.008868901
18.4706994473
3.86211439134
0.728880315642
0.205725658074
0.0453507094038
0.00821800950763
0.00202925024154
0.000897364260066
0.000600548293723
0.000496211074959
0.000452678181007
0.000432503362419
0.000422288326132
0.000416616181029
0.000413175935084
0.000410950775333
0.000409472475771
0.000408508567991
791.366070657
185.630374415
41.7008529039
8.95106590681
2.14401821693
0.494457626711
0.138387304634
0.0307231740736
0.0062696606788
0.00183756526327
0.000893260444216
0.000613196236594
0.000506595104371
0.000459791087416
0.000437370235151
0.000425781464361
0.000419259378215
0.000415261405763
0.000412658590347
0.00041094144464
1007.57041521
250.954645818
62.7119241246
15.3782651136
4.22125001588
0.934287591692
0.249861244926
0.0704463837674
0.0155054552598
0.00367835382278
0.00137751771484
0.000788632614349
0.000584404812756
0.000498427378108
0.000458142800091
0.000437914814177
0.000427048113003
0.000420729533729
0.000416765737209
0.000414171414946
1093.44186306
288.491420742
77.4404894358
20.9922845084
5.43651696249
1.64991632374
0.355268878239
0.109241441246
0.0310575176986
0.00697400387585
0.00212553901859
0.00102927307463
0.000685553356896
0.000547776673749
0.000484360678714
0.00045284291776
0.000436264788657
0.000426974114526
0.000421372315492
0.000417789318435
1062.25262786
298.834125158
86.0669505637
25.172471541
7.21305091414
1.90328580884
0.577963372246
0.130688132716
0.0476701858444
0.0126014467981
0.003292973465
0.00135420335384
0.000811523905279
0.000607261388282
0.000515531997328
0.000470263768468
0.000446630085446
0.000433646965477
0.000426061804003
0.000421347862728
1003.56146885
295.925463668
89.8351103172
27.7240849572
8.49438142163
2.49535595356
0.655999859311
0.191219460165
0.0532943079193
0.020487669854
0.00520724814575
0.00180963822186
0.000968704170307
0.000677482219136
0.000551493079521
0.000490063934663
0.000458110768999
0.00044071128094
0.000430750506748
0.000424719930346
1003.90494221
299.144473467
92.4818986558
29.2725045602
9.35350835558
2.96367118686
0.888142162534
0.25237639323
0.069024948377
0.0260964791112
0.00841911132203
0.00250565809585
0.00117312554657
0.000761080154934
0.00059266231062
0.000512352199024
0.000470831991949
0.000448305419915
0.000435545621497
0.000427962499097
1042.94266828
309.724227992
95.206154991
30.3297329477
9.96935583349
3.35490347287
1.11629144672
0.343562651354
0.11869134359
0.0319689840772
0.0130722588874
0.00373763231068
0.00146723697662
0.000865154567037
0.000640549876814
0.000537601309721
0.00048508729678
0.000456685874999
0.000440661384108
0.00043125770164
1141.46538847
328.951621025
98.6048492553
31.3657634046
10.5611368803
3.72122381779
1.3412049621
0.47477133732
0.156016788129
0.0601064915936
0.0177525932636
0.00614428295537
0.00196643920887
0.00100668427593
0.000698524595967
0.000566770410883
0.000501325675232
0.000466177584558
0.000446388543709
0.000434822551499
1261.10867531
347.831145156
102.833971791
32.9172477813
11.317550622
4.1260761515
1.57981758066
0.619057665613
0.242557614346
0.0945312563377
0.0312837583376
0.00994958011525
0.00298178025445
0.00122685460766
0.000773498380612
0.000601586125687
0.00052021121074
0.000477188855488
0.000453019793109
0.000438886528874
1278.2305649
355.614957694
106.161056939
34.4276315478
12.0847318821
4.54552158406
1.82001257715
0.772228965167
0.342548636423
0.157835833853
0.0739297592605
0.0148635541629
0.00501655854382
0.0016261709972
0.000879543671887
0.000645071558004
0.000542722385142
0.000490197634653
0.000460869375293
0.000443685861365
1278.57625702
357.910860747
107.827115038
35.4217714786
12.6781728722
4.90776736561
2.04356660829
0.919992340356
0.445416577836
0.23749122321
0.117057757953
0.0349937052594
0.00734281350568
0.00240377155846
0.0010432281124
0.000702162072489
0.000570322471491
0.000505802436056
0.000470279606748
0.000449480659677
1283.69383148
359.45642677
108.676416794
35.997305498
13.0663134907
5.17837341099
2.23026453291
1.04707422219
0.541451096708
0.317293821838
0.193088713486
0.0709908789033
0.0102141869461
0.00356351961958
0.0013061257552
0.000780380825809
0.000605075959187
0.000524737792597
0.000481653160356
0.000456594339464
1286.58960846
361.347584775
109.258831031
36.2763907251
13.2832070941
5.35907515512
2.37149364285
1.15098413629
0.622854073493
0.390073696442
0.269128037056
0.125848093589
0.0236372448196
0.00453033317959
0.0017383464263
0.000893101645602
0.000650015870271
0.000547932263077
0.000495494151143
0.000465442583543
1303.75166815
365.565544858
110.365913215
36.6061499773
13.4571279318
5.49375700083
2.47841533144
1.23192913745
0.687439593582
0.45465016146
0.337407401861
0.194060040211
0.052172529938
0.0055397463903
0.00242728254004
0.00106723287469
0.000709745115272
0.000576578523212
0.00051241325464
0.000476516953181
1329.71912357
373.215578225
112.544532422
37.3008669265
13.73194587
5.63233751476
2.56253501667
1.29351410487
0.741421741854
0.509984858645
0.398090045369
0.260646557529
0.087669473925
0.0110518914933
0.00373876868144
0.00136493003266
0.00079242799496
0.00061231122444
0.000533095972731
0.000490323122168
1376.96322318
385.098875365
116.160522104
38.4905695791
14.1375562387
5.77329897172
2.6212876802
1.33564649831
0.78587650532
0.556331114961
0.453356945228
0.325782012301
0.145822053035
0.0307067099086
0.00617607094878
0.00191700102217
0.000912003081474
0.000657193401538
0.000558196422046
0.000507289740551
1433.03112821
400.376138473
120.669918057
39.9778266589
14.6209081625
5.90602668549
2.65106064668
1.3550136047
0.816652237602
0.591888311724
0.49813742473
0.390226607518
0.216305972165
0.0735291803476
0.0109516117885
0.00307718341949
0.00109886726351
0.000714196501102
0.000588242994863
0.000527680000047
1474.81731519
413.504491819
125.635607104
41.8313562196
15.171295161
5.98614645693
2.62790872233
1.34478000387
0.829248713527
0.613377814863
0.523354535175
0.452863878365
0.296775635503
0.113929283087
0.0233570005076
0.00553127659936
0.00141838583299
0.000787488511952
0.00062345052673
0.000551499756678
1459.35365625
422.313374567
131.520607694
43.9079886675
15.5669669497
5.93655872992
2.55736473158
1.32121517234
0.832013740418
0.620366206268
0.531777820314
0.486862334647
0.380502827252
0.195758111535
0.0591421254822
0.00901954809109
0.00200241578809
0.000882777068549
0.000663469141192
0.00057840871431
1483.82604133
441.97135996
139.013744136
45.6539106364
15.7150927304
5.87179248889
2.52979958893
1.32408150918
0.833453832096
0.61784449597
0.526999605889
0.490880494368
0.43228376763
0.285309836545
0.101070609372
0.0142132003737
0.00315896306078
0.00101562722456
0.000707731665808
0.000607658627007
1624.61040134
482.374704253
148.209879374
47.193744245
16.0333471077
6.03929206155
2.62647392831
1.36331988664
0.843164760126
0.616988227644
0.519984583071
0.484780324312
0.449973222321
0.363759429766
0.179683826487
0.0368172018893
0.00469545002077
0.00120694153519
0.000754431906291
0.000637729773597
1867.28916994
535.039552873
158.355769777
49.6361151212
17.0413305341
6.53361629395
2.8497347123
1.44785822327
0.872074061367
0.627615876045
0.521211319832
0.483071319674
0.469194018089
0.415219282532
0.26593709783
0.0758086019508
0.00565077395177
0.00149407995881
0.000801303608904
0.000666028643658
2092.22034358
578.940079507
168.867827251
53.2423701044
18.5393706112
7.18632188287
3.12864617982
1.56076905906
0.919173337398
0.651126863684
0.53317801019
0.490372548528
0.494471412394
0.459225463947
0.350121344617
0.1330709256
0.011350777318
0.00207290871579
0.00085120605716
0.000689041354627
2184.75040224
605.992105674
177.865228106
56.6739211547
19.9311173978
7.78527853294
3.39051022037
1.67439239438
0.973750823989
0.681339523719
0.551508854188
0.50413871363
0.520001733891
0.499399509492
0.398889357936
0.202675222474
0.0351635550476
0.00293988600355
0.000904132822893
0.000702310345578
2232.75355006
622.262485068
184.312712856
59.2260035523
21.0004474817
8.26163466004
3.6060881386
1.77528841715
1.02672606337
0.710891511921
0.570848410897
0.519714993025
0.540581913131
0.53525792229
0.437523145159
0.270299973255
0.0722438829861
0.00441128437164
0.000990863155276
0.000702177624949
2269.74879384
633.152584718
188.381916319
60.9104701258
21.7567425922
8.61735819358
3.77682309337
1.86163609874
1.07318289667
0.736172854886
0.588125944652
0.533647834649
0.557085281932
0.565067072461
0.477621499555
0.33150490192
0.109734111808
0.0122472030978
0.00128519632363
0.000687472332263
2316.94291426
644.14997921
191.784930887
62.2610543421
22.3704723474
8.92129099161
3.930298344
1.93980609992
1.1135417978
0.757674188256
0.603010627743
0.545679201998
0.568500539383
0.589931334521
0.518691590417
0.388706776988
0.167906772356
0.0332231422256
0.00184518527825
0.000657403975635
2343.94960548
653.326228669
194.729410747
63.367290874
22.8955238892
9.19786360554
4.07286571134
2.01104278968
1.14905657666
0.776712546711
0.616272915834
0.556402816868
0.575647818131
0.611724664664
0.563187245628
0.436245897715
0.234110778685
0.0741506921279
0.00349162256644
0.000624619830683
2373.52300974
661.439775293
197.77134728
64.5188476815
23.4366325157
9.46975131731
4.20758932242
2.07712690729
1.18176366164
0.794836687921
0.629125958342
0.566960185126
0.580252639243
0.632985333834
0.617956548321
0.494811094454
0.309919071372
0.105952412896
0.0116393616746
0.000638898852896
2376.93947937
667.179544076
200.574527013
65.7761113855
24.0283731189
9.74471342366
4.33687905509
2.13960636849
1.2129526434
0.812898723005
0.642243295938
0.578116112112
0.585525317505
0.657097028343
0.676426343055
0.568521442325
0.391734202093
0.155438455094
0.0280042290871
0.000790131866394
2402.32945179
672.084117238
202.818632838
66.8905085661
24.5475578978
9.97668396508
4.44356166731
2.19140243867
1.23979187046
0.829794101919
0.655381014192
0.590438335625
0.594538479946
0.680310867602
0.728868907169
0.643370838433
0.472401491714
0.212599411118
0.0504828565072
0.00197010981838
2425.44065446
679.715317406
205.291368898
67.8747728587
24.946220565
10.1417467769
4.51582673483
2.22614835975
1.25910345781
0.843869101882
0.667783369856
0.603751762856
0.607928245108
0.704373514491
0.77292842126
0.717836643337
0.522835174354
0.272365128324
0.0821520878194
0.00827716654302
2462.42441615
688.299321346
207.76137735
68.597057584
25.1637863357
10.2102151997
4.53938913001
2.23704493772
1.26775660781
0.853435957372
0.678341451283
0.616700899338
0.624646460309
0.731410814011
0.81491436164
0.790917468224
0.590753813878
0.338878520332
0.116865060039
0.0216003379236
2492.13111493
697.843004189
210.496458075
69.2594987747
25.2753816981
10.1977771253
4.51261164157
2.22136095482
1.2643510576
0.857445606944
0.685876844198
0.627673156409
0.643054697038
0.76187005954
0.858215352846
0.861612032503
0.684726965606
0.418828195621
0.142606943392
0.0343155694644
2534.92531214
707.706955368
213.273484084
69.899017872
25.3198359707
10.1074738121
4.42864985607
2.17567733088
1.24796798073
0.855207300701
0.688623865758
0.633855458577
0.658944106262
0.791302227703
0.900621105657
0.929599873393
0.792199832469
0.531745971364
0.208661137798
0.0495557919352
2578.47749899
716.925316653
215.803408174
70.5230349303
25.2603810556
9.88500872864
4.26103826298
2.09344516417
1.21768193806
0.845392991141
0.68332344453
0.630463003858
0.663807548827
0.816719922665
0.936194625722
0.983407733621
0.892432419577
0.656927530141
0.30494056704
0.083458842083
0.000408329942163
0.000408240292824
0.000408255919597
0.000408361286842
0.000408557758858
0.000408864026934
0.000409326069062
0.00041004597385
0.000411252061042
0.000413461749074
0.000417853431367
0.000427127381903
0.000447629919922
0.000495393170282
0.000617864553105
0.00100226272631
0.00279312317953
0.0181812448505
0.239624588572
4.1537198478
0.00040794364243
0.000407692437491
0.000407681603127
0.000407875263884
0.000408280994913
0.000408964019
0.000410094965155
0.000412063526071
0.000415720561154
0.000422875194033
0.00043733293319
0.000467263333001
0.000531564531985
0.000681187786315
0.00109202112656
0.00261652850022
0.0112735123707
0.0800475498232
0.754274293186
7.24485426918
0.00040989117535
0.000409372015435
0.000409268477364
0.000409525618762
0.000410176147206
0.000411386274172
0.000413569147792
0.000417618277177
0.000425352896987
0.000440372078939
0.000469841684519
0.000528872227322
0.000653488578237
0.000947905075023
0.00180395263095
0.00522942679559
0.0244850018264
0.158156205362
1.23969740826
8.20510973005
0.000412546523499
0.000411685787911
0.00041143599633
0.000411740104906
0.000412695487286
0.000414644385682
0.000418364463217
0.000425420034787
0.000438791946855
0.000464090941297
0.000512264173441
0.000606756817525
0.000806008878529
0.00128923556599
0.00276792311053
0.00893983792291
0.0425171809262
0.26247887471
1.68511860761
8.20549225348
0.000415536524045
0.000414299572728
0.000413889308577
0.000414272454595
0.000415661200645
0.000418647384349
0.000424462788507
0.000435428157523
0.000455756083523
0.000493186555329
0.00056289912418
0.000698391886053
0.000986898931735
0.00170909003259
0.00402436554984
0.0139528240233
0.0669763301742
0.393094493867
2.03062502975
7.90660414991
0.000418418082651
0.000416800780598
0.000416258759258
0.000416810641822
0.000418829385958
0.000423210491029
0.000431685427006
0.000447355236098
0.000475688122836
0.000526692840153
0.00062037640575
0.000802393502257
0.00119651385459
0.00221827726522
0.00564231470096
0.0206639744872
0.100519850677
0.538372879212
2.25707298382
7.55922833442
0.000421047178018
0.000419052167783
0.000418432260348
0.000419278963158
0.000422158862713
0.000428299927265
0.000439944274064
0.000460970599264
0.000498135730348
0.00056392571919
0.000683932856019
0.000918527174472
0.00143771823465
0.00283605752587
0.00773128521436
0.0296881016366
0.144558079314
0.678542506574
2.37778485883
7.22625041201
0.000423454236767
0.000421065586343
0.000420422901514
0.000421698848755
0.000425669794619
0.000433902986342
0.000449143630226
0.000476045910405
0.000522721653475
0.000604420215758
0.000753252430508
0.00104746182296
0.00171585113399
0.00359181770351
0.0104487681508
0.0417857286722
0.197600152611
0.796589841909
2.42306761037
6.91784879742
0.000425762885503
0.000422932624807
0.000422303821172
0.000424128390599
0.000429392807879
0.000439995358373
0.000459171846154
0.000492364126886
0.000549144246468
0.000647888005484
0.000828363262129
0.00119065427461
0.00203890796327
0.00452691314394
0.0140023133845
0.0576471854767
0.255379339976
0.884638445385
2.42095554629
6.6327860097
0.000428135738597
0.000424773279931
0.000424163570009
0.00042662538916
0.000433342686703
0.00044652832252
0.000469899530635
0.000509716581449
0.000577153677535
0.000694154399045
0.000909530775146
0.00135024058557
0.00241770429317
0.00569591864497
0.0186392039085
0.0775463402147
0.312416882314
0.94349745818
2.39101351362
6.36876504644
0.000430746542584
0.000426716464125
0.000426093708903
0.000429241682665
0.000437519814628
0.000453435983078
0.000481186398269
0.000527897598794
0.000606519459286
0.000743083947691
0.000997127617634
0.00152885577638
0.00286580571504
0.00716646315464
0.0246194290001
0.101067552729
0.363931235198
0.978578685785
2.34535201792
6.12371640728
0.000433780677066
0.000428907077428
0.000428200304049
0.000432037779255
0.000441926642124
0.000460650117503
0.000492887280352
0.00054669074111
0.000636982563376
0.000794477056567
0.00109143470689
0.00172926472198
0.00339884454
0.00901580922462
0.0321630638406
0.127083123956
0.407040501427
0.996189972882
2.29124256569
5.89576379326
0.000437459172817
0.000431531621836
0.000430628956327
0.000435106283629
0.000446587765397
0.000468112816318
0.000504850025404
0.00056584090768
0.0006681839914
0.000847919771651
0.00119232821681
0.00195366449369
0.00403266124047
0.0113214898939
0.0413699179322
0.1539949212
0.440899200625
1.00166957831
2.23307695364
5.68311399334
0.000442073128821
0.000434845401519
0.000433585908103
0.000438587591866
0.000451558992811
0.000475774997485
0.000516896289929
0.000585005417173
0.000699563322673
0.000902577055276
0.00129882499062
0.00220253739053
0.00477969078446
0.0141439978479
0.0521349149286
0.18011557859
0.466106826868
0.998955919047
2.17353775632
5.48404915401
0.000447997781983
0.000439175306544
0.000437333584448
0.000442660038391
0.000456911297859
0.000483570619912
0.000528779301667
0.000603683115617
0.000730233142752
0.000956945746832
0.00140851253648
0.00247304690114
0.00564333120572
0.0175019690701
0.0641017300105
0.204019977006
0.483946263148
0.990790671959
2.11428654111
5.2970124458
0.000455662384064
0.00044488198235
0.000442149409884
0.000447497124539
0.000462685877133
0.000491366960562
0.000540124510149
0.000621136078392
0.000758859443828
0.00100862783554
0.00151698582809
0.0027572195273
0.00661090042812
0.0213449173168
0.0766873190716
0.224747159635
0.495819620218
0.979053659685
2.05639156774
5.12075823543
0.00046548155625
0.000452290479589
0.000448258836125
0.000453204426085
0.000468835292292
0.000498909770488
0.000550378414319
0.000636340968694
0.000783608596524
0.00105423674028
0.00161753311324
0.00304052622862
0.00764722124337
0.0255344856588
0.0891776765743
0.241830842044
0.502970184144
0.965047176027
2.00059884736
4.95450663244
0.000477774588401
0.00046161775629
0.000455771409048
0.000459765837742
0.000475182202175
0.000505798247861
0.000558806648075
0.000648022795211
0.000802238424537
0.00108957535153
0.00170138786948
0.00330179309835
0.00869220763779
0.0298475235983
0.100862459776
0.255214678777
0.50641513102
0.949700641365
1.94749080513
4.7980318441
0.000492701267577
0.000472926376166
0.000464650238911
0.000467030394645
0.000481427947315
0.000511523637242
0.000564577705564
0.000654812474694
0.000812387346403
0.00111017945708
0.00175879085734
0.00351531119403
0.00966579142053
0.0340078425588
0.111162348169
0.265129146789
0.506980418722
0.93370795972
1.89755794476
4.65163113724
0.000510223341158
0.000486116720114
0.000474727542577
0.000474750853423
0.000487219583829
0.000515576528817
0.000566932127243
0.000655519244126
0.000812037725174
0.0011121818882
0.00178082056675
0.00365532302136
0.0104811965633
0.0377400871536
0.119712979787
0.271982250318
0.505360055049
0.917611655342
1.85120538172
4.5159613561
0.0005300853617
0.000500946749237
0.000485750576512
0.000482651698736
0.000492244707431
0.000517581962366
0.000565381889775
0.000649438430327
0.000800026934899
0.00109327071015
0.00176153856465
0.00370189233894
0.0110636116033
0.0408278178742
0.126392363772
0.276280776074
0.502161995117
0.901845947231
1.80871974607
4.39177666321
0.00055177453508
0.00051703438814
0.000497411101181
0.000490474199077
0.000496292210906
0.000517387346535
0.000559846317262
0.000636569243969
0.000776416556679
0.00105340079894
0.00169970095023
0.00364617262284
0.0113680602752
0.0431562538755
0.131299207975
0.278576019644
0.497929929089
0.88675080966
1.77022258443
4.2796346355
0.000574325639133
0.000533753403022
0.000509291073188
0.000497941701061
0.000499222182656
0.00051503813041
0.000550644537342
0.000617637501358
0.000742563327331
0.000994973075654
0.00159935631321
0.00349304220586
0.0113900870103
0.0447280946228
0.13469963979
0.279422261693
0.493144252371
0.872570218506
1.73563387593
4.1796444501
0.00059603146406
0.000550031818396
0.000520728267217
0.000504655250057
0.000500857614448
0.000510647766961
0.000538339284405
0.000593905200183
0.00070085810597
0.000922409322386
0.00146909854393
0.00326014559543
0.011166010414
0.0456521416932
0.136960156046
0.279340374018
0.488210658833
0.859446444608
1.70466044848
4.09130895043
0.000614324419753
0.000564210805217
0.000530702192826
0.000510004552693
0.00050088455198
0.000504246987129
0.000523508827675
0.000566840478201
0.000654226020855
0.000841281913323
0.00132028385496
0.00297388220018
0.0107637623265
0.0461124485322
0.138480124305
0.278784829582
0.483445131762
0.847418715677
1.67681402646
4.01347683197
0.000625921184527
0.000574044955207
0.000537784027207
0.000513130395424
0.000498819498064
0.000495699247795
0.00050654905234
0.000537760812485
0.000605539320146
0.00075727544359
0.00116483979132
0.00266390915316
0.010268187247
0.0463281111333
0.139632240924
0.278116274418
0.479062017143
0.836429494348
1.65145421114
3.94439616965
0.000627281354476
0.000576864157566
0.000540152693322
0.000512917186133
0.00049403663295
0.000484723355327
0.000487596526189
0.000507574433812
0.000557108561035
0.000675264403835
0.00101332232557
0.00235795090432
0.00976542675307
0.0465129083569
0.140717032068
0.277584251478
0.475170688575
0.82633957738
1.62784897353
3.8818541363
0.000615337151827
0.00057000730399
0.000535785252419
0.000508061686119
0.000485846379069
0.000471021882701
0.000466628369192
0.0004767357694
0.000510409114174
0.000598727998252
0.000873681846057
0.00207825683242
0.0093301924346
0.0468423039423
0.141936568804
0.277324868019
0.471784959849
0.816952635545
1.60524444833
3.82338150335
0.000588390674224
0.0005515386727
0.000522912700916
0.000497302273453
0.000473628713869
0.000454455653655
0.000443696564326
0.000445440525617
0.000466126434339
0.000529599903814
0.000750867840691
0.00184015552267
0.00901792095944
0.0474328886052
0.14338976359
0.277374775777
0.468845736309
0.808047970765
1.58293457513
3.76648020511
0.00054694053393
0.000520956913416
0.000500603636663
0.000479783908408
0.000456998451219
0.000435162194124
0.000419145096688
0.000413935837822
0.000424460305693
0.000468504789215
0.000647095157828
0.00165223969869
0.0088617105151
0.0483355015294
0.145085894226
0.277696678471
0.466251232587
0.799415311118
1.56031811127
3.70881380647
0.000493754910925
0.000479537782548
0.000469198115623
0.000455415344449
0.000435963213777
0.000413564048005
0.000393666505892
0.000382748436492
0.000385505665804
0.000415223663305
0.000562460919927
0.00151725896409
0.00887243407342
0.0495390714007
0.146967781932
0.278207217492
0.463885131835
0.790882435747
1.53693311193
3.64831229123
0.000433483538933
0.000430166692555
0.000430396384832
0.000425068352235
0.000411043406651
0.000390310404881
0.000368184316681
0.000352710947148
0.00034951901758
0.000369185032865
0.000495625847695
0.00143293432364
0.00903988105026
0.050979841584
0.14893499323
0.278798660209
0.461634238735
0.782328020575
1.51246709005
3.58319014485
0.000373033089738
0.000376727169092
0.000386974521119
0.000390542807564
0.000383327664903
0.00036623346673
0.000343668828935
0.000324810868397
0.000316981558846
0.000329810261233
0.000444356229009
0.001392370512
0.00933326286941
0.0525516105827
0.150861384476
0.279351164299
0.459393452563
0.773678968217
1.48675236461
3.51193615461
0.000323631698194
0.000323310613434
0.00034226449644
0.000354325345831
0.000354444622491
0.000342359032417
0.000321011843245
0.000299979469174
0.000288493655781
0.000296641174669
0.000405829459455
0.00138417450019
0.00970114052685
0.0541163687448
0.152607702919
0.279739158253
0.457063312649
0.764899184572
1.45976223863
3.43336477699
0.000330204781966
0.000273588236489
0.000299609496142
0.000319238286831
0.000326445598219
0.000319943212124
0.000301013156804
0.000278934598746
0.000264599517793
0.000269294195268
0.000376758280606
0.00139271795244
0.0100733646945
0.0555186882283
0.154034947114
0.279839674825
0.454549959321
0.755981562449
1.43162154235
3.34678959357
0.000776421612278
0.000230458197007
0.000261924013597
0.000288066991151
0.000301602394534
0.000300468197864
0.000284439644237
0.0002621237081
0.00024563236134
0.000247354273474
0.000353540743687
0.0013993092003
0.0103687618707
0.056607727311
0.155023948529
0.27954883617
0.451774791389
0.746950136765
1.40263066716
3.25229384147
0.0033836673679
0.000196468141794
0.000231439708604
0.000263246172599
0.00028215595707
0.000285556259009
0.000272083999267
0.00024975049902
0.000231629725918
0.000230320927609
0.000332678119314
0.00138511754772
0.0105100899657
0.0572664421811
0.155501035407
0.278805801967
0.448692869942
0.737868670277
1.37328863404
3.15116558861
0.0118469760887
0.000183744046169
0.000209613915785
)
;

boundaryField
{
    emptyPatch
    {
        type            empty;
    }
    minY
    {
        type            fixedValue;
        value           uniform 4.5592e-05;
    }
    maxY
    {
        type            inletOutlet;
        inletValue      nonuniform List<scalar> 0();
        value           nonuniform List<scalar> 0();
    }
    water_to_cooler
    {
        type            epsilonWallFunction;
        blending        stepwise;
        value           nonuniform List<scalar> 
37
(
11.707906176
29.7425062863
43.389015642
51.5408815974
55.6202126072
57.2837503092
57.5779510883
57.0763194492
56.1031233585
54.8567657942
53.4628324551
52.001408748
50.5234333807
49.0612753606
47.6359582772
46.2622532126
44.952053786
43.7161329614
42.5644353603
41.5052731958
40.5439818829
39.6816306044
38.9142522721
38.2328114353
37.6238842784
37.0708865554
36.5556558067
36.0601671414
35.5680954646
35.0659228201
34.5434346295
33.9937179088
33.4130156333
32.8008349357
32.1604765689
31.4997113461
30.8304018106
)
;
    }
    water_to_heater
    {
        type            epsilonWallFunction;
        blending        stepwise;
        value           nonuniform List<scalar> 
61
(
22.790785849
1130.92400433
1130.92400433
1866.57511244
1866.57511244
2531.91465553
2531.91465553
2884.01859277
2901.0750801
2806.37231801
2806.37231801
2834.11737975
2834.11737975
2970.29488573
2970.29488573
3249.23418564
3491.89586716
3526.710303
3526.710303
3522.17572647
3522.17572647
3512.57736069
3512.57736069
3521.75474064
3549.94453154
3618.76143868
3618.76143868
3727.47174712
3727.47174712
3877.97946589
3877.97946589
3987.29918401
4012.22821
4218.8176747
4218.8176747
4769.68805641
4769.68805641
5548.75223405
5548.75223405
6141.71427204
6419.27037115
6558.81095193
6558.81095193
6667.06928396
6667.06928396
6768.80603895
6768.80603895
6866.70771739
6921.29929527
6950.55919421
6950.55919421
6967.23788234
6967.23788234
7030.92871494
7030.92871494
7096.35253183
7185.05909252
7264.07640043
7264.07640043
7330.89739028
7330.89739028
)
;
    }
    procBoundary2to3
    {
        type            processor;
        value           nonuniform List<scalar> 
41
(
2584.40773213
719.70865366
217.959924097
71.5251001984
25.1687374056
9.53198545261
4.02783078892
1.99086068369
1.1804368136
0.82804669152
0.667254970192
0.613110808661
0.649387227843
0.821563222877
0.952715971829
1.01789712301
0.965649796897
0.767851786766
0.440966418918
0.135163939829
0.000246634150016
0.000270058429411
0.000276807315597
0.000264775907989
0.000241847282332
0.000222329958212
0.000217654223653
0.000311510662593
0.00133578810056
0.010442955816
0.0574414887296
0.155464082317
0.277623160444
0.445339157496
0.728928390511
1.34440392891
3.04458893673
0.0259350510999
0.000355932148347
0.000246634150016
0.000197187445535
)
;
    }
}


// ************************************************************************* //
