/*--------------------------------*- C++ -*----------------------------------*\
| =========                 |                                                 |
| \\      /  F ield         | OpenFOAM: The Open Source CFD Toolbox           |
|  \\    /   O peration     | Version:  2312                                  |
|   \\  /    A nd           | Website:  www.openfoam.com                      |
|    \\/     M anipulation  |                                                 |
\*---------------------------------------------------------------------------*/
FoamFile
{
    version     2.0;
    format      ascii;
    arch        "LSB;label=32;scalar=64";
    class       volScalarField;
    location    "0.135/water";
    object      rhom;
}
// * * * * * * * * * * * * * * * * * * * * * * * * * * * * * * * * * * * * * //

dimensions      [1 -3 0 0 0 0 0];

internalField   nonuniform List<scalar> 
1503
(
912.757170529
948.11786567
985.529792711
996.419038082
999.334018424
999.89853941
999.987375
999.99906663
999.999979107
999.999999802
999.999999999
1000
1000
1000
1000
1000
1000
1000
1000
1000
693.686012429
869.327514198
946.150590801
981.841820275
994.336754018
998.510036935
999.667391845
999.941123236
999.993989627
999.99985839
999.999999481
999.999999999
1000
1000
1000
1000
1000
1000
1000
1000
693.682781954
826.913496918
914.679107332
963.780571973
986.204252129
995.457060216
998.741800209
999.717205839
999.957252094
999.997649042
999.999987109
999.999999982
1000
1000
1000
1000
1000
1000
1000
1000
693.683923052
788.254293677
875.835353646
936.578580047
971.588305492
989.146575539
996.558460194
999.115646812
999.834487344
999.984403975
999.999761258
999.999999718
1000
1000
1000
1000
1000
1000
1000
1000
700.690178914
765.360779445
836.556167071
899.728788992
946.477881515
976.048203954
991.339249017
997.546724678
999.486307009
999.936407241
999.997689442
999.999995462
999.999999997
1000
1000
1000
1000
1000
1000
1000
715.161727415
758.284285002
807.497289991
861.25631747
912.03433447
952.907994202
979.754284606
993.398003952
998.467662917
999.779763509
999.98700253
999.999918299
999.999999961
1000
1000
1000
1000
1000
1000
1000
728.447864504
758.76312626
790.498432702
830.254782482
876.360807261
922.071882772
959.516307354
983.88896675
995.542665953
999.24905169
999.940757633
999.998960848
999.999999464
1000
1000
1000
1000
1000
1000
1000
731.941798885
757.668417097
781.354571018
810.209315294
848.105582644
891.09738424
932.969750287
967.002521774
988.409579003
997.522545322
999.742135534
999.99134405
999.999984494
999.999999997
1000
1000
1000
1000
1000
1000
731.735950198
753.936446341
772.495631532
795.810398467
827.150250321
864.79885705
905.248966547
943.807513302
974.71970515
992.745349867
998.942788489
999.942184776
999.999407337
999.999999905
1000
1000
1000
1000
1000
1000
723.329413824
746.32544415
763.62523443
783.743428515
810.355791828
843.264309273
879.84823747
917.975378077
954.252278196
982.296850341
996.244646346
999.668617856
999.991661827
999.999993628
999.999999999
1000
1000
1000
1000
1000
706.771989507
739.319424146
756.425715575
772.811297185
795.328917854
824.576713739
857.762381104
893.195403663
929.782766247
964.609665507
989.074511228
998.441107166
999.925245214
999.999320851
999.999999955
1000
1000
1000
1000
1000
705.026409352
738.371776072
752.70107948
764.853194529
782.962245169
808.644287233
839.085263238
871.354559367
905.125378554
941.044461866
974.539680661
994.256960513
999.507783177
999.988960298
999.999984821
999.999999999
1000
1000
1000
1000
706.615674507
739.004739435
753.125504033
764.265821548
779.121900711
799.938786507
825.889237469
854.157223533
883.421542787
915.619186356
952.417040576
983.985599752
997.713705337
999.903866544
999.99928486
999.999999852
1000
1000
1000
1000
704.538647903
741.415528018
753.118809257
764.761935044
779.960725343
799.94153687
820.903900136
843.384865457
866.546638862
892.562299151
926.820025949
966.378214808
992.598045544
999.467701696
999.99160935
999.999989035
999.999999998
1000
1000
1000
706.58887023
745.467179628
754.176292962
766.724056524
783.146182818
802.726225039
821.943235687
838.666157033
854.993190141
874.483049996
903.682614626
945.144557705
982.976565589
998.089903564
999.948882046
999.999805606
999.999999914
1000
1000
1000
704.719405962
750.933769041
758.101374945
771.658668567
789.739978011
809.263694227
825.383292405
836.976482628
847.41531035
861.724596785
886.411493865
925.965372967
970.492712389
995.254586241
999.803674458
999.998564568
999.999998729
999.999999999
1000
1000
706.658499229
756.874131341
765.901679946
780.357440544
798.864349664
817.068408906
829.024796917
835.614471868
841.835222596
852.817176486
874.199886306
910.737995522
957.69194298
990.948695162
999.448605838
999.993420962
999.999989785
999.999999994
1000
1000
705.789025652
762.231367996
775.855745024
790.8475367
807.267297254
821.58054786
829.503855941
832.982020548
836.476658336
845.413486379
864.064787573
897.277806788
944.604339465
984.951499058
998.691653393
999.975182021
999.999934126
999.999999963
1000
1000
706.846719262
765.31278432
779.339910237
794.459765445
809.031344046
821.249733525
827.11133222
827.859862005
829.948165712
837.713877619
853.77373327
882.730020708
928.739313963
975.697998188
996.955349044
999.905215299
999.999482816
999.999999762
1000
1000
707.476182762
765.955963232
777.952487336
791.89062727
805.496401713
815.810540437
819.68154225
820.724066394
824.059903084
831.547335511
843.915775574
866.159750049
907.169999446
959.747181531
992.602447966
999.613336739
999.995883509
999.99999947
1000
1000
715.028039005
764.788498062
769.782259873
779.160535962
791.464271354
802.636052251
809.531714468
815.12341527
823.064153137
831.31014421
837.31446681
848.488796781
878.773454266
933.299771832
982.143326885
998.461179052
999.970334496
999.999956417
1000
1000
719.643373877
754.758878317
751.359476123
755.134102531
768.486366184
786.350162417
800.954245015
812.895329868
824.101684162
833.175119899
837.256669022
837.690252526
852.941207892
899.173841644
961.387928209
994.561750749
999.81253647
999.999030857
1000
1000
713.953363988
733.476829899
727.666029853
730.743827946
747.747942198
772.704653708
794.548778299
812.272986863
827.163365695
837.855290341
838.854319506
837.71700101
840.10226401
868.448673876
930.921830843
984.510554082
999.07893159
999.990506413
999.999999923
1000
700.355062409
712.376142351
707.667436374
714.192503177
734.00431526
762.402875243
789.172673484
811.999861982
831.417413134
844.791880368
844.280919223
839.488148581
834.307499
847.331480622
897.578104151
966.062626855
996.728524887
999.94323931
999.99994245
1000
686.100251323
701.953637292
699.263674738
705.63153372
724.800067929
754.69261316
785.164548845
812.292679754
836.125557923
851.588009318
851.367867328
844.18434394
831.535715489
828.153923571
865.824997836
941.534991124
991.524315244
999.761387077
999.999140841
999.999999997
684.430669492
699.179285173
699.220658717
701.79619095
718.786997253
749.80333271
783.53532587
814.146561355
841.218157518
854.772294526
854.985169452
848.710154707
827.040832785
815.156883333
841.960251756
915.80046266
982.652375386
999.212201081
999.994214392
999.999999855
683.172387165
699.061282388
699.116930559
700.652045973
716.508188157
748.279211947
783.839401465
817.742071552
846.184300051
855.04149532
855.058977574
850.908067767
821.945252258
814.984568672
828.499024652
892.565686732
969.962303439
997.815896652
999.97054412
999.999963805
684.303600393
699.279530341
699.225003443
700.974718753
716.91366615
748.951732445
786.137651405
822.329431973
849.949448414
855.05893116
855.223213124
852.626300975
822.397100665
815.156825321
821.529268734
874.391439614
954.373701425
994.745825964
999.870349395
999.999427718
682.073313739
700.128539059
699.223333365
701.483755101
718.435959902
751.541894825
790.270424637
826.734945026
852.219454919
855.180188196
855.05893085
854.585681224
825.430951881
815.035145314
818.102998323
861.021177374
937.031194519
988.840013326
999.504393219
999.995665277
684.303546566
701.510014967
699.348903288
702.082221655
720.838050586
755.393678491
794.525900706
830.045478144
853.384829656
855.058883111
855.378252338
855.068089319
831.583214794
815.156767841
816.490979471
850.656772716
918.557717301
978.944944
998.439818192
999.977787576
681.66055462
703.702021039
699.360721287
703.089908407
723.42420709
758.909035836
797.821499906
832.178767247
853.92055101
855.231199389
855.068052948
855.402798599
838.77899188
816.072328086
815.04498753
840.284793958
898.311782942
964.772077087
996.126106581
999.92033923
684.303411967
706.581842593
700.226498811
705.314500456
726.281754302
761.806478731
800.222402444
833.434430924
854.103981468
855.068004312
855.402761358
855.09020303
845.976495489
819.753645449
808.098103985
826.827248707
876.910496409
948.091714085
992.364054616
999.784760686
681.725363148
710.437505618
704.100121209
709.703205548
730.341639242
765.125313267
802.506859495
834.3178882
854.12177932
855.24609033
855.090165445
855.469553189
850.748625376
820.155162421
806.1065749
812.533862834
856.916788563
931.668529854
987.295997442
999.507226832
684.303404216
715.240680987
708.621494899
715.09448573
735.779172587
769.584269034
805.289322438
835.22265502
854.09143175
855.09011696
855.451875129
855.11316053
852.138072011
818.158564106
806.338559279
806.144186105
841.672122584
916.62189823
980.848940544
998.951225316
682.323348699
720.746572928
713.230093427
720.926408025
742.582164436
775.560864128
808.991214735
836.434874282
854.00222738
855.253750647
855.113122175
855.459371518
851.539050104
815.118546205
805.852454724
806.338528461
833.130556821
902.940224969
972.441387028
997.823632518
684.303485423
726.693600496
719.082388757
727.925391173
750.808292837
782.938206815
813.610478012
838.008159908
853.762217617
855.113073805
855.437693311
855.166025764
850.176704016
811.765844565
806.338493754
806.048403511
826.263494154
888.214171247
960.995003622
995.607077037
683.337469877
733.704795073
727.571157692
737.299550509
760.504517451
790.98111177
818.574649455
839.639730396
853.05203924
855.249179761
855.165985708
855.4532806
847.491222728
807.398744925
805.65378276
806.338458729
812.445032804
868.441538068
945.40997935
991.564649316
684.430341956
741.688497881
738.772975826
749.15808235
771.361598446
799.068568183
823.487868671
841.07535427
851.463128606
854.945995552
855.30516081
855.227850404
843.793261806
805.986770059
806.338421517
805.637907571
806.33842129
846.709114024
923.157586236
984.048262765
1000
1000
1000
1000
1000
1000
1000
1000
1000
1000
1000
1000
1000
1000
1000
1000
1000
1000
1000
1000
1000
1000
1000
1000
1000
1000
1000
1000
1000
1000
1000
1000
1000
1000
1000
1000
1000
1000
1000
1000
1000
1000
1000
1000
1000
1000
1000
1000
1000
1000
1000
1000
1000
1000
1000
1000
1000
1000
1000
1000
1000
1000
1000
1000
1000
1000
1000
1000
1000
1000
1000
1000
1000
1000
1000
1000
1000
1000
1000
1000
1000
1000
1000
1000
1000
1000
1000
1000
1000
1000
1000
1000
1000
1000
1000
1000
1000
1000
1000
1000
1000
1000
1000
1000
1000
1000
1000
1000
1000
1000
1000
1000
1000
1000
1000
1000
1000
1000
1000
1000
1000
1000
1000
1000
1000
1000
1000
1000
1000
1000
1000
1000
1000
1000
1000
1000
1000
1000
1000
1000
1000
1000
1000
1000
1000
1000
1000
1000
1000
1000
1000
1000
1000
1000
1000
1000
1000
1000
1000
1000
1000
1000
1000
1000
1000
1000
1000
1000
1000
1000
1000
1000
1000
1000
1000
1000
1000
1000
1000
1000
1000
1000
1000
1000
1000
1000
1000
1000
1000
1000
1000
1000
1000
1000
1000
1000
1000
1000
1000
1000
1000
1000
1000
1000
1000
1000
1000
1000
1000
1000
1000
1000
1000
1000
1000
1000
1000
1000
1000
1000
1000
1000
1000
1000
1000
1000
1000
1000
1000
1000
1000
1000
1000
1000
1000
1000
1000
1000
1000
1000
1000
1000
1000
1000
1000
1000
1000
1000
1000
1000
1000
1000
1000
1000
1000
1000
1000
1000
1000
1000
1000
1000
1000
1000
1000
1000
1000
1000
1000
1000
1000
1000
1000
1000
1000
1000
1000
1000
1000
1000
1000
1000
1000
1000
1000
1000
1000
1000
1000
1000
1000
1000
1000
1000
1000
1000
1000
1000
1000
1000
1000
1000
1000
1000
1000
1000
1000
1000
1000
1000
1000
1000
1000
1000
1000
1000
1000
1000
1000
1000
1000
1000
1000
1000
1000
1000
1000
1000
1000
1000
1000
1000
1000
1000
1000
1000
1000
1000
1000
1000
1000
1000
1000
1000
1000
1000
1000
1000
1000
1000
1000
1000
1000
1000
1000
1000
1000
1000
1000
1000
1000
1000
1000
1000
1000
1000
1000
1000
1000
1000
1000
1000
1000
1000
1000
1000
1000
1000
1000
1000
1000
1000
1000
1000
1000
1000
1000
1000
1000
1000
1000
1000
1000
1000
1000
1000
1000
1000
1000
1000
1000
1000
1000
1000
1000
1000
1000
1000
1000
1000
1000
1000
1000
1000
1000
1000
1000
1000
1000
1000
1000
1000
1000
1000
1000
1000
1000
1000
1000
1000
1000
1000
1000
1000
1000
1000
1000
1000
1000
1000
1000
1000
1000
1000
1000
1000
1000
1000
1000
1000
1000
1000
1000
1000
1000
1000
1000
1000
1000
1000
1000
1000
1000
1000
1000
1000
1000
1000
1000
1000
1000
1000
1000
1000
1000
1000
1000
1000
1000
1000
1000
1000
1000
1000
1000
1000
1000
1000
1000
1000
1000
1000
1000
1000
1000
1000
1000
1000
1000
1000
1000
1000
1000
1000
1000
1000
1000
1000
1000
1000
1000
1000
1000
1000
1000
1000
1000
1000
1000
1000
1000
1000
1000
1000
1000
1000
1000
1000
1000
1000
1000
1000
1000
1000
1000
1000
1000
1000
1000
1000
999.999999988
1000
1000
1000
1000
1000
1000
1000
1000
1000
1000
1000
1000
1000
1000
1000
1000
1000
1000
1000
999.999999415
1000
1000
1000
1000
1000
1000
1000
1000
1000
1000
1000
1000
1000
1000
1000
1000
1000
1000
1000
999.999988052
1000
1000
1000
1000
1000
1000
1000
1000
1000
1000
1000
1000
1000
1000
1000
1000
1000
1000
1000
999.99990864
1000
1000
1000
1000
1000
1000
1000
1000
1000
1000
1000
1000
1000
1000
1000
1000
1000
1000
1000
999.999569606
1000
1000
1000
1000
1000
1000
1000
1000
1000
1000
1000
1000
1000
1000
1000
1000
1000
1000
1000
999.998356512
1000
1000
1000
1000
1000
1000
1000
1000
1000
1000
1000
1000
1000
1000
1000
1000
1000
1000
1000
999.994031578
1000
1000
1000
1000
1000
1000
1000
1000
1000
1000
1000
1000
1000
1000
1000
1000
1000
1000
1000
999.978621027
1000
1000
1000
1000
1000
1000
1000
1000
1000
1000
1000
1000
1000
1000
1000
1000
1000
1000
1000
999.929055946
1000
1000
1000
1000
1000
1000
1000
1000
1000
1000
1000
1000
1000
1000
1000
1000
1000
1000
1000
999.787211958
999.999991111
1000
1000
1000
1000
1000
1000
1000
1000
1000
1000
1000
1000
1000
1000
1000
1000
1000
1000
999.386302806
999.999583856
1000
)
;

boundaryField
{
    emptyPatch
    {
        type            empty;
    }
    minY
    {
        type            calculated;
        value           uniform 1000;
    }
    maxY
    {
        type            calculated;
        value           nonuniform List<scalar> 0();
    }
    water_to_cooler
    {
        type            calculated;
        value           nonuniform List<scalar> 
37
(
1000
1000
1000
1000
1000
1000
1000
1000
1000
1000
1000
1000
1000
1000
1000
1000
1000
1000
1000
1000
1000
1000
1000
1000
1000
1000
1000
1000
1000
1000
1000
1000
1000
1000
1000
1000
1000
)
;
    }
    water_to_heater
    {
        type            calculated;
        value           nonuniform List<scalar> 
61
(
912.697423496
693.517742024
693.517776355
693.517532156
693.517535545
693.517733488
693.517729828
700.525194921
715.000744064
728.290838766
728.290832819
731.785224123
731.785219277
731.578929544
731.578925136
723.169197411
706.605246075
704.859534998
704.859531366
706.449942079
706.449938439
704.371912081
704.371908202
706.423362609
704.55292642
706.493015677
706.493011798
705.622854947
705.622850955
706.680846614
706.680842257
707.310102849
714.864468694
719.481228445
719.481224061
713.788815227
713.788810775
700.18600487
700.186000238
685.926674085
684.257353572
682.998700327
682.998695667
684.130599245
684.130594779
681.899153798
681.899149526
684.130561437
681.486251549
684.130531243
684.13052691
681.551155766
681.551151515
684.130495043
684.130490782
682.149353257
684.13045897
683.163859243
683.163855704
684.257148185
684.257145239
)
;
    }
    procBoundary2to3
    {
        type            processor;
        value           nonuniform List<scalar> 
41
(
685.235306841
747.790376724
746.65938762
757.572005076
779.901453634
806.383427574
828.247492163
841.950730782
848.797204391
851.500355168
853.417524564
855.287890228
843.146509686
806.338382304
805.343466527
806.338381641
805.784151332
816.376034549
891.203477912
970.573610393
999.999999998
1000
1000
1000
1000
1000
1000
1000
1000
1000
1000
1000
1000
1000
1000
1000
1000
998.222830934
999.995843142
999.999999998
1000
)
;
    }
}


// ************************************************************************* //
