/*--------------------------------*- C++ -*----------------------------------*\
| =========                 |                                                 |
| \\      /  F ield         | OpenFOAM: The Open Source CFD Toolbox           |
|  \\    /   O peration     | Version:  2312                                  |
|   \\  /    A nd           | Website:  www.openfoam.com                      |
|    \\/     M anipulation  |                                                 |
\*---------------------------------------------------------------------------*/
FoamFile
{
    version     2.0;
    format      ascii;
    arch        "LSB;label=32;scalar=64";
    class       volVectorField;
    location    "0.345/water";
    object      U.gas;
}
// * * * * * * * * * * * * * * * * * * * * * * * * * * * * * * * * * * * * * //

dimensions      [0 1 -1 0 0 0 0];

internalField   nonuniform List<vector> 
1503
(
(0.0642468241998 0.324818395508 0)
(0.108989116542 0.207040483865 0)
(0.10366418176 0.180917708762 0)
(0.113562470349 0.162813699506 0)
(0.111655848399 0.156780788653 0)
(0.112341546506 0.152481934139 0)
(0.101592032335 0.150013576129 0)
(0.0830797945578 0.156604773678 0)
(0.0733229908071 0.242730350917 0)
(0.0667574566182 0.28319518445 0)
(0.0563224262415 0.286251646205 0)
(0.0479838147202 0.287381996197 0)
(0.0398628720755 0.288469671407 0)
(0.0321172829439 0.289452861968 0)
(0.0247145576091 0.290306925692 0)
(0.0176797900469 0.290997808092 0)
(0.011060607041 0.291499660103 0)
(0.00491768780301 0.291801958853 0)
(-0.000675596460682 0.291912513151 0)
(-0.0056366808671 0.29185917471 0)
(0.0269292870346 0.669313480491 0)
(0.0726634142914 0.466527997301 0)
(0.091032810538 0.407472329164 0)
(0.0968591734007 0.372387045826 0)
(0.103342701598 0.356894186184 0)
(0.104252146302 0.347807179772 0)
(0.102539920379 0.342828706971 0)
(0.0943671255548 0.35027557278 0)
(0.0656635325658 0.465301170038 0)
(0.0290608596882 0.524112677088 0)
(0.0137893358808 0.524740806869 0)
(0.0110827753595 0.524658431871 0)
(0.00900856155532 0.524695173007 0)
(0.00716949221336 0.524746526294 0)
(0.0054972688619 0.524782938799 0)
(0.00395993061824 0.524774881141 0)
(0.00254702107555 0.524698349648 0)
(0.00125313915817 0.524539750703 0)
(7.21098437127e-05 0.524299902034 0)
(-0.000997164107194 0.523998164378 0)
(0.0305211833557 0.763615147288 0)
(0.0691372063442 0.575839362543 0)
(0.0795171923224 0.495664100457 0)
(0.0849287937142 0.455100830772 0)
(0.0893783623063 0.432623159847 0)
(0.0911335363554 0.419874780515 0)
(0.0910111857932 0.412457365515 0)
(0.0876215331836 0.411494617539 0)
(0.0737079430617 0.452726629495 0)
(0.0383678411231 0.486323204566 0)
(0.0100309332465 0.486219553486 0)
(0.00549509453428 0.484268583617 0)
(0.00456584633233 0.482567633052 0)
(0.00364442591347 0.481042774111 0)
(0.00273797117951 0.479664503926 0)
(0.00181651933211 0.478438355427 0)
(0.000864700324776 0.477376546062 0)
(-0.000113990572097 0.476487166829 0)
(-0.00110275455436 0.475772023797 0)
(-0.00206372168601 0.475229678772 0)
(0.0417221689181 0.872625272162 0)
(0.086275826614 0.679318433029 0)
(0.0897260221603 0.571230232506 0)
(0.0908425845322 0.51713311092 0)
(0.0906322440548 0.486935874921 0)
(0.0887259044553 0.468371845289 0)
(0.0859700674916 0.456449921304 0)
(0.0819850371611 0.450463892879 0)
(0.0745027832345 0.466190726296 0)
(0.0498251427293 0.4887510509 0)
(0.0156381059256 0.494103206179 0)
(0.000719964946558 0.492626327824 0)
(0.000234582007911 0.491442551583 0)
(-7.02574537475e-05 0.49037965028 0)
(-0.00043498561698 0.489363970058 0)
(-0.000843175166449 0.488387591007 0)
(-0.0013098588325 0.487467752303 0)
(-0.00184393800384 0.486629457805 0)
(-0.00243717847233 0.485897027991 0)
(-0.00304957882892 0.485292587525 0)
(0.0488936615905 0.924745892674 0)
(0.100389505729 0.759036594556 0)
(0.101905627457 0.634515347644 0)
(0.100230942223 0.565001748121 0)
(0.0978721300668 0.526416926301 0)
(0.0936241521941 0.502397864457 0)
(0.0881799242895 0.486318932113 0)
(0.0819730607614 0.476057237985 0)
(0.0744879181371 0.478133723447 0)
(0.0603928090126 0.487938374228 0)
(0.0274323747539 0.492726821996 0)
(0.00103519458514 0.491433278891 0)
(-0.00228258671647 0.490521707932 0)
(-0.00241236234376 0.48973137517 0)
(-0.00263115362531 0.488957830049 0)
(-0.00288287383726 0.488176805152 0)
(-0.00316570453391 0.487397044951 0)
(-0.00349087931845 0.486644118932 0)
(-0.00385853099307 0.485949964507 0)
(-0.00423498682156 0.485347393919 0)
(0.0537667441261 0.946936801019 0)
(0.110323677841 0.812426638022 0)
(0.111262409309 0.691302305448 0)
(0.108264552895 0.607621267619 0)
(0.105460275487 0.55989355173 0)
(0.101210558153 0.529977805956 0)
(0.0949951981096 0.509644330081 0)
(0.0871032208956 0.495607301202 0)
(0.0781377095008 0.489996194146 0)
(0.0671150226716 0.491577007557 0)
(0.0413601833711 0.493724508789 0)
(0.00963921138784 0.49201471612 0)
(-0.00291470530229 0.491108477695 0)
(-0.00335717219774 0.490516704117 0)
(-0.00372393051773 0.48993544298 0)
(-0.00408393994157 0.489320792995 0)
(-0.00442098733289 0.488672604904 0)
(-0.00474415051821 0.488011910341 0)
(-0.00505859444952 0.487370801071 0)
(-0.00533717288664 0.486785799665 0)
(0.0551172125511 0.95132421028 0)
(0.113503897902 0.843802080545 0)
(0.115347539775 0.737600177764 0)
(0.112230287078 0.649824796467 0)
(0.109175025519 0.591695596844 0)
(0.105980799187 0.55529140793 0)
(0.101045084697 0.530367924748 0)
(0.0935154473113 0.512542256787 0)
(0.0839425507939 0.501669589121 0)
(0.0728688398321 0.497344839387 0)
(0.0556973453024 0.496468509353 0)
(0.0227559665222 0.49412848157 0)
(-0.00113742011728 0.492221198931 0)
(-0.00369752603614 0.491599612807 0)
(-0.00439017919462 0.491013156561 0)
(-0.0050010071789 0.490396079135 0)
(-0.00551244180463 0.489741519221 0)
(-0.00593567538051 0.489065079892 0)
(-0.00628117850168 0.488396346919 0)
(-0.00653275195402 0.487771417557 0)
(0.0537197487786 0.954029888307 0)
(0.111138227669 0.863790341287 0)
(0.113993751059 0.773377479305 0)
(0.111332516711 0.6908468555 0)
(0.108199783744 0.624532930676 0)
(0.105779508887 0.580449176022 0)
(0.102658039539 0.550623433182 0)
(0.0969562431723 0.528829060213 0)
(0.0881966662399 0.513548335716 0)
(0.0773265663802 0.504567551133 0)
(0.063896086862 0.500309625506 0)
(0.0352558140607 0.498003569455 0)
(0.00505597008974 0.494439418423 0)
(-0.00469693299363 0.493497699108 0)
(-0.00570591590193 0.492654014401 0)
(-0.0065113294837 0.491827141558 0)
(-0.00713552349763 0.490997626631 0)
(-0.00759786418561 0.490173648315 0)
(-0.00791833058941 0.489378160232 0)
(-0.00809756477861 0.488641418567 0)
(0.0548106273132 0.961526919389 0)
(0.113528588237 0.881788398309 0)
(0.114845310059 0.804433765366 0)
(0.109733884453 0.728974802721 0)
(0.105224053257 0.659780611454 0)
(0.102356028928 0.606633200066 0)
(0.100360872217 0.571142677871 0)
(0.0965066351753 0.545029737894 0)
(0.0891766652712 0.525469685019 0)
(0.0789973001011 0.51218836924 0)
(0.0668288294038 0.504470011843 0)
(0.0468612954847 0.501080425642 0)
(0.0135837769745 0.498574483073 0)
(-0.00738827754665 0.49576902841 0)
(-0.00887070832028 0.494434344194 0)
(-0.0095502381013 0.493225085426 0)
(-0.00999914550144 0.492094390748 0)
(-0.0102509178574 0.491035417535 0)
(-0.0103367355719 0.490057722885 0)
(-0.0102701028265 0.489179816285 0)
(0.055977160794 0.975414015017 0)
(0.114123752944 0.901482573241 0)
(0.112227442011 0.833196542699 0)
(0.104917330761 0.763736894774 0)
(0.0994709595652 0.694760299604 0)
(0.0963284730742 0.634074073336 0)
(0.0947564080144 0.591139566804 0)
(0.0923139758248 0.560398355681 0)
(0.0866143086543 0.53653448211 0)
(0.0773723029232 0.518998006191 0)
(0.0660847555446 0.507819977434 0)
(0.0518062866142 0.501946278778 0)
(0.0198285293589 0.501146417227 0)
(-0.00925712586413 0.497364857756 0)
(-0.0147280809997 0.49540704888 0)
(-0.0146674563539 0.493815437915 0)
(-0.0144345406853 0.492410674505 0)
(-0.0140690587818 0.491164657437 0)
(-0.0135976796412 0.490066304089 0)
(-0.0130331627135 0.489116722454 0)
(0.0553604006525 0.998037067381 0)
(0.109646792291 0.921926423498 0)
(0.104250711285 0.856700928884 0)
(0.0968796274723 0.791617695598 0)
(0.0920611249377 0.724354481898 0)
(0.0893420848893 0.660453775084 0)
(0.0879348628986 0.609376512068 0)
(0.086417158071 0.573225129795 0)
(0.0823256426882 0.545197227031 0)
(0.074349491943 0.523710185152 0)
(0.0638164894334 0.509218889112 0)
(0.0517687372598 0.500896559279 0)
(0.0306282132881 0.498543167089 0)
(-0.00368805625955 0.497578818636 0)
(-0.0227238281079 0.494180240309 0)
(-0.0213765011535 0.492515360596 0)
(-0.0199197408593 0.491154114243 0)
(-0.0185367695249 0.489995736155 0)
(-0.0172187486519 0.489010994866 0)
(-0.0159526648534 0.488187509091 0)
(0.0520024892885 1.021177853 0)
(0.101795840952 0.937957710364 0)
(0.0966630830585 0.871334162249 0)
(0.0916721846586 0.809665218333 0)
(0.0884644248123 0.746135909555 0)
(0.0866994563088 0.682985349289 0)
(0.0855703740324 0.626734430459 0)
(0.0842751174606 0.58381217283 0)
(0.0812330707429 0.551635592879 0)
(0.0745063238762 0.526600875274 0)
(0.0643560901972 0.509004735598 0)
(0.0530319945261 0.498517818818 0)
(0.0393379274808 0.49379844204 0)
(0.00573076029143 0.494210654917 0)
(-0.0243876055789 0.489981780297 0)
(-0.027453370073 0.488713404786 0)
(-0.0246691753755 0.487971117221 0)
(-0.0222370387609 0.487339945036 0)
(-0.020086035086 0.486812062724 0)
(-0.0181596721345 0.486382079842 0)
(0.0496057678531 1.03983796974 0)
(0.0984481714971 0.949994814703 0)
(0.0957132578635 0.880231860305 0)
(0.0923064082187 0.820977487713 0)
(0.0902401037077 0.762117035788 0)
(0.0894534079172 0.702077923521 0)
(0.0889679227292 0.644923666974 0)
(0.0879834495399 0.59604673847 0)
(0.0856070246082 0.559120534866 0)
(0.0799773629498 0.530564342771 0)
(0.0703443351562 0.509650609871 0)
(0.0587188536032 0.496723227345 0)
(0.0466653036859 0.490151748595 0)
(0.0277681403832 0.488763233244 0)
(-0.0080922974252 0.485608489426 0)
(-0.0295925511158 0.483462273898 0)
(-0.0264056563578 0.483607184539 0)
(-0.0234786725417 0.483806265421 0)
(-0.0209418088345 0.483967346369 0)
(-0.0187209802216 0.484107390631 0)
(0.0507759871008 1.0516263894 0)
(0.101953027153 0.958536056395 0)
(0.0992683157449 0.88806173247 0)
(0.0946819515475 0.830380381012 0)
(0.0929698389601 0.775373095148 0)
(0.0933488738292 0.719012542713 0)
(0.0944243066169 0.663545195126 0)
(0.0946224491056 0.612518164285 0)
(0.0929524616787 0.570853395038 0)
(0.0882351457471 0.538539998745 0)
(0.0794277267452 0.513773708227 0)
(0.0677602575179 0.497604966211 0)
(0.0562234597489 0.488957578265 0)
(0.0436564405109 0.485686185651 0)
(0.0126318395861 0.48425032462 0)
(-0.0183360260065 0.47866444711 0)
(-0.0240873354953 0.479533303784 0)
(-0.0214524859011 0.480526838775 0)
(-0.0191740644887 0.481351395246 0)
(-0.0171821596616 0.482041366995 0)
(0.0505326040955 1.05409986552 0)
(0.10229471437 0.961252027886 0)
(0.0999681686417 0.893993123089 0)
(0.0950919692282 0.838502626235 0)
(0.0941338873809 0.786481520753 0)
(0.0960659631636 0.733458156382 0)
(0.0990656191116 0.680784466719 0)
(0.100903243597 0.631060622942 0)
(0.100231548751 0.587075136973 0)
(0.0960861060308 0.551130577577 0)
(0.0879464042632 0.522335289519 0)
(0.0769294625273 0.502233404999 0)
(0.0656283590993 0.490849814342 0)
(0.0548898568565 0.485897123482 0)
(0.0375595375055 0.484944442583 0)
(0.00338490186936 0.476746790787 0)
(-0.0180287297408 0.476947673427 0)
(-0.0164472603831 0.478455483611 0)
(-0.0150010399556 0.479740494392 0)
(-0.0137242445735 0.480808849154 0)
(0.0489455748293 1.0523056751 0)
(0.0998098325457 0.959949035068 0)
(0.0983755048393 0.896968460883 0)
(0.0942203225122 0.844535483901 0)
(0.0944089929247 0.795284362844 0)
(0.0978371593352 0.745437546463 0)
(0.102736163811 0.696228832734 0)
(0.1063938954 0.649566690376 0)
(0.106627971707 0.606473943101 0)
(0.102453433853 0.568006057215 0)
(0.0943829272235 0.535358761854 0)
(0.0841023222923 0.511132460455 0)
(0.0736319376233 0.496399933481 0)
(0.0643919134898 0.489475473619 0)
(0.0531119705668 0.487336996753 0)
(0.0223880035554 0.480512219371 0)
(-0.00527789988357 0.476416488224 0)
(-0.00925731075886 0.478171598 0)
(-0.00913992338473 0.479637035833 0)
(-0.00898743009062 0.480829267313 0)
(0.0462291112283 1.05363606702 0)
(0.0950125497482 0.959429720245 0)
(0.0947231180494 0.899095840276 0)
(0.0920112456949 0.849455819003 0)
(0.0941152717671 0.803024990059 0)
(0.0995098344761 0.756608851263 0)
(0.106261734282 0.711531710771 0)
(0.111258605406 0.669047379576 0)
(0.111901233003 0.628634974165 0)
(0.107271762877 0.589285674842 0)
(0.0986998206526 0.553032591286 0)
(0.0887453318647 0.524794473316 0)
(0.0792069415227 0.506236497606 0)
(0.0709756944737 0.496514869562 0)
(0.0621043937687 0.492675865438 0)
(0.0407209795831 0.48895646009 0)
(0.0120233873221 0.478297671749 0)
(-0.00131873301136 0.48007798911 0)
(-0.00284164968327 0.481337124574 0)
(-0.00406173912548 0.482313959546 0)
(0.0420730850124 1.06943171869 0)
(0.0869784845612 0.966285806115 0)
(0.0880130315304 0.903869575048 0)
(0.087752249106 0.855298414983 0)
(0.0925546217961 0.81171207996 0)
(0.100280773239 0.769175838457 0)
(0.108679383722 0.72869822016 0)
(0.114266292318 0.690859156781 0)
(0.114540600764 0.653550037361 0)
(0.109167404754 0.614491844197 0)
(0.100022463364 0.57517252784 0)
(0.0901255911195 0.542998679394 0)
(0.0812512963696 0.520256442496 0)
(0.0735246688155 0.506886893048 0)
(0.0654331058795 0.500685150579 0)
(0.0500826644967 0.497999851541 0)
(0.0227810601314 0.483057694922 0)
(0.00481685251333 0.484247626376 0)
(0.00193258580712 0.484804586782 0)
(-0.000506444205245 0.485165828482 0)
(0.0411079131724 1.09980179828 0)
(0.0863531505904 0.98224948823 0)
(0.0879106427554 0.914524144947 0)
(0.0870668030015 0.864892467866 0)
(0.0924700159974 0.823443436949 0)
(0.100921224579 0.784626673567 0)
(0.109398753933 0.748545959165 0)
(0.114208210326 0.71485443555 0)
(0.113614773106 0.680315815915 0)
(0.107609671916 0.64215729149 0)
(0.0979806197847 0.600606044682 0)
(0.0879146781256 0.564223052811 0)
(0.0792869583967 0.537167969236 0)
(0.0717021848992 0.519466523842 0)
(0.0635248726782 0.509944813133 0)
(0.0508505468059 0.505745172068 0)
(0.0254166448045 0.490489490479 0)
(0.00646022469919 0.48997998942 0)
(0.00308702361042 0.489416591039 0)
(9.1735177907e-05 0.488825805619 0)
(0.0420488301893 1.1332197171 0)
(0.0895512431893 1.00317242826 0)
(0.0917944626841 0.931441815844 0)
(0.0896146996297 0.880332538523 0)
(0.0936911741319 0.839806998626 0)
(0.100873599503 0.80348772188 0)
(0.107969850685 0.770583068123 0)
(0.111627048156 0.739829560655 0)
(0.110284696756 0.70733872363 0)
(0.103669198217 0.670044076383 0)
(0.0934837496914 0.627196520969 0)
(0.0829162070873 0.586276204684 0)
(0.0739799147252 0.554730724889 0)
(0.0659782955747 0.532296669156 0)
(0.0571072744799 0.518408169766 0)
(0.0450319583315 0.511291435331 0)
(0.0211958100517 0.501449205236 0)
(0.00271457077022 0.495874653364 0)
(-0.00059401542042 0.493974987231 0)
(-0.00318589111691 0.492303559421 0)
(0.0440331285543 1.16033121123 0)
(0.0948180155041 1.02584145499 0)
(0.0978580964136 0.953949160576 0)
(0.0940961683269 0.903098294679 0)
(0.09601457708 0.862673522093 0)
(0.101156571285 0.82678078293 0)
(0.106443531343 0.7947276537 0)
(0.108353506844 0.764711810051 0)
(0.105317916393 0.732399028536 0)
(0.0978291051893 0.69466536876 0)
(0.0876875309131 0.651250945031 0)
(0.0770336610088 0.607129234628 0)
(0.0673330889353 0.57022083014 0)
(0.0579719294043 0.542705374337 0)
(0.0475750807991 0.523751449159 0)
(0.0349818862197 0.512977320989 0)
(0.0138087461391 0.509000003465 0)
(-0.00432720319964 0.499702542944 0)
(-0.00901084988855 0.496984670494 0)
(-0.010247214194 0.494411075373 0)
(0.0466183917662 1.18125242253 0)
(0.100078153725 1.05208097422 0)
(0.102787267382 0.984455144983 0)
(0.09732957581 0.936244176436 0)
(0.0965594579922 0.89453836516 0)
(0.0986540696634 0.855455289198 0)
(0.100580458739 0.820465767593 0)
(0.0993877062433 0.787661027224 0)
(0.0947709796894 0.752313085068 0)
(0.0881467069755 0.711869431669 0)
(0.0804757328189 0.667932619849 0)
(0.0715255556085 0.623839938448 0)
(0.0614917177499 0.582657517278 0)
(0.0505523347907 0.548308903589 0)
(0.0381742948079 0.524486223817 0)
(0.0245314718597 0.510102289131 0)
(0.00815352929228 0.505849616131 0)
(-0.011290063983 0.500721180512 0)
(-0.0208790602684 0.497059835167 0)
(-0.0199743106244 0.494122336085 0)
(0.0485778814542 1.20342639107 0)
(0.100947306373 1.08495038077 0)
(0.0993091511096 1.02382036974 0)
(0.0902013440781 0.979360442024 0)
(0.0850240025946 0.933362339388 0)
(0.0832585172372 0.886141350305 0)
(0.0821497786155 0.843992357097 0)
(0.0797603110181 0.804943986648 0)
(0.0768387090223 0.763700789775 0)
(0.0742312998401 0.718985812832 0)
(0.0708638741127 0.674271069897 0)
(0.0650503829909 0.63212616459 0)
(0.05664116089 0.59145188935 0)
(0.0462531684268 0.551020476201 0)
(0.0332197454724 0.521260621798 0)
(0.0187402525625 0.503688154737 0)
(0.00439906747612 0.496865107223 0)
(-0.0187366716019 0.497525507166 0)
(-0.0332690582658 0.493882901886 0)
(-0.0305046707105 0.491035684716 0)
(0.0525704814667 1.22249503405 0)
(0.10259471913 1.12066430982 0)
(0.0901223132079 1.06816528853 0)
(0.0731501757288 1.02694630191 0)
(0.0626673159506 0.972765739673 0)
(0.0582874769142 0.912912319431 0)
(0.0570548556915 0.860377921608 0)
(0.0569995234788 0.812995065402 0)
(0.0580979304847 0.764810577079 0)
(0.0597914909044 0.715977458132 0)
(0.0605101546488 0.671086772657 0)
(0.0585758913432 0.631306273264 0)
(0.0534739046152 0.594189037005 0)
(0.0452507391763 0.553737497827 0)
(0.0335785170428 0.516455321149 0)
(0.0193655614975 0.495898499933 0)
(0.00547330167504 0.48724844744 0)
(-0.0114210936794 0.488238683117 0)
(-0.0321690007299 0.487206600122 0)
(-0.040083013074 0.485411454386 0)
(0.0522505366715 1.23662250068 0)
(0.0948562789326 1.15370788923 0)
(0.0742803066558 1.11089386519 0)
(0.055636807078 1.07178620635 0)
(0.0439726711266 1.00756806615 0)
(0.0392827201994 0.933176026566 0)
(0.0394559079864 0.868598307273 0)
(0.0422480449214 0.812301950022 0)
(0.0465807288804 0.758033028146 0)
(0.0515112466794 0.706492234764 0)
(0.0553730889033 0.662660442624 0)
(0.0562082197591 0.625244845643 0)
(0.0530278561627 0.591672847695 0)
(0.0464838369327 0.555350336461 0)
(0.0375337698304 0.513399648495 0)
(0.0255997608725 0.489372106059 0)
(0.0130618752412 0.479072786877 0)
(0.00126242476169 0.477640931085 0)
(-0.0269594714714 0.480137671777 0)
(-0.0465203932815 0.478374123914 0)
(0.0471639864587 1.25832149181 0)
(0.0832172687089 1.18371784691 0)
(0.0643335836978 1.14520126066 0)
(0.0507182161785 1.10796862352 0)
(0.0411782017414 1.03709327361 0)
(0.0367298727879 0.949831081797 0)
(0.0373516333152 0.873248375738 0)
(0.0412800127894 0.808460185932 0)
(0.0470969716148 0.749644655507 0)
(0.0536316904795 0.69733772759 0)
(0.0585319637304 0.655355018583 0)
(0.0597267001906 0.619107425862 0)
(0.0569687173382 0.587929242954 0)
(0.0513120621258 0.555670627818 0)
(0.0440853709167 0.514261108237 0)
(0.0346403414446 0.486446440505 0)
(0.0236236982901 0.473799085719 0)
(0.0133696457662 0.470700609463 0)
(-0.00961863715128 0.474069805918 0)
(-0.0374679062068 0.471361062102 0)
(0.0437555949419 1.28908324069 0)
(0.0795372009794 1.20983506258 0)
(0.066487834442 1.16860790183 0)
(0.0572618945568 1.13447407283 0)
(0.0500578104513 1.06316213118 0)
(0.0463554143164 0.966893760797 0)
(0.0471686748685 0.87984683966 0)
(0.0513436257125 0.807510087377 0)
(0.0575019280976 0.745277559668 0)
(0.0638600280944 0.693849513868 0)
(0.0680133103677 0.653742226699 0)
(0.0684889627741 0.617547630996 0)
(0.065324937496 0.586418994287 0)
(0.0596197631932 0.556904825727 0)
(0.0527810872352 0.518929700335 0)
(0.0446737068661 0.488277016985 0)
(0.0348315245195 0.472364133006 0)
(0.0252468401986 0.467414475633 0)
(0.0121624453728 0.468743616565 0)
(-0.0213555193396 0.464055178825 0)
(0.0439915484519 1.32214459054 0)
(0.0815192530064 1.23262426962 0)
(0.0709604882084 1.18396069717 0)
(0.0637904148759 1.15260303375 0)
(0.058859299812 1.08423349126 0)
(0.0572063676606 0.983328655613 0)
(0.0593794023076 0.888912171117 0)
(0.0643781668918 0.810831703358 0)
(0.0707944206134 0.74646004071 0)
(0.07652534264 0.697078208665 0)
(0.079896820149 0.658524121599 0)
(0.0801981470564 0.622451667949 0)
(0.0769346864294 0.589953580972 0)
(0.0709757340816 0.561132509661 0)
(0.0635192202989 0.527283497379 0)
(0.0549535493813 0.494826709456 0)
(0.045373896518 0.474886088972 0)
(0.0363820452583 0.467110735586 0)
(0.026764536352 0.466217589961 0)
(-0.00814892853814 0.459846083189 0)
(0.0457384293023 1.34604964358 0)
(0.0861893001829 1.24884580943 0)
(0.0765328794279 1.19388658273 0)
(0.0693717738338 1.16342278911 0)
(0.0655817741274 1.09748859835 0)
(0.0657532445502 0.995264168814 0)
(0.069628351139 0.897320093027 0)
(0.0760546717479 0.816253135509 0)
(0.0832364606677 0.751879824585 0)
(0.0888093236916 0.705377907957 0)
(0.0920791518711 0.668195211382 0)
(0.0928068988664 0.632838573636 0)
(0.0900899452084 0.599201495276 0)
(0.0842037425041 0.569670806086 0)
(0.0754720728773 0.53958568474 0)
(0.0650817564841 0.505601342587 0)
(0.0547622634308 0.480816358796 0)
(0.0457613556903 0.469159956848 0)
(0.0372416652125 0.466143420759 0)
(0.00801909275584 0.46155791669 0)
(0.0461456864894 1.35689552508 0)
(0.0881095865282 1.25481623766 0)
(0.0794056138934 1.19874584924 0)
(0.0723881103956 1.16742582043 0)
(0.0698383896655 1.10160325606 0)
(0.0719996933891 1.00032932463 0)
(0.0779885036628 0.902599639529 0)
(0.0864295185559 0.821838816656 0)
(0.0945936297914 0.76007118064 0)
(0.100039594466 0.716725530052 0)
(0.103422645904 0.680853145831 0)
(0.104835236967 0.646510432494 0)
(0.10300631046 0.612599021355 0)
(0.0976517609001 0.582528484851 0)
(0.0878836581291 0.555682093623 0)
(0.0750242050981 0.52055423288 0)
(0.0630063813559 0.489391566111 0)
(0.0533630330008 0.472929910008 0)
(0.0448335619166 0.467680690441 0)
(0.0247409782928 0.465103351782 0)
(0.0454122455798 1.36303205481 0)
(0.0873680346252 1.25451245767 0)
(0.0794193278942 1.19925353194 0)
(0.0731888055415 1.16464808544 0)
(0.0726766338782 1.09689258606 0)
(0.0774336580614 0.998779528276 0)
(0.0859904200061 0.904613313698 0)
(0.0963335080363 0.827278339551 0)
(0.104900331095 0.770288322617 0)
(0.110009016407 0.729910508024 0)
(0.113432274541 0.695342680022 0)
(0.115392173256 0.661880272821 0)
(0.114565142023 0.628444006813 0)
(0.110051875969 0.598608219295 0)
(0.0994278323393 0.574578654138 0)
(0.0836882066149 0.539378365464 0)
(0.0697301282353 0.500043466964 0)
(0.0597770678027 0.478147456121 0)
(0.0512050804754 0.470309581833 0)
(0.0382837780262 0.46793576968 0)
(0.044066668255 1.37275246179 0)
(0.0849450446573 1.2540954017 0)
(0.0778131887785 1.19713918033 0)
(0.0734554292989 1.15657520548 0)
(0.0756218862452 1.08645977821 0)
(0.0829989213889 0.993160820556 0)
(0.0938156570032 0.904899901449 0)
(0.105218228605 0.833288882591 0)
(0.113478337822 0.78223746101 0)
(0.118214381261 0.744514966544 0)
(0.12175179145 0.711193135724 0)
(0.12403064779 0.678376736303 0)
(0.123868265271 0.645669326217 0)
(0.119762539883 0.616743017003 0)
(0.107501665985 0.594905929393 0)
(0.089325612976 0.560471125812 0)
(0.0747534690922 0.51307596661 0)
(0.0651961567299 0.485190315857 0)
(0.0570790463978 0.474220962166 0)
(0.0469394395234 0.47109591339 0)
(0.0408085791561 1.39690077499 0)
(0.0785731362325 1.258692758 0)
(0.0730258231412 1.19216795216 0)
(0.0718284267178 1.14335341923 0)
(0.0771727301994 1.0721205939 0)
(0.0872255316199 0.985134539514 0)
(0.100032632563 0.904512909427 0)
(0.111874985343 0.840444700655 0)
(0.119459084843 0.795451584236 0)
(0.124048792111 0.760209872258 0)
(0.127747344044 0.727996581851 0)
(0.130067529538 0.695752815904 0)
(0.130139729104 0.663775642379 0)
(0.125384101036 0.636407883507 0)
(0.111303026391 0.616227938991 0)
(0.0924896159035 0.582308342653 0)
(0.0783373818988 0.529162040351 0)
(0.0692575900661 0.49469259731 0)
(0.0620155109883 0.479970870901 0)
(0.0532116981125 0.475711706526 0)
(0.0410068137589 1.43155683092 0)
(0.0799646703846 1.26777115813 0)
(0.0749304624924 1.18628421487 0)
(0.0736275617666 1.12726108194 0)
(0.0800223059905 1.05583880606 0)
(0.0915530845564 0.97622303816 0)
(0.105429733676 0.904439167269 0)
(0.116847164246 0.84921461183 0)
(0.123588098678 0.809572610746 0)
(0.128045168005 0.776637551598 0)
(0.131681696863 0.745409318137 0)
(0.133729384268 0.713686368675 0)
(0.133554761677 0.682644805091 0)
(0.12750682697 0.657593688776 0)
(0.111821342224 0.637979988624 0)
(0.0934792919991 0.604074009175 0)
(0.080273867036 0.547968226539 0)
(0.0718566190112 0.506919238334 0)
(0.0653723629081 0.487848171934 0)
(0.0570567806962 0.481810515942 0)
(0.0413795748676 1.4639032968 0)
(0.0816076052708 1.27749203057 0)
(0.0773387756403 1.18123598824 0)
(0.0761949006834 1.11171533362 0)
(0.0833790314678 1.04055425961 0)
(0.0959839712922 0.968653352834 0)
(0.109983053079 0.906266927024 0)
(0.120331559267 0.859995215325 0)
(0.126539035026 0.824684424507 0)
(0.13105698455 0.793657514663 0)
(0.134334594705 0.76313026809 0)
(0.135775256274 0.731667859423 0)
(0.134996282496 0.701861759417 0)
(0.126511164398 0.679350727816 0)
(0.109443604439 0.658737432552 0)
(0.092844538798 0.625247981684 0)
(0.0810810526248 0.568590763446 0)
(0.0734726597551 0.521769616107 0)
(0.0673772102084 0.497630636271 0)
(0.0590239236381 0.488874122995 0)
(0.0416848399929 1.49280695105 0)
(0.083485847071 1.28645264646 0)
(0.0807962989075 1.17632422619 0)
(0.0803063511128 1.0982241044 0)
(0.0881504726542 1.02851920281 0)
(0.10118757255 0.964479238017 0)
(0.114285745856 0.911634053096 0)
(0.1231507517 0.872892970376 0)
(0.129052440227 0.84094097547 0)
(0.133411362187 0.811131867118 0)
(0.135947777513 0.78059759415 0)
(0.136533379702 0.748844402745 0)
(0.133533187279 0.720182973332 0)
(0.122159852179 0.699820118994 0)
(0.105916943678 0.677694927121 0)
(0.0922987934174 0.64551396869 0)
(0.0819923799631 0.590828970662 0)
(0.0746452649617 0.538807997075 0)
(0.068134412969 0.508685111936 0)
(0.0592825414237 0.496196072741 0)
(0.040830614391 1.52021705986 0)
(0.0831440854419 1.29416485897 0)
(0.0829775343919 1.17160260221 0)
(0.0844044507814 1.08826236481 0)
(0.0934185995595 1.02182982713 0)
(0.106302329069 0.965646659295 0)
(0.117854266646 0.921849652212 0)
(0.125700328408 0.888477462286 0)
(0.131278944937 0.858752053002 0)
(0.134796906707 0.829077505346 0)
(0.135955056644 0.79742935487 0)
(0.13496385749 0.764697751742 0)
(0.129167441943 0.736511254935 0)
(0.116074068855 0.716797605858 0)
(0.102452940893 0.694124592402 0)
(0.0926559931792 0.664666028108 0)
(0.0837330367479 0.615161987465 0)
(0.0753669407806 0.557442500826 0)
(0.0675199777966 0.520387062857 0)
(0.0579897421257 0.503263284292 0)
(0.0384298115569 1.55535137184 0)
(0.0798341286624 1.30239809871 0)
(0.0825089317852 1.16761450123 0)
(0.0863093766866 1.08231316973 0)
(0.0968857737629 1.02145629522 0)
(0.109576983154 0.973406873678 0)
(0.12002483293 0.937431655584 0)
(0.127387029837 0.907628354679 0)
(0.132318885957 0.87875539796 0)
(0.134257358351 0.847685300178 0)
(0.133273582089 0.813432401631 0)
(0.129891864432 0.778717764573 0)
(0.121122979372 0.749628855948 0)
(0.108756603178 0.728493733597 0)
(0.100244538102 0.707242896387 0)
(0.0944821179547 0.683008536026 0)
(0.0856842796836 0.6415418888 0)
(0.0747679801751 0.578285640151 0)
(0.0652595455982 0.532531117354 0)
(0.055414031016 0.509995344023 0)
(-0.00997105185285 0.291688115376 0)
(-0.013800497164 0.291438429374 0)
(-0.0172461554701 0.291135012296 0)
(-0.0204123390555 0.290795393539 0)
(-0.0234100965478 0.29042766902 0)
(-0.0263392359512 0.290033792443 0)
(-0.0292849348734 0.289612233297 0)
(-0.0323147728652 0.289160648554 0)
(-0.035481314035 0.288677080245 0)
(-0.0388278376381 0.288159691499 0)
(-0.0424000907092 0.287604258747 0)
(-0.0462660330649 0.286999064786 0)
(-0.0505396308692 0.286319330428 0)
(-0.0553631742152 0.285537063535 0)
(-0.0607434281879 0.284683379663 0)
(-0.0656848052343 0.284086012153 0)
(-0.0726968490581 0.283130041447 0)
(-0.0668439720978 0.2854097907 0)
(-0.223719204042 0.245034217677 0)
(-0.195665623572 0.267505585003 0)
(-0.00196156827074 0.523678069532 0)
(-0.00284295109229 0.523369215845 0)
(-0.00366394095353 0.523077581579 0)
(-0.00444704818325 0.522808225718 0)
(-0.00521410917465 0.522563741094 0)
(-0.00598112699653 0.522344266064 0)
(-0.00675935827651 0.522148052052 0)
(-0.00755593881551 0.521972615795 0)
(-0.00837664074849 0.521814970499 0)
(-0.00923067404033 0.521671160668 0)
(-0.0101374052308 0.521535058419 0)
(-0.0111309141676 0.521396985265 0)
(-0.0122453063555 0.521245402458 0)
(-0.0134435067664 0.521084794642 0)
(-0.0145174069585 0.520989674031 0)
(-0.0152450631176 0.521257565187 0)
(-0.0157935037063 0.521147244116 0)
(-0.0171907133926 0.522483465416 0)
(-0.0118541189311 0.483233988427 0)
(-0.00270376518077 0.483187043289 0)
(-0.00297102924748 0.474870631633 0)
(-0.00383070286725 0.474689387481 0)
(-0.00463927765365 0.474653318745 0)
(-0.00538904819183 0.474736501161 0)
(-0.00608319803027 0.474924313566 0)
(-0.0067255113462 0.475207124536 0)
(-0.0073192066136 0.475576983521 0)
(-0.0078680264616 0.476025597142 0)
(-0.00838007567682 0.476543563145 0)
(-0.00887117745197 0.4771213307 0)
(-0.00936313217985 0.477752605713 0)
(-0.00986655357926 0.478441002365 0)
(-0.0103333790954 0.479209781589 0)
(-0.0105959014939 0.480107819475 0)
(-0.0104249079065 0.481182348533 0)
(-0.00979234951679 0.482310251872 0)
(-0.00902982289241 0.482741940313 0)
(-0.00836605432913 0.478703027183 0)
(-0.000947737754278 0.468434550829 0)
(0.00307888331332 0.426023405201 0)
(-0.00365033451697 0.484849053267 0)
(-0.00424452541996 0.484580924014 0)
(-0.00481738598122 0.484464322448 0)
(-0.00534134253156 0.484471690266 0)
(-0.00580836566734 0.484582289183 0)
(-0.00621981195948 0.484777276776 0)
(-0.00658097852713 0.485038481597 0)
(-0.00690143483661 0.485348060069 0)
(-0.00719594801846 0.485689447385 0)
(-0.00748228168437 0.486049907529 0)
(-0.00777141129288 0.48642425898 0)
(-0.00804554103306 0.486819139524 0)
(-0.0082292714805 0.487255039463 0)