/*--------------------------------*- C++ -*----------------------------------*\
| =========                 |                                                 |
| \\      /  F ield         | OpenFOAM: The Open Source CFD Toolbox           |
|  \\    /   O peration     | Version:  2312                                  |
|   \\  /    A nd           | Website:  www.openfoam.com                      |
|    \\/     M anipulation  |                                                 |
\*---------------------------------------------------------------------------*/
FoamFile
{
    version     2.0;
    format      ascii;
    arch        "LSB;label=32;scalar=64";
    class       volScalarField;
    location    "0.045/water";
    object      epsilon.gas;
}
// * * * * * * * * * * * * * * * * * * * * * * * * * * * * * * * * * * * * * //

dimensions      [0 2 -3 0 0 0 0];

internalField   nonuniform List<scalar> 
1503
(
26.0149405785
3.51632320537
0.486620425095
0.0848941974166
0.0374554512544
0.011168491865
0.00271968451922
0.00108327836831
0.000671644291672
0.000535358583652
0.000479400162178
0.000452414229198
0.00043756159228
0.000428410005928
0.000422283110239
0.000417990023199
0.000414946321749
0.000412809652234
0.000411339603764
0.000410354301587
502.802386041
91.4695279797
14.8613119312
2.59236031913
0.579681105779
0.194359088322
0.0612979365718
0.0118330372032
0.00262354458884
0.00107229089746
0.000695578876482
0.000563734490872
0.000504082932548
0.00047114565505
0.000450334135548
0.000436335427228
0.000426863507681
0.000420605661241
0.0004165976644
0.000414088135869
688.527695152
153.289291565
33.6749828837
7.42249119286
2.14106514044
0.46947616872
0.129575028365
0.0303510307554
0.00682025087507
0.00227500245137
0.0011959197602
0.000839135701279
0.000680851336762
0.000589774520549
0.000529403389126
0.000488051389627
0.000460390049226
0.000442687879444
0.000431870275489
0.000425463432913
877.664366497
208.32852247
51.5502089274
13.4822909584
3.87971540496
1.01847617803
0.195621709925
0.0439715353274
0.0125121285857
0.00456450209296
0.00220690994356
0.0014260703491
0.0010818874183
0.000867176850298
0.000713209582651
0.000604661834344
0.000532579107259
0.000487592369857
0.000461143265898
0.000446366740373
977.861111392
242.890485637
64.4471793005
18.6837686742
5.51126971936
1.66617604091
0.327550048033
0.0597661368541
0.0204728031773
0.00895093831436
0.00408757318273
0.00249259028446
0.00184212936209
0.00142357222789
0.00109583296188
0.000848544935354
0.000679484760077
0.000574331382091
0.000513993374584
0.000481800452796
946.634868205
251.0435771
72.2342193001
22.9175667258
7.44690721717
2.08492240575
0.508201878014
0.0972205260818
0.0338837352822
0.0173664447318
0.00746396846072
0.00414021526225
0.00297568963258
0.00230407648665
0.00175720611945
0.00130368684963
0.000963199008945
0.000738581407028
0.000607566708545
0.000538849765176
849.056103121
242.103332466
75.9882610088
26.124880508
9.026496391
2.72162260496
0.638090136313
0.173652050119
0.0554203974573
0.0319773215589
0.0135403127431
0.00649673775847
0.00434004790203
0.00337600820083
0.00264069045107
0.00198918642629
0.00144041560054
0.00103213415543
0.000772166940934
0.000630139311809
779.474177108
235.754380056
79.2309888062
28.6295636434
10.171204139
3.22620758892
0.882409434128
0.267340051958
0.0878302104554
0.0497584118832
0.0238800430354
0.0100060478726
0.00578006478176
0.00439834621156
0.00353785730836
0.00277547107983
0.00207312216897
0.00147770797439
0.00104300974851
0.000777752068431
751.967044356
237.452201069
82.7699707285
30.5547703513
11.0555445613
3.71485739957
1.1791521932
0.370036144935
0.154216399687
0.0618095293268
0.0358280589807
0.015823731444
0.00736955007468
0.00518191711067
0.00421371630373
0.0034423907352
0.00270241382798
0.00200341187658
0.00141596378674
0.00100170305629
758.393654392
244.108505395
85.885952256
31.875765639
11.8072217122
4.23859604335
1.52602269978
0.56730700496
0.220728077353
0.100557623809
0.0432683338373
0.0239186697737
0.0097652545004
0.00576355156046
0.00455623594932
0.00381677642736
0.00314242656073
0.00246118588971
0.00181338316635
0.00128612047813
790.92983352
253.789070926
88.2244472766
32.6218454775
12.3788752874
4.70801860914
1.86359806256
0.783785478393
0.334637758614
0.143513269167
0.0773900948474
0.028823068909
0.0141281793053
0.00657448149797
0.00470813457918
0.00389649424521
0.00330267185604
0.00272151084607
0.00212122452329
0.00156712494204
876.084715502
270.778794093
91.3133985301
33.2934524177
12.7461021367
5.04074965532
2.13948606174
0.990037402988
0.472471008956
0.233363213317
0.108849778348
0.0398495323743
0.019777868968
0.0084603622615
0.00515097887581
0.00392785970518
0.00327638969831
0.00276925061646
0.00226662890748
0.00176965038012
922.694685374
283.789941625
94.3531687042
33.8366443642
12.9018260094
5.248920608
2.36278262072
1.17773844435
0.600696837369
0.319437710152
0.158958024467
0.0587162742464
0.0240921816625
0.012353710583
0.00676244805463
0.00444301845345
0.00337296535919
0.00275992168727
0.00228808541765
0.00186537758003
955.950160769
292.78568239
96.1526445293
33.9896492679
12.949546674
5.4193853729
2.57104263021
1.35093898138
0.706338250691
0.386399456001
0.185169125592
0.0677161170615
0.0282095497937
0.018402608835
0.0107098575023
0.00636055150094
0.00417404660539
0.00304414342119
0.00237374006281
0.00192420548421
979.464689551
298.7668006
97.6466541664
34.3612322865
13.1481305231
5.63986567145
2.79116492427
1.52153772379
0.810220019579
0.439056497958
0.199074803381
0.0745000525777
0.0333324195571
0.0252197045806
0.0172724887048
0.0108163744464
0.00667266184619
0.00428082789351
0.00291285335581
0.00215443637258
973.245237963
300.081697902
98.9419176908
35.0552894445
13.520050927
5.93073294656
3.042548453
1.7216262746
0.949001043214
0.506347750193
0.217128195579
0.0857958782019
0.0403471652363
0.0310471931191
0.0245029909616
0.0177561197238
0.0118414569783
0.00749504888944
0.00463431432783
0.00299034414101
963.428703626
300.59989348
100.312091284
35.8068687869
13.9456333387
6.25037947483
3.30747319344
1.96238490554
1.14255263374
0.602429040101
0.256658575106
0.103420393508
0.0520714472651
0.036458354051
0.0299588375004
0.0246860097921
0.0188990998699
0.0131934333754
0.00844022424991
0.00518205877504
978.389769714
306.832558987
102.809529616
36.5039595498
14.2042007224
6.43849048421
3.52495649471
2.2260299063
1.37980263789
0.726978819779
0.324575481014
0.119173621635
0.0737869639085
0.0454136120653
0.0345069688543
0.0291363960753
0.0247891443658
0.0197421374298
0.0142233787193
0.00939232382125
1008.08249489
318.435394514
105.564984262
36.7095253152
14.0691867681
6.43924847433
3.68845214343
2.48650940005
1.62724606783
0.86407623629
0.403676138539
0.160000755265
0.0917675375759
0.0614649349648
0.0424549795217
0.0330750740503
0.0280579675341
0.0242495060163
0.0198586870832
0.0149802099035
1048.00889347
331.511181539
108.033971344
36.5269237057
13.7414498887
6.3688566619
3.81346629611
2.71394355119
1.85207092469
0.997568815675
0.460493477691
0.195352038353
0.0948482534876
0.0760803379861
0.0551565486479
0.0401097161798
0.0314029885887
0.0265619043057
0.0231850019737
0.0196967350708
1097.17600301
345.28567857
110.520745415
36.4127510336
13.473466066
6.29776118069
3.89940324027
2.89061094977
2.03754363162
1.12052195314
0.51177996745
0.222075327063
0.107737478141
0.0746980664639
0.0656226785068
0.049351128928
0.0366616381316
0.0289575112916
0.024767574235
0.0221567164735
1168.52422755
363.026211088
113.735338304
36.52035482
13.2739363463
6.22283251042
3.94707638689
3.01403654923
2.1882885109
1.22795319173
0.558527997006
0.24282364323
0.115685661084
0.073711136353
0.0671577103056
0.0561724994209
0.0421458422848
0.0319957426138
0.0261373902831
0.0232038955711
1279.29501251
389.048289847
118.416013473
36.7971045646
13.0759440447
6.13113232409
3.96029083764
3.0916287844
2.29651169985
1.30926827253
0.59666636204
0.259182333501
0.1207269225
0.0741300222225
0.0651765965484
0.0585341249156
0.0457455491145
0.034597316771
0.0275302547486
0.0238899631477
1408.16741721
422.158209724
124.568987214
37.304302836
12.9410101692
6.05569089001
3.95507227814
3.12846215517
2.35707593864
1.36029136117
0.623851758143
0.271372283748
0.124175767938
0.0741237699152
0.0632504506191
0.0584537799223
0.0473300112521
0.0361985288753
0.0286064203395
0.0244543365018
1551.83448293
459.518802029
131.695636951
38.0795233339
12.915848153
6.01599147225
3.94003834011
3.12916318887
2.37284595928
1.38200329958
0.639869334397
0.279319552262
0.126393960479
0.073747777126
0.0617069169037
0.0576591846157
0.0477901003877
0.0370212745765
0.0293089650538
0.0248786676878
1735.84209976
499.155769351
138.995489541
39.2646279459
13.1158816871
6.05148836788
3.93066735232
3.10455500222
2.35333109838
1.37995974934
0.646616905184
0.283643619642
0.127539574308
0.0732297991502
0.060488471772
0.0567896290164
0.0478106508657
0.0374276937988
0.029752678363
0.0251747075216
1977.5359428
538.910123208
145.954415809
40.9079865732
13.5822699043
6.17955812643
3.94101058288
3.06841306255
2.31142926075
1.36222675001
0.64694007572
0.285293563514
0.127740901186
0.0726003046411
0.0596620000404
0.0560939043944
0.0477532102754
0.0377036077223
0.0300774141909
0.0254019539609
2195.30244458
568.77045214
152.464053087
42.9198819339
14.2167480102
6.36419558294
3.96447800564
3.02326194711
2.25209354026
1.33206842337
0.641625830421
0.284855844172
0.127187620984
0.0717400339407
0.0592533495529
0.0557693660902
0.0478322618136
0.0380553882864
0.0304473272386
0.0256855283797
2244.70016235
583.652514609
157.617005418
44.9365678834
14.922810694
6.58084397203
3.9905355145
2.96106810389
2.17009980246
1.28503443755
0.62842930966
0.282576790453
0.126474266165
0.0710191435945
0.0594259447957
0.0559421833344
0.0482681700225
0.0386462650491
0.0310121481516
0.0261560960199
2217.22775156
582.654663802
159.666613274
46.3508171007
15.5104302426
6.76255696681
3.98586413524
2.86014322379
2.04903066518
1.21019090505
0.602970575542
0.277400777032
0.125791871352
0.0709878612567
0.0605403174268
0.0568832882615
0.0492666916217
0.0396875269154
0.031934546423
0.02693501956
2151.15016839
571.390737935
159.499591595
47.210265616
15.916403249
6.85854844141
3.91762988889
2.69960720875
1.87429683347
1.10057341292
0.563189275213
0.268316494192
0.125156874636
0.0723214890338
0.0632792618501
0.059217482926
0.0511118470076
0.0412475672727
0.0332625726252
0.028034378388
2067.51797919
556.15434335
158.102195326
47.6174594116
16.1042663316
6.83332935683
3.76985243862
2.48094718076
1.65284831958
0.96417120824
0.5127243191
0.255292629826
0.124865746505
0.0762049534025
0.0686878141745
0.0635893136087
0.054139218424
0.0433808155986
0.0349455115476
0.0294240794725
2028.10267369
545.425429181
157.179639841
47.8989497905
16.118617577
6.69537469031
3.56734075254
2.24005461798
1.42536532954
0.825538534964
0.458698443277
0.238534877213
0.125304028392
0.0844949592737
0.0776757042776
0.0700436953039
0.0580681617704
0.0459318140607
0.0369221347786
0.0310804995487
2026.86007049
544.207889406
157.705822865
48.411435538
16.1486472554
6.5688180551
3.40997949579
2.056542505
1.24746502708
0.711044555812
0.402338623448
0.217519545726
0.126574956968
0.0992160097772
0.0896541706358
0.0770376337378
0.0616798290587
0.048347011964
0.0389927046213
0.0329085214252
2050.72865903
543.084710384
156.868944665
48.5537309336
16.3042687417
6.65831857763
3.43843924313
2.01644562483
1.16488161144
0.633828854918
0.33751190869
0.193000690606
0.132519466648
0.118409699833
0.100369476341
0.0813046679852
0.0636287064461
0.0501767702838
0.0409702524305
0.0347492792622
1975.32703732
520.884874799
153.119131799
49.222516326
17.3129792951
7.29664872272
3.81100651267
2.19031190702
1.20123269902
0.601837898607
0.295558241404
0.174329388039
0.155336126422
0.132002258696
0.104376669666
0.081844748358
0.0644423460825
0.0517867961221
0.0428828529498
0.0364392089447
1668.05675443
478.319272265
152.181191224
52.5127844744
19.6402164777
8.7632696114
4.72038325037
2.62854234456
1.36365400304
0.646729581455
0.304044535097
0.192557286321
0.165337979227
0.136333159333
0.106462214139
0.0831555805283
0.0662456240663
0.0537994826338
0.0446549126601
0.0377495468983
1438.30192091
478.055178141
169.252090764
61.1231038496
23.8700272904
11.187234877
6.07178312451
3.3030302195
1.69044721388
0.804664206272
0.373239587978
0.216859071488
0.165092915409
0.134150266579
0.109310182828
0.0855999870923
0.0680202551478
0.0549500378903
0.0452657177683
0.0379619065775
0.000409730142378
0.000409367128196
0.000409182488393
0.000409126656262
0.00040917836684
0.000409339118851
0.000409640670362
0.000410173127313
0.000411156046119
0.000413102395189
0.00041719056978
0.000426120134763
0.000446215375121
0.000493394336655
0.000614622836369
0.000994772247053
0.00276240724073
0.0179700746538
0.238711282983
4.15641518202
0.000412561175788
0.000411657780822
0.000411140831682
0.000410885022252
0.00041084432667
0.000411038889495
0.000411591953467
0.00041283961866
0.000415574942219
0.000421545635203
0.000434475966869
0.000462363661549
0.000523614452035
0.000667566237503
0.00106385833428
0.00253431906232
0.0109325211918
0.0787550684477
0.751184127288
7.25613598483
0.000421738895905
0.000419534874733
0.000418167593177
0.000417314904762
0.000416859941607
0.000416839991446
0.000417513833848
0.000419580802512
0.000424628096576
0.00043596776484
0.000460303570364
0.000511693540467
0.000623224057287
0.000889622930867
0.00166593060438
0.00479344750395
0.0229345906304
0.153546934118
1.2323563126
8.22975814297
0.000438422737536
0.000434030176367
0.000431357075072
0.000429599337405
0.000428482120289
0.00042802708992
0.000428609230356
0.000431265081999
0.000438313774511
0.000454470973049
0.000489080173954
0.000561746692263
0.000719982876275
0.00110670977276
0.00228900306242
0.0073415062995
0.037135689311
0.247087665744
1.66732370793
8.24339458516
0.000465881343354
0.000458021424563
0.000453626094476
0.000450799051673
0.00044889463111
0.000447826476228
0.00044798099342
0.000450538777613
0.000458206186356
0.000476529648985
0.000516524094154
0.00060147258966
0.000788918055122
0.00125761563205
0.00274861373602
0.0094912821753
0.0515100050322
0.351394505227
1.99429501479
7.95662620504
0.000506850808469
0.000492769678111
0.00048593466406
0.000481922135722
0.00047921729103
0.000477446504119
0.000476856407875
0.000478492510063
0.000484927207381
0.000501668709713
0.000539949906514
0.000623784204976
0.000812948030409
0.00129627172566
0.00288595923041
0.0105520175508
0.0634617729307
0.449452912655
2.19764256556
7.62783876621
0.000564230457879
0.00053714987725
0.000525885403012
0.000520339875498
0.000516898428215
0.000514508498569
0.000513117748789
0.000513420176949
0.000517384610642
0.000529565918802
0.000559787667713
0.000629624975275
0.000792936046815
0.00122039667157
0.00266849158273
0.0101886959819
0.0702570823828
0.524722662731
2.29726707002
7.33454820336
0.000645400050339
0.00058976336531
0.000568310830994
0.000559715957536
0.000555411518023
0.00055260983163
0.000550672560858
0.000549857484087
0.000551357132355
0.000558249357816
0.000577727475376
0.000626463797122
0.000746786349214
0.00107247118653
0.00220929656113
0.00862691909947
0.0706475993589
0.571190022391
2.33123443449
7.10212978268
0.000765894274927
0.000654930858342
0.000609622433917
0.00059296296701
0.000586607459669
0.000583418060808
0.000581293205792
0.000579921407421
0.000579825829633
0.0005827066707
0.000592925891081
0.000621361853514
0.000696816209003
0.000911105227344
0.00168671112666
0.00650270719726
0.0657379256263
0.593338196786
2.33448351122
6.93821605787
0.000938008995664
0.000746059359942
0.000654240461702
0.000617416969681
0.000604775761242
0.000600307284313
0.000598111687367
0.000596670291019
0.000595923235398
0.000596628205354
0.000601015548135
0.000615095045371
0.000655705242626
0.000778108081261
0.00124200733341
0.0044749709485
0.0582345204213
0.600564869466
2.33021988711
6.84014392757
0.00114671875316
0.000875330060853
0.000717026958018
0.000639607433509
0.000610269963821
0.000601252977343
0.00059838518636
0.000597029508005
0.000596206363481
0.00059606627603
0.000597594238164
0.000603685472945
0.000622936431649
0.000684778420633
0.000933164647132
0.00295502486428
0.0511695838736
0.602233536939
2.3302592688
6.79790087898
0.00134733215237
0.00103562007529
0.000814891913272
0.000676307318115
0.000611429327475
0.000589816327672
0.000584144409977
0.000582544616315
0.000581826342311
0.000581499522411
0.000581888679401
0.000584246531157
0.000592516364193
0.00062082059838
0.000743597231065
0.00202311915978
0.046806535441
0.605704786151
2.33931478297
6.79754974162
0.00149656541501
0.0012003319385
0.000952884562323
0.000749689534945
0.000624724836203
0.00057475982343
0.000561140221847
0.000558190293065
0.000557451213105
0.000557159700719
0.000557193087294
0.000558026432691
0.00056132003152
0.000573266554783
0.000629697058777
0.00148012112839
0.0452250021424
0.614022489233
2.35845857425
6.8264126585
0.00159672374764
0.00134957845589
0.00112265904823
0.000878937850057
0.000673661895979
0.000569579084103
0.000537295962029
0.00053040109512
0.000529188927871
0.000528928678128
0.00052889180236
0.000529173055304
0.000530418904341
0.000535155201436
0.000559695335306
0.00116442707284
0.0452412460394
0.626346839437
2.38589221623
6.87533208046
0.00173826147427
0.00150902185902
0.0013242105561
0.00107735691474
0.000787518788945
0.000593585520544
0.000521906404288
0.000505333594385
0.000502599733471
0.000502223437528
0.00050218343566
0.000502285838371
0.000502749288757
0.000504544893004
0.000514971804285
0.000989577293986
0.0463139512192
0.64166779142
2.41924614542
6.93690204429
0.00215102355134
0.00179214921275
0.00160462386202
0.00136667910422
0.00100131953981
0.000675633074268
0.000526805895123
0.000488091464136
0.000481421707423
0.000480581091534
0.000480511725835
0.000480557088165
0.000480735381092
0.000481398862904
0.000485978771416
0.000902234027794
0.0481062797512
0.659010676786
2.45665379589
7.00719033433
0.00329788133238
0.00245470219851
0.00210241563838
0.00181223205092
0.00136213269339
0.000859054852254
0.000570295722968
0.000483495913721
0.00046736159328
0.000465259198657
0.00046506750488
0.000465082278151
0.000465154991678
0.000465397638238
0.000467676155498
0.000868463353787
0.0503821961759
0.677628559529
2.49707319844
7.08509684931
0.0058767590108
0.00396323055653
0.00309544183885
0.00256898583524
0.00195410312107
0.00120669134272
0.000682928611557
0.000498537831039
0.000460967643602
0.000455797264316
0.000455278605244
0.000455251793093
0.000455278436182
0.000455364366058
0.000456779865061
0.000867159674743
0.0529855485909
0.697087340537
2.54016254416
7.17139093506
0.0103107853682
0.00692675130409
0.00503886687753
0.00392843561701
0.00294694110892
0.00181600268163
0.000912718845946
0.000545651319201
0.000463082348737
0.000451032568468
0.000449753577243
0.000449648193856
0.000449645897817
0.000449669340687
0.000450788982068
0.000885701013012
0.0558292262722
0.717234741768
2.58602586049
7.2678173594
0.0156222469241
0.0115138394205
0.00840581975883
0.00632383220817
0.00464855308315
0.00285920123883
0.00133117237838
0.000645250678716
0.000476093483075
0.000449952875988
0.00044706838294
0.000446810869016
0.000446781538997
0.000446775650971
0.000447824564404
0.000916960569224
0.0588810811571
0.738119029536
2.63497035263
7.37636923362
0.0196158376664
0.0164237544527
0.0129847216468
0.0100540686518
0.0074692252531
0.00463100602251
0.00204973228872
0.000826733100753
0.000504362629562
0.000452081765177
0.000446142176087
0.000445605266812
0.000445543582648
0.000445520458312
0.000446593817413
0.00095731014461
0.0621479850417
0.759902169795
2.68732139374
7.49875708722
0.021420477461
0.019581686269
0.0171537526247
0.0145185002462
0.0115210847505
0.00748700644827
0.00324583936196
0.00112797217825
0.000553492799867
0.00045740336676
0.000446283074685
0.000445280088366
0.000445175824993
0.000445140438291
0.000446285248525
0.00100530523598
0.0656614254184
0.782789737938
2.74330399883
7.63607772656
0.0220068750274
0.020630424825
0.0193041063685
0.0179961232405
0.0158473554742
0.0114059979646
0.00513812638139
0.00159254814335
0.000628487252968
0.000465970562386
0.000447074392931
0.000445384206922
0.000445224826035
0.00044517972916
0.000446425897127
0.00106083903114
0.0694666294081
0.806984306757
2.80298123851
7.78865555195
0.0222241096308
0.0207161352246
0.0198152063484
0.0195168897155
0.018742488292
0.0153459368303
0.00776327810954
0.0022606022808
0.000731072397265
0.000477375038395
0.000448226894301
0.00044565969544
0.000445435469504
0.000445382468702
0.000446754751304
0.0011246246719
0.0736155458265
0.832660852591
2.86623542578
7.95600459747
0.0223165017752
0.0206355031055
0.0198716528664
0.0198855650367
0.0198078522621
0.0178520694808
0.0106025070396
0.0031287462934
0.000855048867117
0.000490188919294
0.000449462963789
0.000445958962396
0.000445669860446
0.000445610777046
0.000447133612624
0.00119789640223
0.0781626944751
0.859956740466
2.93277291383
8.13684661302
0.0223636846847
0.0205912570974
0.0199921231724
0.0200781699713
0.0201015432517
0.0187854811173
0.0126536780836
0.00404563779066
0.000979559601605
0.000501733219756
0.000450480658592
0.000446195867259
0.000445856361369
0.00044579340203
0.00044749311028
0.00128224009742
0.0831624605071
0.888968612345
3.00213910603
8.32913523154
0.0224458376888
0.0206473363777
0.0202163848285
0.0203883648308
0.0204071739824
0.0190568838357
0.0134523978828
0.0046973645498
0.00107051271341
0.00050893478996
0.000451023967899
0.000446324404152
0.000445961618237
0.000445897417136
0.000447803333243
0.00137947689173
0.0886661726303
0.919748161651
3.07373279921
8.53005638262
0.0226479902363
0.0208489981324
0.0205730932786
0.0208248442054
0.0208407594385
0.0193306505456
0.0136890314152
0.00495095244315
0.00110387699233
0.000510127999424
0.00045099134693
0.000446332262251
0.000445977475011
0.000445914804434
0.000448059693939
0.00149153305287
0.0947173142555
0.952290517838
3.14681643917
8.73600839144
0.0230464390807
0.0212436387781
0.0211067492417
0.0214005069361
0.021356358688
0.0197451461551
0.0138883314585
0.00494816523531
0.00108350615743
0.000505813477985
0.000450462728738
0.00044623753319
0.000445916179336
0.000445857422542
0.000448277042249
0.00162024187633
0.101343811538
0.986513128904
3.22052592337
8.94260435274
0.0236955216959
0.0218592515587
0.0218043567254
0.0221025736417
0.0219559924062
0.0201773838594
0.013871180048
0.00473800271282
0.0010231406693
0.000497765668856
0.000449639866832
0.000446082997605
0.000445808309732
0.00044575504129
0.000448486809043
0.00176705118016
0.108547914256
1.02223164206
3.29389533229
9.14476050445
0.0245729002531
0.0226749710701
0.0227025210251
0.0229313138787
0.0226810795429
0.0205557944457
0.0136606081288
0.00436928446382
0.000939538593654
0.000488291510481
0.000448772090682
0.000445927784241
0.000445699872812
0.000445652791254
0.000448733414342
0.00193262731078
0.116294492447
1.05913739122
3.3659044214
9.33690994621
0.0256975902143
0.0237343074953
0.0237961984627
0.0239358459984
0.0234703907894
0.0209318160778
0.0133972080341
0.00393530908848
0.0008544968196
0.000479757974292
0.000448091393339
0.000445838995238
0.000445647874164
0.000445606692836
0.000449068360417
0.00211637694767
0.124499035848
1.0967796777
3.43555180967
9.51338762634
0.0270569871775
0.0250241407841
0.0250294890053
0.0249944544307
0.0242640230833
0.0213195926154
0.0131948054749
0.00354697418666
0.000788651046321
0.000473978678476
0.00044776823053
0.000445882994731
0.00044571252424
0.000445675482652
0.000449540884823
0.00231600246398
0.133019747315
1.13456688048
3.50196498402
9.66906148089
0.0285682038363
0.0264788783499
0.0263095180662
0.0260061905717
0.0249905270253
0.0217224532744
0.0131799621345
0.00332428167957
0.000756284727487
0.00047198384592
0.000447908645934
0.000446114761495
0.000445944653465
0.000445907844376
0.000450185448427
0.00252732298234
0.141661183043
1.17180871073
3.56455722147
9.80023106585
0.0301130386777
0.0279571151314
0.0274386582738
0.0267979162712
0.0255422523576
0.0221499362298
0.0134741320234
0.00336937413944
0.000766783329638
0.000474488242412
0.000448594774458
0.000446567447621
0.00044637154831
0.00044632846868
0.000451010149221
0.00274461290341
0.150195239796
1.20780912244
3.62321265731
9.90566794228
0.0315636986755
0.0291526792792
0.0281525136598
0.0271587511553
0.0257863717794
0.0225284317339
0.0140922911282
0.0037694619274
0.000831570451344
0.00048276558028
0.00044995551321
0.000447248862166
0.000446988640314
0.000446930196384
0.000451993116068
0.00296157816276
0.158399398889
1.24199606582
3.67844720547
9.9875443754
0.0325540249837
0.0296579806603
0.0281866176146
0.0268952021316
0.0255113752823
0.0226277408422
0.0151028361885
0.00462703852166
0.000972836264353
0.000499669842033
0.000452270779056
0.000448153091304
0.000447764036498
0.000447678763909
0.000453092007078
0.00317272739621
0.166100309555
1.27403739503
3.73147837116
10.0527500404
0.0325570451398
0.0293104298649
0.027350499259
)
;

boundaryField
{
    emptyPatch
    {
        type            empty;
    }
    minY
    {
        type            fixedValue;
        value           uniform 4.5592e-05;
    }
    maxY
    {
        type            inletOutlet;
        inletValue      nonuniform List<scalar> 0();
        value           nonuniform List<scalar> 0();
    }
    maxX
    {
        type            epsilonWallFunction;
        blending        stepwise;
        value           nonuniform List<scalar> 
37
(
11.7160076077
29.7748899619
43.4307259202
51.5105017093
55.3746003959
56.7087809946
56.716416502
56.186885535
55.6106223414
55.2406840589
55.15457742
55.3305709068
55.7350153778
56.3248376536
57.0422101172
57.8484813476
58.7260296836
59.672329111
60.6931804216
61.7971637062
62.9917503438
64.2809868929
65.6644254488
67.1369000657
68.6887210928
70.3059947376
71.9708889133
73.6618565098
75.3540250606
77.0201086419
78.6320180374
80.163310756
81.5927166681
82.9086936526
84.1142009579
85.2302155775
86.2933019628
)
;
    }
    water_to_heater
    {
        type            epsilonWallFunction;
        blending        stepwise;
        value           nonuniform List<scalar> 
61
(
34.8650174152
938.628778788
938.628778788
1517.62181106
1517.62181106
2059.15273597
2059.15273597
2388.62467455
2378.74568419
2190.32746931
2190.32746931
2070.16819144
2070.16819144
2065.77722745
2065.77722745
2137.60146134
2266.54789797
2488.04050139
2488.04050139
2622.10846617
2622.10846617
2713.66836701
2713.66836701
2764.48253685
2747.83941281
2737.18395626
2737.18395626
2801.93223785
2801.93223785
2944.42702809
2944.42702809
3122.19865092
3310.51080479
3547.57210622
3547.57210622
3893.35188952
3893.35188952
4325.17278608
4325.17278608
4823.00663397
5390.71716369
6007.38016469
6007.38016469
6415.58622498
6415.58622498
6490.2119417
6490.2119417
6403.27181901
6187.85702918
5955.35413227
5955.35413227
5796.04579981
5796.04579981
5749.23425508
5749.23425508
5691.17632079
5230.31917804
4397.47072552
4397.47072552
4186.16876956
4186.16876956
)
;
    }
    procBoundary2to3
    {
        type            processor;
        value           nonuniform List<scalar> 
41
(
1578.00789967
569.966124745
209.129478206
73.6320933927
28.3894819912
13.3269561799
7.21295118133
3.91295558818
2.03770439769
1.03916501428
0.511825256192
0.24996619218
0.169769335757
0.127929127765
0.108553595519
0.0873745001314
0.0686052229218
0.0548013807048
0.0446762781442
0.0371888049534
0.0258677301381
0.0246114314643
0.0224923355054
0.0164141675118
0.00597090505219
0.00122985422278
0.000530712871671
0.000456118682362
0.000449288904048
0.000448655064698
0.000448528708903
0.000454264359574
0.00337549342799
0.173257700052
1.30418053885
3.78498174
10.1048581134
0.0317527946211
0.0281333132632
0.0258677301381
0.0257317329851
)
;
    }
}


// ************************************************************************* //
