/*--------------------------------*- C++ -*----------------------------------*\
| =========                 |                                                 |
| \\      /  F ield         | OpenFOAM: The Open Source CFD Toolbox           |
|  \\    /   O peration     | Version:  2312                                  |
|   \\  /    A nd           | Website:  www.openfoam.com                      |
|    \\/     M anipulation  |                                                 |
\*---------------------------------------------------------------------------*/
FoamFile
{
    version     2.0;
    format      ascii;
    arch        "LSB;label=32;scalar=64";
    class       volScalarField;
    location    "0.715/water";
    object      T.gas;
}
// * * * * * * * * * * * * * * * * * * * * * * * * * * * * * * * * * * * * * //

dimensions      [0 0 0 1 0 0 0];

internalField   nonuniform List<scalar> 
1504
(
404.083108771
338.146558079
313.299232823
304.608021123
301.690331213
300.722444159
300.379247013
300.226757622
300.140662477
300.082957761
300.042733748
300.01692218
300.004550525
300.000921979
300.000162222
300.000024979
300.000000846
300
300
300
404.732315205
338.757935673
313.488031078
304.596885805
301.6566336
300.704471566
300.367646806
300.218527853
300.134418718
300.078793351
300.040847924
300.016424058
300.004536072
300.000909252
300.000167498
300.000026317
300.000000585
300
300
300
406.163857402
339.535530968
313.816648471
304.703905179
301.680426955
300.705856494
300.359533422
300.211185962
300.128739653
300.075589984
300.039614685
300.016476123
300.004662284
300.000955446
300.000179432
300.000028
300.000000265
300
300
300
408.09313044
340.281896308
314.127179269
304.859465537
301.747403326
300.725678977
300.360045633
300.206944906
300.125105055
300.073772668
300.039860259
300.01742649
300.005192339
300.001079694
300.000197587
300.000029048
300.000000039
300
300
300
409.038175406
340.483043471
314.234301749
304.970318086
301.819196724
300.753674271
300.368240086
300.206914313
300.123972748
300.075197455
300.042097645
300.018998729
300.005718029
300.001211623
300.000216841
300.000030554
300
300
300
300
409.607354868
341.224782317
314.802775447
305.268100866
301.947774353
300.802921867
300.384802524
300.211646083
300.127022805
300.078163935
300.044930914
300.020697555
300.006408039
300.0013822
300.000241275
300.000033474
300.00000002
300
300
300
410.705562694
342.060970162
315.479776535
305.646758787
302.105473198
300.857103791
300.398803553
300.216719976
300.131373901
300.082455005
300.048253212
300.022748464
300.007256871
300.001593198
300.000276915
300.000037836
300.000000139
300
300
300
411.850490899
342.499727257
315.753130337
305.814217921
302.177765269
300.871890307
300.404351961
300.221296059
300.136437351
300.087133648
300.051845548
300.024878334
300.008211878
300.001841232
300.000319056
300.000042671
300.000000316
300
300
300
413.518674572
342.440175492
315.377528838
305.604363959
302.083080337
300.837835497
300.395846062
300.221375698
300.140429634
300.09158043
300.055029493
300.026706635
300.009093846
300.00209723
300.000356232
300.000045412
300.000000419
300
300
300
413.956372699
341.373321453
314.181895042
304.990705771
301.824785443
300.747867939
300.368111184
300.21663977
300.142744773
300.094828009
300.057303219
300.028098993
300.009839039
300.002288106
300.000370474
300.000042373
300.000000301
300
300
300
408.53683548
337.371509981
312.199657514
304.084761193
301.461015744
300.618314943
300.329049882
300.209028439
300.143552583
300.096746014
300.058664367
300.029137547
300.010461825
300.002412369
300.000353754
300.000032685
300.000000074
300
300
300
391.050439792
330.388560595
309.583223597
303.005089024
301.052483424
300.484141829
300.291297166
300.201260953
300.143690136
300.098178776
300.060043665
300.030311557
300.011173283
300.002566146
300.00033099
300.000022586
300.00000067
300
300
300
374.702763193
325.97109282
307.593413711
302.022193323
300.698603401
300.383061396
300.265897871
300.19806059
300.146172824
300.101606874
300.063274164
300.03289077
300.012807146
300.003142561
300.000401779
300.000023844
300.000002062
300.000000885
300
300
372.077203582
326.695629194
306.171772444
301.435108151
300.573590643
300.360948157
300.269530861
300.207881999
300.156683852
300.111382753
300.071644887
300.039135484
300.016514375
300.004605688
300.000685796
300.000050519
300.000003812
300.000003341
300
300
396.008604426
337.398049759
308.812361344
302.242176582
300.804210601
300.43918091
300.310269386
300.236545124
300.179287805
300.12984298
300.086353266
300.049626889
300.022413671
300.00690614
300.001196361
300.000105598
300.000005865
300.00000445
300.000001354
300
467.726369443
356.711787393
317.928623947
305.195698756
301.568680426
300.639723762
300.390119347
300.284860931
300.214861953
300.156799808
300.106626847
300.063909684
300.030633719
300.010179001
300.001986671
300.000205767
300.000009793
300.000003955
300.000002084
300.000000175
526.800011722
372.573337834
324.131721347
307.814177586
302.526210343
300.895478416
300.484684046
300.335287734
300.251880805
300.186692113
300.129140578
300.079840259
300.040062652
300.014213154
300.00308813
300.000382135
300.000022843
300.000003472
300.000001567
300.000000105
547.630717619
380.4877105
326.800651131
308.905571521
303.014573209
301.11268782
300.569650421
300.378618506
300.280730219
300.210128704
300.148872249
300.094311061
300.049005948
300.018384508
300.004453073
300.000676773
300.000062705
300.000005814
300.000000483
300
553.299604678
380.340669911
325.664777018
308.391165308
302.908763795
301.138764465
300.614287539
300.410399081
300.301809636
300.22618876
300.16275529
300.105196383
300.056233229
300.022397098
300.006128312
300.001142524
300.00014231
300.000013386
300
300
548.448577797
372.964319608
322.085780701
306.928184418
302.445940779
301.027993441
300.611873521
300.421153373
300.311969869
300.234679423
300.170105738
300.110977479
300.060428791
300.025128981
300.007509527
300.001588371
300.000237552
300.000024677
300
300
538.667478078
364.127178658
317.848892167
305.488705346
302.025368671
300.949505261
300.591610589
300.417488727
300.312937569
300.236523034
300.171430848
300.111252888
300.060760557
300.025844874
300.008113377
300.001871207
300.000311158
300.000036815
300.00000008
300
531.50580348
357.309453009
315.1396176
304.646398047
301.812690662
300.921254748
300.580454407
300.412605531
300.310676586
300.234696538
300.167978696
300.107511277
300.058278753
300.02492493
300.008081025
300.001953609
300.000353751
300.000045176
300.000000948
300
518.191312473
353.007460578
314.342305906
304.988544784
302.037785125
301.013299651
300.608644661
300.419907057
300.311241748
300.231299042
300.161402353
300.101607019
300.054385126
300.023299993
300.007665049
300.001930165
300.000365141
300.000050923
300.000002142
300
477.226894334
353.243448403
317.845154783
306.667366924
302.742550543
301.277186025
300.70018268
300.450052342
300.318504672
300.226960097
300.154328118
300.09530923
300.050509074
300.021617429
300.007237083
300.001858823
300.00036815
300.000052862
300.000003056
300
437.934377665
354.429294577
321.094512417
308.534521938
303.608104192
301.637532139
300.840351354
300.500746695
300.329292302
300.223257411
300.147444424
300.089712614
300.047276559
300.020421636
300.006916073
300.001824751
300.000368641
300.000055609
300.000003743
300
411.424275661
350.43242498
322.161814823
309.760926436
304.333701456
301.993223873
300.997921599
300.556698029
300.339627833
300.219845521
300.14164079
300.08540699
300.045314248
300.01981968
300.00687062
300.001838427
300.00038215
300.000058742
300.000004555
300
398.247775768
345.689892805
321.764651312
310.304371159
304.829947822
302.295847425
301.141895262
300.599877002
300.348016652
300.216959427
300.13739369
300.083110149
300.044678354
300.02005808
300.007083819
300.001941457
300.000407258
300.000064569
300.000005441
300
392.833094957
342.203578739
320.862373917
310.357716935
305.081120455
302.495235442
301.223853021
300.622991372
300.350007128
300.213383054
300.134897433
300.08253372
300.045573969
300.021010708
300.007643085
300.002122814
300.000452898
300.000071704
300.000006257
300
392.043585156
340.318513596
319.686172078
309.933804937
305.014788569
302.499202643
301.205104371
300.61167053
300.340515676
300.208023899
300.133190971
300.083701559
300.047627173
300.022786348
300.008496554
300.002413595
300.000517047
300.0000803
300.000007318
300
393.911067914
338.45139033
318.066661692
309.036882551
304.576768695
302.2410871
301.083077458
300.556931045
300.31724064
300.199563741
300.132566643
300.086205967
300.051058216
300.025311399
300.009767816
300.002822144
300.000612878
300.000093602
300.000008774
300
394.735165235
337.110686821
316.630447267
308.028915398
303.901538681
301.843334287
300.897522127
300.477173578
300.286824244
300.192088112
300.133974712
300.091063809
300.056067273
300.029006869
300.011591563
300.003457092
300.000772273
300.000121564
300.000010838
300
390.538919608
335.703082515
315.263623951
306.932863828
303.162364042
301.438592096
300.704254526
300.398424738
300.263508149
300.190487007
300.140643612
300.099653966
300.064023188
300.034513709
300.014393477
300.004445578
300.001036694
300.000178339
300.000018744
300.000001189
380.937544255
332.760247638
313.712757636
305.840675045
302.423117954
301.040331195
300.53519831
300.345551243
300.25659722
300.199679418
300.153784981
300.112520416
300.074768326
300.042191018
300.018637139
300.006164298
300.001570833
300.000313744
300.000045631
300.000004087
373.888325251
330.493597993
312.533929167
305.02887145
301.88915003
300.76040669
300.442557681
300.333187062
300.269766778
300.219689259
300.174457422
300.13164218
300.091076485
300.054474621
300.026123625
300.009542527
300.002720392
300.000636629
300.000122488
300.000017921
377.263612923
332.482318277
313.966756021
305.851476683
302.277949167
300.89080193
300.506393848
300.375132239
300.305411539
300.253025115
300.205319206
300.159058887
300.114265195
300.072527639
300.037999254
300.015612826
300.005056737
300.001377346
300.000324874
300.000064441
403.753868742
348.93213435
322.266086589
309.642027633
303.989542894
301.657629685
300.803732565
300.492931706
300.365688233
300.296742735
300.242900111
300.192340849
300.142730339
300.095572854
300.054287463
300.024835884
300.009229085
300.002912459
300.000795686
300.000188161
466.570180518
367.846379937
329.026869765
312.646081866
305.53907838
302.483470807
301.215894579
300.696118501
300.464652885
300.351535485
300.281662689
300.225473299
300.172250463
300.120372987
300.073565605
300.037522667
300.015757959
300.005551601
300.001677351
300.000439011
498.255019078
377.857418019
332.539177964
314.192828332
306.423816463
303.043200864
301.553962742
300
300
300
300
300
300
300
300
300
300
300
300
300
300
300
300
300
300
300.000000045
300
300
300
300
300
300
300
300
300
300
300
300
300
300
300
300
300
300
300
300.000000016
300
300
300
300
300
300
300
300
300
300
300
300
300
300
300
300
300
300
300
300
300
300
300
300
300
300
300
300
300
300
300
300
300
300
300
300
300
300
300
300
300
300
300
300
300
300
300
300
300
300
300
300
300
300
300
300
300
300
300
300
300.000000003
300
300
300
300
300
300
300
300
300
300
300
300
300
300
300
300
300
300
300
300.000000019
300
300
300
300
300
300
300
300
300
300
300
300
300
300
300
300
300
300
300
300.000000034
300
300
300
300
300
300
300
300
300
300
300
300
300
300
300
300
300
300
300
300
300
300
300
300
300
300
300
300
300
300
300
300
300
300
300
300
300
300
300
300
300
300
300
300
300
300
300
300
300
300
300
300
300
300
300
300
300
300
300
300
300
300
300
300
300
300
300
300
300
300
300
300
300
300
300
300
300
300
300
300
300
300
300
300
300
300
300
300
300
300
300
300
300
300
300
300
300
300
300
300
300
300
300
300
300
300
300
300
300
300
300
300
300
300
300
300
300
300
300
300
300
300
300
300
300
300
300
300
300
300
300
300
300
300
300
300
300
300
300
300
300
300
300
300
300
300
300
300
300
300
300
300
300
300
300
300
300
300
300
300
300
300
300
300
300
300
300
300
300
300
300
300
300
300
300
300
300
300
300
300
300
300
300
300
300
300
300
300
300
300
300
300
300
300
300
300
300
300
300
300
300
300
300
300
300
300
300
300
300
300
300
300
300
300
300
300
300
300
300
300
300
300
300
300
300
300
300
300
300
300
300
300
300
300
300
300
300
300
300
300
300
300
300
300
300
300
300
300
300
300
300
300
300
300
300
300
300
300
300
300
300
300
300
300
300
300
300
300
300
300
300
300
300
300
300
300
300
300
300
300
300
300
300
300.000000004
300
300
300
300
300
300
300
300
300
300
300
300
300
300
300
300
300
300
300
300
300.000000001
300
300
300
300
300
300
300
300
300
300
300
300
300
300
300
300
300
300
300
300.000000023
300
300
300
300
300
300
300
300
300
300
300
300
300
300
300
300.000000019
300
300
300
300.000000029
300
300
300
300
300
300
300
300
300.000000059
300.00000023
300.000000387
300.000000476
300
300
300
300.000000222
300
300
300
300
300.000000007
300
300
300
300
300.0000002
300.00000066
300.000001264
300.000001943
300.000002591
300.000003049
300.000003214
300
300
300
300.000000231
300.000000074
300
300
300
300
300
300.00000032
300.00000112
300.000002267
300.000003756
300.000005549
300.000007538
300.000009512
300.000011146
300.000012
300.000011951
300
300
300
300
300.000000187
300.000000062
300.000000004
300
300.000000466
300.000002335
300.000004711
300.000007479
300.000010796
300.000014577
300.000018598
300.000022538
300.000025818
300.000027874
300.000028315
300.000027408
300
300
300
300
300.000000144
300.000000199
300.000000346
300.000002257
300.000005276
300.000009335
300.0000155
300.000021212
300.000026995
300.000032731
300.000037787
300.000041553
300.000043908
300.000044816
300.00004429
300.000042755
300
300
300
300
300
300.000000524
300.000003627
300.000008981
300.000015449
300.000022297
300.000030069
300.000038603
300.000044912
300.000049558
300.000052731
300.000054672
300.000055508
300.000055351
300.000054304
300.000052635
300
300
300
300
300
300.000002616
300.000009832
300.000018721
300.000027932
300.000036305
300.000043389
300.000049962
300.000054705
300.000057163
300.000058777
300.000059748
300.000060075
300.000059766
300.000058828
300.000057361
300.000000295
300
300
300
300
300.000005242
300.0000162
300.000027302
300.000037041
300.000044508
300.000049454
300.000052311
300.000054714
300.000056663
300.000058229
300.000059548
300.000060347
300.000060512
300.000060016
300.000058888
300.000001084
300.000001625
300.000000453
300
300
300.000007197
300.00001974
300.000031492
300.000040048
300.000045421
300.000048098
300.00004921
300.000050061
300.000051646
300.000054216
300.000056643
300.000058315
300.000059207
300.000059275
300.000058522
300.000001837
300.000002675
300.000002376
300.000001017
300.000000401
300.000008211
300.000019975
300.000031223
300.000038642
300.000042412
300.000043839
300.000044314
300.000044987
300.00004643
300.000048223
300.00005164
300.000055023
300.00005666
300.000057453
300.000057113
300.000003293
300.000002898
300.000003477
300.000002967
300.000001994
300.000008317
300.000018358
300.000028285
300.00003538
300.000038701
300.000039408
300.000039711
300.000040099
300.000041252
300.000042865
300.000044385
300.000050985
300.000053729
300.000054848
300.000053168
300.000011269
300.000003429
300.000003297
300.000003681
300.000003436
300.000007633
300.000015683
300.000023923
300.000030444
300.000034043
300.000034716
300.000034344
300.00003383
300.000034347
300.000036885
300.000039006
300.000043956
300.000050295
300.000051736
300.000045321
300.000039241
300.000007734
300.000003005
300.000002945
300.000003267
300.000006122
300.000012429
300.000019353
300.000024867
300.00002797
300.000028623
300.000028356
300.000027962
300.000028248
300.000030467
300.000034481
300.000038218
300.00004513
300.000049033
300.000042285
300.000102823
300.000021553
300.000004291
300.00000201
300.000002004
300.000003789
300.000008594
300.00001415
300.000018598
300.000021275
300.000022234
300.000022225
300.000022063
300.000022403
300.000024296
300.000029034
300.000034749
300.000039566
300.000047539
300.000042065
)
;

boundaryField
{
    emptyPatch
    {
        type            empty;
    }
    minY
    {
        type            fixedValue;
        value           nonuniform List<scalar> 0();
    }
    maxY
    {
        type            inletOutlet;
        inletValue      nonuniform List<scalar> 0();
        value           nonuniform List<scalar> 0();
    }
    maxX
    {
        type            fixedValue;
        value           uniform 300;
    }
    water_to_heater
    {
        type            copiedFixedValue;
        sourceFieldName T.liquid;
        value           nonuniform List<scalar> 
60
(
788.711288499
788.765288698
788.765410634
788.847992287
788.848910253
788.958122873
788.958670082
789.094760988
789.094596652
789.258451236
789.259173288
789.450264229
789.45108665
789.646263868
789.645924489
789.844811371
789.843402942
790.046788483
790.048142652
790.271440648
790.271446165
790.463802347
790.450009944
790.629091166
790.682643664
790.825118259
790.928210843
791.038648007
791.042271954
791.102789345
791.099579039
791.11772096
791.113010063
791.078087428
791.072051264
790.954884404
790.868593134
790.772868798
790.733816217
790.61907643
790.614166468
790.46317408
790.461509089
790.289158388
790.289114387
790.139675493
790.138492245
790.036453657
790.036649157
790.000876791
790.002201136
790.032455743
790.038596094
790.108139555
790.103264947
790.224042662
790.21468394
790.34855925
790.409551267
790.545177072
)
;
    }
    procBoundary3to1
    {
        type            processor;
        value           nonuniform List<scalar> 
41
(
300.886557193
300.576753126
300.41130159
300.318743432
300.254216618
300.198409635
300.144183289
300.093252263
300.05153596
300.023692427
300.009097516
300.002970703
300.000837449
508.736163573
381.688921602
333.433137693
314.481150379
306.661621543
303.26142887
300.886557193
301.723584713
300.000212375
300.000049132
300.00000989
300.000001989
300.000000925
300.000001582
300.000004957
300.000009065
300.000012467
300.000014662
300.000015557
300.000015733
300.000015829
300.000016497
300.000018602
300.000023828
300.000031021
300.000037108
300.000048338
300.000043906
)
;
    }
    procBoundary3to2
    {
        type            processor;
        value           nonuniform List<scalar> 
41
(
402.82218978
337.91459155
313.463960926
304.781009885
301.774506698
300.752587444
300.390665638
300.234940688
300.146870392
300.087286364
300.045157085
300.01766145
300.004709841
300.00094701
300.000159063
300.000023883
300.000001028
300
300
300
300
300
300
300
300
300
300
300
300
300
300
300
300
300
300
300
300
300
300.000000014
300
300
)
;
    }
}


// ************************************************************************* //
