/*--------------------------------*- C++ -*----------------------------------*\
| =========                 |                                                 |
| \\      /  F ield         | OpenFOAM: The Open Source CFD Toolbox           |
|  \\    /   O peration     | Version:  2312                                  |
|   \\  /    A nd           | Website:  www.openfoam.com                      |
|    \\/     M anipulation  |                                                 |
\*---------------------------------------------------------------------------*/
FoamFile
{
    version     2.0;
    format      ascii;
    arch        "LSB;label=32;scalar=64";
    class       volScalarField;
    location    "0.635/water";
    object      alpha.gas_0;
}
// * * * * * * * * * * * * * * * * * * * * * * * * * * * * * * * * * * * * * //

dimensions      [0 0 0 0 0 0 0];

internalField   nonuniform List<scalar> 
1504
(
0.730782648862
0.724870230149
0.692193575314
0.673539534816
0.628939915513
0.536047828288
0.428038154945
0.354628246176
0.301815278338
0.260032629537
0.2385555461
0.238132919704
0.238910528748
0.248488761286
0.308037982604
0.378961043204
0.379152643624
0.36046777016
0.23411853436
0.0694569579601
0.770063748789
0.744009173154
0.727370082584
0.7186586627
0.70208346137
0.646312653858
0.526788994781
0.41549010979
0.334133125115
0.270699523659
0.237861042939
0.237905353315
0.238026921529
0.238756625389
0.283569298973
0.37258797601
0.379239318003
0.371897228261
0.272163140094
0.111023784755
0.771736569988
0.749069541785
0.742167970368
0.738044131896
0.727011516017
0.689332105792
0.589158645663
0.467508896454
0.36602634086
0.284352774339
0.237771101825
0.237710466594
0.237902398639
0.238010425467
0.260793448239
0.354287543328
0.37932599146
0.377101409502
0.298419188242
0.150937690731
0.776222284802
0.751152205778
0.748392969276
0.74536625663
0.733871545297
0.697610819831
0.60820348839
0.489021122729
0.379061118679
0.288348926058
0.237695959734
0.23755342744
0.237708735527
0.23784258928
0.246152753195
0.330592338803
0.379412663995
0.381563283417
0.319681594963
0.188415668646
0.772111835162
0.752305216231
0.751213956163
0.748226339508
0.735612586594
0.697773390127
0.609510213254
0.491277583496
0.378413813888
0.283713178672
0.237613694986
0.237695959734
0.237361768336
0.237695959734
0.23876805803
0.312037586001
0.379116804856
0.384482488876
0.340525552933
0.225543447251
0.776426699322
0.752766069518
0.752388022476
0.749088916639
0.734742755388
0.692523377971
0.601443269041
0.482200117846
0.364915686251
0.267961277613
0.237695959734
0.237245917121
0.237695959734
0.237111103122
0.237733029732
0.300345673764
0.378337726196
0.384499773844
0.360368459313
0.261639675911
0.772621423153
0.75277565547
0.752411310182
0.748307958848
0.729601467946
0.678329873871
0.580791922205
0.458736961777
0.33857082693
0.249923694492
0.237417609461
0.237695959734
0.236824576296
0.237695959734
0.237075450371
0.294269758211
0.3756187154
0.38447634685
0.37471110179
0.290571500113
0.776249273078
0.751786415467
0.751563930599
0.743740977548
0.717856175685
0.656682488947
0.55272660764
0.427486646711
0.307415952427
0.239648581032
0.237668556626
0.236919578262
0.237695959734
0.236591661129
0.237695959734
0.291597846108
0.370231748035
0.384487625811
0.38131115969
0.308273245089
0.772443759968
0.748826217426
0.746408047756
0.732164502527
0.698577815224
0.627601541513
0.517753502914
0.390011716848
0.275824644393
0.237568356685
0.237223275262
0.237668556626
0.236522572698
0.237695959734
0.236546393452
0.292503314788
0.362207495913
0.384467097599
0.382836833042
0.317465756144
0.77640631186
0.741916752739
0.733128717609
0.71159438093
0.668420352445
0.586894326535
0.471298806012
0.343950107352
0.249643398373
0.237317345851
0.237407397302
0.236767121202
0.237668556626
0.236237550751
0.239783688591
0.294336770734
0.353531255098
0.383465290481
0.381783329965
0.322998477187
0.771942965984
0.72965621248
0.709796319121
0.67905824268
0.622281523008
0.529179136713
0.409440344578
0.290880170101
0.237802612221
0.237243451035
0.236833040819
0.237444513454
0.236467926287
0.237668556626
0.244355901292
0.297306637615
0.346743826402
0.378315187063
0.379283923218
0.329986841367
0.775602397611
0.709060222529
0.675069649769
0.628903660884
0.555020122854
0.450895342139
0.333300946441
0.247413657189
0.237243451035
0.23678971793
0.237109516928
0.23653413587
0.237243451035
0.236485552461
0.252028305642
0.299812707236
0.338833483037
0.370328619148
0.380357721472
0.343533279114
0.771001150314
0.673020244861
0.620817252427
0.553716257231
0.463392463376
0.355017057681
0.261384091045
0.237243451035
0.236858352992
0.236985759544
0.236194049869
0.236985759544
0.236353917447
0.237243451035
0.261147145761
0.298663663829
0.328410593021
0.363768879132
0.387347855462
0.368211044481
0.774524958514
0.606564721646
0.534504842951
0.448515765949
0.352358171271
0.26543406304
0.237332624506
0.236909658042
0.236985759544
0.236164542757
0.236753902241
0.236070052847
0.236985759544
0.238185661625
0.269009091372
0.289912981674
0.315626992884
0.3601432783
0.397879719319
0.399684251821
0.770046910631
0.50464829159
0.414150320054
0.321948615471
0.255424522804
0.237243451035
0.236828278499
0.236985759544
0.236037148557
0.236753902241
0.235705577609
0.236753902241
0.236211516051
0.248353879292
0.266451279993
0.274228172131
0.302109719384
0.358798711356
0.406467721555
0.415758176781
0.770851444214
0.388122102118
0.289933666038
0.239620581126
0.237243451035
0.236412751373
0.236985759544
0.235607981221
0.236753902241
0.235493490931
0.236753902241
0.235718091209
0.238092951988
0.25207335665
0.254715970891
0.256842404037
0.288954562738
0.357001584327
0.408326301468
0.41598241551
0.701744790429
0.28142133255
0.237504250796
0.237243451035
0.235691148656
0.236985759544
0.234779667347
0.236753902241
0.235152376981
0.236753902241
0.235604950064
0.236753902241
0.243480838738
0.248286519462
0.242413247946
0.242222070323
0.27337615275
0.347764051439
0.405536802007
0.415758176781
0.545098785672
0.268280195626
0.23958107889
0.23595702202
0.236985759544
0.2347646084
0.236753902241
0.234786705181
0.236753902241
0.235659819214
0.236753902241
0.239995648268
0.24301517497
0.240047414291
0.234349154452
0.232017401468
0.251763258474
0.321714282546
0.393793418098
0.416026129653
0.476941256053
0.339981237122
0.316132842626
0.28888332154
0.263424747931
0.250718550606
0.243113339875
0.240331123614
0.237900563537
0.237312987479
0.236817810761
0.237473808452
0.235836391444
0.233256855029
0.23025000641
0.226927403618
0.230584367673
0.279341373969
0.368459654941
0.415758176781
0.555870521726
0.58077757684
0.546352286832
0.502687747342
0.445293661864
0.388876479186
0.324699280432
0.273254218242
0.246966654818
0.235859559513
0.230772322885
0.228551620059
0.227584457622
0.228205289617
0.227766463958
0.224701876703
0.222664854129
0.240108640599
0.328975990182
0.410017193327
0.747383126501
0.792661572188
0.766249260508
0.743801804616
0.709626166312
0.659311123783
0.558413235091
0.410642443931
0.292422932879
0.241907096879
0.227138014026
0.222930049246
0.222771450155
0.224477443035
0.225404873997
0.224022620434
0.221758967469
0.222914662448
0.280606332182
0.388195113631
0.859067047343
0.853085098949
0.840589024055
0.831389213979
0.820834549837
0.800842864656
0.748867905551
0.623667366556
0.434922624398
0.290159070921
0.233939131393
0.221742585061
0.221493605649
0.222008846074
0.223557415912
0.22370888598
0.221648095728
0.221312988113
0.238478628492
0.350243338003
0.865053746429
0.862390193549
0.854901791098
0.845082202219
0.83772586834
0.823996455801
0.790590483821
0.712822711266
0.563294759426
0.38175878203
0.261004352508
0.22154357568
0.221312988113
0.22129746386
0.22197018942
0.222978949132
0.221825854686
0.22111569555
0.222011578981
0.307572101261
0.863175924067
0.863300409629
0.857717481274
0.846023676001
0.83791967971
0.824107574467
0.791820640486
0.723506129794
0.601354400878
0.442389218007
0.298665814703
0.221341167202
0.221097048545
0.221312988113
0.221217034842
0.22189781751
0.22169029323
0.221312988113
0.221094615422
0.271349485206
0.865200134554
0.863175924067
0.856644016043
0.842116920557
0.831418975991
0.816195991749
0.783501043276
0.717973612019
0.602980800324
0.457323256246
0.317067031628
0.225013609577
0.221312988113
0.220860177635
0.221312988113
0.221103773785
0.22139305874
0.221081500512
0.221312988113
0.246820597422
0.863175924067
0.863351175029
0.849105147976
0.827958196666
0.812858410697
0.794911448748
0.759603462953
0.694651084242
0.588554681258
0.452738828608
0.316583458352
0.227498217874
0.220923111537
0.221312988113
0.220627451264
0.221312988113
0.220986951748
0.221312988113
0.220728929937
0.234365887805
0.864686495381
0.857076402021
0.830790518322
0.802781386605
0.783961527884
0.762815941057
0.723459819303
0.65470762796
0.552004181084
0.426563210645
0.29945286756
0.224797056732
0.221312988113
0.220590935448
0.221312988113
0.220498705205
0.221312988113
0.220737525884
0.221312988113
0.229390526058
0.863175924067
0.83909713456
0.802362304189
0.770755065603
0.749883458951
0.724630072001
0.678968412398
0.603360144105
0.499635089808
0.378661388549
0.264395631514
0.221312988113
0.220931593024
0.221312988113
0.220366903781
0.221312988113
0.220464140142
0.221312988113
0.220536005678
0.228954906514
0.863546071202
0.808186124287
0.7691835332
0.737916631952
0.71546288697
0.682451677519
0.625550368404
0.541094530417
0.434103727056
0.316927732605
0.230974320321
0.221112155866
0.221312988113
0.220431857272
0.221312988113
0.220229519481
0.221312988113
0.220438865556
0.221312988113
0.229753123576
0.851669138096
0.767901714699
0.737993902986
0.711080968684
0.683923435504
0.637470597196
0.564843805747
0.468883696397
0.357531775944
0.254240951746
0.221218923511
0.221312988113
0.220510837761
0.221312988113
0.220103060511
0.221312988113
0.220222655321
0.221312988113
0.220396675525
0.232989829591
0.79793738305
0.725143113191
0.712930996691
0.693762668482
0.658736400277
0.594433500151
0.503021772641
0.39361694406
0.282286660318
0.222709406414
0.221312988113
0.220568856866
0.221312988113
0.220016659492
0.221312988113
0.220001893017
0.221312988113
0.220275878575
0.221205805053
0.235275610432
0.69863560887
0.686183610704
0.693859100322
0.682814176049
0.639936792476
0.557058917854
0.446666577162
0.326713905105
0.234658659673
0.221312988113
0.220585039128
0.221312988113
0.219921183946
0.221312988113
0.219795407136
0.221312988113
0.220056034138
0.221205805053
0.220308061888
0.235979116231
0.614697192385
0.643477961542
0.672878521445
0.665727299753
0.617928465738
0.521533843548
0.397841734547
0.27749420219
0.221634723416
0.220891835126
0.221312988113
0.219920408387
0.221312988113
0.219620854859
0.221312988113
0.219824786467
0.221205805053
0.220190425451
0.22102553032
0.234532586073
0.604906947251
0.591601912824
0.629783880197
0.627285210963
0.58068779308
0.480127848731
0.353649032685
0.246110873767
0.221119237874
0.221312988113
0.219998966153
0.221312988113
0.219465885805
0.221312988113
0.21965157845
0.221312988113
0.220086116959
0.222636582153
0.22081589174
0.230731670408
0.603817211641
0.51403575948
0.55527509633
0.555006788105
0.515551983221
0.422873505485
0.30675516515
0.227380000792
0.221312988113
0.220180826279
0.221312988113
0.219338887823
0.221312988113
0.219519799936
0.221312988113
0.221560385187
0.232912603597
0.229686369507
0.220456095852
0.223054725679
0.602797124294
0.421122190953
0.45984696445
0.457183318927
0.42449859695
0.3479422401
0.256666759561
0.221312988113
0.220483576104
0.221312988113
0.219213481065
0.221312988113
0.21935421031
0.221312988113
0.226936846014
0.240580816046
0.240181641807
0.229189356521
0.218729855693
0.218309958829
0.583095130987
0.379507170287
0.383804458393
0.38043938903
0.35132687059
0.287396743261
0.226004360477
0.220747907772
0.221312988113
0.21914709871
0.221312988113
0.219137607818
0.222478526251
0.238271101562
0.247575873789
0.245355007837
0.238463358752
0.22634205908
0.218600556721
0.217928171973
0.522135514293
0.379426413989
0.379789743191
0.380572969295
0.347752583106
0.283199810338
0.229776941323
1e-15
1e-15
1e-15
1e-15
1e-15
1e-15
1e-15
1e-15
1e-15
1e-15
1e-15
1e-15
1e-15
1e-15
1.0131675844e-15
1.025897791e-15
1.84113252483e-15
0.00543805904981
6.25857316427e-05
1.11359329718e-15
1e-15
1e-15
1e-15
1e-15
1e-15
1e-15
1e-15
1e-15
1e-15
1e-15
1e-15
1e-15
1e-15
1e-15
1.01919481733e-15
1.04919252229e-15
1.84123786315e-15
0.0153328471998
0.000404134018326
3.06485303912e-07
1e-15
1e-15
1e-15
1e-15
1e-15
1e-15
1e-15
1e-15
1e-15
1e-15
1e-15
1e-15
1e-15
1e-15
1.02632976896e-15
1.0642404646e-15
1.84081170651e-15
0.0322394789213
0.00166216082797
7.04327782566e-06
1e-15
1e-15
1e-15
1e-15
1e-15
1e-15
1e-15
1e-15
1e-15
1e-15
1e-15
1e-15
1e-15
1.00637993368e-15
1.03433258751e-15
1.07659080136e-15
1.83891205724e-15
0.0553387301029
0.00473080049629
5.20681587531e-05
1.11721170202e-15
1e-15
1e-15
1e-15
1e-15
1e-15
1e-15
1e-15
1e-15
1e-15
1e-15
1e-15
1e-15
1.01903493958e-15
1.04278484906e-15
1.0871477714e-15
1.83724637059e-15
0.0832335761575
0.0103593112026
0.000212163606448
1e-15
1e-15
1e-15
1.00794636378e-15
1.00939399508e-15
1.00428371923e-15
1e-15
1e-15
1e-15
1e-15
1e-15
1.00054867364e-15
1.01343972741e-15
1.02619638569e-15
1.05104219149e-15
1.09750034741e-15
1.83654274867e-15
0.113282466394
0.0186807965429
0.000604078247938
3.61947881905e-07
1e-15
1e-15
1.01429599514e-15
1.01668048499e-15
1.01799918684e-15
1.01505510062e-15
1.00804869419e-15
1.00571813315e-15
1.00763282407e-15
1.01241656631e-15
1.02046342642e-15
1.02599695138e-15
1.03247254563e-15
1.05841902794e-15
1.10954150495e-15
1.8367095016e-15
0.141077288489
0.0289051189216
0.00134040356479
3.16257210216e-06
1.0001486073e-15
1e-15
1.01297701308e-15
1.02327741895e-15
1.02503129594e-15
1.02579711338e-15
1.02474694556e-15
1.02411495509e-15
1.02485879864e-15
1.02637187021e-15
1.02864831931e-15
1.03178005158e-15
1.0375482605e-15
1.06439451741e-15
1.12434950471e-15
1.83799747833e-15
0.162625780909
0.039535147455
0.00244642764535
1.21468074875e-05
1e-15
1.0001387596e-15
1.00409394383e-15
1.02682958577e-15
1.02947293707e-15
1.03014304949e-15
1.02981152936e-15
1.02989402252e-15
1.0300722184e-15
1.03090031531e-15
1.03273063637e-15
1.03574648079e-15
1.04093510597e-15
1.06875813149e-15
1.14112783304e-15
1.84057018718e-15
0.177984343858
0.0494462681534
0.0038378079758
2.99312715029e-05
1e-15
1.00031878236e-15
1.00045289505e-15
1.01978884321e-15
1.03155038995e-15
1.03172451262e-15
1.03178028977e-15
1.03180726616e-15
1.03196476213e-15
1.03287675102e-15
1.03474297618e-15
1.03770082054e-15
1.04242927822e-15
1.07159349745e-15
1.15672445078e-15
1.84491958018e-15
0.190566838409
0.0588172231645
0.00543608371229
5.67849959071e-05
1e-15
1e-15
1e-15
1.00359643477e-15
1.02903929238e-15
1.03167848189e-15
1.03172451262e-15
1.03145056416e-15
1.0317310209e-15
1.0327816223e-15
1.03468115656e-15
1.03760281503e-15
1.04207539273e-15
1.07310693657e-15
1.16856944528e-15
1.8560926269e-15
0.205506675392
0.0692610929027
0.00732418314362
9.32989823487e-05
1e-15
1e-15
1e-15
1e-15
1.02321035384e-15
1.02945755103e-15
1.02887763603e-15
1.02868599307e-15
1.02927642673e-15
1.03052818384e-15
1.0324666384e-15
1.03535867708e-15
1.03965407118e-15
1.0736595717e-15
1.17679579399e-15
1.85476190502e-15
0.228783309699
0.083640305741
0.00990049182266
0.0001491773096
1e-15
1e-15
1e-15
1e-15
1.01735068527e-15
1.02338334456e-15
1.02383197658e-15
1.02426330408e-15
1.0251147049e-15
1.02642855503e-15
1.02834322843e-15
1.03117795085e-15
1.03554004993e-15
1.07383055359e-15
1.18149002588e-15
1.85656692732e-15
0.263648133077
0.104956741579
0.0141541638934
0.000273205392203
1e-15
1e-15
1e-15
1e-15
1.00811808687e-15
1.01586598022e-15
1.01835819104e-15
1.01913259616e-15
1.02002856302e-15
1.02127929576e-15
1.02307330207e-15
1.02577414648e-15
1.02990756889e-15
1.07422977746e-15
1.18331120879e-15
1.85505235989e-15
0.303917493982
0.1353400519
0.0222069832365
0.000633474942105
8.51934008745e-07
1e-15
1e-15
1e-15
1e-15
1.01042261017e-15
1.01301125998e-15
1.01374427364e-15
1.01458352603e-15
1.0157042888e-15
1.01731306207e-15
1.01982355369e-15
1.02383291641e-15
1.07618117293e-15
1.18255713469e-15
1.85619422584e-15
0.339064883149
0.177130279516
0.0376202872922
0.00172104952657
1.00996941722e-05
1e-15
1e-15
1e-15
1e-15
1.00474746541e-15
1.00762998591e-15
1.00856305456e-15
1.00929034888e-15
1.01022131842e-15
1.01159695619e-15
1.01391526226e-15
1.02136569635e-15
1.08120358301e-15
1.18041179527e-15
1.85542570486e-15
0.375452935562
0.230208128239
0.0649870204641
0.0049441282385
7.74990886536e-05
1.74862136291e-07
1e-15
1e-15
1e-15
1e-15
1.00346984859e-15
1.00431370567e-15
1.00483188378e-15
1.00550161737e-15
1.00654506119e-15
1.00857458811e-15
1.02238929691e-15
1.08932030694e-15
1.17712397201e-15
1.85589673548e-15
0.412561212109
0.285982495459
0.109989733883
0.0143322608207
0.000504843289816
4.12462203151e-06
1e-15
1e-15
1e-15
1e-15
1.00103026116e-15
1.00131525438e-15
1.00159955726e-15
1.0020010815e-15
1.00270059952e-15
1.004403132e-15
1.02740037222e-15
1.10144410635e-15
1.17622104769e-15
1.8558059001e-15
0.415758176781
0.333553669423
0.17474106865
0.0384657261584
0.00268056278102
5.69183769608e-05
6.50496311952e-08
1e-15
1e-15
1e-15
1e-15
1.0000092959e-15
1.00005144378e-15
1.00014023574e-15
1.0004034875e-15
1.00141766045e-15
1.03412759566e-15
1.11894400049e-15
1.18581664747e-15
1.85619151578e-15
0.416154590742
0.377505743082
0.247814881537
0.0857742628822
0.0110942560002
0.000527544651346
3.9800774485e-06
1e-15
1e-15
1e-15
1e-15
1e-15
1e-15
1e-15
1e-15
1.00002079171e-15
1.03919259513e-15
1.13495460966e-15
1.21470567899e-15
1.85657713147e-15
0.415758176781
0.415188274477
0.311280188993
0.150377078534
0.0335862891655
0.0030628372598
7.54507035435e-05
1.32358801274e-08
1e-15
1e-15
1e-15
1e-15
1e-15
1e-15
1e-15
1e-15
1.04324593793e-15
1.13982336571e-15
1.24644659045e-15
1.85696274715e-15
0.416105885345
0.415758176781
0.35261310033
0.213254598652
0.0724886591191
0.0113965561454
0.000678151643157
4.34543968805e-06
1e-15
1e-15
1e-15
1e-15
1e-15
1e-15
1e-15
1e-15
1.0476863347e-15
1.1383763231e-15
1.26433000924e-15
1.87532715794e-15
0.415758176781
0.416105747969
0.378184118422
0.262664924292
0.118484385627
0.0286659949202
0.00314225776128
7.94750019212e-05
1.08575979629e-15
1e-15
1e-15
1e-15
1e-15
1e-15
1e-15
1e-15
1.05308491153e-15
1.13810891221e-15
1.26514891843e-15
1.92191707518e-15
0.411480014083
0.415758176781
0.394979962736
0.299536753221
0.162144579003
0.0537368503258
0.00928581864782
0.000548442180836
2.54016445939e-06
1e-15
1e-15
1e-15
1e-15
1e-15
1e-15
1.00785185552e-15
1.06015393104e-15
1.14277037821e-15
1.26035728393e-15
1.97403913499e-15
0.394123612253
0.415929223104
0.406292342456
0.328275194719
0.2013829566
0.0835593836811
0.0202669574815
0.00222699159682
5.11266763818e-05
1.07143449926e-15
1e-15
1e-15
1e-15
1e-15
1e-15
1.02100785288e-15
1.07439231613e-15
1.15733468088e-15
1.24026357879e-15
2.02217605321e-15
0.36777851033
0.415758176781
0.413844610748
0.35263765911
0.237928666229
0.116226885209
0.0363245184838
0.0061383259555
0.000346413699849
1.76014936116e-06
1e-15
1e-15
1e-15
1e-15
1e-15
1.02021843212e-15
1.09199637661e-15
1.19469780348e-15
1.22231860228e-15
2.06484390012e-15
0.342836807021
0.414700132496
0.419511548034
0.374345625404
0.27273425268
0.150354447149
0.0569794787415
0.0131122558894
0.00144559748626
4.32727858319e-05
2.83101652959e-08
1e-15
1e-15
1e-15
1e-15
1.00292923788e-15
1.08740555983e-15
1.21852731535e-15
1.24200972169e-15
2.10391158296e-15
0.325764247491
0.410536589853
0.425917726888
0.392982838495
0.303915068205
0.184539769829
0.081713691244
0.0239469756565
0.00415703769928
0.000325306496728
6.67778811985e-06
1.80905371575e-09
1e-15
1e-15
1e-15
1e-15
1.05395535617e-15
1.20601498365e-15
1.30392936784e-15
2.15033396974e-15
0.315671698507
0.405335185839
0.42736950029
0.407085891579
0.331517953399
0.219859412468
0.111313301751
0.0397815182106
0.00938066068492
0.00137077940493
9.56324910903e-05
1.1799121332e-06
8.09045375342e-12
1e-15
1e-15
1e-15
1e-15
1.13861029206e-15
1.35692838473e-15
2.22648605769e-15
0.310427690434
0.398135035198
0.427392978822
0.417209688143
0.358921400726
0.258630778133
0.147423025001
0.0621770230424
0.0183338024155
0.00376977217705
0.000485563820428
2.34298457818e-05
6.45086013701e-08
1.10731740859e-15
8.05255111903e-15
1.43294849191e-14
1.50107951917e-14
2.52979643107e-15
1.37616130697e-15
2.31794630481e-15
0.307342633658
0.389836056527
0.426594046159
0.426587037868
0.387785331849
0.300763678056
0.1904222608
0.0918507694584
0.0319294319094
0.00801312111534
0.00146721099974
0.000143412882503
2.71316730395e-06
4.13245936658e-12
3.81605753072e-10
6.66947793072e-10
6.72404441393e-10
5.20587044873e-11
1.28232896958e-13
3.56392702544e-15
0.303576538473
0.38008340847
0.425659753935
0.439557845487
0.414486945269
0.34116541544
0.233630232265
0.124016274777
0.048838785573
0.0142275314842
0.00318253615855
0.000462550509921
2.1770960113e-05
2.30209854376e-07
1.45666208099e-06
3.50589976255e-06
3.73177297127e-06
2.42899233466e-07
9.86205283975e-10
2.7232333448e-11
0.297580438006
0.371094111168
0.426375072109
0.452231110701
0.437509543132
0.373680691283
0.267044627119
0.151770701013
0.0669260336811
0.022596052234
0.00596539931213
0.00115922163031
0.000114177853337
3.1590616226e-05
0.000333811648345
0.00114433379618
0.00131770109504
0.000130897299236
2.35624201589e-06
1.98417638511e-07
0.288290749296
0.364285950328
0.430339675891
0.456210271442
0.454732508946
0.398629192441
0.294714683923
0.180396445424
0.0899695896219
0.0360717387183
0.0116965462682
0.0029793757091
0.000699328396668
0.000883199393324
0.00907441970067
0.0400106080444
0.0507254823781
0.0133502140047
0.000944072161834
8.14480422146e-05
0.274368624872
0.357265326356
0.436831914813
0.45662409223
0.456492059628
0.424957803775
0.336658815711
0.226244389951
0.130238230988
0.0643289966231
0.0273776487539
0.0107318045257
0.00730188142017
0.0134751467097
0.0685955451312
0.248900071538
0.3197903464
0.19451840374
0.0460932086463
0.00361799108809
0.256856902389
0.344566448091
0.436788204344
0.456492059628
0.45730457349
0.456528620964
0.408441200464
0.320363796759
0.226055215127
0.145564488149
0.0875388264424
0.0662015726657
0.0783307186434
0.127709536989
0.284431299517
0.42444033105
0.426284398766
0.424451321226
0.286303947021
0.022457391862
0.238543753395
0.319484072185
0.427897795316
0.457279883707
0.456737840916
0.458095092631
0.456990266978
0.445034180596
0.405308291844
0.356262165997
0.322567958722
0.316308511662
0.332639702987
0.365508415523
0.425186755959
0.426562273966
0.424525953884
0.426048338388
0.417883893786
0.0435861280578
0.223748861441
0.280673820415
0.396661435857
0.456737840916
0.458215708846
0.456990266978
0.459313942588
0.457259241128
0.45950170575
0.457517709805
0.459324643656
0.457744960657
0.458035960762
0.436591014107
0.426087749917
0.425186755959
0.426175472778
0.424451321226
0.424249143168
0.0514856449939
)
;

boundaryField
{
    emptyPatch
    {
        type            empty;
    }
    minY
    {
        type            fixedValue;
        value           nonuniform List<scalar> 0();
    }
    maxY
    {
        type            inletOutlet;
        phi             phi.gas;
        inletValue      nonuniform List<scalar> 0();
        value           nonuniform List<scalar> 0();
    }
    water_to_cooler
    {
        type            zeroGradient;
    }
    water_to_heater
    {
        type            zeroGradient;
    }
    procBoundary3to1
    {
        type            processor;
        value           nonuniform List<scalar> 
41
(
0.221312988113
0.219817024483
0.224623679751
0.234422255162
0.245405624915
0.257113082681
0.261471259169
0.250065452065
0.241017703224
0.232647898565
0.223995452758
0.218875164435
0.217944986196
0.501941638723
0.426443116041
0.452806877248
0.449482468363
0.406333822882
0.343682780287
0.221312988113
0.304528602504
0.218034513912
0.240044934441
0.337867109243
0.440588632154
0.456990266978
0.458705035782
0.457259241128
0.460212773508
0.457517709805
0.46037789853
0.457744960657
0.459460422676
0.457744960657
0.413209701795
0.336995661109
0.388457003067
0.42444033105
0.425465674806
0.423737756247
0.040422203732
)
;
    }
    procBoundary3to2
    {
        type            processor;
        value           nonuniform List<scalar> 
41
(
0.591997839505
0.66198974213
0.631232335728
0.603044728784
0.521755668531
0.430807269626
0.368704394799
0.328796517635
0.290888543759
0.25854800718
0.243312145803
0.241637224141
0.247509227889
0.266575711513
0.326231655173
0.379008082379
0.379080240453
0.33568411576
0.179164968533
0.0340427284346
1e-15
1e-15
1e-15
1e-15
1e-15
1e-15
1e-15
1e-15
1e-15
1e-15
1e-15
1e-15
1e-15
1e-15
1.00797366563e-15
1.00050656528e-15
1.84177422151e-15
0.00136942109205
6.32560042204e-06
1.00629634984e-15
1.00629634984e-15
)
;
    }
}


// ************************************************************************* //
