/*--------------------------------*- C++ -*----------------------------------*\
| =========                 |                                                 |
| \\      /  F ield         | OpenFOAM: The Open Source CFD Toolbox           |
|  \\    /   O peration     | Version:  2312                                  |
|   \\  /    A nd           | Website:  www.openfoam.com                      |
|    \\/     M anipulation  |                                                 |
\*---------------------------------------------------------------------------*/
FoamFile
{
    version     2.0;
    format      ascii;
    arch        "LSB;label=32;scalar=64";
    class       volScalarField;
    location    "0.95/water";
    object      km;
}
// * * * * * * * * * * * * * * * * * * * * * * * * * * * * * * * * * * * * * //

dimensions      [0 2 -2 0 0 0 0];

internalField   nonuniform List<scalar> 
6000
(
0.0338862299203
0.00778720908455
0.00146554828262
0.000303091764368
0.00014804852756
0.000138550582803
0.000140151396256
0.000141303960587
0.00014176612154
0.00014170215838
0.000141291491736
0.000140713999604
0.000140105162979
0.00013954668816
0.000139076920641
0.00013870513188
0.000138424327119
0.000138220566825
0.000138078853675
0.000137986234315
0.475899170417
0.147115759409
0.0399262821233
0.0091590288339
0.00172761471799
0.000345633658977
0.000154617871508
0.000141095004146
0.000142441111312
0.00014304636223
0.000142936366109
0.000142455906554
0.000141788812768
0.000141056330389
0.000140345531723
0.00013971263285
0.000139185895267
0.000138772082759
0.000138464722615
0.000138251566132
0.665433988548
0.249525855528
0.0890834415896
0.028484037486
0.00738227464763
0.00146237565468
0.000300863686719
0.000151332656816
0.00014247363095
0.0001434720933
0.000143865909945
0.000143684849243
0.000143190064445
0.00014251710517
0.000141761143003
0.000141001695318
0.000140301260903
0.000139700928264
0.000139220663209
0.000138864298752
0.816800699204
0.325371849131
0.128935837642
0.0491023777121
0.0164751278639
0.00428431985835
0.000837644685594
0.000213284778157
0.000146321087164
0.000143536272637
0.000144219863531
0.000144389341688
0.000144153864573
0.000143665779107
0.000143013112509
0.000142270460297
0.000141510784619
0.000140799108178
0.000140183937574
0.000139693956188
0.891251066981
0.373739479681
0.157501696163
0.0657753633492
0.0257016586432
0.0084756137966
0.00205439472196
0.000414050465495
0.000166003347518
0.000144621027025
0.000144290966693
0.000144715650853
0.000144745601195
0.000144478492171
0.000143994778634
0.000143355515541
0.000142626469931
0.000141879302673
0.000141181335824
0.000140585025549
0.899685667391
0.396704089802
0.176491698413
0.0785378374859
0.0337428599038
0.0130346074713
0.00400464422109
0.000894950096292
0.000232225491669
0.000150469836727
0.000144632349789
0.000144880560979
0.000145116641637
0.000145056701575
0.000144749587347
0.000144242325752
0.000143587887052
0.000142853207876
0.000142113066636
0.00014143707882
0.895860123435
0.403863455909
0.186405716043
0.0870431890844
0.0399763914536
0.0172211145529
0.00634430705396
0.00175903219395
0.000404540493905
0.000171366742956
0.000146486896599
0.000145158009858
0.000145422714594
0.000145519974645
0.000145363809411
0.000144978540844
0.00014440420722
0.000143699006898
0.000142937551802
0.000142199164942
0.8984022557
0.406940939819
0.191572814973
0.0923839038383
0.044513853809
0.0207058657174
0.00872218119125
0.00296224404099
0.000756346744311
0.000231005578907
0.000153266293823
0.000145989688018
0.000145795320647
0.000145949665759
0.000145897294737
0.000145602797244
0.000145090865541
0.00014441077678
0.000143633379982
0.000142842492142
0.90050743075
0.408930242968
0.194240730242
0.0955803759068
0.047711232281
0.0235525913589
0.0109332566523
0.004355433408
0.00133915685028
0.000369987112232
0.000174685275165
0.000148475533432
0.000146402364847
0.000146399070461
0.000146376090081
0.000146127014639
0.000145647522924
0.000144977125957
0.000144182028728
0.000143347240634
0.89935676916
0.408825216018
0.194917727652
0.0971741082484
0.0498937301901
0.0257970426309
0.0128580778183
0.00575547851929
0.00209305987402
0.000623785288557
0.000230740364206
0.000155620936427
0.000147555523789
0.000146918052363
0.000146806272883
0.000146544438779
0.000146061943237
0.000145383930441
0.000144570557894
0.00014370284659
0.894298542129
0.406264572567
0.193967299037
0.0977194003901
0.0514062610365
0.0275366656055
0.0144238067788
0.00699114709866
0.00291329667554
0.000983291444663
0.000342323866252
0.000174379117655
0.000149874496331
0.000147565508981
0.000147186135082
0.00014684384504
0.000146325739158
0.000145628774705
0.000144801110356
0.000143914535639
0.889611112823
0.402445790617
0.192370966993
0.0979809793176
0.0526006884661
0.0288588643706
0.0155569495986
0.00797627058581
0.00368717231143
0.00140834632992
0.000511101025397
0.000217358898344
0.000154802440969
0.000148469089137
0.000147536434018
0.000147039241252
0.000146459181598
0.000145737580547
0.000144902675314
0.000144012402576
0.891700317638
0.401555896193
0.192699281359
0.0991799000894
0.0538563096287
0.0298181860099
0.0163121690217
0.0087390952934
0.0043904943947
0.00187508397414
0.000726047291463
0.000301066286268
0.000166972148864
0.000150124652646
0.000147957892242
0.000147196108685
0.000146528490875
0.000145778071241
0.000144940385767
0.000144054793967
0.905437752141
0.408068656171
0.197526081166
0.102295596987
0.0554123308173
0.0305186105541
0.0168534719353
0.00939709803795
0.00507843191796
0.00242219651236
0.00100521432187
0.000433982782728
0.000201431421975
0.000154204409233
0.000148748045102
0.00014745939441
0.000146655136027
0.000145860284769
0.000145010116993
0.000144120415715
0.92369349911
0.427616467319
0.209796469487
0.107669691632
0.0569965556672
0.0309628456933
0.0173480668468
0.0100578579949
0.00586006250822
0.00308244420492
0.00135931305166
0.00061920738826
0.000285928427636
0.000166529392528
0.000150688579367
0.000148074713517
0.000146998196527
0.000146112561263
0.000145215472453
0.000144288506175
0.99635428572
0.468872202403
0.227711937166
0.113157497096
0.0581780550929
0.0314639565592
0.0180302047431
0.0108748919473
0.00672394133322
0.0038364741092
0.00179157999218
0.000857898887816
0.000444100546513
0.000207268173419
0.000155720117887
0.000149378300796
0.000147708238147
0.000146641302281
0.000145637158059
0.000144616990981
1.14286782189
0.51822940363
0.243057037564
0.118119905258
0.0601826032055
0.0327220759399
0.0190905037819
0.0118533583034
0.00761502030928
0.00463387367685
0.00228513510904
0.00112198524294
0.000667402675243
0.000316159408916
0.000169680520476
0.00015187772433
0.000148882240239
0.000147497093609
0.000146312588786
0.00014513186681
1.24012044431
0.549256426081
0.256110123971
0.124340148783
0.0633869211137
0.0345717609177
0.0203281407136
0.0128180337941
0.00845400798654
0.00537929002923
0.00280533792919
0.00137129550479
0.000898351999157
0.000509341694485
0.000209037028458
0.000156634747894
0.000150561127182
0.000148670443153
0.000147236983697
0.000145832491447
1.27121941248
0.565948335545
0.265057303231
0.129280214095
0.0662067408483
0.0362489555981
0.0214164742318
0.0136309013121
0.00915688264567
0.00601616605501
0.00323315910414
0.00157942100898
0.00107479634082
0.000730414678668
0.000297353944266
0.000166320352464
0.00015281632346
0.000150117217623
0.000148378554707
0.000146703687952
1.28226823569
0.572910025832
0.269365247768
0.132076439881
0.0679334738317
0.0373248648702
0.0221390707703
0.0142131046877
0.00972776180896
0.00655133610807
0.0035677461287
0.00169731474063
0.00118210912459
0.000904721046398
0.000432777682918
0.00018508168346
0.000155733007871
0.000151773210678
0.000149691024053
0.00014772227279
1.2865672192
0.575883036638
0.271754809972
0.133573098159
0.0688061977327
0.0378683877449
0.0225704136028
0.0146816871305
0.0102622638724
0.00700645482663
0.00382700465802
0.00178280274409
0.00124747313858
0.00101129377444
0.000571763991898
0.000215336084482
0.000159497141143
0.000153575495087
0.000151113395598
0.000148850714175
1.29053751421
0.578548988341
0.273668034755
0.134636221083
0.0693746238272
0.0382569071783
0.022980114411
0.0152221207206
0.0107945367846
0.00738832023225
0.00406473279004
0.00187778194044
0.00130789322255
0.00108580860985
0.000684381077388
0.000258410225982
0.000164501148752
0.00015545258043
0.000152551959818
0.000150021821499
1.30558623797
0.583108343358
0.27588004696
0.135834128402
0.0701008782968
0.0388007579511
0.0235565906004
0.0158401055528
0.0112618465056
0.00772939177066
0.00433685433987
0.00202026537541
0.001395463342
0.00116863515557
0.000785710612128
0.000321950700067
0.000171861074114
0.000157362319935
0.000153878509977
0.000151131444581
1.33181449965
0.592287357197
0.279252978079
0.137601392767
0.0712507724279
0.0396469733849
0.0243126724589
0.0164241526888
0.0116530713758
0.00806812106347
0.00468509633476
0.00223856241889
0.0015191534738
0.00128230783048
0.000908976802504
0.000419739470187
0.000186244389279
0.000159631904502
0.000155001134324
0.000152061995108
1.36198784573
0.602669708329
0.283232466986
0.139751177119
0.0726915356106
0.0406876108566
0.0250646410319
0.0168799279809
0.0119803485088
0.00840081251976
0.00507785137911
0.0024972921622
0.00165420037473
0.0014457657237
0.0010815778168
0.000568823368615
0.000221201730761
0.000163307978344
0.000155958671447
0.000152733798441
1.38350349511
0.609371880588
0.285834338969
0.141587706188
0.074147717652
0.0417060280055
0.0256451370415
0.0171831197749
0.0122082322296
0.00866381457871
0.00539034182454
0.00270475783763
0.00176843078535
0.00159536422032
0.0013052528744
0.000778840269645
0.00030075319912
0.000170581739359
0.000156999154339
0.000153159270628
1.39086361042
0.607520459783
0.285483006447
0.142930811626
0.0756269238323
0.0425927949712
0.0259802231564
0.0172786939052
0.0122609798952
0.00874592311682
0.0054972034895
0.0028666080337
0.00185131840619
0.00168982592799
0.00152257819258
0.00102768714819
0.000444349393062
0.000187195672178
0.000158677444484
0.000153456873219
1.37492117884
0.598422006259
0.285448194539
0.145541207677
0.077554601153
0.0432608585847
0.0259441210374
0.0170564380778
0.0120344637273
0.00851305008419
0.0054772086992
0.00299654161794
0.00188938111943
0.00172703829984
0.00161582079652
0.00124774846537
0.000638997103034
0.000226639864211
0.000161900514907
0.000153794165347
1.31720414215
0.592675246095
0.291554783087
0.15117583495
0.0798346259507
0.0433165314126
0.025376666945
0.0165078261018
0.0115402535425
0.00816768687388
0.00542567852542
0.00307784670326
0.00188777950695
0.00170839567382
0.0016278709449
0.00138069510566
0.000841128335113
0.000308360147125
0.000168273386294
0.000154355954363
1.26994850285
0.60538915476
0.307797693576
0.159196451648
0.080862473398
0.0429128111213
0.024880683103
0.0159897553509
0.011089326705
0.00790978882263
0.00540119460166
0.00314676451046
0.00185889488624
0.00164166372657
0.00159004331937
0.00142435741268
0.00101118082773
0.000440883200691
0.000181726755195
0.00015542141973
1.30310428441
0.644004223874
0.330440620373
0.165970898967
0.0831095437919
0.0437557285342
0.0250944764673
0.0159210905318
0.0109686606709
0.00787956795306
0.00551207575916
0.00327623731069
0.00183581514934
0.00154708380732
0.00152346368834
0.00141366635079
0.00113431079238
0.000607068510566
0.000211679492052
0.000157549609705
1.42051710212
0.694655992286
0.347414026611
0.174391314376
0.0885862642572
0.0468565866994
0.0265946195744
0.0165848932098
0.0112850285325
0.00813890004715
0.00582405342098
0.00353932557835
0.00186935249783
0.00145745356017
0.00145270745865
0.00140361872473
0.00122416156058
0.000779375480917
0.000274215695568
0.000161942215839
1.64129078753
0.738597268689
0.359104290903
0.186472530286
0.0989037929096
0.0522821779098
0.0293003285301
0.0179065535731
0.0119856729562
0.00864670343226
0.00630790630451
0.00394911671105
0.00200377364374
0.00140750978073
0.00140087188815
0.00141041830194
0.00129853009128
0.000939040896257
0.000384459944333
0.000171283889944
1.77091511786
0.785653378862
0.37943220199
0.19891909072
0.108422765734
0.0587984479625
0.0327791858153
0.0196586673728
0.0129487865745
0.00931166884419
0.00688592361251
0.00445676075704
0.00224112663985
0.00141754985219
0.00137913189097
0.00143195056295
0.00134378458821
0.00107447973549
0.000538707338251
0.000191460584973
1.83397206723
0.820829811603
0.396520540819
0.208168683416
0.11496855642
0.0635760821056
0.0357534712535
0.0214095839843
0.0140027303297
0.0100344366747
0.00746103178976
0.0049634056358
0.00255219985251
0.00148333244816
0.00138610104539
0.00146225619698
0.00138420212253
0.00118282126968
0.000708545940213
0.000232446213161
1.86406098631
0.84106659687
0.407938561831
0.214099424509
0.118769418014
0.0662643615464
0.0376486843935
0.0227093298741
0.0148974977245
0.0106937129771
0.00796706352594
0.0053768034132
0.0028423415745
0.00158742580859
0.00141576625299
0.0014950373096
0.00142591794024
0.00125113169136
0.00086104879987
0.000303923468707
1.87226755092
0.851395061542
0.414662885809
0.217288867969
0.120164596502
0.0671120254315
0.0384952485853
0.023496581562
0.0155691616452
0.0112526464331
0.00838990676271
0.00568917692613
0.00306417051073
0.00168982246316
0.00145943233053
0.00153408177577
0.00147348556055
0.00129745667126
0.000978883944945
0.000406851903795
1.87786386852
0.855563383089
0.416869698474
0.217633453172
0.119326769322
0.0664155257606
0.0385164696189
0.0238768082476
0.016059926722
0.0117143900423
0.00872175609448
0.00590606745637
0.00321740677613
0.00177813088204
0.00151091825545
0.0015786574188
0.00152631016144
0.00134748192951
0.0010703982218
0.000531571191056
1.8919830239
0.861923491509
0.418854774767
0.21711927521
0.11724496343
0.0650493847631
0.0381930331322
0.0240614039196
0.0164467699963
0.012084587364
0.00895802539059
0.00603776092397
0.00331477334646
0.0018525768858
0.00156654302488
0.00162667319644
0.00158441534681
0.00141117636814
0.00115743065964
0.00066557413886
1.91540125025
0.869937607794
0.421546833338
0.216376146452
0.114900699703
0.0637805256319
0.0378471750238
0.0241719944838
0.016763846275
0.0123568575157
0.00909711703626
0.00609569398291
0.00336942935216
0.0019154349625
0.00162345155607
0.00167445655737
0.00164780114538
0.00149440117301
0.00125737125316
0.00080071054332
1.94525499998
0.880336220414
0.425065214679
0.215581309359
0.11326585349
0.0629707103304
0.0375760125456
0.0242611366565
0.0170081559846
0.0125132085827
0.00914288831632
0.00609178562398
0.00339166940664
0.00196671716174
0.00167494800764
0.00171775141063
0.00171701973325
0.00159796490526
0.00137542812015
0.000934193921584
1.98432327482
0.892753996513
0.428383166213
0.21521847293
0.112671516148
0.0625533302675
0.0373736212341
0.0243537968798
0.0171510145997
0.0125459345129
0.00910544403125
0.00603893212387
0.00338944419206
0.00200375588317
0.00171337448832
0.00175435270495
0.00179200219617
0.0017195601617
0.00150530976726
0.00106662185564
2.03327055678
0.905601315055
0.431402081282
0.215740896332
0.112670674429
0.0622662505387
0.0372111309427
0.0244078137244
0.0171485619766
0.01246356999
0.00899757812511
0.00595024742297
0.00336928696795
0.00202503428392
0.00173544123795
0.00178562644693
0.0018719492131
0.00184652452199
0.00161859222924
0.00119810535753
2.08665619494
0.921218428112
0.436289362004
0.217418384553
0.113049536908
0.0620992580086
0.0371318633867
0.0243625909241
0.0170028676861
0.0123007836088
0.00884116196956
0.00584206689766
0.00334011089373
0.0020330918498
0.00174465656815
0.00181415946159
0.00194781156778
0.00195483382273
0.00172755334913
0.00132708844476
2.1076672368
0.929809709717
0.440661764695
0.2193008624
0.113414173014
0.0619338608819
0.0370296317661
0.0241750120999
0.0167770054969
0.0120976155665
0.00865813450279
0.00572943235055
0.0033117704359
0.00203098448917
0.00174857719707
0.00183841224398
0.0020076435024
0.0020407505588
0.00183434562133
0.00145018708073
2.06688529076
0.925044406095
0.442630970045
0.220310501375
0.113100607714
0.0614686360516
0.0367480075204
0.0239011939273
0.0165561706622
0.0118925385402
0.00846625940227
0.00562155847387
0.00329223446161
0.00202304893863
0.00174973563726
0.00185228986131
0.00204646467614
0.00210674362706
0.00193530699183
0.00156558855053
2.00525570599
0.917073912145
0.442605972171
0.219411528978
0.111636352123
0.0606368590648
0.036451109773
0.0237772460507
0.0164560567872
0.0117335409087
0.00828276063672
0.00552136697232
0.00328423321767
0.0020084492597
0.00173425099483
0.0018459223585
0.00205695191933
0.00214920872874
0.00202848086239
0.00166547002233
2.00526060598
0.923605076173
0.443066853022
0.217162710646
0.109876264104
0.0602373510988
0.0367506241065
0.0241411236203
0.0166271139051
0.0116733977071
0.00811408219431
0.00543768179756
0.00329499704973
0.00199422465763
0.00170168577476
0.00180972097492
0.00202899532842
0.00216144173855
0.00210239353549
0.00174691976954
2.0904046876
0.953400391585
0.446608376683
0.215626293467
0.109928539086
0.0618154736654
0.038491551004
0.0253821640848
0.0172447146976
0.0117346898636
0.00798393792036
0.005401134693
0.0033377036002
0.00198507161877
0.00165049904053
0.00174389527958
0.00195777688707
0.00213255424385
0.00213367110268
0.00181875319435
2.27311337878
0.994100209407
0.449628503538
0.216704691811
0.113775260285
0.0664232055397
0.0421915597879
0.0277448847288
0.0181940599266
0.0118991246731
0.00800976508755
0.00548427965363
0.00345009421836
0.00199578388352
0.00159048628447
0.00166053215988
0.00185044249558
0.00205921556536
0.00212583369911
0.00188000425617
2.5139388729
1.01499176213
0.449800332495
0.221557149904
0.120880324883
0.0730403419141
0.0472797339475
0.0305885561037
0.0193665790769
0.0123555618687
0.0082735360369
0.00572809831502
0.00367223156147
0.00207021980844
0.00155174287769
0.00157096327392
0.00173044805558
0.00195805975787
0.00209269546351
0.00192104362929
2.57788169383
1.00627832748
0.449256551754
0.226447629823
0.127078879572
0.0785447377452
0.0515349389412
0.0334766015887
0.0208834479064
0.0131280400338
0.00874214666184
0.00611226685369
0.00401472247094
0.00225545054257
0.00156911577359
0.00151305612971
0.00162964081178
0.00185672026604
0.00205314555982
0.00195653364937
2.48953196793
0.966148569663
0.436690284599
0.224468235541
0.128604416224
0.0807895005357
0.0536107846893
0.0353928191395
0.0223233791325
0.014001251103
0.00932067104292
0.00657921249281
0.00442936282085
0.00254736790326
0.00166420222087
0.00150197572392
0.00156789701473
0.00178031405269
0.00203075337105
0.00199836062233
2.37012670368
0.918701827361
0.419961356313
0.218758588348
0.126853513321
0.0803673907106
0.0537341250764
0.0358820774896
0.0228876604517
0.0145380308892
0.00980962710819
0.00701298385593
0.00482375838147
0.00286019723446
0.00181031848171
0.00153260252924
0.00153789126489
0.00173859448232
0.00203876380714
0.00206005497423
2.26686389143
0.880724871464
0.40617694294
0.2126228452
0.123722571368
0.0783200112984
0.0522230742077
0.0348002343695
0.0223808417575
0.0145621048281
0.0100848402315
0.00733358137315
0.00513304928848
0.00311987457166
0.00195457536845
0.00158454115145
0.00153904775127
0.00173171389892
0.00207923553916
0.00214486038478
2.1880402408
0.857183157663
0.397076082528
0.207745401029
0.120664942711
0.0756600615535
0.0496124527637
0.0326353185466
0.0212186861827
0.0142677714701
0.0101961079266
0.00752119795463
0.00531370059253
0.00328068952273
0.00206283684181
0.00163628536832
0.00155263164372
0.00173796716981
0.00214073115388
0.00223907063051
2.13443313167
0.843846922697
0.393215097821
0.207003440297
0.120203363221
0.0740548077655
0.0472050670418
0.0305336950868
0.0201488937239
0.0139905580131
0.0102224663789
0.00756433629516
0.00532539851517
0.00332513643891
0.00212685754408
0.00166958609746
0.00156628882196
0.00174355990619
0.00219832055245
0.00232041717373
2.06436659581
0.834618319471
0.398721706583
0.215292128414
0.124933357413
0.0749705205586
0.0462352902892
0.0294252006642
0.0196363788261
0.0138570348549
0.0101195914326
0.00742646878901
0.00517139512543
0.00327665208039
0.0021380981159
0.00167570344142
0.00157301910846
0.00172932438158
0.00222316563104
0.00237879865754
1.92495042983
0.834232194125
0.424278507001
0.236513355543
0.135337775499
0.0786327445996
0.0470167001574
0.0295571095452
0.0197030710917
0.0137646460952
0.00990236396472
0.00714188142454
0.00492674761685
0.00316975558331
0.00209895236205
0.00165475879102
0.00154348875276
0.00167209814539
0.00218715813568
0.00239989562911
1.79512278888
0.893139794856
0.484519289027
0.270305949049
0.15070496145
0.0841259215123
0.0489965586163
0.0305099526266
0.0201160452532
0.0137792370273
0.00970716578471
0.00687070115487
0.00469049822672
0.0030279412506
0.00201653721475
0.00159218933045
0.00146645898289
0.00156088977943
0.00207119716835
0.00236951487051
1.96707639033
1.06607630102
0.580993264735
0.313591524699
0.167286300336
0.0910998709188
0.0526963800814
0.0325854445068
0.0211251984875
0.0141444895143
0.00973007958662
0.0067427780459
0.00452098382964
0.00288003375187
0.00190215078395
0.00148322659366
0.00135405642556
0.00141279252259
0.0018844906999
0.00227364916984
2.56577170722
1.34793428541
0.685416343305
0.352320873316
0.185979163686
0.102471807477
0.0597540055789
0.0367503402181
0.023412753906
0.0152719854124
0.0102100856045
0.00689220388028
0.00450157575463
0.00278265833613
0.0017800121653
0.00135456679911
0.00122981532066
0.00127447291025
0.00166970076576
0.00211678940342
3.43468312583
1.6206414716
0.768276661229
0.39405566185
0.213015329219
0.119709609318
0.0704232295052
0.0432886516153
0.0273044021177
0.0174336486569
0.0113323147162
0.00743944843953
0.00471554191434
0.00279899835829
0.00170133719607
0.00124645969964
0.00112056402575
0.00115902203688
0.00144844914683
0.00193353881025
3.99370082644
1.74817238944
0.853204063569
0.455274437077
0.251648447027
0.140975699508
0.0826168903207
0.050859554886
0.0321160717155
0.0204073047816
0.0130676252038
0.00840783089281
0.00520388242987
0.00298402691646
0.00171904923106
0.00119666674291
0.00105188161296
0.0010781037995
0.00127731635391
0.00176502299873
4.08025235737
1.78535166861
0.889453253464
0.491607039622
0.286873144339
0.163357818695
0.0948976085434
0.0581904099448
0.0368760648569
0.0235834031543
0.0151441700355
0.00967846715552
0.00592058782636
0.00334057432266
0.00185523027409
0.0012238450495
0.00103650031299
0.00104214263887
0.00119263829461
0.00163504670043
3.98138586476
1.76833232138
0.898753890384
0.508068069419
0.304583408931
0.177492257512
0.104364508461
0.0641172417345
0.0408393717989
0.0264382882973
0.0172059028549
0.0110461279126
0.00675701371229
0.0038237437804
0.00210067951744
0.00132774798343
0.00107466722528
0.00104975778046
0.00116036111492
0.00152019431657
3.76621999007
1.70687889545
0.886265058948
0.50815211585
0.307252366488
0.181977234937
0.10863762199
0.067207553626
0.043164039059
0.0283914747673
0.0188192846407
0.0122207507786
0.00753486765876
0.00432293927716
0.0023960406531
0.0014827754012
0.00115485873687
0.00109470843715
0.0011727484457
0.00145302808945
3.44738733135
1.62428665883
0.861234061201
0.498328458821
0.300311538969
0.180695101886
0.109129247761
0.0679161391449
0.0439942727885
0.0294309377244
0.0198822711214
0.0130805287218
0.00816433909102
0.00477401834675
0.00269658276201
0.00166254216241
0.00126177056112
0.00116533522997
0.0012168371765
0.00143731520323
3.17243517464
1.53547334297
0.831712938816
0.48666413619
0.294003574003
0.177803185628
0.107786408958
0.0672275093273
0.0438682160599
0.0298186828714
0.0204699709477
0.0136216484797
0.00863075825363
0.00516153657094
0.00298651114259
0.00185379037701
0.00138470902566
0.00125210239191
0.00128041093669
0.00145716591242
3.00130323856
1.47561246751
0.805846203533
0.474876434871
0.287899728299
0.174019290601
0.105537778149
0.0658932322639
0.0433163639712
0.0298381705448
0.020687871199
0.0138948017523
0.0089582160696
0.00549280638963
0.0032641344289
0.00205040375249
0.0015165771561
0.00134666940076
0.0013526126233
0.00149410594877
2.87413735207
1.42664811719
0.781270498612
0.460161180607
0.27840580053
0.16858576647
0.102569231935
0.0643370213353
0.0427085818684
0.0296612569496
0.0206125583229
0.0139737365133
0.00918546804092
0.00578425852093
0.00353379381658
0.00225075605312
0.00165239112335
0.00144208199664
0.0014236069311
0.00153417965855
2.79010484719
1.36394646086
0.744288827024
0.437125660151
0.264716428446
0.161236120981
0.098942197584
0.0627975552133
0.0421354606422
0.0292728584046
0.0203224741157
0.0139387980152
0.00935389212845
0.00605372368254
0.00380258138987
0.00245514915599
0.00178883354582
0.00153173657017
0.001483987336
0.00156316966811
2.70425938401
1.29333403956
0.698427463151
0.407696157992
0.247186772939
0.151826630373
0.0945701547102
0.0611452996513
0.04133251255
0.0285940974702
0.0199233437865
0.0138546030825
0.00949132711955
0.00631268319832
0.00407498467886
0.0026645959416
0.00192282256922
0.00160974831216
0.00152488830108
0.00157051480381
2.62349330892
1.21968644628
0.647539693812
0.374360121699
0.227126550886
0.14108005914
0.0897566506441
0.059082000964
0.0400614340249
0.0277699712084
0.0195218985453
0.0137611455689
0.00961032529109
0.00656315844518
0.00435180802091
0.00287852963531
0.00205198518314
0.00167044995243
0.00153965595838
0.00154799367063
2.51827140504
1.1389209132
0.596917495885
0.343143318313
0.208661005141
0.13125252342
0.0850746863919
0.0566275121122
0.038678167736
0.0270844890461
0.0192209340946
0.0136914437478
0.00972056810318
0.0068046904701
0.00462879951045
0.00309444667088
0.00217495600503
0.00171259137701
0.00152505341071
0.00149357881561
2.31326014145
1.06047701305
0.561605947871
0.324160696427
0.197202888051
0.124622169899
0.0815116246785
0.0548757897407
0.0380690391822
0.0269266448103
0.0191846110071
0.0137235812908
0.00985889392544
0.00704560924371
0.00490252247885
0.00330205577837
0.00227704217999
0.00172885132191
0.001484042878
0.0014096432987
2.10070112224
1.02422323712
0.558559181099
0.324706416327
0.196374633386
0.123636506245
0.0814680507138
0.0558728361565
0.0392960675468
0.0278207548292
0.0196960353972
0.0140272826324
0.0101129099204
0.0073200534529
0.00517754343371
0.00350293950453
0.00236066176698
0.00171854854907
0.00141963227166
0.00130474840095
2.09498742328
1.08047333108
0.601705033984
0.348318063025
0.208339061799
0.131203503937
0.0875343418421
0.0610614718525
0.0430271168113
0.0300357997222
0.0209155036655
0.0147333078086
0.0105731049896
0.0076828936336
0.00549487954344
0.00373636727659
0.00246195246378
0.00170346135309
0.00134270293329
0.00119497615452
2.34193154667
1.22110074683
0.669052878977
0.381428095027
0.226212338389
0.141999530417
0.0957436849418
0.0677206822794
0.0478666674091
0.0331201913099
0.0228302717274
0.015951016897
0.011374543305
0.00823366196093
0.00591366122301
0.00403065248969
0.00259621582575
0.00171188123087
0.00127736293908
0.00110139799272
2.65759145126
1.34001484967
0.701066773764
0.390260302988
0.23170534897
0.147412501705
0.101224924931
0.0730026703587
0.0525713197547
0.0365040076089
0.0251333498253
0.0174789693592
0.0123895130438
0.00894221928959
0.00643930220739
0.00440497552722
0.00278750392483
0.00175892823972
0.00124678595187
0.00104312513557
2.67255234159
1.2367385749
0.632673420381
0.354116733463
0.214765317176
0.141708282489
0.101590856163
0.0762185365529
0.0564127457605
0.0391680287279
0.0269895169832
0.018756774108
0.0132852114338
0.0096280296936
0.00697951537897
0.00480655119398
0.00301467746535
0.00184567624175
0.0012575920561
0.00102727149676
2.5099021577
1.13567894535
0.568710084211
0.314070430908
0.191922846274
0.130796809742
0.0976460192243
0.0757414542939
0.0575056164382
0.0400355627919
0.0277425856173
0.019390224831
0.0138228725004
0.0101179373125
0.00742661589549
0.00515681743472
0.00322795320572
0.0019461601759
0.00129955174997
0.00104931507874
2.51511189304
1.10175667213
0.522340054079
0.276070931867
0.167133104268
0.11663423438
0.0896976951452
0.0707687073788
0.0539769807556
0.0382776823361
0.0269986307124
0.0191730821815
0.0138972038247
0.0103534592474
0.00771545344743
0.00539247205825
0.00337839788765
0.00203773419703
0.00136302066851
0.0011024433194
2.78180085666
1.11314998423
0.488449441094
0.244634756613
0.14539158405
0.102089478723
0.0791161306481
0.0620658658601
0.0473645658696
0.0346528737719
0.025112594779
0.0183087850591
0.0136372194598
0.0104147036326
0.00787789363912
0.00552042604379
0.00347298377052
0.00212651620452
0.00144955599015
0.00118430078409
3.30998127464
1.23403206131
0.512085262212
0.245578434082
0.13869403788
0.0923896309841
0.0686698546093
0.0530144186478
0.0407248189062
0.0306398626282
0.0229078423986
0.0172864107365
0.0133345257364
0.0104569844482
0.00798558643848
0.00558525124201
0.00355211521666
0.0022376681797
0.0015701126817
0.00129702961511
3.91423277585
1.47522313831
0.623981920276
0.294001048458
0.15401570118
0.0916363467136
0.0627281041141
0.0467713830142
0.0357926890931
0.0274630871547
0.0211892619907
0.0166032066284
0.0132628638385
0.0105913305521
0.0080767753117
0.00564221746082
0.00366762116649
0.00240158460025
0.00173793929276
0.00144276894363
4.14059380825
1.67525750289
0.756134638434
0.366986500963
0.188797987847
0.104237806235
0.0642597898419
0.0444829851257
0.0331893103835
0.0257168291221
0.0204073985736
0.0165231904175
0.0134953163239
0.010805671078
0.00817409069587
0.00575654904819
0.00386777565064
0.0026429398481
0.00195872219519
0.00161308722013
3.97380728177
1.70416544659
0.827630250281
0.429210478522
0.227213308081
0.123316344122
0.0710493913972
0.0456215102923
0.0328221454638
0.0254782328359
0.0205992781717
0.0169723776877
0.0139186635131
0.0110551757467
0.0083461744125
0.00598700556917
0.00418327276201
0.0029688467435
0.00222528038036
0.00182599886943
3.56258325002
1.66149272239
0.847634794542
0.45682899735
0.249797086519
0.13766824147
0.0780829665394
0.0483484078878
0.0340183703846
0.0263773944686
0.0214525850151
0.0177036911102
0.0144448500101
0.0114118345073
0.00865806186444
0.00636111310016
0.00461187717769
0.00336056777128
0.00255858427121
0.00210062913781
2.99442687863
1.47767145245
0.788723073026
0.440906282186
0.24937847013
0.141007406717
0.0811732751777
0.0506099697679
0.0357531605761