/*--------------------------------*- C++ -*----------------------------------*\
| =========                 |                                                 |
| \\      /  F ield         | OpenFOAM: The Open Source CFD Toolbox           |
|  \\    /   O peration     | Version:  2312                                  |
|   \\  /    A nd           | Website:  www.openfoam.com                      |
|    \\/     M anipulation  |                                                 |
\*---------------------------------------------------------------------------*/
FoamFile
{
    version     2.0;
    format      ascii;
    arch        "LSB;label=32;scalar=64";
    class       volScalarField;
    location    "0.955/water";
    object      d.gas;
}
// * * * * * * * * * * * * * * * * * * * * * * * * * * * * * * * * * * * * * //

dimensions      [0 1 0 0 0 0 0];

internalField   nonuniform List<scalar> 
6000
(
0.00497304059314
0.00497310255745
0.00497311869728
0.0049731312259
0.00497314193304
0.00497315154071
0.00497316037353
0.00497316842914
0.00497317564653
0.00497318205154
0.00497318767041
0.00497319255281
0.00497319677245
0.00497320040018
0.00497320349422
0.00497320610283
0.0049732082644
0.00497321000905
0.00497321135761
0.00497321232469
0.00497335033906
0.00497338014547
0.00497337758515
0.00497337754865
0.00497338227246
0.00497338664119
0.00497339085138
0.00497339498824
0.00497339916208
0.00497340326036
0.00497340706192
0.00497341048341
0.00497341355788
0.0049734163232
0.00497341879148
0.00497342095902
0.00497342281555
0.00497342435024
0.00497342555162
0.0049734264096
0.00497362595162
0.00497365677038
0.00497364460197
0.00497363541238
0.00497363322845
0.00497363167718
0.00497363070808
0.00497363048088
0.00497363092227
0.00497363190884
0.00497363322359
0.0049736346143
0.00497363595018
0.0049736372119
0.00497363840134
0.00497363950741
0.00497364050446
0.00497364135991
0.0049736420383
0.00497364250835
0.00497386229963
0.00497388334701
0.00497387017275
0.00497386416795
0.00497386439757
0.00497386387016
0.00497386265025
0.00497386144064
0.00497386053704
0.00497386000566
0.00497385981969
0.00497385984687
0.0049738599437
0.0049738600478
0.00497386015329
0.00497386026392
0.00497386037281
0.00497386046205
0.00497386050532
0.00497386047665
0.00497409853504
0.00497411250019
0.00497409458532
0.00497408811481
0.00497408895849
0.00497408941066
0.00497408871284
0.00497408752161
0.00497408635157
0.00497408534637
0.00497408452834
0.00497408386203
0.00497408326472
0.00497408267827
0.00497408209301
0.00497408152223
0.00497408097816
0.00497408046486
0.00497407997694
0.00497407950666
0.00497432898164
0.00497434244925
0.0049743228218
0.00497431463457
0.00497431382723
0.00497431395689
0.00497431340088
0.00497431210969
0.00497431059639
0.00497430916974
0.00497430787241
0.00497430669331
0.00497430558893
0.00497430451442
0.00497430345454
0.00497430241953
0.00497430142679
0.0049743004914
0.00497429962166
0.0049742988237
0.00497455695093
0.00497457096835
0.00497455181711
0.0049745434958
0.00497454092491
0.00497453947237
0.00497453806537
0.00497453625083
0.00497453411698
0.0049745320468
0.00497453015593
0.00497452842287
0.00497452681759
0.00497452530535
0.00497452386162
0.00497452248372
0.00497452118149
0.00497451996856
0.00497451885595
0.00497451785433
0.00497478370506
0.00497479833549
0.00497478172793
0.00497477235934
0.00497476772976
0.00497476418366
0.00497476121013
0.00497475848622
0.00497475569647
0.00497475298968
0.0049747505518
0.00497474835177
0.00497474635016
0.00497474451732
0.00497474282204
0.00497474124739
0.004974739791
0.00497473845892
0.00497473725813
0.00497473619859
0.00497498764545
0.00497500365322
0.0049749892782
0.00497498446474
0.00497498318147
0.00497498105805
0.00497497851533
0.00497497588988
0.00497497317271
0.00497497038496
0.0049749677899
0.00497496545356
0.00497496335283
0.00497496146942
0.00497495977394
0.00497495824107
0.00497495685844
0.00497495562399
0.00497495453893
0.00497495360838
0.00497522274574
0.00497523688952
0.00497521470082
0.0049752056292
0.00497520157834
0.00497519757224
0.00497519356637
0.00497519007486
0.00497518702986
0.00497518415238
0.00497518149539
0.00497517919959
0.00497517727231
0.00497517566395
0.00497517430399
0.0049751731398
0.00497517214084
0.00497517129166
0.00497517058458
0.00497517001478
0.00497539522249
0.00497541421908
0.00497540047284
0.0049753966317
0.0049753969448
0.00497539667863
0.00497539553347
0.00497539416993
0.004975392781
0.0049753912728
0.00497538968787
0.00497538829847
0.00497538728078
0.00497538660868
0.00497538616252
0.0049753858627
0.00497538567343
0.00497538557604
0.00497538555733
0.00497538560597
0.00497559256339
0.00497561834628
0.00497560231017
0.00497559542483
0.0049755945339
0.00497559430211
0.00497559412206
0.00497559407383
0.0049755940402
0.00497559381141
0.00497559348209
0.00497559349052
0.00497559400104
0.00497559491766
0.00497559598921
0.00497559706733
0.00497559811396
0.00497559911551
0.00497560005903
0.0049756009361
0.00497575270446
0.00497578795896
0.00497578425216
0.00497578214544
0.00497578463936
0.00497578782891
0.00497579085265
0.00497579302757
0.00497579425197
0.00497579483056
0.00497579545725
0.00497579691654
0.00497579936524
0.00497580241759
0.00497580550539
0.00497580834934
0.00497581090909
0.00497581319348
0.00497581520776
0.00497581696136
0.00497596057299
0.00497599984071
0.00497598872718
0.00497598462099
0.00497598738606
0.00497599155996
0.00497599557765
0.00497599834
0.00497599945143
0.00497599979822
0.00497600070956
0.00497600323448
0.00497600741365
0.00497601261319
0.00497601777389
0.00497602235063
0.00497602630509
0.0049760296915
0.0049760325543
0.00497603493507
0.00497617066476
0.00497621106442
0.00497619956776
0.00497619749338
0.00497620317829
0.00497620953003
0.00497621434191
0.00497621668827
0.00497621697526
0.00497621662702
0.00497621702513
0.00497621939125
0.00497622415465
0.00497623054723
0.00497623696126
0.0049762424486
0.0049762470024
0.00497625073534
0.00497625373953
0.00497625609449
0.0049764004394
0.00497644726389
0.0049764371044
0.00497643651083
0.00497644311649
0.00497644925707
0.00497645317599
0.00497645430272
0.00497645350803
0.00497645229268
0.00497645145934
0.0049764520436
0.00497645540995
0.00497646108383
0.0049764669546
0.00497647163869
0.00497647521405
0.0049764779016
0.00497647983778
0.00497648112541
0.00497665891326
0.00497670794683
0.00497670011965
0.00497669962998
0.00497670600901
0.00497671172673
0.00497671462552
0.00497671443405
0.00497671286062
0.00497671079471
0.0049767080009
0.0049767052875
0.00497670472964
0.00497670676647
0.00497670939652
0.00497671089495
0.00497671135691
0.00497671117909
0.00497671054681
0.00497670954587
0.0049769449275
0.00497699905161
0.00497699697521
0.00497699692145
0.00497700089651
0.00497700271623
0.00497700150888
0.00497699841775
0.00497699473965
0.0049769901266
0.00497698382019
0.00497697684447
0.0049769706741
0.00497696573898
0.00497696173587
0.00497695744687
0.00497695272147
0.00497694800619
0.0049769435191
0.00497693926481
0.00497729099426
0.00497733501285
0.00497731914285
0.00497731163847
0.00497730719177
0.00497730059299
0.00497729228658
0.00497728348628
0.00497727451655
0.00497726512982
0.00497725563647
0.00497724637683
0.00497723715314
0.00497722630255
0.00497721443751
0.00497720317447
0.00497719256695
0.004977182883
0.00497717428974
0.0049771666848
0.00497758878032
0.00497761104612
0.00497758557744
0.00497757418851
0.00497756623149
0.00497755612329
0.00497754403213
0.00497753109209
0.00497751830393
0.00497750686427
0.00497749662608
0.00497748674905
0.00497747745737
0.0049774668709
0.00497745225437
0.00497743650782
0.00497742189995
0.00497740890799
0.0049773975879
0.00497738778701
0.00497778933251
0.00497779564065
0.00497776973278
0.00497776009889
0.00497775506376
0.00497774816804
0.00497773872208
0.00497772791523
0.00497771722433
0.00497770752612
0.00497769906496
0.00497769085306
0.00497768260398
0.00497767436429
0.00497766350542
0.00497764899048
0.00497763438755
0.00497762129449
0.00497760985645
0.00497759994178
0.00497791023599
0.00497792046867
0.00497790446682
0.00497790122721
0.00497790171235
0.00497790049603
0.0049778967395
0.00497789145382
0.00497788545836
0.00497788007164
0.00497787564091
0.00497787049904
0.00497786412907
0.00497785731715
0.00497785045183
0.00497784091919
0.00497783008255
0.00497782000426
0.00497781105318
0.0049778031437
0.00497807270556
0.00497808564486
0.00497807025629
0.00497806424509
0.00497806250659
0.00497806018919
0.00497805637986
0.00497805157278
0.00497804705476
0.00497804603993
0.00497804489015
0.00497804193364
0.00497803733087
0.00497803130963
0.00497802579653
0.00497802056956
0.00497801458945
0.00497800914708
0.00497800424596
0.0049779997387
0.00497821578634
0.00497823068301
0.00497821640464
0.0049782133514
0.0049782139307
0.00497821351623
0.00497821119805
0.00497820817598
0.00497820864897
0.00497821140907
0.00497821225412
0.00497821111346
0.00497820864956
0.0049782036626
0.00497819897878
0.00497819637103
0.00497819467817
0.00497819409791
0.00497819371966
0.00497819314417
0.00497838301781
0.00497839904394
0.0049783776008
0.00497837151508
0.004978370772
0.00497836965659
0.00497836735439
0.00497836695775
0.00497837286025
0.00497837945773
0.00497837923835
0.00497838046565
0.00497838126043
0.0049783791447
0.00497837574329
0.00497837445954
0.00497837617253
0.00497837991284
0.00497838371627
0.00497838685532
0.00497851880524
0.00497854057223
0.00497852318971
0.00497851984297
0.00497852176867
0.00497852339492
0.00497852507488
0.00497853196586
0.00497854459947
0.00497854814886
0.00497855274495
0.00497855571607
0.00497855896202
0.00497856377864
0.00497856125242
0.0049785600881
0.00497856396631
0.00497857088465
0.0049785778586
0.00497858387781
0.00497868890723
0.00497871738346
0.00497869755175
0.00497869189507
0.00497869297572
0.00497869516811
0.00497870030313
0.00497871358922
0.00497872397673
0.00497873267819
0.00497873620585
0.0049787432385
0.00497875744499
0.00497876349135
0.00497875960158
0.00497875721534
0.0049787615518
0.0049787697678
0.00497877841659
0.00497878614241
0.0049788450499
0.00497888264868
0.00497887221382
0.00497886946127
0.00497887302962
0.00497887860507
0.00497888938778
0.0049789054215
0.00497891949352
0.0049789257663
0.0049789367402
0.00497894897624
0.00497896346334
0.00497897131073
0.00497896451263
0.00497896278687
0.0049789673273
0.004978975747
0.00497898528401
0.00497899402697
0.00497904332456
0.00497908565664
0.00497906725882
0.00497906391295
0.0049790692204
0.00497907783047
0.00497909310504
0.00497911211981
0.00497912059024
0.00497913295426
0.00497914333729
0.00497915995521
0.00497918411081
0.0049791782801
0.00497917644821
0.00497917582991
0.00497917941632
0.00497918760853
0.00497919798448
0.00497920759627
0.00497924798151
0.00497929290568
0.00497927115492
0.00497926956127
0.00497927855719
0.00497929156161
0.00497931034201
0.00497932449666
0.00497933964241
0.00497934987635
0.00497936437745
0.00497939628632
0.00497939510631
0.00497939632105
0.00497939783673
0.00497939559593
0.00497939827862
0.00497940641962
0.00497941765397
0.00497942795443
0.00497945309477
0.00497950752709
0.00497948961916
0.00497949125678
0.00497950341296
0.00497951888387
0.00497953682243
0.00497955619923
0.00497956777348
0.00497958403044
0.00497961910763
0.00497962517853
0.00497962552793
0.00497963097009
0.00497963069592
0.00497963091017
0.00497963146798
0.00497963775828
0.00497964806022
0.00497965765464
0.00497967590825
0.0049797453322
0.0049797380401
0.00497974095115
0.00497975309511
0.00497976956102
0.00497979129869
0.00497981111093
0.00497983389222
0.00497986560906
0.00497987589989
0.00497987670423
0.004979882033
0.00497988473647
0.00497988733993
0.00497988436651
0.00497988252803
0.00497988536237
0.00497989196131
0.00497989848375
0.00497997761982
0.00498006742558
0.0049800678075
0.00498006680674
0.00498007430077
0.00498009043619
0.00498011315111
0.00498013488322
0.00498015144161
0.00498015539547
0.00498015479196
0.0049801560941
0.00498015751564
0.00498015945769
0.00498015791097
0.00498015458448
0.00498015057353
0.00498014930412
0.00498014933535
0.00498014993941
0.00498050543089
0.00498058407512
0.00498056026112
0.00498054321366
0.00498052951714
0.00498052259385
0.00498051889436
0.00498050971705
0.00498049400242
0.00498047845808
0.00498046699574
0.00498045913983
0.00498045269291
0.00498044705868
0.0049804421144
0.00498043635129
0.00498043171995
0.00498042608592
0.00498041726363
0.00498040881307
0.00498106491735
0.00498109407517
0.00498105527952
0.00498103498388
0.00498101013188
0.00498097522112
0.00498093694312
0.00498089830116
0.0049808614366
0.00498082916921
0.00498080220915
0.00498077926793
0.0049807585445
0.00498074121436
0.00498072844595
0.00498072065445
0.00498071400341
0.0049807028256
0.00498068652506
0.00498066775279
0.0049813418421
0.00498133412184
0.00498130951403
0.00498130083951
0.00498129614904
0.00498128048085
0.00498125016369
0.00498121310617
0.00498117514149
0.00498113894228
0.00498110529626
0.00498107393758
0.00498104411702
0.00498101785832
0.00498099843886
0.00498098603457
0.00498097236477
0.00498095771383
0.00498094014315
0.0049809151184
0.004981468113
0.00498145928783
0.00498144063822
0.00498143786942
0.0049814410689
0.00498144314932
0.00498143609248
0.00498141802321
0.00498139383598
0.00498136653206
0.00498133807557
0.00498130952874
0.00498128090175
0.00498125408701
0.00498123233024
0.00498121582579
0.00498119846816
0.00498118333706
0.00498116659676
0.00498114152653
0.00498161555476
0.00498160201926
0.00498158470158
0.00498157807631
0.00498157782221
0.00498158066244
0.00498157947488
0.00498156992969
0.00498155440373
0.00498153513065
0.00498151403428
0.00498149226884
0.00498146914154
0.0049814466304
0.00498142746123
0.004981411386
0.00498139552884
0.00498137972732
0.00498136322517
0.00498134211738
0.00498173716606
0.00498172359896
0.00498170308286
0.00498169702672
0.00498169690076
0.00498169819222
0.00498169756491
0.0049816914622
0.00498168085461
0.00498166793479
0.00498165444938
0.00498164004404
0.00498162367733
0.00498160673432
0.00498159213128
0.00498157919767
0.00498156648219
0.00498155070432
0.00498153492512
0.00498151832089
0.00498186339283
0.00498184580221
0.00498182017828
0.00498181126554
0.00498180902666
0.00498180897038
0.00498180755811
0.00498180219841
0.0049817940569
0.00498178555381
0.00498177802857
0.00498177001894
0.00498175887552
0.00498174723407
0.00498173710566
0.00498172885349
0.00498171950668
0.00498170537957
0.00498169129171
0.00498167755327
0.00498195497151
0.0049819440757
0.00498192162674
0.00498191469993
0.00498191409217
0.00498191424512
0.00498191342654
0.00498190929909
0.00498190345468
0.00498189787543
0.00498189453354
0.00498189073981
0.00498188429894
0.00498187639177
0.00498187051045
0.00498186769382
0.00498186204583
0.00498185076846
0.0049818381248
0.00498182632265
0.00498205875526
0.00498205195603
0.00498203091824
0.00498202310342
0.00498202096578
0.00498202092287
0.00498201897082
0.00498201434218
0.00498200861717
0.00498200484453
0.0049820060831
0.00498200700351
0.00498200284486
0.00498199879645
0.00498199672983
0.00498199797845
0.00498199767888
0.00498198947052
0.00498197852687
0.00498196862594
0.00498213568935
0.00498213822978
0.00498212503784
0.00498211988879
0.0049821194428
0.00498211865682
0.00498211620217
0.00498211175097
0.00498210790692
0.00498210893934
0.00498211625297
0.00498211875001
0.00498211838598
0.00498211712009
0.004982118241
0.00498212506534
0.00498212890563
0.00498212407119
0.00498211550532
0.00498210761211
0.00498224170833
0.00498224455682
0.00498222578219
0.00498221937727
0.00498221756117
0.00498221632283
0.00498221337941
0.00498220971436
0.00498220876719
0.00498221600888
0.00498222645986
0.00498223145934
0.00498223261634
0.00498223554698
0.00498224005701
0.00498224898161
0.00498225877409
0.00498225785934
0.00498225235143
0.00498224593121
0.00498232796378
0.00498233459046
0.00498231702903
0.00498231211883
0.00498231256626
0.00498231171984
0.00498230968269
0.00498230842837
0.00498231231512
0.00498232659317
0.0049823398295
0.00498234372749
0.004982349139
0.00498235484526
0.00498236209309
0.00498237732151
0.00498238981365
0.00498239369076
0.00498239086808
0.00498238491668
0.00498242040382
0.00498243228323
0.00498241321519
0.00498240877136
0.00498240815395
0.00498240746589
0.00498240686199
0.00498240914865
0.00498242050039
0.00498244057026
0.0049824511122
0.0049824602956
0.00498246836346
0.00498247776882
0.00498248959338
0.00498250588321
0.00498252446112
0.00498253259012
0.00498253144986
0.00498252522925
0.00498249796129
0.00498251869584
0.00498250246058
0.0049824989294
0.00498249930937
0.00498250071329
0.00498250415239
0.00498251294294
0.00498253483957
0.00498255629272
0.00498257120108
0.00498258166314
0.0049825940253
0.00498260749985
0.00498262232345
0.00498264606385
0.00498266479125
0.00498267663891
0.00498267665157
0.00498267066409
0.0049825919817
0.00498262638625
0.00498261046645
0.0049826063382
0.00498260764001
0.00498261156867
0.00498261874749
0.00498263555299
0.00498266422864
0.00498268802904
0.00498270177878
0.00498271806722
0.0049827345937
0.00498275027784
0.00498277272642
0.00498279335234
0.00498281552317
0.00498283102407
0.00498283267967
0.00498282805193
0.00498272324257
0.00498276438559
0.00498273961607
0.00498273516172
0.00498273934264
0.00498274624239
0.00498275799489
0.00498278467384
0.00498281776403
0.00498283560522
0.00498285507494
0.00498287337146
0.00498289181906
0.00498291349035
0.00498293292479
0.0049829577434
0.00498298350544
0.00498300224335
0.00498300622128
0.00498300318508
0.00498287620966
0.0049829307287
0.00498290069145
0.00498289601518
0.00498290212902
0.00498291113237
0.00498292904279
0.00498296335863
0.00498298874126
0.00498301092424
0.00498302981652
0.00498305018277
0.00498307273757
0.00498309152971
0.00498311864003
0.00498314366877
0.00498317279096
0.00498319408916
0.00498320053348
0.00498319898964
0.0049830455309
0.00498311771844
0.00498308906895
0.00498308394761
0.00498309076369
0.00498310215572
0.00498312812388
0.00498316187802
0.00498318892851
0.00498320820056
0.0049832299262
0.00498325211425
0.00498327273053
0.00498330246625
0.0049833258877
0.00498335232168
0.00498338353833
0.00498340570253
0.00498341386654
0.0049834126494
0.0049832315303
0.00498333267595
0.00498330952706
0.00498330555353
0.00498331276458
0.00498332746075
0.00498335963998
0.00498339512124
0.00498341396195
0.00498343436438
0.00498346102572
0.00498348682931
0.00498351699368
0.00498353395746
0.0049835543915
0.00498358232976
0.00498361192807
0.00498363166988
0.00498363897564
0.00498363695508
0.00498348603321
0.00498361399457
0.00498359900056
0.00498359447323
0.00498359837227
0.00498361244288
0.00498364295589
0.0049836682569
0.0049836910311
0.00498372979022
0.00498376249036
0.00498377894728
0.00498378156171
0.00498379220008
0.00498381096694
0.00498383374549
0.00498385504367
0.00498386866872
0.00498387368533
0.00498386986568
0.00498389474484
0.00498402229663
0.00498399674974
0.0049839856454
0.0049839853963
0.00498399662946
0.00498402362424
0.00498405972505
0.00498410323517
0.00498412899875
0.00498412058068
0.00498409890973
0.00498408920831
0.00498409061292
0.00498409601959
0.00498410308702
0.00498410986671
0.00498411452461
0.00498411532857
0.00498411074676
0.00498442471433
0.00498453256583
0.00498448629886
0.00498446411251
0.0049844648923
0.00498448380665
0.00498451762177
0.00498455116433
0.00498455684916
0.00498452571429
0.00498448066447
0.00498444322439
0.0049844187215
0.00498440089674
0.00498438580083
0.00498437403882
0.00498436478416
0.00498435835942
0.00498435452966
0.00498434957616
0.00498483013932
0.00498489493995
0.00498483024111
0.00498480845455
0.00498481660794
0.00498484017366
0.00498485957269
0.00498485746823
0.00498483205691
0.00498479691345
0.00498476024327
0.00498472676573
0.00498469641991
0.00498466758115
0.00498464162382
0.00498461965353
0.00498460085459
0.00498458712642
0.00498458012356
0.00498457583356
0.00498503809173
0.00498504914365
0.00498499342645
0.00498497474709
0.00498498054338
0.00498499266518
0.00498499559913
0.00498498477693
0.00498496689116
0.00498494852923
0.00498492873986
0.00498490807257
0.00498488633858
0.00498486418922
0.00498484346291
0.00498482365171
0.00498480499845
0.0049847918645
0.00498478744367
0.00498478577666
0.00498511278723
0.00498511464436
0.00498507535074
0.00498506318179
0.00498507011318
0.00498508104817
0.0049850843959
0.00498507683043
0.00498506541864
0.00498505454751
0.00498504198867
0.00498502931474
0.00498501883615
0.00498501111611
0.0049850032435
0.00498499233271
0.00498498060231
0.00498497452984
0.00498497996556
0.00498498601468
0.00498515854948
0.00498516467932
0.00498512082517
0.00498511738514
0.00498513681624
0.00498515765246
0.0049851675326
0.00498516362921
0.00498515597602
0.00498514743714
0.00498513732221
0.00498512986693
0.00498512970784
0.00498513619736
0.00498514088455
0.00498514054753
0.00498513935632
0.00498514517815
0.00498516589306
0.00498517907273
0.00498520345204
0.00498521678221
0.00498516478076
0.00498516815764
0.00498519924052
0.00498522938189
0.00498524419573
0.00498524136523
0.00498523390368
0.00498522522119
0.00498521713695
0.0049852157628
0.00498522960328
0.00498525297517
0.00498527126202
0.00498528422487
0.00498529689527
0.00498531815711
0.00498535436649
0.00498537691572
0.00498524786393
0.00498528450489
0.00498523004315
0.00498523716809
0.00498527413077
0.00498530799203
0.00498532340236
0.00498531905144
0.00498531000214
0.00498530213406
0.00498529920957
0.00498531210135
0.00498534816511
0.00498538775448
0.00498541804935
0.00498544374055
0.00498547098526
0.00498550842982
0.00498555719795
0.00498558455532
0.00498529107873
0.00498535900076
0.00498531776903
0.00498533054096
0.00498537029667
0.00498540488183
0.00498542139835
0.00498541877508
0.00498541262104
0.00498541164139
0.00498542420182
0.00498546178551
0.0049855148106
0.00498556110136
0.00498559967287
0.00498563562651
0.00498567703719
0.00498572694229
0.00498578356448
0.00498581646231
0.00498533535753
0.00498545554197
0.00498544583976
0.00498546595498
0.00498550351532
0.0049855361421
0.00498555697747
0.00498556302144
0.00498556786444
0.00498558327233
0.00498562058991
0.0049856766148
0.00498573249969
0.00498578010788
0.00498582420643
0.00498587048648
0.00498592204864
0.00498597930376
0.00498604060688
0.00498607534599
0.00498537994651
0.0049855422223
0.00498557549802
0.00498560890036
0.00498565205726
0.00498569512841
0.0049857314586
0.00498575778607
0.00498578447515
0.00498582589613
0.00498588384964
0.00498594514946
0.00498600074517
0.00498605188893
0.00498610260379
0.00498615632561
0.00498621168969
0.0049862707867
0.00498633011814
0.00498636592086
0.00498552829587
0.00498573670311
0.0049857828173
0.00498581664128
0.00498587571623
0.00498593761109
0.00498599304198
0.00498604189076
0.00498609568211
0.00498615998396
0.00498622652788
0.00498628851947
0.00498634517307
0.00498639838082
0.0049864501946
0.00498650111188
0.00498654972181
0.00498660099796
0.00498664987514
0.00498668369064
0.00498613708441
0.0049864078942
0.00498640540383
0.00498640073719
0.00498643729944
0.00498648239894
0.00498652201169
0.00498656073844
0.00498660906984
0.0049866615583
0.00498671242377
0.00498675928521
0.00498680158724
0.00498683999987
0.00498687527471
0.00498690810375
0.00498693922917
0.00498696995782
0.00498700047809
0.00498702591403
0.00498769437086
0.00498790875001
0.00498776982392
0.00498767293929
0.00498760036343
0.0049875274557
0.00498745971048
0.00498741241521
0.00498738512849
0.00498737187909
0.00498736603525
0.00498736347184
0.00498736213632
0.00498736136228
0.00498736133785
0.00498736272437
0.00498736539058
0.00498737016166
0.00498737782864
0.00498738319976
0.00498868077028
0.00498870824617
0.00498867187549
0.00498862663545
0.00498858002331
0.0049885141876
0.00498841739883
0.00498830369419
0.00498819521739
0.00498810376055
0.00498803053188
0.00498797017961
0.00498791912867
0.00498787527993
0.00498783805103
0.00498780731401
0.00498778286729
0.0049877638817
0.00498775030721
0.00498773723127
0.00498879642749
0.00498879726332
0.00498879800975
0.00498879867581
0.00498879811569
0.00498879363602
0.00498877887755
0.0049887378283
0.00498866565381
0.00498857631851
0.00498848632843
0.00498840602557
0.00498833629896
0.00498827518523
0.00498822168506
0.00498817613588
0.00498813811186
0.00498810735777
0.00498808270007
0.00498806451937
0.00498882116311
0.00498882153108
0.00498882189204
0.00498882242583
0.00498882318104
0.00498882384139
0.0049888253266
0.00498882356092
0.00498880577087
0.00498876720457
0.00498871236825
0.00498865130683
0.0049885933229
0.00498854012916
0.0049884921406
0.00498844933311
0.00498841271029
0.00498838216156
0.00498835807043
0.00498834087942
0.00498884106211
0.00498884137648
0.00498884164462
0.00498884193904
0.00498884226864
0.00498884264215
0.00498884347352
0.00498884602143
0.00498884342934
0.00498882950665
0.00498880364116
0.00498877084037
0.00498873579853
0.00498870116535
0.00498866781582
0.00498863744097
0.00498861081042
0.00498858902874
0.004988571999
0.00498856080635
0.00498885886722
0.00498885916399
0.004988859413
0.00498885967818
0.0049888599914
0.00498886035928
0.004988860819
0.00498886262796
0.00498886276879
0.00498885648364
0.00498884386478
0.00498883044833
0.00498881672301
0.00498879897473
0.0049887814486
0.0049887652293
0.00498875115386
0.00498874020164
0.00498873331376
0.00498873079494
0.00498887487038
0.0049888751457
0.00498887535756
0.00498887555828
0.00498887577518
0.00498887601512
0.00498887614322
0.00498887723499
0.00498887865741
0.00498887625485
0.00498887101658
0.00498887037937
0.00498887037685
0.00498886632349
0.00498885977541
0.00498885476079
0.00498885184438
0.00498885052976
0.00498885217396
0.00498885764429
0.00498888944077
0.004988889699
0.00498888987966
0.00498889003312
0.00498889020516
0.00498889041253
0.00498888992613
0.00498888947948
0.0049888893963
0.00498888708832
0.00498888617187
0.00498889692545
0.00498891018024
0.00498891269853
0.00498891600071
0.00498891996475
0.0049889247372
0.00498893178186
0.00498893999904
0.00498895069806
0.00498890327565
0.00498890344982
0.00498890350377
0.00498890352964
0.00498890355973
0.00498890358772
0.00498890155338
0.00498889904797
0.00498889586157
0.00498889289439
0.00498890132689
0.00498892604185
0.00498894207355
0.00498895202348
0.0049889603733
0.00498897076145
0.00498898261753
0.00498899424839
0.00498900805253
0.00498902268169
0.00498891950362
0.00498892599859
0.00498891713687
0.00498891707812
0.00498891714018
0.0049889166441
0.00498891430042
0.00498891019809
0.00498890561301
0.0049889074634
0.00498893348344
0.00498896274368
0.00498897932347
0.00498898997975
0.00498900417488
0.00498901935153
0.00498903458773
0.00498905189412
0.00498906864132
0.00498908744302
0.00498894511575
0.00498897356867
0.00498895103416
0.00498894658431
0.00498894628857
0.00498894414485
0.0049889395151
0.00498893300614
0.0049889292821
0.00498894789136
0.00498898394047
0.00498900911912
0.0049890216896
0.00498903821435
0.0049890554193
0.00498907366071
0.00498909417757
0.00498911367235
0.0049891357677
0.00498915763995
0.00498897884428
0.00498901775903
0.0049889859197
0.00498897529391
0.00498897443005
0.00498897317329
0.00498896853087
0.00498896371687
0.00498897604577
0.00498901565152
0.00498905129796
0.00498906603261
0.00498908446466
0.00498910309113
0.00498912366394
0.00498914672446
0.00498916910836
0.00498919648336
0.00498922117575
0.00498924988694
0.00498902192179
0.00498905733813
0.00498900924604
0.00498900030314
0.0049890051362
0.00498900886091
0.00498901214483
0.00498902906813
0.00498907296454
0.00498911756132
0.00498913497305
0.00498915574061
0.0049891754863
0.0049891975682
0.00498922614227
0.00498925282075
0.00498928754691
0.00498931354988
0.00498933999681
0.0049893644661
0.00498907324516
0.00498911527563
0.00498906257912
0.00498906554057
0.00498908681291
0.00498910846179
0.00498913947271
0.0049891859046
0.0049892313188
0.00498924883716
0.00498926941227
0.00498929227141
0.00498931665597
0.00498935520916
0.00498938579472
0.00498941591183
0.00498943894484
0.00498946110162
0.00498948271459
0.00498950640911
0.00498925126665
0.00498932568614
0.00498927814126
0.00498929161194
0.00498932404759
0.00498935642374
0.00498939141838
0.00498942839623
0.00498944688782
0.00498946523526
0.00498949634737
0.00498952749952
0.00498956255066
0.00498958406256
0.00498960101371
0.00498961630086
0.00498963209286
0.00498964761577
0.00498966359854
0.00498968128094
0.00498987781807
0.00498995873849
0.00498988248659
0.00498986996141
0.00498987577002
0.00498987929784
0.0049898859639
0.00498989541252
0.00498990214077
0.00498991461188
0.00498991842376
0.00498991426559
0.00498990036436
0.0049898896373
0.00498988421019
0.00498988265471
0.0049898814528
0.0049898806368
0.00498988201472
0.00498988613666
0.00499079556103
0.00499085850624
0.00499079973936
0.00499077679178
0.00499076646172
0.00499075292887
0.00499072997935
0.00499068687411
0.00499062335528
0.00499054627327
0.00499046769347
0.00499039169684
0.00499032657701
0.00499027475263
0.00499023467488
0.00499020052154
0.00499017048882
0.0049901445843
0.00499012325601
0.0049901071066
0.00499107764955
0.0049910908861
0.00499108163835
0.00499107754603
0.00499107838748
0.00499107604013
0.00499106329263
0.00499103765408
0.00499099443997
0.00499093124195
0.00499085802036
0.00499078169175
0.00499070506636
0.00499063059632
0.00499056244355
0.0049905010817
0.00499044611217
0.00499039712519
0.00499035459951
0.00499031865836
0.00499107402873
0.00499107467123
0.00499107505787
0.00499107543229
0.00499107575987
0.00499107597068
0.00499107602765
0.0049910759193
0.00499107298433
0.00499105561491
0.00499102169036
0.00499097629128
0.00499092157271
0.00499085715313
0.0049907872526
0.00499071906339
0.00499065524387
0.00499059674563
0.00499054361391
0.00499049712455
0.00499108853168
0.00499108864693
0.00499108863261
0.00499108856749
0.00499108848656
0.0049910883991
0.00499108832037
0.00499108828156
0.00499108828301
0.0049910828892
0.00499106814341
0.00499104361595
0.00499100937659
0.00499096440377
0.00499091028771
0.00499085205391
0.00499079404181
0.00499073772643
0.00499068527443
0.00499063612499
0.00499110286024
0.00499110294651