/*--------------------------------*- C++ -*----------------------------------*\
| =========                 |                                                 |
| \\      /  F ield         | OpenFOAM: The Open Source CFD Toolbox           |
|  \\    /   O peration     | Version:  2312                                  |
|   \\  /    A nd           | Website:  www.openfoam.com                      |
|    \\/     M anipulation  |                                                 |
\*---------------------------------------------------------------------------*/
FoamFile
{
    version     2.0;
    format      ascii;
    arch        "LSB;label=32;scalar=64";
    class       volScalarField;
    location    "65";
    object      k.water;
}
// * * * * * * * * * * * * * * * * * * * * * * * * * * * * * * * * * * * * * //

dimensions      [0 2 -2 0 0 0 0];

internalField   nonuniform List<scalar> 
1875
(
0.056271
0.0588276
0.0619806
0.064914
0.0676628
0.0701587
0.0726923
0.0751227
0.0773912
0.0795141
0.0814623
0.0831035
0.0842695
0.084952
0.0851247
0.0847693
0.0835213
0.0807642
0.076197
0.0699745
0.0625658
0.0547729
0.04727
0.0403116
0.0342112
0.0784735
0.0794764
0.0803707
0.0809041
0.0812148
0.0813124
0.0812095
0.0810021
0.0808276
0.0807662
0.0808776
0.0812438
0.081996
0.083056
0.0842618
0.0854892
0.0864125
0.0865385
0.0857167
0.0832715
0.0788986
0.0731865
0.0668121
0.0601232
0.0546746
0.0844854
0.0844977
0.0845621
0.0844177
0.0841253
0.0837678
0.0833735
0.0829911
0.0826599
0.0824247
0.0823174
0.0823814
0.0826676
0.0832894
0.0841578
0.0850949
0.0858631
0.086179
0.0856769
0.0839252
0.0804816
0.0756553
0.0702778
0.0653687
0.0629498
0.0865994
0.0855878
0.0850637
0.0844118
0.0837425
0.0831648
0.0827682
0.082605
0.082643
0.082823
0.0831496
0.0835925
0.0841445
0.0847442
0.0853777
0.0859974
0.0864058
0.0863381
0.0855503
0.0836478
0.0803524
0.0760352
0.0716199
0.0681266
0.0672495
0.0889029
0.0876404
0.0864394
0.0851387
0.0839733
0.0830996
0.0825817
0.0824182
0.0825216
0.0827902
0.0831895
0.0836828
0.084238
0.0847998
0.0853267
0.0857672
0.0859614
0.0856304
0.0844962
0.0823874
0.079331
0.0756645
0.072076
0.0696082
0.0695558
0.0931079
0.0918411
0.0903123
0.0885614
0.0869945
0.0856682
0.084622
0.0839151
0.0835467
0.0834573
0.0835653
0.0838384
0.0842132
0.0846394
0.0850061
0.0851638
0.0850416
0.0844592
0.0831388
0.0809773
0.0780453
0.0747438
0.0717631
0.069952
0.0706063
0.0977332
0.0970645
0.0956587
0.0936539
0.0915588
0.0892635
0.0869926
0.0851273
0.0839077
0.0833253
0.0831599
0.0832382
0.0835991
0.084042
0.0843542
0.0844584
0.0841984
0.0832891
0.0816305
0.0792889
0.0764832
0.0736038
0.0711658
0.069815
0.0703175
0.102322
0.102496
0.101454
0.0991125
0.0958586
0.0918677
0.0880452
0.0850888
0.083264
0.0824341
0.082251
0.0826592
0.0831675
0.0835947
0.0837877
0.0836403
0.0829199
0.0815853
0.0796986
0.0774157
0.0749501
0.0725649
0.0706056
0.0695757
0.0699883
0.105728
0.106786
0.105768
0.102702
0.0980574
0.0927056
0.0880319
0.084971
0.0835867
0.0832006
0.0831245
0.0830931
0.083186
0.0832349
0.0830207
0.082498
0.0815615
0.0802397
0.0786013
0.0767431
0.0747827
0.072862
0.0712277
0.0703427
0.0704555
0.107825
0.109377
0.108056
0.104351
0.0989673
0.0931697
0.0884018
0.0853867
0.0839555
0.0834108
0.0833076
0.0833729
0.0834032
0.0833447
0.0831149
0.0826322
0.081909
0.0809672
0.0798258
0.0785126
0.0770793
0.0756118
0.0742996
0.0735271
0.0733408
0.109119
0.110199
0.108683
0.104862
0.0996237
0.0941361
0.089663
0.0867892
0.0853309
0.0847168
0.0845478
0.0846008
0.0847474
0.084816
0.0848022
0.0846559
0.0843582
0.0838901
0.0832477
0.0824404
0.0815027
0.0805134
0.0796702
0.0793024
0.0792892
0.108876
0.109608
0.108344
0.104927
0.10041
0.0956733
0.0917657
0.0891465
0.087716
0.0870895
0.0869041
0.0869437
0.0871198
0.0873319
0.0875197
0.0876219
0.0876336
0.0875139
0.0872536
0.0868617
0.0863702
0.0858526
0.0855112
0.0855752
0.0859815
0.108383
0.108796
0.107615
0.10481
0.101148
0.0972999
0.0940418
0.0916949
0.0903031
0.0896445
0.0894312
0.0894647
0.0896742
0.0899684
0.0902797
0.090561
0.0907819
0.0909129
0.0909526
0.0909041
0.0907817
0.0906325
0.090564
0.0907859
0.0914397
0.107782
0.107975
0.106957
0.104822
0.102043
0.0990101
0.0962913
0.094191
0.0928418
0.0921301
0.0918618
0.0918572
0.0920431
0.0923397
0.0926888
0.0930496
0.0933958
0.0937078
0.0939744
0.0941921
0.0943756
0.0945221
0.0946123
0.0947083
0.0953199
0.107293
0.10747
0.106742
0.1051
0.102985
0.100618
0.0984181
0.0966008
0.0953066
0.0945069
0.094108
0.0939977
0.0940918
0.094327
0.0946493
0.0950194
0.0954097
0.0958026
0.0961893
0.0965731
0.0969808
0.0974029
0.097778
0.09798
0.0985537
0.107313
0.107586
0.107096
0.105856
0.104224
0.102364
0.100515
0.0988651
0.0975822
0.0966985
0.0961764
0.095951
0.0959528
0.0961191
0.0963967
0.096743
0.0971266
0.0975268
0.0979374
0.0983675
0.098843
0.0994115
0.100107
0.100708
0.101465
0.107605
0.108039
0.107946
0.107142
0.105884
0.104357
0.102762
0.101259
0.0999661
0.0989863
0.0983355
0.0979865
0.0978904
0.0979859
0.0982228
0.0985514
0.0989288
0.0993251
0.099727
0.100145
0.100618
0.101221
0.102112
0.103031
0.103956
0.107795
0.108329
0.108828
0.10857
0.107766
0.106577
0.10519
0.103782
0.10251
0.101464
0.1007
0.100234
0.100046
0.100085
0.100293
0.10063
0.101033
0.101457
0.101879
0.102303
0.102774
0.103377
0.1043
0.105357
0.106296
0.107746
0.108158
0.109042
0.109438
0.109216
0.108497
0.107425
0.106185
0.104973
0.103929
0.103132
0.102615
0.102384
0.102412
0.102635
0.103022
0.10349
0.103983
0.104462
0.104921
0.105397
0.105974
0.106851
0.107878
0.108746
0.106921
0.107008
0.108023
0.109023
0.109462
0.10935
0.108805
0.10792
0.106899
0.105922
0.105129
0.104678
0.104589
0.104729
0.105091
0.105614
0.106214
0.106823
0.107395
0.107914
0.108419
0.108973
0.109789
0.110732
0.111422
0.104677
0.105007
0.106104
0.107538
0.108669
0.109202
0.109205
0.108852
0.108211
0.107518
0.106906
0.106521
0.106523
0.106837
0.107437
0.108198
0.109019
0.109813
0.11052
0.111123
0.111665
0.112212
0.112965
0.113818
0.114286
0.103672
0.103846
0.104742
0.106125
0.107559
0.108636
0.109205
0.109317
0.109147
0.108828
0.108654
0.10856
0.108568
0.108902
0.109668
0.110672
0.111758
0.112791
0.113679
0.114392
0.114979
0.115517
0.116196
0.116889
0.117112
0.104696
0.104554
0.105152
0.106205
0.107507
0.108734
0.109626
0.110123
0.110285
0.110255
0.110198
0.11031
0.110598
0.111083
0.11194
0.113128
0.114436
0.115696
0.116775
0.117618
0.118264
0.1188
0.119411
0.119872
0.119919
0.107905
0.10749
0.107796
0.108466
0.109368
0.11036
0.111257
0.111906
0.112263
0.112389
0.112402
0.112492
0.112904
0.113633
0.114596
0.115816
0.117216
0.118604
0.119819
0.120778
0.121494
0.122057
0.122653
0.122913
0.122755
0.113
0.112408
0.112484
0.112813
0.113286
0.113872
0.1145
0.11504
0.115402
0.115578
0.115651
0.115763
0.116052
0.116666
0.117629
0.118851
0.120239
0.121644
0.122908
0.123923
0.124678
0.125238
0.12578
0.125885
0.125606
0.119283
0.118784
0.118737
0.118668
0.118694
0.118845
0.119101
0.119388
0.119618
0.119735
0.119772
0.119837
0.12006
0.120555
0.121354
0.122406
0.12365
0.12496
0.126174
0.127174
0.127919
0.12843
0.128833
0.128884
0.128507
0.126057
0.125861
0.125797
0.125232
0.124819
0.124614
0.124556
0.124587
0.124631
0.124619
0.124553
0.124509
0.124597
0.124901
0.125511
0.126404
0.127473
0.128614
0.129706
0.130633
0.131333
0.131795
0.132104
0.132067
0.131628
0.132658
0.132636
0.132395
0.13156
0.130923
0.130531
0.130309
0.130186
0.130072
0.129925
0.129739
0.129575
0.129535
0.129692
0.130111
0.130784
0.131641
0.13259
0.133522
0.134333
0.134951
0.135341
0.13555
0.135438
0.134925
0.138715
0.138749
0.138294
0.137424
0.136753
0.136298
0.136
0.135794
0.135597
0.135359
0.135075
0.134805
0.134643
0.134659
0.134904
0.135382
0.136042
0.136796
0.137552
0.138219
0.138729
0.139026
0.139135
0.138945
0.138392
0.14413
0.144191
0.143722
0.142895
0.142269
0.141826
0.141522
0.141281
0.141027
0.140717
0.140359
0.140014
0.13976
0.139667
0.139774
0.140081
0.140551
0.141115
0.141693
0.142203
0.142586
0.142774
0.142773
0.142493
0.141898
0.149048
0.14912
0.148723
0.148023
0.147493
0.147107
0.146827
0.146572
0.146274
0.145908
0.145493
0.145087
0.144762
0.14458
0.14457
0.144733
0.145036
0.145425
0.145832
0.146187
0.146433
0.146504
0.146385
0.14601
0.145404
0.153716
0.153821
0.153519
0.152949
0.152508
0.152176
0.151913
0.151634
0.151285
0.150854
0.150383
0.149955
0.149585
0.149332
0.149225
0.14926
0.149414
0.149643
0.149891
0.150101
0.150213
0.150159
0.149918
0.149455
0.148821
0.158276
0.158431
0.158207
0.157729
0.157353
0.157057
0.156791
0.156481
0.156095
0.155633
0.155137
0.154652
0.154227
0.153905
0.153705
0.153625
0.153644
0.153727
0.153831
0.153907
0.15389
0.153695
0.153309
0.152734
0.152128
0.162786
0.162989
0.16283
0.162399
0.162054
0.161762
0.161468
0.161119
0.160701
0.160229
0.159718
0.159165
0.158684
0.158296
0.158009
0.157824
0.157721
0.157674
0.157647
0.157596
0.157451
0.157117
0.156577
0.155879
0.155309
0.167233
0.167508
0.167398
0.166962
0.166609
0.16629
0.165951
0.165553
0.165089
0.164576
0.164022
0.163462
0.162952
0.162514
0.162156
0.161877
0.161667
0.161504
0.161359
0.161184
0.160908
0.160463
0.159801
0.159047
0.158522
0.171515
0.171855
0.171779
0.171334
0.17097
0.170621
0.170239
0.169798
0.169294
0.168735
0.168149
0.167597
0.167071
0.166594
0.166176
0.16582
0.165518
0.165256
0.165006
0.164719
0.164335
0.163792
0.163034
0.162251
0.16179
0.175492
0.175867
0.175832
0.175453
0.175112
0.174752
0.174348
0.173884
0.173361
0.172791
0.172211
0.171637
0.171086
0.170574
0.170107
0.169689
0.169315
0.168973
0.168637
0.168262
0.167796
0.167178
0.166365
0.165584
0.165181
0.179276
0.179666
0.179689
0.17939
0.17908
0.178718
0.178306
0.177834
0.177309
0.176744
0.17616
0.175578
0.175013
0.174476
0.173974
0.173512
0.173086
0.172688
0.172291
0.171857
0.17134
0.170688
0.16987
0.169107
0.168728
0.182947
0.183372
0.183439
0.183197
0.182905
0.182545
0.182132
0.181662
0.181141
0.180585
0.180008
0.179428
0.178858
0.178311
0.177789
0.1773
0.176843
0.17641
0.175978
0.175514
0.174978
0.174331
0.17355
0.172794
0.172412
0.186511
0.186954
0.187061
0.186864
0.186591
0.186239
0.185833
0.185372
0.184864
0.18432
0.183756
0.183186
0.182622
0.182074
0.181547
0.181048
0.180577
0.180129
0.179685
0.179216
0.178689
0.178086
0.177391
0.176646
0.176251
0.189948
0.190412
0.190549
0.190394
0.190142
0.189804
0.189412
0.188965
0.188472
0.187946
0.187399
0.186844
0.186293
0.185753
0.18523
0.184732
0.184261
0.183813
0.183375
0.18292
0.182423
0.181908
0.181348
0.18062
0.180185
0.193272
0.193743
0.193909
0.193788
0.193558
0.193237
0.192862
0.192433
0.191959
0.191453
0.190926
0.19039
0.189854
0.189328
0.188815
0.188323
0.187857
0.187413
0.186981
0.18656
0.186147
0.185715
0.185239
0.184541
0.184086
0.196464
0.196948
0.197131
0.197044
0.196836
0.196533
0.196171
0.195762
0.195315
0.194831
0.194324
0.193801
0.193289
0.192781
0.192281
0.1918
0.191345
0.190914
0.190499
0.190097
0.189697
0.1893
0.188883
0.188296
0.187858
0.199544
0.200026
0.200229
0.200171
0.199982
0.199695
0.199355
0.198969
0.198545
0.198081
0.197586
0.19709
0.196598
0.196104
0.195614
0.195141
0.194685
0.194276
0.193915
0.193539
0.193139
0.192783
0.192442
0.191976
0.191512
0.20251
0.203001
0.203232
0.203179
0.203014
0.202755
0.202459
0.202092
0.201661
0.201206
0.200743
0.200276
0.199766
0.199275
0.198804
0.198342
0.197917
0.197512
0.19713
0.196773
0.196454
0.19615
0.195855
0.195463
0.194961
0.205361
0.205859
0.206079
0.20605
0.205904
0.205679
0.205375
0.205025
0.204633
0.204218
0.20379
0.203318
0.202843
0.202369
0.2019
0.20146
0.201049
0.200635
0.200212
0.199838
0.199505
0.199196
0.198922
0.198552
0.198055
0.208058
0.208552
0.208795
0.208808
0.208664
0.208437
0.208155
0.207834
0.207484
0.207101
0.206664
0.206221
0.205797
0.205344
0.204873
0.204426
0.203969
0.203552
0.20318
0.202808
0.202431
0.202092
0.201794
0.201405
0.200926
0.210671
0.211157
0.211427
0.211434
0.211327
0.211111
0.210875
0.210574
0.210219
0.209815
0.209397
0.208987
0.208532
0.208084
0.207646
0.207181
0.206735
0.20632
0.205934
0.20557
0.205228
0.204901
0.204597
0.204194
0.203705
0.21316
0.213658
0.213898
0.21392
0.213826
0.213648
0.213389
0.213093
0.212761
0.212397
0.212022
0.21159
0.211149
0.21071
0.210278
0.209851
0.209456
0.20905
0.208637
0.208267
0.207928
0.20759
0.207275
0.206873
0.206384
0.215534
0.216018
0.216284
0.216339
0.216231
0.216047
0.215813
0.215539
0.215233
0.214905
0.214515
0.214114
0.213717
0.2133
0.212852
0.212438
0.212007
0.21161
0.211251
0.210892
0.210529
0.210177
0.209854
0.209441
0.20895
0.217848
0.218329
0.218614
0.218656
0.218588
0.218408
0.218207
0.217957
0.217653
0.217295
0.216926
0.216559
0.216147
0.215722
0.215304
0.214873
0.214449
0.21405
0.213676
0.213321
0.212982
0.212647
0.212326
0.211911
0.211426
0.220086
0.220573
0.220826
0.220879
0.220816
0.220677
0.220463
0.220202
0.219909
0.219587
0.219255
0.21887
0.218482
0.218063
0.217655
0.217244
0.216862
0.216472
0.216074
0.215715
0.215388
0.215047
0.21472
0.21431
0.213822
0.222234
0.222711
0.222988
0.223071
0.222994
0.222846
0.222658
0.222405
0.222127
0.221831
0.221474
0.221103
0.220727
0.220354
0.219949
0.219533
0.219132
0.218756
0.218412
0.218066
0.217723
0.217384
0.217051
0.21664
0.216154
0.224379
0.224845
0.225134
0.225198
0.225148
0.224988
0.224802
0.224589
0.224319
0.223994
0.223654
0.22331
0.222918
0.222529
0.222136
0.221751
0.221349
0.22097
0.220612
0.220272
0.219959
0.219627
0.219293
0.218881
0.218404
0.226483
0.226958
0.227214
0.227283
0.227233
0.227105
0.226903
0.226673
0.226409
0.226114
0.225809
0.225452
0.225093
0.224694
0.224305
0.223933
0.223573
0.223202
0.22282
0.222471
0.222152
0.221833
0.221506
0.221099
0.220628
0.228574
0.229032
0.229306
0.229399
0.229331
0.229194
0.229022
0.228782
0.22852
0.228242
0.227909
0.22756
0.22721
0.226861
0.226485
0.226086
0.225713
0.22536
0.225035
0.224706
0.22438
0.224079
0.223746
0.223333
0.222857
0.230718
0.231169
0.231451
0.231519
0.23147
0.231312
0.231132
0.230926
0.230665
0.230355
0.230032
0.229707
0.229337
0.228973
0.228609
0.22825
0.227877
0.227523
0.227191
0.226883
0.226604
0.226293
0.22597
0.225573
0.225114
0.232931
0.23338
0.233622
0.233687
0.233628
0.233492
0.233287
0.233056
0.232795
0.232509
0.232214
0.231872
0.231529
0.231163
0.230808
0.230469
0.230138
0.229797
0.229449
0.229136
0.228855
0.228572
0.228269
0.227882
0.227431
0.235232
0.235665
0.235917
0.235996
0.235911
0.235756
0.235571
0.235321
0.235058
0.234785
0.234462
0.234132
0.233809
0.233483
0.233139
0.232786
0.232436
0.232113
0.231821
0.231541
0.231263
0.231005
0.230694
0.230318
0.229877
0.237742
0.23816
0.238411
0.238456
0.23838
0.238197
0.237993
0.237766
0.237505
0.237199
0.236887
0.236582
0.236246
0.235893
0.235549
0.235215
0.234896
0.234599
0.234331
0.234066
0.233832
0.233579
0.233291
0.232939
0.232512
0.240505
0.240918
0.241124
0.241159
0.241068
0.240904
0.240678
0.240436
0.240163
0.239875
0.239586
0.239256
0.238926
0.238593
0.238269
0.237963
0.237687
0.237405
0.237124
0.236875
0.236663
0.236438
0.236186
0.235846
0.235437
0.243632
0.244015
0.244219
0.244264
0.24415
0.243977
0.243777
0.243532
0.24326
0.242995
0.242693
0.242379
0.242074
0.241785
0.241477
0.241165
0.240852
0.240572
0.240325
0.240121
0.239921
0.239713
0.239457
0.239134
0.238745
0.247268
0.247636
0.247836
0.247861
0.247768
0.247594
0.247399
0.247188
0.246972
0.246713
0.246449
0.246194
0.245905
0.245585
0.245269
0.244958
0.244659
0.244386
0.244149
0.243909
0.243701
0.243498
0.243268
0.242982
0.242624
0.251629
0.251982
0.252172
0.252222
0.252174
0.252071
0.251942
0.251799
0.251641
0.251459
0.251253
0.251019
0.250758
0.250472
0.250167
0.249854
0.249544
0.249223
0.248902
0.248612
0.248357
0.248121
0.247882
0.24761
0.247273
0.257049
0.257399
0.257655
0.257825
0.25793
0.257997
0.258047
0.258061
0.258032
0.257971
0.257853
0.257676
0.257459
0.257205
0.256893
0.256535
0.256139
0.255717
0.255279
0.254861
0.25446
0.254085
0.253743
0.253427
0.253099
0.264295
0.264757
0.265244
0.26573
0.266178
0.266566
0.266881
0.267127
0.267301
0.267383
0.267388
0.267307
0.267137
0.266879
0.266545
0.266136
0.265654
0.265103
0.264493
0.263825
0.26313
0.26244
0.261809
0.26128
0.260843
0.274734
0.275458
0.276464
0.277492
0.278387
0.279112
0.279681
0.280114
0.280425
0.280626
0.280717
0.280703
0.280587
0.28037
0.280054
0.279637
0.279116
0.278495
0.277767
0.276916
0.275925
0.274808
0.273662
0.272622
0.271897
0.29001
0.290822
0.292112
0.293249
0.29412
0.294751
0.295221
0.295579
0.295851
0.296036
0.296136
0.296146
0.296068
0.295904
0.295658
0.295332
0.294933
0.294461
0.293913
0.293261
0.292449
0.291431
0.290217
0.288855
0.287916
0.291947
0.292131
0.292437
0.292901
0.293385
0.29381
0.294179
0.294498
0.294766
0.294967
0.29509
0.295123
0.295063
0.294913
0.29468
0.294374
0.294009
0.293599
0.29316
0.292692
0.292175
0.291602
0.290995
0.290457
0.290049
0.283641
0.282607
0.280653
0.279559
0.279276
0.279436
0.279804
0.280255
0.280687
0.281043
0.281288
0.281401
0.281368
0.281188
0.280888
0.280493
0.280023
0.279519
0.279033
0.278661
0.278557
0.278889
0.279775
0.281252
0.281862
0.258647
0.252576
0.243259
0.238098
0.236553
0.236204
0.236356
0.236733
0.237223
0.237732
0.238139
0.238375
0.23843
0.238315
0.238152
0.237924
0.237606
0.237343
0.237181
0.237337
0.237827
0.239144
0.243912
0.252141
0.257039
0.233149
0.225219
0.209857
0.196602
0.190027
0.186878
0.185864
0.185588
0.185168
0.183633
0.181704
0.180891
0.181971
0.184241
0.184219
0.178746
0.168431
0.160306
0.158065
0.162144
0.174682
0.191731
0.208541
0.224375
0.232401
0.212217
0.201336
0.181126
0.154861
0.131752
0.122212
0.119609
0.118595
0.114869
0.105913
0.0962987
0.093124
0.0965138
0.105753
0.108129
0.09403
0.0619315
0.0353099
0.0290207
0.0330722
0.0553642
0.108862
0.158536
0.190118
0.206908
0.187838
0.160941
0.113671
0.0626068
0.0413307
0.0358417
0.0350916
0.0352146
0.0337841
0.0278441
0.0175258
0.0127643
0.0135302
0.0204988
0.0261719
0.020718
0.00621872
0.00164189
0.000782444
0.00105761
0.00772039
0.0416
0.108664
0.159097
0.188949
0.164389
0.118135
0.0624632
0.0202321
0.00676759
0.00373956
0.00296532
0.002741
0.00267454
0.00217299
0.000968729
0.000366093
0.000312814
0.000523193
0.000839724
0.00023011
3.28876e-05
2.35336e-05
2.63551e-05
7.84761e-05
0.00287979
0.0250866
0.0802143
0.129782
0.170221
)
;

boundaryField
{
    inlet
    {
        type            fixedValue;
        value           uniform 3.75e-05;
    }
    outlet
    {
        type            inletOutlet;
        phi             phi.water;
        inletValue      uniform 3.75e-05;
        value           nonuniform List<scalar> 
25
(
0.164389
0.118135
3.75e-05
3.75e-05
3.75e-05
3.75e-05
3.75e-05
3.75e-05
3.75e-05
3.75e-05
3.75e-05
3.75e-05
3.75e-05
3.75e-05
3.75e-05
3.75e-05
3.75e-05
3.75e-05
3.75e-05
3.75e-05
3.75e-05
3.75e-05
3.75e-05
0.129782
0.170221
)
;
    }
    walls
    {
        type            kqRWallFunction;
        value           nonuniform List<scalar> 
150
(
0.056271
0.0784735
0.0844854
0.0865994
0.0889029
0.0931079
0.0977332
0.102322
0.105728
0.107825
0.109119
0.108876
0.108383
0.107782
0.107293
0.107313
0.107605
0.107795
0.107746
0.106921
0.104677
0.103672
0.104696
0.107905
0.113
0.119283
0.126057
0.132658
0.138715
0.14413
0.149048
0.153716
0.158276
0.162786
0.167233
0.171515
0.175492
0.179276
0.182947
0.186511
0.189948
0.193272
0.196464
0.199544
0.20251
0.205361
0.208058
0.210671
0.21316
0.215534
0.217848
0.220086
0.222234
0.224379
0.226483
0.228574
0.230718
0.232931
0.235232
0.237742
0.240505
0.243632
0.247268
0.251629
0.257049
0.264295
0.274734
0.29001
0.291947
0.283641
0.258647
0.233149
0.212217
0.187838
0.164389
0.0342112
0.0546746
0.0629498
0.0672495
0.0695558
0.0706063
0.0703175
0.0699883
0.0704555
0.0733408
0.0792892
0.0859815
0.0914397
0.0953199
0.0985537
0.101465
0.103956
0.106296
0.108746
0.111422
0.114286
0.117112
0.119919
0.122755
0.125606
0.128507
0.131628
0.134925
0.138392
0.141898
0.145404
0.148821
0.152128
0.155309
0.158522
0.16179
0.165181
0.168728
0.172412
0.176251
0.180185
0.184086
0.187858
0.191512
0.194961
0.198055
0.200926
0.203705
0.206384
0.20895
0.211426
0.213822
0.216154
0.218404
0.220628
0.222857
0.225114
0.227431
0.229877
0.232512
0.235437
0.238745
0.242624
0.247273
0.253099
0.260843
0.271897
0.287916
0.290049
0.281862
0.257039
0.232401
0.206908
0.188949
0.170221
)
;
    }
    defaultFaces
    {
        type            empty;
    }
}


// ************************************************************************* //
