/*--------------------------------*- C++ -*----------------------------------*\
| =========                 |                                                 |
| \\      /  F ield         | OpenFOAM: The Open Source CFD Toolbox           |
|  \\    /   O peration     | Version:  2312                                  |
|   \\  /    A nd           | Website:  www.openfoam.com                      |
|    \\/     M anipulation  |                                                 |
\*---------------------------------------------------------------------------*/
FoamFile
{
    version     2.0;
    format      ascii;
    arch        "LSB;label=32;scalar=64";
    class       volScalarField;
    location    "0.72/water";
    object      epsilonm;
}
// * * * * * * * * * * * * * * * * * * * * * * * * * * * * * * * * * * * * * //

dimensions      [0 2 -3 0 0 0 0];

internalField   nonuniform List<scalar> 
6000
(
16.7898465916
2.63084871179
0.339141297534
0.0407210664656
0.00556765615821
0.000856091417093
0.000219677513261
0.000100495731201
6.73779929035e-05
5.55732750661e-05
5.06389648191e-05
4.83499880854e-05
4.7194258593e-05
4.65593007049e-05
4.61806297142e-05
4.59391899033e-05
4.57785339439e-05
4.56697259158e-05
4.55965240159e-05
4.55491907349e-05
551.79154976
105.45344695
17.755660355
2.62430020753
0.329917594207
0.039746116288
0.00561703095273
0.000900896936315
0.000220003454971
9.84309387806e-05
6.64542261831e-05
5.51653007887e-05
5.04445702156e-05
4.82531262521e-05
4.7141266893e-05
4.65222242847e-05
4.61455636118e-05
4.59010815647e-05
4.57380757931e-05
4.56314519596e-05
771.969809939
180.440686593
40.4104168982
8.28023550327
1.42019709315
0.195543610928
0.0249323655184
0.00373790853806
0.000683873234149
0.000199250632187
9.80148858104e-05
6.78324705898e-05
5.62894810768e-05
5.12080366231e-05
4.8769978606e-05
4.75082421612e-05
4.67971466849e-05
4.63604301621e-05
4.60754660343e-05
4.58870738773e-05
984.795844599
244.479835776
60.9350112057
14.8918265675
3.28649192657
0.586129589206
0.0816274767688
0.0110391337276
0.00178760553828
0.00039896232663
0.000150339839592
8.69133866443e-05
6.47865429593e-05
5.54400547334e-05
5.10542763041e-05
4.88510004279e-05
4.76669501085e-05
4.69775990819e-05
4.65439074995e-05
4.62587875297e-05
1067.28558554
281.227932948
75.3200416873
20.3632616458
5.25420757712
1.18050748455
0.204521212048
0.028421233471
0.0042060274866
0.000777369144811
0.000232393255515
0.000113315289378
7.59011201419e-05
6.08728379294e-05
5.39511355196e-05
5.05116768143e-05
4.87029114234e-05
4.76881290539e-05
4.70738816044e-05
4.66780839443e-05
1043.02860729
292.092863781
83.8098356718
24.4882037679
7.02823343565
1.85618892192
0.406265795922
0.0671821892567
0.00977249612167
0.00155087611552
0.000366548380884
0.000149631890575
8.98907916656e-05
6.74815483451e-05
5.74335422171e-05
5.24783611472e-05
4.98909702912e-05
4.84665920287e-05
4.76295458188e-05
4.71036842659e-05
1018.44414859
291.868791671
87.4424428942
27.0671914345
8.3979098777
2.50016196256
0.658907901202
0.137858235276
0.0225844357443
0.0033203890872
0.000609059238452
0.000201617580792
0.000107443397441
7.53194808797e-05
6.14860542118e-05
5.47441537892e-05
5.12308868237e-05
4.93092130282e-05
4.81994650363e-05
4.75180186744e-05
1023.77954087
294.003633348
89.6255774217
28.6861318805
9.40171925584
3.05522285781
0.9309115831
0.241357283789
0.0490871323683
0.00769670490058
0.00111307004629
0.000281634837213
0.000129793768558
8.44868179164e-05
6.60801452453e-05
5.72822368317e-05
5.27093296173e-05
5.0208952164e-05
4.87764807456e-05
4.79118374581e-05
1030.3598254
296.264956613
90.952829029
29.745733142
10.1568019678
3.53767011948
1.19996775945
0.369115903492
0.0959325010427
0.0187306189184
0.00238193740207
0.000423263551309
0.000159672486396
9.52355942155e-05
7.11971413361e-05
6.00509700746e-05
5.42961631903e-05
5.11475064462e-05
4.93490272737e-05
4.82788117305e-05
1029.13431402
296.414362298
91.2409706192
30.2974534535
10.6990450467
3.9277800312
1.44038079193
0.502017707974
0.160202588759
0.0428645944782
0.00593763780117
0.00072196052544
0.000203576086727
0.000108325927715
7.69446365001e-05
6.3042272278e-05
5.59669759132e-05
5.21061846921e-05
4.9910214227e-05
4.86185654649e-05
1026.6811177
294.85132057
90.8030423096
30.5176634396
11.0795521682
4.2221653945
1.63034545304
0.617999610317
0.232405260922
0.0835421312457
0.0160489420458
0.00146751905192
0.000279616955387
0.000126330669462
8.39069420391e-05
6.63988547154e-05
5.77575549107e-05
5.31015013778e-05
5.04687950269e-05
4.89375651834e-05
1026.26794906
293.161412194
90.2995708406
30.6853422278
11.3545283586
4.41529411607
1.74615132047
0.70498206668
0.301674668027
0.137180100273
0.0407125768591
0.00363308246498
0.000446721473475
0.000157210971335
9.3811054969e-05
7.05950153426e-05
5.98142016442e-05
5.41799918812e-05
5.10484753062e-05
4.92566692395e-05
1041.31695461
295.611244179
91.348840419
31.2288274566
11.5937132652
4.50795121081
1.80131976172
0.769237667935
0.366146591101
0.196803685482
0.0830430019176
0.0121039231026
0.00095450982715
0.000224019362021
0.000110206016845
7.64118971724e-05
6.23653348848e-05
5.54366214388e-05
5.17041762514e-05
4.96152323883e-05
1065.19285708
304.022277243
94.7175826762
32.3352390225
11.8276854252
4.52933000954
1.8316602641
0.827162066897
0.430421043124
0.259640486352
0.140861213644
0.0364006885624
0.00295361769869
0.000395581151296
0.000140828933616
8.53059026582e-05
6.58269710413e-05
5.70387466756e-05
5.25238722277e-05
5.00681476454e-05
1085.09693364
321.366735364
101.251592905
33.8684415757
11.9665434746
4.51732372586
1.87821322287
0.893940898585
0.502051342502
0.323945853196
0.208469573607
0.0832866110896
0.0118457573844
0.000927044827969
0.000205875865848
0.000100136186623
7.0868625499e-05
5.92227062778e-05
5.36180631376e-05
5.06760205842e-05
1218.22764723
362.597301416
111.258830704
35.6026882665
12.2172049833
4.63742186912
1.99397233025
0.987083203378
0.572795148403
0.386053061436
0.277780417077
0.154045217804
0.0400922041259
0.0029987857046
0.000364700731217
0.000126501780047
7.84606785441e-05
6.22730799555e-05
5.51030905278e-05
5.14944195755e-05
1512.32314528
419.585861954
122.903819906
38.4835551544
13.168439011
5.04894173143
2.20316145453
1.10505168966
0.644540320709
0.44056369231
0.339721925183
0.235553594554
0.0980938465868
0.0120450339808
0.000812631596471
0.000176626964581
9.0081480531e-05
6.65231577242e-05
5.70927881099e-05
5.25698307104e-05
1623.95084911
450.745866494
132.920158911
41.9710741553
14.4898434625
5.59162645222
2.44564834336
1.22595783896
0.714031036377
0.48776246075
0.388222933227
0.308293023596
0.176948628175
0.0399648869159
0.00224921144347
0.000278172968265
0.000107915228474
7.23509433481e-05
5.96994943275e-05
5.39438209234e-05
1664.82218724
465.481599242
138.669799282
44.3498783241
15.5136218181
6.03992383183
2.64679486122
1.32451315736
0.7730377249
0.531778892583
0.424312356159
0.362323466434
0.252044232301
0.090787888069
0.00679548547578
0.000490543515747
0.000135248934466
8.0241522662e-05
6.30558768425e-05
5.56631488822e-05
1678.02918076
471.939569998
141.345978853
45.5985523464
16.0938517525
6.30530368011
2.76936472264
1.39092588641
0.823236143656
0.574644207084
0.45891160281
0.396875638403
0.311006467499
0.149955645498
0.0183693306011
0.000972186536848
0.00017847703532
9.10360090773e-05
6.73596642229e-05
5.77888955642e-05
1692.36904374
476.439189262
143.154050119
46.2955689052
16.3876463018
6.44030950191
2.84169456705
1.44707308967
0.874768439286
0.617011041634
0.495801587733
0.43273407724
0.359300633641
0.204449369168
0.0390652564933
0.00186822706333
0.000246478756743
0.000106164732606
7.29054139758e-05
6.03973865557e-05
1709.74898713
482.815068657
145.233897655
46.9668313291
16.6416825068
6.56020173856
2.91846783056
1.51570572429
0.9269552944
0.659041426586
0.540000495631
0.478388254618
0.407857502772
0.25542869981
0.0704901733763
0.00381969564206
0.000372235214281
0.000128891727403
8.0189862511e-05
6.35876422803e-05
1760.85160987
494.121048314
148.312971758
47.9244349306
17.0094930344
6.72960542288
3.02575911702
1.58922510368
0.972753513009
0.704198177328
0.59588111455
0.542514119292
0.468324956077
0.311758493106
0.111989157546
0.00928460245423
0.00064084651317
0.00016574194981
9.00455773472e-05
6.7496354937e-05
1827.27552759
511.068632436
152.620465663
49.3208169637
17.5504640264
6.96814208869
3.15143964264
1.65073061106
1.0142853434
0.755153772773
0.665695316439
0.627111842083
0.544600066616
0.383156103453
0.167181555498
0.0235364662508
0.00127325553484
0.000230237185115
0.000103924510967
7.23350777324e-05
1898.13734023
528.132377217
157.185233611
50.8581170332
18.1507688201
7.22080192637
3.25452196899
1.69169778551
1.05202448932
0.8087544702
0.738284913845
0.705862347832
0.620779281757
0.486103533117
0.246279155306
0.0548349878563
0.0030427916823
0.000356670434085
0.000124719211532
7.84796178096e-05
1947.55293315
539.720744618
160.431716986
52.1114997528
18.6769885467
7.41830544549
3.30775879946
1.70973254525
1.0800592601
0.852939560532
0.781683207448
0.746241080393
0.681502322209
0.567959662957
0.355148229411
0.112096345545
0.00876781207694
0.000631431011589
0.000157921237677
8.65656569969e-05
1972.91203227
541.697939659
161.390929715
52.9320728326
19.0851832844
7.52860798732
3.29807791592
1.69455302481
1.08610551733
0.859898730849
0.772733963865
0.749885092421
0.711947851951
0.620171171024
0.458645526725
0.194642670383
0.0253729424797
0.00126314492054
0.000213755959099
9.7617778637e-05
1957.89052143
535.262021877
161.777293473
53.8225448746
19.4053645323
7.48432086048
3.18825411357
1.63035053922
1.04916044255
0.813544970767
0.721959807956
0.714940108313
0.703776559236
0.638310867913
0.500425272105
0.278844420166
0.0603596045023
0.00288483208822
0.000315335100165
0.00011344784046
1835.95247323
522.059271078
162.984178348
55.0517893365
19.4252568436
7.15880165821
2.99337094872
1.54073812069
0.979441295109
0.739158952975
0.647360135815
0.643334979097
0.656969633124
0.619483987445
0.509289630994
0.338799142171
0.112422945712
0.00759483362488
0.000518714725269
0.000137482234974
1718.0806663
518.781360682
167.847609213
56.2919471361
18.8756106006
6.90884105562
2.897560837
1.474187158
0.911605585142
0.665065071485
0.568127264542
0.555600339282
0.579218196209
0.567390990972
0.492600721606
0.365530665345
0.170787454968
0.0205236660884
0.000956604892493
0.000176222397143
1732.83297423
539.33443023
175.483720721
57.2251973907
19.2680071517
7.13038072044
2.97740407079
1.47730895276
0.876338659214
0.612726834248
0.505926057837
0.475733023639
0.491503847565
0.497031271567
0.459017080138
0.37233200307
0.225537721813
0.0480781586876
0.0020007239059
0.000243466902107
1861.28400233
576.161568839
181.995670964
60.4891559336
21.2872114136
8.03104275746
3.30779967587
1.57846636686
0.889834735737
0.594926977149
0.47218138496
0.421625667271
0.419042442903
0.430215125174
0.422170061736
0.37812155249
0.275693092947
0.0917720733757
0.00485276207144
0.00037194099156
2129.87384697
624.862917096
192.029143492
66.4586963531
25.3118355145
9.65589449571
3.87556240404
1.77400478234
0.953538132855
0.612288209832
0.467235228847
0.397443642256
0.3753495861
0.382997241122
0.394198924424
0.38844850296
0.319938173512
0.146531396484
0.012835006231
0.000637828889583
2379.22071161
679.48084194
208.996004806
73.4041821454
28.9728542629
11.5389002311
4.64101097212
2.05706669895
1.06338124042
0.659892542946
0.485776372106
0.397278476566
0.358572374459
0.359118711457
0.37993470104
0.402851205919
0.351459548635
0.204554962285
0.0315488665579
0.00121901383157
2505.84328508
720.353844238
223.427469055
79.0540778002
31.7581248678
12.9565927555
5.29592504748
2.34241498335
1.19182628142
0.724126003158
0.518438698263
0.4124664325
0.360696473926
0.353847568036
0.378146926723
0.419553066152
0.380114760707
0.259990279965
0.0641563303073
0.00255975410274
2570.73042798
745.883538447
233.412975643
82.9121141041
33.4615395149
13.7590821297
5.7028688631
2.54991701848
1.30138662025
0.787598179166
0.555177718246
0.434452487289
0.373572033317
0.360997070378
0.385975184086
0.437448360124
0.408801729272
0.300528695663
0.107094958005
0.00571063790108
2622.42005475
763.421371108
240.134052916
85.2145277162
34.1091694588
13.9540873485
5.85085895111
2.66329646214
1.38194984015
0.843494392433
0.590722838859
0.458979270233
0.392208671628
0.375853393219
0.401135300465
0.458330995787
0.438681746578
0.33310714052
0.15348288085
0.0127569281864
2694.53428111
780.534651204
244.697446707
86.1697216082
33.803884309
13.6690111583
5.80907536911
2.70625154464
1.43859514976
0.889536347866
0.622041470302
0.48378240249
0.414274294213
0.395455778515
0.421350815041
0.481372084283
0.469913188079
0.367259807783
0.200361634439
0.0269635705232
2754.91211584
800.818336497
251.160805299
87.4756057149
33.2303960775
13.2738071137
5.71297151864
2.71933222182
1.48018420733
0.924764905005
0.647854140603
0.507775975933
0.438273410287
0.417856101355
0.444039888055
0.504518418461
0.502991936828
0.407960784969
0.250279342174
0.0515980384385
2771.16372165
816.858533432
258.91697051
89.2199504765
32.8061380536
12.9740690469
5.62302378045
2.72062738556
1.50905167858
0.948015377987
0.667928814102
0.53026100814
0.46264865077
0.440630757823
0.465504756557
0.524633668373
0.538448605737
0.459098239193
0.307540972745
0.0878223546574
2745.17313741
828.206367219
266.374171314
90.6852449418
32.5758987239
12.7635182548
5.53357008555
2.71147777662
1.52166920349
0.958241061677
0.68228962171
0.550270422711
0.485082891863
0.460296473585
0.480743720997
0.538764608081
0.576477193421
0.521335983657
0.374160797153
0.133816608231
2756.04474075
846.751698376
273.221486242
91.5340187085
32.3703267953
12.5363836326
5.42135905981
2.68595655873
1.51330310528
0.956417527639
0.691211339313
0.566317172131
0.502739172611
0.472947884559
0.485850729596
0.545985621653
0.616322635819
0.59143813442
0.436926504655
0.185817833253
2884.12314606
886.015742583
282.287184108
92.5626745914
32.0385602749
12.1951851838
5.27225624157
2.63519318833
1.48413117924
0.945946245074
0.695103536893
0.576516868806
0.512723927856
0.476630656665
0.481180225411
0.547902021736
0.655955251551
0.662612424473
0.492532132451
0.239915618985
3117.72281831
953.187168296
298.899497758
95.210083899
31.872948391
11.8809624836
5.15066516762
2.57995617414
1.45108388631
0.934526308739
0.695376005376
0.579391298443
0.513428624543
0.471688163407
0.471362566015
0.548276536512
0.691721419385
0.727882297936
0.549658277893
0.294727242811
3422.71307936
1048.33421676
324.645444687
99.8444537136
32.2672798078
11.839864572
5.15143397862
2.56715710778
1.4403068404
0.931425754351
0.693851960323
0.574291636342
0.50451312768
0.459044967877
0.457558399708
0.551449720823
0.720574065042
0.784060318972
0.610712822206
0.351948726343
3811.04504113
1179.71471588
356.804486435
106.032654052
33.6353055466
12.3405770214
5.37923901674
2.6556006112
1.47546464957
0.94316286529
0.689522891419
0.559420295122
0.487934627608
0.441863176206
0.446420201457
0.560328810381
0.743226192554
0.832899142439
0.679787086303
0.415732861206
4588.75911348
1357.86815327
388.439149556
114.088158044
36.6913958391
13.665331757
5.94033288677
2.88919488006
1.5656249906
0.960929267281
0.673885743347
0.539856510019
0.47434322105
0.434021657817
0.450824772313
0.578098415836
0.766143431553
0.882979074397
0.766591152351
0.496829625484
6217.09191864
1560.44794544
427.279710873
126.980679013
41.8215034519
15.7798419428
6.80512705677
3.23101864058
1.66200091442
0.957806204647
0.655880900563
0.532442546373
0.475856573878
0.448916920247
0.476472228405
0.610703684975
0.798137670042
0.943484350997
0.877879198649
0.590620838173
6779.27231245
1671.72109356
460.160383489
139.308030177
47.0119895075
18.0063469149
7.70075704216
3.51137141832
1.69271963291
0.946214714158
0.654271090868
0.543718640572
0.50152346979
0.489321129914
0.52549352971
0.659279066469
0.843527271613
1.0170715091
1.00430437212
0.711680494168
6460.90233649
1622.85727813
455.836957808
142.193010634
49.5743676258
19.3605912431
8.20117361456
3.57613584639
1.66730777383
0.939893271875
0.667751102483
0.571494550632
0.551038218627
0.55150607684
0.595949262962
0.717598268563
0.896358334209
1.09814420096
1.1417775608
0.874800410568
6018.69767517
1504.30332234
430.970325123
138.205217891
49.4940832379
19.5443009795
8.16186165063
3.44823618863
1.59946371863
0.929912912507
0.69152767549
0.615652792393
0.61599893369
0.628889463223
0.67692635713
0.77195573511
0.944299706504
1.18293028972
1.28748811534
1.06178679227
5551.65373622
1386.91612845
403.404934597
131.731417292
47.6868928015
18.8161417765
7.71244518742
3.18145445091
1.5029195961
0.925001075425
0.720923626225
0.668967362312
0.682714171545
0.709269274585
0.746068716646
0.810554803367
0.974366171901
1.26005084933
1.4308993567
1.25568209577
5132.8401829
1280.78631657
376.521104266
123.969549301
44.8784410627
17.6010276344
7.05011465674
2.88348673782
1.42735059877
0.931530681154
0.751881869042
0.711737347668
0.73562154772
0.766975984298
0.78351276756
0.830233964393
0.978410258048
1.31146676753
1.57281318602
1.44945875804
4629.43121304
1154.22055665
345.093810843
115.92702541
42.5038120943
16.5088307375
6.47083553556
2.69482875894
1.40174847865
0.940340075727
0.768343768036
0.724444769767
0.750296850541
0.776474688587
0.780565198151
0.814078877411
0.953556032545
1.31266871321
1.69936527656
1.61603732142
3764.36327302
1001.07353207
320.433151741
112.926618792
41.9975183905
16.0425434676
6.25238436074
2.676516856
1.41720710679
0.943377721313
0.7530718309
0.694538889569
0.706949477075
0.726536663584
0.720965650603
0.732103822114
0.87169189354
1.23338779619
1.76059987345
1.70471605457
2849.84645068
923.387988669
327.883174079
120.878908625
45.0783061413
16.7012984888
6.38468141685
2.75672865805
1.4472700063
0.925414779895
0.703743346418
0.620302999128
0.608315996376
0.615867160463
0.611110871635
0.614048167725
0.718427195836
1.06350879549
1.68219801507
1.6665149296
2976.15161073
1089.12588666
399.917045358
143.71832012
50.5963081694
18.073128892
6.91710080538
3.00504925134
1.52680015602
0.912607719547
0.641778278706
0.524493902639
0.483539160302
0.478670996593
0.482311929076
0.48825057338
0.548179860841
0.83704427958
1.43194928028
1.51022217933
4324.88107409
1526.86708164
499.269952807
164.523582182
56.5862202036
20.7874791358
8.22984919504
3.59045288191
1.7434664574
0.956963428208
0.606141728353
0.445731589235
0.374916342571
0.352323361299
0.354197973791
0.362288838239
0.398958518695
0.592638856389
1.08531160006
1.28856993525
6645.96231319
1984.33775405
566.19006423
179.398707317
63.8511444182
24.931969752
10.1680862856
4.4582966604
2.11778131272
1.09212901783
0.627372440395
0.412480737583
0.309661816541
0.264560534923
0.255071984365
0.261734830162
0.287868538538
0.397294561732
0.770142866785
1.05995069733
7981.77484154
2056.8994105
598.292937246
198.038006237
74.5975380752
30.9589734034
12.4509518831
5.38641188097
2.54639245486
1.29291505876
0.708804638512
0.43141575081
0.294081071995
0.225796517233
0.201327039547
0.202015859102
0.221663110913
0.292483624793
0.555829390574
0.869245131265
8228.6594474
2093.99276297
617.000618037
211.579858179
85.008548951
37.6677810645
14.9253373146
6.38838997736
3.01651218369
1.53037321973
0.832607152979
0.491467918813
0.316889387817
0.225986798348
0.18721678458
0.179915357382
0.1935019448
0.244110082298
0.421113479868
0.73797257007
8367.94632088
2126.34598959
637.774215396
224.220818279
92.8409734594
41.3330866065
17.3194097163
7.62100736839
3.61449847656
1.82954441131
0.993147760799
0.580371016228
0.363921046301
0.250758822686
0.199672212514
0.184513302926
0.192087091564
0.229329484989
0.356520748944
0.659415164804
8320.61155427
2178.6635165
687.652627553
251.111326081
105.139414832
45.4414451978
19.8645192065
9.01006033848
4.30779135332
2.17831448756
1.17998558242
0.684759660403
0.423098181974
0.289492838425
0.228535412509
0.206586051237
0.208428002024
0.235765836265
0.333765928702
0.615504899113
7150.88311263
2135.55451382
738.873968628
287.761158459
122.883526616
52.6462655823
23.229704867
10.6675963985
5.11089948478
2.57556955985
1.38533673708
0.792369971888
0.484213974434
0.334240555002
0.266735415731
0.239622985384
0.236343526233
0.255894720696
0.333091959281
0.588808368894
5573.32568223
1883.48253711
721.006219704
303.144872293
134.47694554
58.9954367122
26.5390170306
12.3644450053
5.96538091197
3.00874609198
1.60127842217
0.895865041065
0.543864318847
0.382396152322
0.311142547377
0.280053788136
0.271885548584
0.284336328774
0.344763133776
0.572670554749
4532.42911504
1625.4467258
650.582781251
288.270209552
132.845105555
61.0111088177
28.458731427
13.6327445213
6.71290875257
3.41935904617
1.80231825584
0.988022790666
0.601331752238
0.433578869978
0.360624238107
0.326081721908
0.313076029374
0.318756967585
0.363829879347
0.55871396934
4268.443537
1441.67515875
566.578953009
257.278226415
122.352862546
58.8457251329
28.6547415505
14.2385258633
7.22737701193
3.74305641909
1.96114203316
1.06487560078
0.65719590172
0.488208431081
0.414847361832
0.376969186341
0.35887512089
0.358172388182
0.388769556722
0.548199842857
4456.83653016
1370.71212138
504.264132268
223.901841682
108.934241665
54.3153381263
27.5414511706
14.2079314054
7.45175404966
3.9313150536
2.05998291805
1.12397048293
0.711743341033
0.546299487952
0.473569226007
0.432203269157
0.408730687992
0.401551159456
0.419131460174
0.542060344999
4667.55792346
1339.9096909
468.841775241
199.946267683
96.5825467413
49.1667290067
25.7019749008
13.6884112248
7.39146827309
3.96735833778
2.09234533208
1.16359872402
0.763965809127
0.606618281256
0.535539910522
0.490850943312
0.461424737205
0.447516729269
0.453949415197
0.540185924245
4593.57016601
1291.5070287
439.83179692
181.096892358
85.907526583
43.9717609286
23.4177493954
12.7914324574
7.07706489165
3.84860081572
2.0546711527
1.18030465854
0.810152839916
0.665101744474
0.597208582676
0.549843230139
0.514199718509
0.492605177764
0.48872961622
0.539303810951
4489.03920178
1232.94671667
411.162481421
164.16478633
76.0882466778
38.7624409899
20.8670818651
11.6420798606
6.55117851888
3.58187528651
1.94946413802
1.17124878777
0.844195743739
0.714352287649
0.651328049114
0.603338906372
0.561438998267
0.530521274458
0.515851424627
0.534880792498
4629.45050399
1209.72532668
390.144239077
149.609615381
67.1880687649
33.8289454394
18.3522465513
10.3838144366
5.8515670968
3.19907749693
1.7958160027
1.13918313294
0.859677598907
0.744197558638
0.687477067245
0.642212785963
0.595743722588
0.553057692453
0.52645552933
0.524416341485
4968.5117323
1243.32289916
382.445284434
139.051928567
59.982489527
29.7186473432
16.1368233071
9.08462607963
5.04411463523
2.78673220784
1.63477119988
1.09361243786
0.851454490621
0.744223287302
0.692871878541
0.654465665727
0.605573290897
0.552202616043
0.513287857386
0.495666697251
5334.49030594
1305.1978553
384.725799051
133.189537882
55.2801913353
26.8128637258
14.3129758505
7.88615885648
4.36785844771
2.47971838588
1.51874543049
1.04777804666
0.818783108439
0.707434830397
0.653450149645
0.617086420584
0.571856929561
0.518860559661
0.474550781449
0.446911833116
5151.70278916
1295.03786595
380.852225064
130.94591556
53.3803635304
25.2847395847
13.2581598432
7.30832566264
4.1242735972
2.40415849995
1.49378529616
1.01839017236
0.768201656273
0.636286963889
0.569281975484
0.531666752344
0.495109053731
0.453262564788
0.412765833733
0.382771116236
4482.93717575
1250.39046401
390.992091753
138.28503581
55.9817744459
26.4875057815
14.0684129511
7.92465160609
4.53649925209
2.63544669949
1.59288906809
1.03193528192
0.729274097503
0.564120592593
0.474335702262
0.425347912708
0.392898984896
0.365217160244
0.337145451626
0.313181898286
4302.177145
1309.06800164
432.75072972
156.709658061
63.595025406
30.3188399612
16.5452366041
9.63771390711
5.61412387079
3.23715908439
1.89634200068
1.15750719121
0.753145759061
0.531610706239
0.407822568915
0.338332165125
0.299501784715
0.278544412576
0.262992314889
0.249830269784
4442.23734692
1398.8547105
478.029683487
176.423480893
72.7399909872
34.890486324
19.4114015937
11.8371852347
7.25000098068
4.2600012616
2.47707068318
1.45163127017
0.878629099925
0.565865931274
0.39490157774
0.298454811759
0.244537406582
0.218741755814
0.207620195799
0.202952493544
4132.92383875
1250.06247081
421.307715427
160.911858904
70.4671146426
35.9388540333
21.2426239999
13.8276004317
9.10134136783
5.58519797203
3.26255560904
1.87743147938
1.09606436251
0.667623536341
0.435223731399
0.307133202874
0.234003814111
0.196058041131
0.180906747848
0.178525898863
3079.74952533
923.761723224
324.401934913
131.31047729
61.5411527966
33.5998823726
21.1364123984
14.5598527847
10.1541303055
6.62565916101
3.9778141071
2.31097368564
1.34275579112
0.805167651191
0.511280286716
0.349162976686
0.256025657927
0.204393830352
0.181575980091
0.17715419292
2491.12790815
753.6434754
266.808625658
109.923871636
52.9619559964
29.9753037261
19.5969330979
14.0117458055
10.1339122231
6.90864612587
4.2882017992
2.55327771591
1.50900146638
0.914233757248
0.585549076452
0.401234253737
0.29439269052
0.232738570652
0.203502827818
0.196254196162
2289.29047795
693.903494963
241.292552319
96.4550798999
45.4247016204
25.6316631811
16.9799956763
12.3958629161
9.17365475123
6.42588517925
4.1287956826
2.54146838278
1.54662120358
0.962946457796
0.634813267787
0.447855589814
0.33759970636
0.272317661377
0.240770389436
0.232813223765
2453.6903714
721.140460292
235.98006899
87.0341764509
38.4074896161
20.9406494207
13.7960762703
10.1518101617
7.59794392493
5.411354812
3.61426575622
2.31541331617
1.46630358298
0.952422287336
0.656916329466
0.484492711516
0.38022515524
0.317757683333
0.288749320909
0.283407397169
3040.77786151
831.262439048
258.681404816
90.2237319384
35.8359294796
17.8288384306
11.1317786609
7.99691976823
5.94837085969
4.28681183573
2.95976823051
1.97839699176
1.31728208013
0.906050344693
0.662104811373
0.513826662711
0.4203720904
0.365251772378
0.342691040739
0.34239473513
3649.2749262
996.881657341
311.885365175
107.997177754
40.7133597862
17.8614497054
9.76287388633
6.42716386147
4.60671681589
3.32939498099
2.36324251217
1.65385377704
1.1690439485
0.859321408062
0.664731779666
0.538908600643
0.455495032318
0.410286238151
0.396064424928
0.400958102407
3821.9874821
1085.4442142
355.180165091
125.456557152
46.9729434624
19.3385954099
9.38907846885
5.52477619636
3.72583968993
2.66564321847
1.93996057362
1.42554166564
1.07114749986
0.832404845525
0.669989477249
0.555226608445
0.481203937129
0.44711687277
0.440865582664
0.448946430182
3776.41243299
1100.12451821
370.34928479
133.96335622
50.963454275
20.7024653755
9.43074165266
5.08952841846
3.23807767227
2.28701809704
1.70213239566
1.30367969041
1.02152647356
0.817679063942
0.66521051218
0.556665953294
0.493595221409
0.470392582079
0.470998347981
0.481449191923
3843.12811263
1083.45383884
364.789246414
132.998639354
51.2651275869
20.9134589684
9.33720610421
4.85762558533
2.99937976583
2.10475113423
1.59009551591
1.24523861988
0.989709465694
0.7916404668
0.642307051669
0.542391801165
0.490607692117
0.477997335039
0.484875833375
0.498284662752
3990.38827079
1083.39868086
356.557029408
127.565515994
48.8264581598
19.8811425556
8.89277668308
4.64715743652
2.87075511612
2.02037394176
1.53490840082
1.20198466945
0.946789930164
0.747619184531
0.602095324697
0.511887896256
0.47269816234
0.47070036551
0.483144653933
0.490335430218
4066.79490812
1073.62048054
343.519328148
119.732609966
44.8102992475
18.0172725946
8.16916785991
4.38308186559
2.76163001812
1.96639250494
1.4916778017
1.15215524863
0.886836573012
0.683669838048
0.54599552984
0.470951356834
0.44412743009
0.448056478483
0.450276621481
0.435991051094
3777.93788617
1026.67161341
327.357085833
112.52055211
40.6640283542
16.060170174
7.46655470695
4.18398676165
2.7238385146
1.94844782443
1.451480153
1.08331333881
0.799319008046
0.600505263024
0.482260749642
0.422809984156
0.403321236404
0.397556725902
0.378358567112
0.341508154415
3193.86242343
968.294562851
321.848375008
108.86288334
37.8952032642
15.010606588
7.25322435716
4.21282746042
2.76494772034
1.93398232959
1.37725785878
0.970088187829
0.685507135204
0.512171014823
0.415190035042
0.367612900479
0.346371765762
0.326683622771
0.29353388867
0.255111392883
2889.72396162
1010.51990321
344.497879946
113.010574158
37.5953187368
14.7830674664
7.35983252438
4.34652384481
2.79640317792
1.85455566127
1.23263062131
0.824471747195
0.572884538591
0.428998412272
0.350809694015
0.310147403568
0.286044531261
0.261881497991
0.234664308591
0.219718429089
3716.80433238
1298.09499161
413.195802528
119.159242705
36.4294266644
14.4437109463
7.44716850605
4.39252780105
2.70276004624
1.68132913053
1.06054814521
0.691283437778
0.477962709933
0.360202153673
0.29617583228
0.260577851183
0.237944973748
0.219619610771
0.210084963381
0.21671939785
6875.18002725
1999.61688739
496.975120569
119.628553845
33.9271704828
13.6019226747
7.17099516279
4.20733417412
2.50786789524
1.49702478993
0.915620519999
0.590007753969
0.40979144268
0.311862910862
0.257607769314
0.225702908581
0.205961803017
0.195357718676
0.200167090612
0.217895067518
13615.0770821
2998.4497459
638.203916562
139.577935136
36.7915334235
13.6905849562
6.86975045082
3.92174500422
2.28591680932
1.33501996385
0.808274099282
0.5246805406
0.370904499951
0.286603582967
0.237886246908
0.207048361145
0.188087327506
0.180940421273
0.190838580142
0.212825244785
18479.5810922
3941.80341578
900.912150023
213.215129001
55.6498344753
16.9766539353
7.18545949905
3.73769732634
2.09949107135
1.21598138995
0.74331962432
0.493795107404
0.359085466511
0.283235919383
0.236256140191
0.203686888441
0.182599618046
0.173990127234
0.181721490069
0.202860670576
18759.6997183
4563.84812094
1221.11736756
343.311576599
103.990052112
29.1753345485
9.81410040615
4.1830556171
2.1127863662
1.18591485525
0.729326959609
0.495118580834
0.369373705672
0.297024329439
0.248743843301
0.212620877381
0.187601411946
0.174612038389
0.176806842714
0.194913820415
17372.2301586
4751.36800333
1448.4716513
493.077527307
189.806600442
64.3434034032
17.1571219941
5.93838196342
2.54827937297
1.30422585721