/*--------------------------------*- C++ -*----------------------------------*\
| =========                 |                                                 |
| \\      /  F ield         | OpenFOAM: The Open Source CFD Toolbox           |
|  \\    /   O peration     | Version:  2312                                  |
|   \\  /    A nd           | Website:  www.openfoam.com                      |
|    \\/     M anipulation  |                                                 |
\*---------------------------------------------------------------------------*/
FoamFile
{
    version     2.0;
    format      ascii;
    arch        "LSB;label=32;scalar=64";
    class       volScalarField;
    location    "0.72/water";
    object      p_rgh;
}
// * * * * * * * * * * * * * * * * * * * * * * * * * * * * * * * * * * * * * //

dimensions      [1 -1 -2 0 0 0 0];

internalField   nonuniform List<scalar> 
6000
(
101684.855189
101681.496293
101680.998028
101680.400956
101679.819735
101679.279573
101678.784127
101678.338837
101677.948536
101677.611543
101677.325788
101677.0879
101676.892985
101676.736403
101676.614212
101676.523121
101676.460337
101676.42359
101676.411065
101676.421318
101667.984097
101673.136242
101676.243255
101677.655136
101677.900565
101677.853905
101677.699596
101677.515344
101677.321447
101677.132107
101676.962603
101676.818236
101676.696802
101676.595828
101676.514308
101676.452205
101676.409768
101676.387273
101676.384922
101676.402811
101656.081537
101663.139697
101669.564212
101673.288313
101674.895421
101675.647884
101675.989282
101676.135502
101676.192849
101676.204787
101676.195164
101676.181651
101676.172291
101676.168248
101676.169234
101676.175725
101676.188955
101676.210576
101676.24231
101676.285599
101646.674726
101654.32273
101663.210646
101669.072063
101672.195644
101673.833183
101674.636621
101675.015592
101675.212873
101675.336906
101675.427872
101675.504485
101675.576717
101675.648494
101675.72013
101675.79126
101675.862002
101675.933135
101676.005862
101676.081347
101638.229606
101645.182223
101654.806012
101662.673657
101668.053954
101671.427226
101673.255008
101674.105117
101674.480763
101674.679392
101674.821025
101674.945174
101675.063732
101675.180845
101675.297245
101675.412094
101675.524391
101675.633617
101675.73974
101675.842872
101631.68247
101637.121629
101645.558301
101653.979748
101661.377257
101667.155673
101670.944639
101672.953841
101673.817609
101674.170912
101674.363955
101674.52007
101674.668076
101674.813261
101674.956882
101675.098345
101675.236346
101675.369706
101675.497589
101675.619311
101624.90655
101629.780058
101636.734026
101644.287344
101652.433022
101660.295687
101666.649036
101670.814325
101672.914363
101673.727437
101674.037884
101674.229058
101674.399997
101674.564206
101674.72406
101674.879854
101675.030756
101675.175703
101675.313749
101675.444004
101617.433982
101622.526047
101628.655582
101635.087124
101642.874826
101651.600565
101660.00142
101666.796576
101671.160404
101673.180712
101673.851014
101674.10428
101674.288959
101674.459579
101674.622014
101674.778006
101674.927731
101675.070765
101675.206548
101675.334349
101610.789033
101616.744087
101622.000144
101627.481105
101634.455187
101642.94196
101652.048898
101660.713685
101667.770639
101672.091582
101673.771854
101674.205605
101674.383207
101674.531916
101674.671887
101674.80602
101674.935204
101675.059519
101675.178709
101675.292203
101604.275926
101611.102491
101616.034509
101620.996409
101627.24867
101635.052941
101643.807571
101653.09893
101662.217347
101669.556239
101673.42004
101674.488698
101674.679894
101674.772252
101674.859002
101674.945664
101675.033306
101675.122044
101675.211516
101675.301087
101598.991832
101607.673139
101612.095648
101616.631375
101621.716781
101628.250519
101636.074913
101645.157429
101655.183749
101665.045959
101672.04577
101674.697278
101675.086641
101675.100244
101675.107528
101675.127609
101675.160413
101675.205096
101675.260382
101675.324617
101593.459722
101604.66029
101609.028087
101612.729711
101616.589885
101621.758187
101628.736144
101637.585359
101647.885937
101659.025222
101668.955653
101674.258826
101675.358192
101675.335766
101675.264838
101675.224399
101675.212254
101675.225186
101675.259861
101675.312794
101587.000368
101601.837138
101606.378032
101608.542705
101610.723188
101614.718526
101621.293772
101630.224186
101640.564796
101651.965762
101663.883171
101672.430317
101675.080699
101675.218366
101675.127225
101675.077727
101675.068509
101675.093183
101675.146094
101675.22182
101579.039774
101595.941153
101599.524419
101601.245636
101602.67522
101606.277855
101613.099131
101622.174381
101632.150724
101643.227463
101656.362345
101668.372401
101673.73421
101674.50771
101674.532416
101674.57646
101674.65774
101674.767341
101674.898859
101675.046493
101571.42083
101585.06392
101587.469143
101588.745771
101590.626069
101595.43083
101603.076541
101611.992165
101621.232785
101631.622394
101645.235985
101660.754764
101670.574959
101673.101199
101673.504293
101673.770158
101674.043376
101674.316747
101674.587041
101674.851739
101556.609116
101565.91972
101568.262847
101570.59262
101575.139231
101582.538915
101591.130198
101599.635149
101608.05985
101617.488933
101630.317507
101648.020312
101664.155134
101670.960642
101672.381833
101672.966827
101673.483336
101673.95513
101674.385546
101674.778856
101534.801624
101545.978358
101550.627922
101554.335494
101561.191544
101570.836496
101580.510838
101589.082232
101596.852504
101604.904064
101615.071749
101631.146977
101652.430537
101667.295866
101671.646809
101672.674024
101673.369912
101673.982956
101674.523915
101675.002125
101525.742341
101535.490659
101540.019582
101544.242811
101551.986007
101563.094606
101574.482553
101584.546041
101592.625767
101598.241727
101604.109736
101614.955405
101635.887418
101659.75681
101671.022934
101673.249008
101674.004135
101674.626369
101675.170514
101675.645475
101521.401353
101531.969984
101534.005413
101538.552249
101547.311537
101559.677795
101572.330978
101583.271577
101592.090748
101597.436921
101598.589728
101603.104823
101619.658131
101647.765769
101668.939191
101674.561754
101675.43376
101675.923419
101676.350577
101676.723351
101517.011122
101527.703205
101529.140052
101533.62005
101543.748381
101557.48999
101571.43323
101584.136787
101594.544571
101598.966358
101597.858458
101598.070847
101608.567656
101635.722742
101664.465576
101675.966056
101677.464011
101677.731735
101677.947196
101678.138491
101513.283448
101526.894744
101526.592724
101531.183828
101542.160693
101557.633924
101573.787911
101588.962601
101599.183339
101599.871869
101598.483317
101597.324718
101603.609994
101627.605906
101659.401727
101676.870262
101679.734206
101679.785968
101679.74438
101679.713891
101510.228529
101525.783433
101524.883593
101530.151279
101542.906176
101560.983353
101579.943908
101596.397264
101599.57265
101599.274858
101599.146389
101597.124559
101601.293082
101622.770322
101655.55945
101677.309489
101681.856129
101681.774048
101681.486022
101681.239388
101506.205298
101527.02949
101526.760786
101533.317763
101547.941162
101568.181586
101588.648253
101599.003671
101598.43538
101598.235987
101597.826583
101597.704671
101598.640325
101618.08625
101652.11974
101677.160281
101683.492865
101683.405319
101682.931754
101682.518012
101500.961449
101525.198571
101528.042552
101538.052088
101554.910314
101576.19338
101595.164631
101596.795392
101596.379284
101595.914422
101595.899313
101594.304783
101591.603874
101610.504404
101646.625348
101675.467051
101684.307685
101684.462671
101683.904685
101683.406368
101493.66197
101523.127694
101528.835233
101542.233228
101561.126686
101581.638439
101594.332351
101593.555076
101593.035917
101592.889438
101591.971909
101581.927686
101574.666785
101596.507628
101635.268318
101670.187428
101683.885367
101684.87093
101684.346305
101683.852613
101487.212666
101520.782396
101528.975323
101543.95515
101563.089649
101581.87295
101590.451603
101589.793365
101589.488365
101588.506919
101583.172551
101566.090508
101566.354873
101576.734476
101613.465144
101658.116356
101681.529392
101684.723103
101684.3373
101683.901297
101479.599615
101519.896322
101529.600058
101543.443573
101560.523773
101577.922856
101586.373745
101585.756202
101584.542877
101581.980858
101561.690876
101561.133299
101561.334571
101561.198884
101586.969457
101637.051857
101675.479533
101683.964321
101683.95899
101683.608816
101472.830597
101519.852479
101528.569304
101539.154581
101554.234656
101570.59553
101579.886808
101578.705839
101573.444822
101558.524055
101555.346827
101555.530055
101555.097387
101555.333339
101564.541214
101609.887894
101663.43595
101682.024401
101683.193135
101682.987309
101471.918841
101514.101174
101517.798658
101526.497059
101540.041313
101553.64372
101560.195428
101557.044887
101551.127607
101550.746106
101550.629801
101548.583325
101548.679508
101548.47332
101550.261643
101585.273114
101645.084235
101677.716616
101681.987647
101682.059695
101467.595867
101493.625381
101489.630528
101494.40188
101509.669853
101525.262657
101531.997964
101533.95837
101539.807451
101546.728002
101552.152408
101548.812665
101542.549839
101541.62156
101542.874484
101566.83286
101622.498561
101669.302003
101680.163376
101680.889881
101447.614495
101453.4724
101438.725282
101441.90466
101466.909875
101491.557803
101506.187536
101517.868083
101532.08963
101546.797052
101555.334691
101552.596077
101543.02999
101536.842884
101537.753768
101553.184993
101598.623368
101655.324042
101677.308797
101679.640145
101425.809665
101410.861116
101392.560581
101396.365352
101423.61625
101457.134778
101482.943714
101503.594485
101524.535153
101544.627791
101553.409635
101553.098213
101547.079899
101539.149215
101536.543529
101543.46688
101575.045697
101635.237647
101672.503187
101678.53428
101402.853479
101383.629485
101383.776131
101383.575776
101391.910882
101425.517925
101461.093203
101490.209242
101517.388089
101541.007966
101549.894878
101550.865974
101549.237792
101544.266329
101538.098167
101535.02414
101553.1369
101610.079326
101664.192944
101677.677279
101386.121733
101378.26789
101378.202798
101379.750349
101379.468679
101402.99818
101441.564647
101477.928908
101511.469668
101538.957913
101547.833133
101548.844003
101549.319459
101547.38948
101539.920543
101527.390998
101532.571308
101582.442929
101650.921862
101676.778001
101378.857764
101373.236752
101375.438597
101374.813658
101375.980767
101391.128367
101428.52709
101469.75506
101508.471668
101539.063155
101547.473258
101548.141888
101548.900126
101548.929371
101541.951365
101521.316686
101515.440778
101556.99215
101633.141339
101674.91692
101374.514552
101370.449877
101370.554761
101372.372834
101371.996055
101385.421339
101422.821304
101467.176872
101508.896451
101541.186425
101548.138586
101548.618223
101549.050224
101549.478627
101543.836342
101516.755499
101513.934898
101539.994996
101613.865991
101670.909593
101370.356361
101366.616462
101368.610608
101368.072276
101369.260631
101382.648152
101421.521709
101468.255374
101513.204626
101545.217253
101549.340649
101549.561813
101549.940503
101549.996152
101546.313277
101516.673316
101512.551213
101530.948391
101597.799677
101664.789361
101366.077339
101364.791147
101364.635536
101366.211897
101366.080114
101383.102536
101425.576482
101475.784978
101522.912485
101549.737419
101550.752923
101550.918358
101550.834293
101550.997743
101548.332306
101517.878268
101511.840443
101526.145426
101586.141288
101657.399486
101363.727999
101361.805721
101363.28981
101362.998381
101363.867438
101389.798799
101437.714218
101490.275859
101535.955959
101552.531878
101552.200001
101551.999932
101552.065352
101551.559013
101549.454262
101518.874654
101510.696541
101523.070945
101576.69607
101648.896281
101364.2714
101361.953033
101360.047635
101361.169027
101366.251245
101402.774321
101455.185059
101508.411989
101548.041748
101553.829711
101553.317494
101553.175402
101552.526842
101552.429739
101548.902116
101518.888409
101509.72596
101519.615874
101566.376709
101638.405263
101368.214015
101365.681297
101357.57952
101357.834507
101374.164768
101419.599362
101475.205976
101527.683852
101554.793849
101554.516182
101554.059062
101553.276344
101553.06322
101552.065805
101546.770443
101518.446846
101508.061122
101514.586382
101553.200336
101625.258586
101371.764494
101369.552608
101355.106723
101357.641512
101386.500144
101438.816936
101496.825445
101544.929175
101555.461668
101554.558782
101553.641454
101553.330821
101552.205906
101551.843974
101543.579908
101519.361384
101506.511126
101507.53937
101537.151026
101609.979666
101370.474934
101369.465433
101356.890085
101365.249092
101402.907639
101460.161185
101518.975846
101553.9796
101554.218162
101553.18641
101552.765753
101551.57267
101551.233622
101549.862039
101542.156869
101523.387155
101505.900907
101497.319969
101521.388369
101594.595788
101363.244666
101362.0684
101358.5036
101374.700767
101420.992598
101482.355276
101537.969184
101552.651588
101551.443789
101550.971845
101549.789943
101549.562891
101548.248859
101547.877506
101541.552353
101529.919779
101504.848694
101485.898521
101507.610794
101580.024528
101352.125479
101352.176456
101354.626179
101380.444337
101437.635792
101502.328252
101546.349603
101547.89049
101547.410981
101546.37876
101546.343385
101545.107606
101544.244359
101543.889091
101545.079789
101536.305124
101500.983922
101475.442598
101495.690571
101565.791455
101338.664118
101338.630556
101343.557212
101381.617816
101447.817437
101514.565355
101542.075921
101541.522249
101541.022699
101541.223491
101539.605327
101531.045105
101534.627716
101544.891752
101552.29488
101538.545322
101494.630037
101466.725624
101485.342384
101551.3722
101312.840822
101304.355198
101330.749268
101378.617007
101447.655325
101513.067
101533.82801
101533.984556
101534.598793
101526.648949
101508.432269
101513.058268
101534.670072
101553.90037
101557.504545
101536.305354
101487.743679
101461.396094
101476.220643
101536.053409
101245.962391
101279.886954
101324.104658
101378.243334
101446.440479
101507.350277
101528.120082
101528.959541
101509.868069
101480.252347
101481.696905
101511.362253
101546.29492
101562.861964
101559.447408
101532.005807
101482.665593
101456.924605
101466.273733
101517.903994
101221.482067
101282.181497
101334.899751
101394.806245
101459.664048
101509.470221
101521.170194
101502.803259
101462.614604
101457.68388
101479.703648
101523.832344
101562.053786
101567.587788
101558.470256
101525.897026
101478.618868
101452.920991
101452.746629
101496.344672
101223.848679
101296.119793
101358.563222
101425.424865
101484.82637
101514.889651
101505.758211
101469.267281
101454.327963
101458.574035
101490.795428
101545.398283
101572.109678
101569.448294
101554.576466
101517.61408
101474.916586
101447.837573
101442.985216
101474.978363
101220.710648
101327.873929
101399.998771
101470.574548
101516.881627
101522.688982
101500.831056
101462.890104
101456.717894
101468.999885
101516.387592
101567.447836
101574.173907
101568.515594
101545.149069
101508.899498
101472.342877
101443.566826
101438.698276
101449.72457
101224.928281
101377.321116
101457.329191
101522.928065
101543.829577
101534.569086
101502.190628
101466.645179
101466.255287
101496.004632
101550.131435
101577.115621
101574.48231
101560.742775
101532.402018
101505.251995
101472.868925
101440.767213
101433.893763
101433.579488
101223.594426
101438.777176
101520.003215
101559.090537
101558.007543
101544.075997
101508.042889
101484.11902
101495.532977
101535.802404
101574.042562
101576.42389
101569.448045
101546.948108
101526.384383
101507.136085
101479.543855
101440.922078
101427.489231
101427.235977
101227.42114
101504.528125
101561.486377
101562.575873
101561.049672
101557.634909
101528.982129
101520.313131
101536.760302
101566.243935
101576.628489
101572.559215
101557.873456
101539.330655
101526.497564
101517.75362
101492.948906
101444.080476
101418.783314
101417.908374
101267.045257
101567.386835
101568.035311
101566.878739
101564.012027
101561.772827
101557.378513
101551.940502
101563.129498
101572.008296
101571.222753
101563.951991
101550.131117
101537.274413
101534.776797
101534.293306
101507.9376
101446.735873
101406.901941
101406.124101
101377.768951
101572.699188
101569.429749
101566.770475
101563.246015
101556.810905
101551.663409
101555.710587
101562.063342
101562.512069
101559.247207
101552.419784
101543.4029
101539.961039
101543.287735
101543.959299
101518.443163
101446.75007
101392.453383
101391.28573
101372.614469
101453.616098
101459.167521
101475.253645
101488.7897
101498.359704
101508.902472
101522.93411
101531.61926
101535.213392
101534.966469
101533.012088
101531.480692
101531.932963
101532.343453
101530.787837
101521.049552
101448.862106
101378.633416
101376.058072
101189.822482
101153.615524
101190.805396
101230.517456
101281.513285
101337.501866
101397.227279
101442.556434
101470.615218
101486.438171
101495.62616
101500.746601
101503.764496
101506.044155
101507.805618
101509.420764
101510.55448
101462.323824
101373.974799
101359.505164
101019.305705
100979.480342
101011.418691
101040.955547
101079.477729
101134.83822
101214.31378
101304.797789
101381.444437
101430.899311
101456.985472
101469.25288
101475.475963
101480.876338
101485.769217
101489.957592
101493.773014
101483.725115
101386.552666
101344.930874
100940.139428
100948.452413
100971.279215
100992.346723
101010.765453
101038.872733
101090.133017
101174.680563
101275.835091
101366.496175
101427.391934
101452.654814
101459.469252
101465.758179
101471.370052
101476.739038
101481.177618
101485.346789
101415.349948
101333.985361
100927.545633
100950.394092
100970.410062
100990.365698
101005.003348
101026.046787
101064.078474
101131.943103
101220.810049
101316.028906
101402.221571
101448.728514
101454.42496
101459.67122
101464.842583
101469.419548
101474.160327
101477.745137
101448.890498
101336.215988
100928.275354
100960.048212
100977.316521
100996.713436
101010.322564
101030.30778
101067.630829
101132.432255
101215.791107
101306.936024
101395.623762
101450.832212
101455.151846
101459.321558
101463.097915
101467.246981
101470.516847
101474.504747
101471.402331
101351.23662
100932.080126
100981.646986
100994.955555
101011.771825
101024.164644
101044.180425
101084.325631
101147.891208
101228.767389
101318.798063
101406.35466
101455.875453
101459.108473
101461.764192
101464.891523
101467.356068
101470.617958
101472.561601
101475.175411
101374.828129
100961.558647
101011.13998
101016.470656
101026.756257
101038.844466
101063.231863
101110.888188
101179.531417
101261.925566
101352.314747
101433.96504
101462.627638
101464.194889
101466.305562
101467.823223
101470.126492
101471.493763
101474.038738
101474.475611
101397.824561
101027.900384
101041.129006
101032.516367
101034.147768
101045.553358
101077.04411
101134.911891
101213.251823
101303.354344
101396.584621
101461.759206
101468.86602
101469.955216
101470.737678
101472.25894
101472.84306
101474.480827
101474.954765
101476.512559
101414.849548
101089.932523
101062.243443
101040.123894
101036.755345
101048.860402
101087.236884
101155.434289
101244.13487
101342.758047
101435.384301
101474.896283
101475.020406
101475.280375
101476.142481
101476.033601
101476.96531
101476.814654
101477.846317
101477.083436
101430.063444
101093.703488
101075.209129
101047.730853
101041.286777
101054.838823
101100.150251
101177.798993
101275.482497
101379.731827
101463.866645
101481.901796
101481.27567
101481.439731
101480.817537
101481.129385
101480.274894
101480.587948
101479.775952
101480.040997
101442.76312
101079.809219
101081.617093
101060.471246
101052.213571
101068.148503
101120.021379
101205.262975
101309.21005
101414.704182
101483.190929
101488.636494
101487.889471
101486.80943
101486.604425
101485.111814
101484.829283
101483.327288
101482.930476
101481.174633
101456.119394
101056.967342
101092.891042
101077.958933
101072.173132
101091.007247
101148.22554
101238.385259
101345.3722
101447.461152
101495.790226
101495.042157
101493.626583
101492.91935
101491.004801
101490.27274
101488.12418
101487.167871
101485.106581
101483.952872
101467.061207
101052.928493
101119.120885
101104.829626
101104.427089
101126.834533
101188.277566
101280.744172
101387.41347
101479.472801
101503.435449
101501.117958
101499.852496
101497.662918
101496.533207
101493.840914
101492.455446
101489.75145
101488.00233
101485.197491
101476.777237
101058.779438
101167.908862
101148.082092
101152.603957
101180.47299
101245.32835
101338.153592
101439.926402
101506.596133
101508.975312
101507.006572
101504.555879
101503.117319
101500.013848
101498.345072
101495.127949
101493.044269
101489.852958
101487.378667
101483.611399
101055.403387
101247.582008
101218.390546
101226.320053
101259.021423
101325.829224
101415.157595
101497.43282
101516.185912
101513.313623
101510.690265
101509.086424
101505.706584
101503.899647
101500.314333
101498.065395
101494.342071
101490.924655
101488.077292
101484.773546
101062.129005
101335.641129
101317.927438
101331.277857
101366.7954
101429.218678
101497.870432
101520.778647
101517.258896
101514.70942
101513.161672
101509.680713
101507.942153
101503.923896
101501.374057
101491.268163
101486.108013
101486.862768
101488.535285
101485.190617
101061.11404
101412.254204
101422.848897
101447.934565
101479.536884
101515.105839
101521.910611
101518.664207
101515.853054
101514.619957
101510.918294
101509.265603
101503.353785
101493.802886
101485.052864
101480.104271
101479.441394
101483.695662
101487.126811
101484.940765
101080.996518
101412.560146
101455.676959
101489.890756
101514.518415
101519.77913
101517.504881
101513.601362
101512.555415
101507.853881
101500.954419
101485.701484
101477.477265
101476.346036
101475.489117
101474.372332
101475.376491
101479.315458
101483.287164
101482.970457
101115.690872
101354.882469
101409.197821
101446.76193
101475.081937
101490.359655
101490.047945
101485.196351
101474.997566
101462.532533
101449.072199
101449.850732
101459.317439
101466.265433
101467.640495
101467.762118
101469.276944
101472.631756
101476.467065
101478.193386
101065.585494
101169.662999
101217.510898
101251.97142
101285.237632
101310.81295
101321.077328
101326.512603
101337.747094
101357.108096
101384.858763
101414.793162
101438.817387
101453.438415
101460.057516
101461.34231
101462.253801
101464.57611
101467.988519
101471.042475
100978.443115
100958.486892
100973.749726
100990.166782
101009.97277
101027.599284
101042.845614
101068.216061
101119.545876
101200.058373
101287.068812
101358.394814
101407.308586
101435.359298
101450.009341
101455.527664
101456.81928
101458.246888
101461.46646
101464.202839
100867.994085
100855.413988
100865.771707
100869.011952
100871.798152
100873.871925
100878.825945
100894.915632
100937.466973
101020.461187
101133.690366
101245.903414
101338.931907
101404.050639
101439.58701
101451.139468
101454.376375
101456.071374
101458.103404
101460.56766
100819.159749
100840.993413
100849.748708
100848.330104
100845.669377
100843.98624
100843.725937
100846.417473
100865.576535
100916.983383
101004.828484
101115.637717
101232.936331
101339.842266
101417.962842
101449.453289
101454.624152
101456.978034
101458.641288
101460.013746
100821.609308
100845.75909
100853.324073
100850.956506
100845.196152
100845.016322
100844.890345
100844.992752
100855.782249
100894.104622
100960.182025
101049.713028
101157.430607
101274.498799
101383.575698
101447.362558
101457.97691
101459.699524
101461.310148
101462.079991
100822.55023
100859.60691
100868.334142
100864.881978
100853.457688
100847.456733
100847.318817
100847.269597
100859.465279
100896.772012
100957.613754
101037.92367
101136.252741
101249.189194
101364.929516
101447.262334
101463.524022
101463.821844
101464.409369
101464.960163
100825.660421
100881.041049
100895.930708
100896.293082
100879.271728
100863.60398
100860.009749
100862.160459
100876.424873
100910.90972
100967.397938
101044.941246
101141.843588
101254.384855
101370.791431
101454.636487
101469.667223
101468.70522
101467.776105
101467.111467
100826.97898
100899.339923
100924.215301
100936.693695
100925.858632
100908.953041
100904.343153
100908.02133
100922.572576
100952.773563
101002.094481
101073.619011
101167.316528
101279.169252
101394.214579
101469.592984
101476.241353
101473.857518
101471.918747
101469.25548
100829.68653
100912.620979
100946.026482
100975.006601
100985.292545
100984.806291
100986.576109
100992.326198
101006.178188
101032.9568
101077.860113
101145.514481
101237.119232
101346.343661
101447.580542
101485.869374
101482.58542
101479.670073
101475.928719
101472.715352
100840.312977
100926.726135
100967.773382
101009.892685
101048.458198
101078.397879
101097.067512
101110.927006
101128.644982
101156.793527
101201.599489
101267.958394
101354.955045
101445.482058
101493.290999
101492.221027
101488.871847
101484.746988
101481.085615
101474.475512
100854.815664
100954.310599
100998.329984
101048.706585
101111.614928
101175.452887
101221.62686
101255.694048
101286.162472
101319.696287
101363.034635
101418.577708
101475.009035
101503.027128
101501.06367
101497.987742
101493.890025
101490.292252
101484.720155
101477.784678
100857.231944
101016.254327
101049.21036
101101.606311
101178.093025
101266.760324
101343.920729
101408.365456
101450.474911
101475.803971
101495.193813
101508.944344
101511.330975
101508.473207
101505.833124
101498.410599
101492.542182
101489.230686
101488.315656
101486.593614
100859.878113
101127.315013
101129.265106
101175.921732
101253.960503
101352.090122
101450.115241
101513.767706
101523.175317
101521.60872
101519.707746
101518.151445
101515.683654
101513.833629
101494.145338
101489.774929
101492.535204
101497.503042
101496.157633
101488.976699
100866.747128
101248.656784
101230.994525
101269.573677
101338.345205
101432.100155
101521.691063
101531.185734
101529.872073
101527.69076
101527.234017
101523.912691
101522.642122
101490.174587
101486.507381
101493.355328
101504.751786
101504.885418
101497.946862
101490.154329
100922.930897
101335.633902
101317.430507
101348.883736
101411.201918
101497.781351
101541.069456
101539.509541
101536.817065
101536.628368
101532.240729
101528.514103
101485.184507
101480.91629
101490.410186
101507.246538
101512.090223
101505.603579
101498.495731
101489.623461
101059.715836
101360.109217
101362.01214
101380.457195
101453.246153
101531.399271
101549.479769
101545.327639
101543.784412
101537.615192
101515.516602
101466.770791
101463.340784
101482.479911
101503.939934
101513.588919
101509.8774
101503.65972
101496.420569
101477.673956
101208.94769
101360.09582
101344.616622
101372.181155
101452.70783
101522.273015
101539.875627
101532.777302
101509.593883
101471.518636
101429.182387
101432.663489
101462.267245
101490.180436
101504.693166
101505.705691
101502.000924
101496.847784
101483.589559
101419.649172
101173.000313
101194.919948
101206.681727
101274.111105
101359.150169
101405.77785
101415.243551
101400.367417
101371.030815
101350.97661
101370.673384
101413.779287
101453.650949
101478.835236
101487.714178
101488.18837
101486.021219
101480.77297
101446.473123
101345.392741
100929.056585
100866.493611
100963.285302
101053.543842
101119.676814
101150.073752
101165.945297
101182.16003
101206.270129
101250.076205
101311.716295
101373.414105
101421.306241
101449.906156
101461.221811
101464.483185
101465.003639
101457.141649
101400.666255
101299.415633
100642.157817
100638.79256
100724.042822
100810.857974
100886.241708
100942.875538
100987.65683
101035.669811
101094.109994
101164.2223
101243.082732
101321.691359
101383.851773
101420.381653
101435.292058
101441.397058
101443.808806
101433.199049
101372.37456
101284.723253
100538.265232
100574.112559
100619.154209
100676.941657
100759.537585
100854.540244
100940.369774
101005.564545
101061.831453
101127.818922
101205.405396
101288.95666
101361.395252
101402.354233
101417.844797
101424.354743
101426.964203
101415.810388
101362.020516
101282.793203
100532.934161
100554.47507
100577.419086
100613.766029
100679.894163
100791.889495
100929.784092
101026.250453
101081.25719
101137.712289
101210.144159
101291.309331
101361.794395
101398.702668
101409.387571
101414.397148
101416.855576
101407.64367
101361.228536
101294.298468
100534.959461
100545.9062
100561.432168
100585.874687
100628.715703
100717.562616
100894.643465
101080.86306
101176.677325
101221.976032
101279.498707
101341.997233
101386.242271
101400.192189
101405.77301
101410.026468
101411.771285
101406.034101
101371.826437
101316.235399
100531.729193
100541.66942
100554.747836
100573.313425
100600.01592
100655.692443
100797.273508
101054.623033
101241.008966
101336.897386
101373.261523
101390.325016
101395.444677
101400.020453
101404.608895
101408.982
101410.703087
101409.135952
101392.735099
101349.827946
100534.760221
100539.753603
100552.735562
100569.114731
100587.135398
100619.550097
100702.193604
100947.817775
101214.395539
101358.677969
101390.287
101393.50377
101397.605619
101401.145999
101405.393882
101409.472614
101412.557666
101414.06514
101413.496718
101391.652139
100532.809654
100539.642066
100553.172913
100569.498054
100584.367911
100607.162108
100661.134911
100821.971005
101119.245933
101339.567765
101395.116207
101398.689288
101401.208682
101405.015768
101407.779688
101411.670028
101415.266012
101418.565974
101422.374321
101419.669788
100535.620616
100540.640204
100555.58013
100572.442367
100586.192819
100606.714336
100652.446996
100763.411678
101005.709859
101271.031924
101402.406815
101404.380993
101407.776408
101409.488682
101413.018488
101415.123763
101418.602029
101421.684623
101425.244607
101428.649031
100534.712209
100543.852552
100562.688945
100581.294204
100592.787432
100610.693437
100654.979996
100756.140051
100950.449278
101195.164528
101386.097911
101412.329571
101413.530135
101416.958897
101417.834955
101421.291845
101422.775579
101426.061426
101428.467197
101431.655183
100536.71083
100551.280299
100576.803682
100598.28928
100608.479727
100623.657467
100665.206232
100763.145653
100947.401135
101163.41278
101357.591798
101419.346786
101421.972445
101422.505846