/*--------------------------------*- C++ -*----------------------------------*\
| =========                 |                                                 |
| \\      /  F ield         | OpenFOAM: The Open Source CFD Toolbox           |
|  \\    /   O peration     | Version:  2312                                  |
|   \\  /    A nd           | Website:  www.openfoam.com                      |
|    \\/     M anipulation  |                                                 |
\*---------------------------------------------------------------------------*/
FoamFile
{
    version     2.0;
    format      ascii;
    arch        "LSB;label=32;scalar=64";
    class       surfaceScalarField;
    location    "0.06/water";
    object      phi.gas;
}
// * * * * * * * * * * * * * * * * * * * * * * * * * * * * * * * * * * * * * //

dimensions      [0 3 -1 0 0 0 0];

oriented        oriented;

internalField   nonuniform List<scalar> 
2914
(
2.10955939191e-07
7.52650422121e-07
2.71669181974e-07
7.38426447722e-07
2.39993258045e-07
7.69124319281e-07
2.34635613454e-07
8.23712946004e-07
2.41814705037e-07
8.99065181742e-07
2.51291383786e-07
9.9178895368e-07
2.47537401293e-07
1.05301757915e-06
2.37734477617e-07
1.02130457264e-06
2.38436309691e-07
9.35665513332e-07
2.4485055137e-07
8.69737952083e-07
2.54653509169e-07
8.49844836845e-07
2.66315421965e-07
8.58992384975e-07
2.69786020211e-07
8.77949547217e-07
2.53499888285e-07
9.03391901384e-07
2.21524739834e-07
9.35206735234e-07
1.88718058027e-07
9.71678485048e-07
1.6071158897e-07
1.01080831744e-06
1.36619108214e-07
1.05160384701e-06
1.14287669172e-07
1.09393264923e-06
1.13797825264e-06
9.03173627578e-08
2.22480671294e-07
7.70612524289e-07
2.86771739407e-07
7.67612242259e-07
2.44479164693e-07
8.02894948783e-07
2.27977173731e-07
8.62395573366e-07
2.28839398226e-07
9.44117572544e-07
2.33799248212e-07
1.04568357798e-06
2.24635299904e-07
1.09903273679e-06
2.09376234824e-07
1.03868520515e-06
2.03705793738e-07
9.36613869867e-07
2.02957498096e-07
8.72431101455e-07
2.07911939269e-07
8.63583155764e-07
2.1559959831e-07
8.76848242026e-07
2.11653600132e-07
8.96713542194e-07
1.85968316057e-07
9.21891104637e-07
1.5045961631e-07
9.52869446848e-07
1.19116651581e-07
9.88179402461e-07
9.44289243427e-08
1.02589958823e-06
7.41978333088e-08
1.06519189641e-06
5.6001864536e-08
1.10602277651e-06
1.14861219447e-06
3.64339231978e-08
2.33615907959e-07
7.99415588347e-07
2.93622277165e-07
8.03288575536e-07
2.42837117359e-07
8.42187894887e-07
2.18296954669e-07
9.06898601934e-07
2.12343090831e-07
9.99022460106e-07
2.07874233636e-07
1.11734966587e-06
1.85879784283e-07
1.16239658398e-06
1.6398344262e-07
1.06207941556e-06
1.49386708426e-07
9.41236081183e-07
1.38756818169e-07
8.79599994574e-07
1.36878398921e-07
8.79417641479e-07
1.37784429549e-07
8.94286222929e-07
1.247436749e-07
9.13395911959e-07
9.30265907786e-08
9.37176420881e-07
5.87549322671e-08
9.66505310161e-07
3.23197612625e-08
9.99948288712e-07
1.34763256361e-08
1.035741602e-06
-7.57381344078e-10
1.0731931235e-06
-1.28608023009e-08
1.11232467362e-06
1.15337199929e-06
-2.61181177008e-08
2.40018608275e-07
8.43836715681e-07
2.83829081389e-07
8.44822661731e-07
2.31207979583e-07
8.85241889549e-07
2.04978229121e-07
9.56159073157e-07
1.92000959955e-07
1.06818738119e-06
1.67786178499e-07
1.21811840795e-06
1.20812952322e-07
1.24852839e-06
8.91718482144e-08
1.09328393801e-06
6.25180227595e-08
9.50451183242e-07
4.06123609859e-08
8.89036335345e-07
3.00675719987e-08
8.92003169429e-07
2.19705638677e-08
9.05889773498e-07
1.88178324036e-09
9.22941628266e-07
-2.85819074775e-08
9.44648340122e-07
-5.51594480557e-08
9.71870565661e-07
-7.23442986581e-08
1.00316850848e-06
-8.20522939266e-08
1.03698388001e-06
-8.74550583309e-08
1.07270614162e-06
-9.0975827661e-08
1.11035458514e-06
1.15015450583e-06
-9.5736601275e-08
2.42390874572e-07
9.03495696849e-07
2.61675652609e-07
8.86745495989e-07
2.14807142728e-07
9.24921113549e-07
1.98513821279e-07
1.00270983555e-06
1.79259759704e-07
1.15593369372e-06
1.00297831982e-07
1.36735536707e-06
6.02633128747e-09
1.36490763502e-06
-3.7674375303e-08
1.13519201722e-06
-7.45989944983e-08
9.59754787994e-07
-1.03216760861e-07
8.9041949493e-07
-1.2136412134e-07
8.91273468426e-07
-1.36866200623e-07
9.03005365666e-07
-1.56577413273e-07
9.18023242372e-07
-1.76610641978e-07
9.38042604713e-07
-1.88850166974e-07
9.63599574958e-07
-1.91867597465e-07
9.93306310049e-07
-1.88445464864e-07
1.02583280798e-06
-1.81729716777e-07
1.06060696743e-06
-1.74049640366e-07
1.09760440763e-06
1.13699528773e-06
-1.68286960742e-07
2.91570946774e-07
9.29655485225e-07
2.94113365777e-07
8.95885852375e-07
2.58829798674e-07
9.29928012999e-07
2.73496105183e-07
1.01685061824e-06
2.26112079287e-07
1.25240677125e-06
-6.25705244655e-09
1.60014379365e-06
-1.66035951172e-07
1.51978386448e-06
-2.27546547208e-07
1.18515480086e-06
-2.66532430641e-07
9.55639615524e-07
-2.90748843531e-07
8.67706579354e-07
-3.09421438653e-07
8.64442256861e-07
-3.25533984019e-07
8.75229670897e-07
-3.36299157133e-07
8.90103217168e-07
-3.3801527432e-07
9.1042368198e-07
-3.29935514633e-07
9.36252108977e-07
-3.14400567163e-07
9.66247613083e-07
-2.94698085928e-07
9.9929481899e-07
-2.73695332369e-07
1.03482012728e-06
-2.53435615377e-07
1.07272471533e-06
1.11310267732e-06
-2.36397320391e-07
3.52050987158e-07
8.70483442878e-07
3.91443024716e-07
8.36024308655e-07
4.23467763756e-07
8.63220827847e-07
4.9907551253e-07
9.58205220966e-07
3.96329872709e-07
1.34329609997e-06
-1.16996405037e-07
2.02103646659e-06
-3.69692338165e-07
1.74114312043e-06
-4.53643486781e-07
1.22726599696e-06
-4.78375610204e-07
9.15325815985e-07
-4.84392492254e-07
8.05817624806e-07
-4.91159623247e-07
8.00709457665e-07
-4.99058314087e-07
8.15023832027e-07
-4.97373205037e-07
8.34233714204e-07
-4.79746054408e-07
8.58822501108e-07
-4.50877787967e-07
8.88456535302e-07
-4.17045561601e-07
9.2185624712e-07
-3.82030797788e-07
9.58076000468e-07
-3.48184287024e-07
9.96562493878e-07
-3.1703801651e-07
1.03719942843e-06
1.08006234199e-06
-2.90546697476e-07
4.21410538978e-07
7.22304055597e-07
5.46522470172e-07
7.02330725732e-07
6.64629735884e-07
7.20554140831e-07
8.22700013299e-07
7.97089693671e-07
7.53469460305e-07
1.33549271294e-06
-3.29454587352e-07
2.95400343601e-06
-6.13017409922e-07
1.98351187417e-06
-6.33867901375e-07
1.18122474911e-06
-6.11768741348e-07
8.07401364745e-07
-5.94994099279e-07
7.04633779842e-07
-5.85320650782e-07
7.08778302357e-07
-5.8287147754e-07
7.33157116341e-07
-5.7633954617e-07
7.61368128948e-07
-5.52485646456e-07
7.9350425206e-07
-5.14589533334e-07
8.29522689218e-07
-4.7206903538e-07
8.684554419e-07
-4.29804053532e-07
9.09457737284e-07
-3.89927738182e-07
9.52079990039e-07
-3.53608825475e-07
9.96310700534e-07
1.04230249423e-06
-3.22469915076e-07
4.00682667217e-07
5.93370298005e-07
5.2870925667e-07
5.86510673001e-07
6.47787372086e-07
5.99965211272e-07
7.79590990037e-07
6.56316244737e-07
6.86859335286e-07
1.31608701515e-06
1.0985808455e-07
3.39314430195e-06
-5.12517940974e-07
2.59393159533e-06
-5.28807840279e-07
1.14383279333e-06
-5.1596151957e-07
7.15215539127e-07
-5.20573270045e-07
6.28141780735e-07
-5.25042749636e-07
6.40594362244e-07
-5.3221631816e-07
6.70541162751e-07
-5.38477194177e-07
7.03495363228e-07
-5.29592741814e-07
7.39376162935e-07
-5.02710605147e-07
7.78768052255e-07
-4.67388765093e-07
8.21005336512e-07
-4.30129776941e-07
8.6506071889e-07
-3.93762290569e-07
9.10457272092e-07
-3.59762917518e-07
9.57207656431e-07
1.00548209589e-06
-3.29919426202e-07
3.3951158824e-07
5.29712661216e-07
4.22618062741e-07
5.29536516114e-07
4.99351451962e-07
5.43040211209e-07
5.65145625033e-07
5.89213486276e-07
4.34915452433e-07
1.34898624151e-06
1.67159425142e-07
3.59861823997e-06
-2.57107532023e-07
3.04467519422e-06
-3.27994698243e-07
1.18315880975e-06
-3.48986978498e-07
6.72864231124e-07
-3.8041277376e-07
5.93598195485e-07
-4.0527769204e-07
6.09155752814e-07
-4.26387697797e-07
6.38599637673e-07
-4.46603972628e-07
6.70888479662e-07
-4.55281905676e-07
7.05937513127e-07
-4.4554388239e-07
7.44776587314e-07
-4.24245225458e-07
7.86941834755e-07
-3.9809951023e-07
8.3122635692e-07
-3.70470899956e-07
8.77066050077e-07
-3.43238911371e-07
9.24419819522e-07
9.73411589541e-07
-3.18476398743e-07
3.22587326409e-07
5.04206211183e-07
3.75633932089e-07
5.06749732551e-07
4.27060533179e-07
5.21572495686e-07
4.65643734729e-07
5.6199024745e-07
2.53799817506e-07
1.46587932433e-06
-1.65213363571e-08
3.83345983943e-06
-1.57465503847e-07
3.21802073825e-06
-2.21691729655e-07
1.22391738481e-06
-2.48535607099e-07
6.4417712758e-07
-2.8753534296e-07
5.78852881663e-07
-3.18195653587e-07
5.96570073082e-07
-3.4182791267e-07
6.24380203071e-07
-3.65423884315e-07
6.54580322688e-07
-3.81968905983e-07
6.87255631902e-07
-3.83047466245e-07
7.23919218086e-07
-3.72571742426e-07
7.64323755472e-07
-3.56055094206e-07
8.07190912303e-07
-3.36680904902e-07
8.51939552385e-07
-3.16369275873e-07
8.98500665456e-07
9.4696376428e-07
-2.97250715091e-07
3.24073799182e-07
4.96802313255e-07
3.64478255573e-07
4.98690675262e-07
4.07023011852e-07
5.16078101705e-07
4.28786232074e-07
5.71567874584e-07
-1.53078800869e-07
1.89858088222e-06
-3.53130591288e-07
4.01625794343e-06
-1.52448589321e-07
3.04056374292e-06
-1.77942839699e-07
1.22916670506e-06
-2.05305911724e-07
6.15786586889e-07
-2.45707197466e-07
5.69971537733e-07
-2.73521006025e-07
5.89642846456e-07
-2.93532616862e-07
6.16457708723e-07
-3.136120886e-07
6.45060302293e-07
-3.29439613443e-07
6.75702055748e-07
-3.33781472988e-07
7.10232068853e-07
-3.28645174264e-07
7.4856454472e-07
-3.17788173097e-07
7.89542848863e-07
-3.03810073425e-07
8.32646908447e-07
-2.88443671759e-07
8.7781249214e-07
9.25115715558e-07
-2.73671293975e-07
3.46904945746e-07
4.85194459167e-07
3.87898136839e-07
4.87727505069e-07
4.37947480842e-07
5.20962415941e-07
3.88729521124e-07
6.98177738989e-07
-7.04565778389e-07
2.75601325745e-06
-4.22262425732e-07
3.74345198894e-06
-1.78589155876e-07
2.81528073183e-06
-1.59746229627e-07
1.18879666663e-06
-1.91787121642e-07
5.87247356003e-07
-2.32486506118e-07
5.60170589026e-07
-2.56022635908e-07
5.81676263481e-07
-2.71243882318e-07
6.08356837445e-07
-2.86053216134e-07
6.36289096216e-07
-2.97388968793e-07
6.65864146228e-07
-3.00480458536e-07
6.98938766284e-07
-2.96478830662e-07
7.35591448135e-07
-2.87757459031e-07
7.74919078534e-07
-2.76328895784e-07
8.16496800275e-07
-2.63667562337e-07
8.60281454027e-07
9.06346508577e-07
-2.51530293868e-07
3.79671975136e-07
4.59757796399e-07
4.09776992101e-07
4.79036359591e-07
3.73622695783e-07
6.22345427314e-07
7.11947535325e-08
1.06359512887e-06
-3.4881284126e-07
2.99714533452e-06
-2.62488995954e-07
3.65681764354e-06
-1.3781137736e-07
2.70564418963e-06
-1.4022344541e-07
1.16616697196e-06
-1.88062342958e-07
5.68836456823e-07
-2.28582542459e-07
5.49223028502e-07
-2.49344420311e-07
5.71487424851e-07
-2.61070045279e-07
5.98133521e-07
-2.71235483435e-07
6.2591646117e-07
-2.77864453721e-07
6.55159091258e-07
-2.78221377588e-07
6.87436161566e-07
-2.73205423117e-07
7.23012277437e-07
-2.64526924387e-07
7.61224948946e-07
-2.53790053203e-07
8.01707991803e-07
-2.42246239835e-07
8.44425267468e-07
8.8946147328e-07
-2.31451563547e-07
3.12088206071e-07
4.75977898689e-07
1.77181112344e-07
5.48382384899e-07
-7.42689987474e-08
8.36002373272e-07
-7.27315194893e-07
1.63900577436e-06
-5.41292952075e-07
2.8200661507e-06
-1.30545928905e-07
3.2528581934e-06
-5.7467873992e-08
2.62618655846e-06
-1.23336446722e-07
1.21496005197e-06
-1.94763536813e-07
5.80581057284e-07
-2.30699468731e-07
5.33846138499e-07
-2.46348581142e-07
5.57011645214e-07
-2.53743423606e-07
5.84494423213e-07
-2.59376325546e-07
6.13009618767e-07
-2.61920513614e-07
6.42755049376e-07
-2.59578658348e-07
6.74975693371e-07
-2.53131391411e-07
7.10103978018e-07
-2.43915220152e-07
7.47737586434e-07
-2.33240382558e-07
7.87571582903e-07
-2.22184421202e-07
8.29592706023e-07
8.7389589731e-07
-2.12164493696e-07
6.19873755556e-08
6.46717251606e-07
-4.57353645028e-07
1.00674393809e-06
-9.35194734101e-07
1.26106867571e-06
-1.0891874602e-06
1.70093767562e-06
-6.73462555667e-07
2.418233518e-06
-1.59135008962e-07
2.74185913762e-06
7.14172391467e-08
2.3523303406e-06
-4.80682616569e-08
1.33158546835e-06
-1.72798568588e-07
6.76489949673e-07
-2.16088194324e-07
5.22718187293e-07
-2.29586502705e-07
5.42533282502e-07
-2.35436472472e-07
5.70761631889e-07
-2.39263174236e-07
6.00141474777e-07
-2.40272126599e-07
6.30574831518e-07
-2.37075890179e-07
6.62945549569e-07
-2.30421554914e-07
6.97801462037e-07
-2.21451906321e-07
7.35043091565e-07
-2.11328824811e-07
7.74431023539e-07
-2.01052122204e-07
8.15954877848e-07
8.59710082731e-07
-1.9196432618e-07
-6.54648970822e-08
9.11621103884e-07
-2.66157820886e-07
1.21016066393e-06
-4.17367429729e-07
1.40508606808e-06
-4.37899809002e-07
1.72490285317e-06
-2.01489592458e-07
2.1893584975e-06
1.22247652497e-07
2.42556104102e-06
1.97824549538e-07
2.24747519991e-06
8.35543371084e-08
1.44744885163e-06
-1.07316915909e-07
8.36416926533e-07
-1.7617321863e-07
5.37236145957e-07
-1.94950843138e-07
5.32375407984e-07
-2.0251527076e-07
5.59762740262e-07
-2.08080986501e-07
5.894492186e-07
-2.10600727318e-07
6.20215537441e-07
-2.08567228047e-07
6.52588376797e-07
-2.03005733773e-07
6.87100555025e-07
-1.95265000308e-07
7.23918254213e-07
-1.86459813674e-07
7.62873331186e-07
-1.77547604723e-07
8.03944152876e-07
8.47217361147e-07
-1.69833399248e-07
1.18613667979e-07
9.90156192902e-07
1.62385558016e-08
1.32254279491e-06
-5.71457960964e-08
1.48752594727e-06
-2.76404312128e-08
1.70230987702e-06
1.52867315521e-07
2.0153524104e-06
3.82594886511e-07
2.20052778054e-06
4.89146596619e-07
2.14820148029e-06
2.19582522162e-07
1.71143562237e-06
-2.07074395551e-08
1.00335861308e-06
-1.22176946043e-07
6.0064960266e-07
-1.51548192066e-07
5.29549880338e-07
-1.62019375606e-07
5.51697556288e-07
-1.69975190317e-07
5.81020036157e-07
-1.75491040919e-07
6.11838794554e-07
-1.75840452016e-07
6.44112942409e-07
-1.7200877088e-07
6.7827531494e-07
-1.65947655364e-07
7.14665722266e-07
-1.58875412199e-07
7.53195518261e-07
-1.51713530321e-07
7.9383096753e-07
8.36652798072e-07
-1.45718921534e-07
1.72148467673e-07
1.00594488263e-06
1.35338159334e-07
1.35422394092e-06
1.19181932828e-07
1.50695427591e-06
1.52987417237e-07
1.67233985075e-06
2.80236791762e-07
1.89126773952e-06
4.33510927191e-07
2.04986472888e-06
5.09101274624e-07
2.0787273168e-06
2.99814870159e-07
1.89546416804e-06
6.93438719127e-08
1.16419193516e-06
-6.09436567529e-08
7.15504273214e-07
-1.05385265884e-07
5.44514098094e-07
-1.19761793293e-07
5.47196410739e-07
-1.29077828948e-07
5.74706830246e-07
-1.37256279939e-07
6.05341835685e-07
-1.40622818293e-07
6.3747734802e-07
-1.38912326058e-07
6.71337229641e-07
-1.34690886316e-07
7.07340768877e-07
-1.29479654479e-07
7.45480902559e-07
-1.242210004e-07
7.85714011485e-07
8.28117867969e-07
-1.20119731622e-07
2.03398832868e-07
9.87262408407e-07
1.94419798816e-07
1.34713993206e-06
2.0298453573e-07
1.49727469967e-06
2.43667422367e-07
1.63237832466e-06
3.38581277701e-07
1.79708245368e-06
4.53865369995e-07
1.93521901574e-06
5.28664319964e-07
2.00366806471e-06
4.74318310649e-07
1.946168611e-06
1.71319323975e-07
1.4497378078e-06
9.86001945159e-09
8.66707232463e-07
-5.52655812603e-08
5.91201130309e-07
-7.72999052957e-08
5.50314570126e-07
-8.7928514746e-08
5.70955560125e-07
-9.76894250109e-08
6.00777349751e-07
-1.04015380888e-07
6.32711075022e-07
-1.04769412708e-07
6.66302152994e-07
-1.02511256868e-07
7.01954021603e-07
-9.91877585167e-08
7.39738221781e-07
-9.58533957317e-08
7.79604087542e-07
8.21624879334e-07
-9.36931376598e-08
2.40352477098e-07
9.37329381728e-07
2.45363564043e-07
1.31637965107e-06
2.65077157531e-07
1.47033755837e-06
3.05546003433e-07
1.59050246336e-06
3.78732689179e-07
1.72299738392e-06
4.66158558544e-07
1.84626843733e-06
5.34820398783e-07
1.93334967596e-06
5.44977545506e-07
1.9442377829e-06
2.68376978443e-07
1.72826776724e-06
8.64278423467e-08
1.02699533995e-06
4.5057801743e-09
6.66927490263e-07
-3.09396252768e-08
5.68645056192e-07
-4.60794593739e-08
5.72220140695e-07
-5.75512781681e-08
5.98861633856e-07
-6.66605551081e-08
6.3009798705e-07
-7.02653528941e-08
6.6327860635e-07
-7.01723963567e-08
6.98524622989e-07
-6.87660853541e-08
7.35939507663e-07
-6.73157174941e-08
7.75454171449e-07
8.17122666137e-07
-6.70583456245e-08
2.83987285978e-07
8.88694414561e-07
2.92159790946e-07
1.26974863747e-06
3.10671487841e-07
1.44058488136e-06
3.39170969865e-07
1.55812071706e-06
3.83424827632e-07
1.67554362078e-06
4.3544250596e-07
1.79131119798e-06
4.73768620192e-07
1.8912772401e-06
4.70290451148e-07
1.9488588988e-06
3.36563719846e-07
1.85412353823e-06
1.61473166491e-07
1.16973228406e-06
6.37768632303e-08
7.5954504705e-07
1.76918632534e-08
6.02106444914e-07
-4.20833754069e-09
5.79976778687e-07
-1.82215944183e-08
5.9978689118e-07
-2.97161205797e-08
6.29461357233e-07
-3.62302265151e-08
6.62059001086e-07
-3.837815709e-08
6.96864045614e-07
-3.88415356266e-08
7.33917072032e-07
-3.91635651618e-08
7.73117627868e-07
8.14486127106e-07
-4.0692270562e-08
4.45430497753e-07
7.81999636203e-07
3.78698561013e-07
1.22188493913e-06
3.83297264366e-07
1.41372626898e-06
3.94916084722e-07
1.53156079396e-06
4.21281201306e-07
1.64131374723e-06
4.52678057209e-07
1.75217340383e-06
4.79427299824e-07
1.85850036498e-06
4.79008928939e-07
1.94399334091e-06
3.82003218422e-07
1.9448408709e-06
2.37588821777e-07
1.2861351697e-06
1.17520733077e-07
8.71567473617e-07
6.45591894021e-08
6.47538963025e-07
3.63141955844e-08
5.93738632432e-07
1.96697061231e-08
6.03172151522e-07
6.22427601786e-09
6.30274296991e-07
-3.01236571892e-09
6.62193946515e-07
-7.43057715096e-09
6.96631248238e-07
-9.69079547683e-09
7.334136061e-07
-1.16574495396e-08
7.72396797236e-07
8.13562194156e-07
-1.48280629387e-08
4.598778806e-07
6.88340108889e-07
3.85694474404e-07
1.1448826362e-06
4.24622744687e-07
1.3486091185e-06
4.51865796577e-07
1.48548999939e-06
4.86466957398e-07
1.59492553497e-06
5.30620356162e-07
1.69886472065e-06
5.80836359778e-07
1.79920419973e-06
6.33169797595e-07
1.88453024591e-06
6.79889813051e-07
1.90705698736e-06
3.17443986205e-07
1.64507978699e-06
1.75931464945e-07
1.00201519591e-06
1.09781765634e-07
7.0441330706e-07
7.67857739348e-08
6.1339536321e-07
5.70875606631e-08
6.09401333058e-07
4.18491731615e-08
6.32643535759e-07
3.00089268508e-08
6.63606032736e-07
2.30961031967e-08
6.97700765649e-07
1.89315710184e-08
7.34301198072e-07
1.53173998052e-08
7.73175163078e-07
8.14251227407e-07
1.05694628663e-08
3.88629827154e-07
6.17139158287e-07
5.00780453588e-07
9.15290462373e-07
5.05278559464e-07
1.30425942169e-06
5.01687509541e-07
1.46792374894e-06
5.06414976816e-07
1.57852438723e-06
5.15535169836e-07
1.67887310908e-06
5.28507389645e-07
1.77811730856e-06
5.31929740283e-07
1.87214898486e-06
5.06560346806e-07
1.93232235772e-06
3.62929137722e-07
1.78270183878e-06
2.20630500852e-07
1.12461912854e-06
1.50279281225e-07
7.64740379423e-07
1.15567242728e-07
6.36737465771e-07
9.40129025898e-08
6.18352132871e-07
7.74820002334e-08
6.36780606097e-07
6.34365379307e-08
6.66414053035e-07
5.37768351769e-08
7.00124450681e-07
4.74585134092e-08
7.36593011097e-07
4.20554258436e-08
7.7544594063e-07
8.16534190169e-07
3.56657905039e-08
3.64801638687e-07
5.58818200595e-07
4.15819736927e-07
7.64743943345e-07
4.2808692159e-07
1.24824402295e-06
4.34046430988e-07
1.44267393586e-06
4.37816292493e-07
1.56128297495e-06
4.4475231972e-07
1.6627859753e-06
4.50318679071e-07
1.76284970061e-06
4.54327842037e-07
1.86040970799e-06
4.46716806932e-07
1.93506228018e-06
3.56211598422e-07
1.86890708398e-06
2.45517551689e-07
1.21510690452e-06
1.80421591447e-07
8.18094372669e-07
1.49297969548e-07
6.60221152118e-07
1.28603647016e-07
6.29097606128e-07
1.12202914953e-07
6.42620189746e-07
9.70913377265e-08
6.70700788155e-07
8.48881659846e-08
7.04004278017e-07
7.61829562352e-08
7.40380429569e-07
6.87782730166e-08
7.79285796092e-07
8.20468305916e-07
6.05906981029e-08
3.39994660469e-07
5.14618871591e-07
3.56980803059e-07
6.60645503067e-07
3.58010214669e-07
1.20295782807e-06
3.63482174768e-07
1.41870511099e-06
3.6953973094e-07
1.54332690672e-06
3.73497749159e-07
1.64831480777e-06
3.77966120065e-07
1.75035349696e-06
3.77829915285e-07
1.85154802414e-06
3.68827359938e-07
1.93805967837e-06
3.18410689849e-07
1.91503771158e-06
2.47210154254e-07
1.27548450744e-06
1.99886747157e-07
8.56603843132e-07
1.75364263209e-07
6.81691620008e-07
1.58704658665e-07
6.40466792361e-07
1.44345936724e-07
6.49898454641e-07
1.29836649786e-07
6.76484878169e-07
1.16062153551e-07
7.09429347933e-07
1.04993179827e-07
7.45781779994e-07
9.54168012374e-08
7.84808530033e-07
8.26148491162e-07
8.52498649969e-08
3.02332712777e-07
4.86521603857e-07
3.10369539577e-07
5.81566391945e-07
3.19678687983e-07
1.16126695931e-06
3.40267986616e-07
1.38305021133e-06
3.42744205326e-07
1.52911588478e-06
3.39303987916e-07
1.64308699998e-06
3.31532467633e-07
1.74912966446e-06
3.2162750688e-07
1.85379436796e-06
3.04049772343e-07
1.94800792903e-06
2.65233174163e-07
1.95090486442e-06
2.34189907256e-07
1.30336513414e-06
2.10447237274e-07
8.77469869144e-07
1.95184848411e-07
6.98312396653e-07
1.83924774797e-07
6.51936063184e-07
1.72854536228e-07
6.58635757099e-07
1.60306916512e-07
6.83977687512e-07
1.46328936652e-07
7.1659330834e-07
1.3329540969e-07
7.52977678279e-07
1.21505807825e-07
7.92159193266e-07
8.33679962742e-07
1.09223196629e-07
2.69098341707e-07
4.69125377985e-07
2.76687856119e-07
5.27675023526e-07
4.07765926496e-07
1.01189267421e-06
4.1663077957e-07
1.35468990452e-06
3.94535852665e-07
1.53975897564e-06
3.63510684465e-07
1.66458385151e-06
3.31519699422e-07
1.77338212287e-06
2.97095993802e-07
1.87968468969e-06
2.59755281375e-07
1.97822849883e-06
2.14179064426e-07
1.99321172562e-06
2.1904351622e-07
1.29688022333e-06
2.16082896143e-07
8.80587689673e-07
2.10341936402e-07
7.08877561286e-07
2.04329690267e-07
6.62792220872e-07
1.96853103675e-07
6.68540133673e-07
1.8696847101e-07
6.93153749778e-07
1.74040541298e-07
7.25545230047e-07
1.59855852007e-07
7.62033186776e-07
1.46080012288e-07
8.01393460492e-07
8.43092087874e-07
1.31705688112e-07
2.53550174544e-07
4.64164431132e-07
2.59568512847e-07
4.96793525283e-07
4.94229220051e-07
7.59587631348e-07
4.80503061556e-07
1.346149774e-06
4.33934351392e-07
1.57447389288e-06
3.82628361841e-07
1.70759987252e-06
3.2785819247e-07
1.8197009105e-06
2.73018967484e-07
1.92715443029e-06
2.14772150834e-07
2.02813410104e-06
1.58617258611e-07
2.0457239875e-06
2.05140096959e-07
1.24743999987e-06
2.19904876266e-07
8.66368232807e-07
2.22277232713e-07
7.13168804336e-07
2.20800317097e-07
6.72381055232e-07
2.16450157772e-07
6.79076646753e-07
2.09136830532e-07
7.03696488352e-07
1.97810726699e-07
7.36126223089e-07
1.83261127216e-07
7.72832573765e-07
1.679249253e-07
8.12409502593e-07
8.54277190964e-07
1.51663478366e-07
2.57788209447e-07
4.56690701012e-07
2.69125141864e-07
4.73456250337e-07
3.57386988734e-07
6.52683771587e-07
3.77232812637e-07
1.30959974296e-06
3.72228457968e-07
1.56770194619e-06
3.30683470584e-07
1.74051499629e-06
2.75720552538e-07
1.86744750577e-06
2.14267647263e-07
1.98007245516e-06
1.53421219769e-07
2.08118215781e-06
1.0374440937e-07
2.09350376551e-06
1.90948440202e-07
1.15953073824e-06
2.22241443111e-07
8.3872703948e-07
2.31906232338e-07
7.12703254633e-07
2.34426367034e-07
6.81153216009e-07
2.32630668531e-07
6.90270601414e-07
2.27262631305e-07
7.15499831723e-07
2.17229479561e-07
7.4821729763e-07
2.02550358055e-07
7.85232166936e-07
1.85993562146e-07
8.25035090849e-07
8.67039951038e-07
1.68114171112e-07
2.50220410335e-07
4.55519234196e-07
2.62057089127e-07
4.61246615657e-07
3.18662998137e-07
5.75061103424e-07
5.40533001776e-07
1.07103239752e-06
4.77297173696e-07
1.61318730738e-06
3.75213718392e-07
1.83489976388e-06
2.65108743715e-07
1.96958471264e-06
1.60184691275e-07
2.07752181188e-06
9.42967203135e-08
2.13776368786e-06
7.4098672258e-08
2.11966461414e-06
1.79896383531e-07
1.0594097616e-06
2.22807952531e-07
8.05950950837e-07
2.3880062164e-07
7.103043991e-07
2.44815662539e-07
6.90110804445e-07
2.45006504288e-07
7.02459959961e-07
2.41016604573e-07
7.28599272796e-07
2.31830514517e-07
7.617432392e-07
2.16965087368e-07
7.99128402958e-07
1.99398294334e-07
8.39124907889e-07
8.81180413641e-07
1.8016299237e-07
2.45613762559e-07
4.54224448171e-07
2.67082657088e-07
4.53953972781e-07
2.95812018292e-07
5.26488158282e-07
4.5758562603e-07
8.98027634417e-07
3.93589812421e-07
1.66157564615e-06
2.62881356064e-07
1.95797619328e-06
1.0878735284e-07
2.11743474466e-06
-5.92275206527e-08
2.23718220313e-06
-1.81927652079e-07
2.2500306563e-06
6.74019347714e-08
1.88509250855e-06
1.74272733321e-07
9.64957892245e-07
2.21602887265e-07
7.75031563063e-07
2.4164551653e-07
7.085404345e-07
2.50242044604e-07
6.99564584085e-07
2.51941101501e-07
7.15488714662e-07
2.49082778069e-07
7.42778241777e-07
2.4050124721e-07
7.76516496008e-07
2.25456605976e-07
8.14329103695e-07
2.07132089454e-07
8.54425015978e-07
8.96398413251e-07
1.8687853827e-07
2.43086231685e-07
4.524063441e-07
2.8023250465e-07
4.5012624139e-07
2.93040102529e-07
4.97361442493e-07
4.13462993766e-07
7.72397631233e-07
3.30699014362e-07
1.73522645829e-06
2.05372279193e-07
2.07800297408e-06
4.41142961683e-09
2.31215736591e-06
-2.28182476036e-07
2.46578956487e-06
-4.84752258208e-07
2.49815154781e-06
7.96242521755e-08
1.3267758171e-06
1.74375833672e-07
8.87685377324e-07
2.19508599296e-07
7.4987051627e-07
2.41086021526e-07
7.08599321269e-07
2.50561404964e-07
7.09510855112e-07
2.53061270875e-07
7.29046684191e-07
2.50957692601e-07
7.57742392026e-07
2.42460294334e-07
7.9230491224e-07
2.27027768368e-07
8.30468181551e-07
2.08216805154e-07
8.70464382919e-07
9.12202705735e-07
1.87400221697e-07
2.34357070928e-07
4.61585296351e-07
2.81923383865e-07
4.5481025262e-07
2.82382598634e-07
4.8595506807e-07
3.76824748869e-07
6.7752953074e-07
7.03340344297e-07
1.40523510741e-06
5.25350793426e-07
2.24072721828e-06
2.91461077779e-07
2.54149412778e-06
1.07584007186e-07
2.66168000773e-06
-4.22666200807e-08
2.68123247339e-06
1.08285991046e-07
1.18862963679e-06
1.82841901582e-07
8.34558742096e-07
2.2051959008e-07
7.34624419026e-07
2.39671591016e-07
7.12166600568e-07
2.47530639979e-07
7.20934180189e-07
2.49505801267e-07
7.43583727214e-07
2.46996347553e-07
7.73712386157e-07
2.37234993417e-07
8.09033376781e-07
2.20953958235e-07
8.47074471256e-07
2.01942518395e-07
8.86645355763e-07
9.27968611801e-07
1.81114680008e-07
2.41676406767e-07
4.73512244871e-07
2.98688821951e-07
4.65814150831e-07
2.87395098677e-07
4.85780236979e-07
3.59146875387e-07
6.08450419604e-07
5.60482561504e-07
1.20422067842e-06
3.97635494486e-07
2.37009320911e-06
1.90609062224e-07
2.74830858558e-06
2.81350983419e-08
2.85082510997e-06
7.47171435317e-08
2.68792121849e-06
1.36178079075e-07
1.14669007295e-06
1.90140586046e-07
8.0824126875e-07
2.19693496749e-07
7.31940410821e-07
2.33816499424e-07
7.21713079712e-07
2.39207262929e-07
7.35607184016e-07
2.40116493933e-07
7.60152278943e-07
2.35628053244e-07
7.91074970122e-07
2.23296497198e-07
8.26178300072e-07
2.06246227875e-07
8.63296766099e-07
1.87645623931e-07
9.02099930786e-07
9.42851910226e-07
1.6759016111e-07
2.38144676532e-07
3.08111514617e-07
3.23340337351e-07
3.48261201829e-07
4.19491205093e-07
2.70006228224e-07
1.72987382583e-07
1.20802381234e-07
1.70987235821e-07
1.6880225528e-07
1.91521224885e-07
2.06526270477e-07
2.13627506709e-07
2.16570855971e-07
2.15718961877e-07
2.08959229423e-07
1.96419657429e-07
1.81268863667e-07
1.64979528005e-07
1.47047168347e-07
4.45244662246e-08
9.0150453535e-07
3.4194740716e-08
8.56226376743e-07
2.53012387972e-08
8.13424128831e-07
1.72848812383e-08
7.73171944254e-07
1.1214028317e-08
7.37181824416e-07
5.78695887653e-08
7.14791417539e-07
1.08766129753e-07
6.79367642595e-07
9.27950601242e-08
6.4628141327e-07
7.69783707956e-08
6.15810059971e-07
6.23890037738e-08
5.86176690106e-07
5.08783188103e-08
5.51892181655e-07
4.10599167279e-08
5.04698256913e-07
3.08853000796e-08
4.55820974304e-07
2.09209813886e-08
4.09457301152e-07
1.03248951743e-08
3.65314828726e-07
3.23173083181e-07
6.81123551971e-08
1.12836276514e-06
5.1313734746e-08
1.0670188071e-06
3.74865704409e-08
1.01021188633e-06
2.61617822729e-08
9.57507455696e-07
1.68759432662e-08
9.0834072391e-07
9.1202267958e-09
8.62190616971e-07
2.37161974244e-09
8.18696093193e-07
-3.70240767695e-09
7.78007829487e-07
-7.64913235508e-09
7.42292286965e-07
4.38438034792e-08
7.21914410864e-07
1.01543380302e-07
6.88682040491e-07
8.63938616731e-08
6.55030629911e-07
7.13715610498e-08
6.23977617431e-07
5.75556276998e-08
5.93752826026e-07
4.69494273102e-08
5.5869784703e-07
3.7891810372e-08
5.10861987949e-07
2.87691738583e-08
4.61579126035e-07
1.98130674931e-08
4.14881246479e-07
1.10550784237e-08
3.70516059058e-07
3.28252203826e-07
1.88490622589e-08
1.13721752801e-06
6.85314031967e-09
1.07407994423e-06
-2.22055123845e-09
1.01590080772e-06
-9.2869452586e-09
9.62135472285e-07
-1.49054099389e-08
9.12139903463e-07
-1.95519351764e-08
8.65342586308e-07
-2.36906753482e-08
8.21366776993e-07
-2.74154963649e-08
7.80444807354e-07
-2.89684319141e-08
7.45189323572e-07
2.49288254471e-08
7.27116488081e-07
8.9653951008e-08
6.96889429859e-07
7.61551392005e-08
6.62736939826e-07
6.25735754193e-08
6.31115833306e-07
5.00900700897e-08
6.00325046667e-07
4.07552679807e-08
5.64552478973e-07
3.29437690045e-08
5.16125358195e-07
2.5339954996e-08
4.664696431e-07
1.78276849432e-08
4.19469172379e-07
1.15999806674e-08
3.74920159236e-07
3.32591369683e-07
-3.74012882414e-08
1.14046854427e-06
-4.33219861261e-08
1.07608412377e-06
-4.66748060189e-08
1.01703997179e-06
-4.87151097351e-08
9.62659335389e-07
-5.00318041616e-08
9.12223260709e-07
-5.10459244809e-08
8.65117570305e-07
-5.21383449107e-08
8.20952886059e-07
-5.31740368132e-08
7.80044011823e-07
-5.21803297194e-08
7.45420204043e-07
1.49435891466e-09
7.29884601285e-07
7.2577208223e-08
7.03489592473e-07
6.16269664632e-08
6.68946984117e-07
5.02123428923e-08
6.36808274203e-07
3.95920060626e-08
6.05515024386e-07
3.18452346117e-08
5.69119053831e-07
2.58497323187e-08
5.2018514334e-07
2.03001565871e-08
4.70222412409e-07
1.47105425335e-08
4.22978427601e-07
1.15235422229e-08
3.78303332461e-07
3.35984821405e-07