/*--------------------------------*- C++ -*----------------------------------*\
| =========                 |                                                 |
| \\      /  F ield         | OpenFOAM: The Open Source CFD Toolbox           |
|  \\    /   O peration     | Version:  2312                                  |
|   \\  /    A nd           | Website:  www.openfoam.com                      |
|    \\/     M anipulation  |                                                 |
\*---------------------------------------------------------------------------*/
FoamFile
{
    version     2.0;
    format      ascii;
    arch        "LSB;label=32;scalar=64";
    class       volVectorField;
    location    "0.06/water";
    object      U.gas;
}
// * * * * * * * * * * * * * * * * * * * * * * * * * * * * * * * * * * * * * //

dimensions      [0 1 -1 0 0 0 0];

internalField   nonuniform List<vector> 
1496
(
(0.0395542386082 1.5344356071 0)
(0.0904922102411 1.42186746027 0)
(0.0959367075276 1.40804236109 0)
(0.0889929134284 1.43484995901 0)
(0.0893344347394 1.49086738976 0)
(0.0924573916775 1.56719718544 0)
(0.0935303972258 1.59354215493 0)
(0.0909884773183 1.48773754245 0)
(0.0892820226426 1.30817647334 0)
(0.0906162864717 1.1582826112 0)
(0.0936570113745 1.07144733031 0)
(0.0976816746121 1.02828021689 0)
(0.100519020433 1.00025633651 0)
(0.0981161078675 0.980562829267 0)
(0.0890671177946 0.967664901623 0)
(0.0769205246183 0.958688488582 0)
(0.0655180588284 0.95109701991 0)
(0.0557495057359 0.94369731401 0)
(0.0470450207717 0.936248101068 0)
(0.0383634434965 0.928833452946 0)
(0.0417151258781 1.56418602575 0)
(0.0954848270304 1.47368764224 0)
(0.0996095445436 1.46582784243 0)
(0.0885855634767 1.49818834258 0)
(0.0856531072633 1.56064842379 0)
(0.0867447462287 1.64393344579 0)
(0.0859564777932 1.65462917971 0)
(0.0813771627819 1.50927755 0)
(0.0774528803748 1.30716524079 0)
(0.076249367238 1.15906000429 0)
(0.0770380195253 1.0862687145 0)
(0.0794084133161 1.04866567197 0)
(0.0801099747279 1.02164239983 0)
(0.0745541093041 1.00131100956 0)
(0.0630802373347 0.986993025169 0)
(0.0505455502423 0.976281230958 0)
(0.0400397954958 0.96679611626 0)
(0.0316175170676 0.957504647334 0)
(0.024412443352 0.948269118536 0)
(0.0173317102044 0.93920825225 0)
(0.0438029827204 1.61220755721 0)
(0.0988571596613 1.53715647398 0)
(0.100586136423 1.53395590266 0)
(0.0864626384619 1.57210279029 0)
(0.0807450084908 1.64528363892 0)
(0.0787907482982 1.74524202838 0)
(0.0738288783228 1.73872651317 0)
(0.0655993550115 1.53915175408 0)
(0.0587569032918 1.31105443208 0)
(0.0540269112097 1.16562119247 0)
(0.0516816031786 1.1050171023 0)
(0.0514992803123 1.0699875812 0)
(0.0492240195595 1.04204825002 0)
(0.0408319247944 1.01984447052 0)
(0.0284590355568 1.00335437512 0)
(0.0170765050283 0.990363516667 0)
(0.00858676628919 0.978631589878 0)
(0.00238480205356 0.967270271927 0)
(-0.00255340943215 0.956196819505 0)
(-0.00730854749666 0.945531174622 0)
(0.0450034890628 1.68739894632 0)
(0.0982214418365 1.61270834512 0)
(0.0965694489564 1.61074022775 0)
(0.0817849141524 1.65541615994 0)
(0.0744335979703 1.75033526814 0)
(0.0674600884771 1.88437096376 0)
(0.0541123370425 1.85366800325 0)
(0.0393721501104 1.57915420586 0)
(0.0284418508147 1.32071519918 0)
(0.0193369469571 1.17666860628 0)
(0.0132524874379 1.12303465065 0)
(0.00975715047739 1.08753231235 0)
(0.00447231508388 1.05714729894 0)
(-0.00500627329572 1.03232860057 0)
(-0.0157015041664 1.01328722207 0)
(-0.0239069525148 0.997830171757 0)
(-0.0289493611169 0.983893144672 0)
(-0.0317826285562 0.970669241681 0)
(-0.0334557911318 0.958064002949 0)
(-0.0350085804342 0.946164673096 0)
(0.0454482889937 1.79427520932 0)
(0.0945124738701 1.69437253685 0)
(0.089340524148 1.68788473728 0)
(0.0774976807707 1.74054903937 0)
(0.070832546452 1.88319418777 0)
(0.0524170484542 2.08608790839 0)
(0.019935780618 2.00937100507 0)
(-0.0059340082544 1.63272107765 0)
(-0.021051256843 1.3336443646 0)
(-0.0333404541383 1.1838667884 0)
(-0.0421089154233 1.13055093611 0)
(-0.0484181853802 1.09279976924 0)
(-0.0550206776193 1.05981117186 0)
(-0.0624727603752 1.0328037704 0)
(-0.0685239016956 1.01176824714 0)
(-0.0713845808502 0.994521544562 0)
(-0.0713086992045 0.979189581852 0)
(-0.069407846575 0.964976059915 0)
(-0.066708629481 0.951718977274 0)
(-0.0641881127239 0.939438001659 0)
(0.0546695524927 1.88239953505 0)
(0.109815808548 1.74433884483 0)
(0.103676843283 1.72955226976 0)
(0.0998111069234 1.79447639001 0)
(0.0936765345413 2.03917530254 0)
(0.0412228175119 2.3943248534 0)
(-0.0323049381624 2.21792896485 0)
(-0.0737967184095 1.70003142661 0)
(-0.0926398083005 1.33726676112 0)
(-0.104490238855 1.16967616378 0)
(-0.112531927853 1.11307803547 0)
(-0.119054141691 1.07427721792 0)
(-0.124093713904 1.04090667482 0)
(-0.126433955834 1.01402885885 0)
(-0.125240772866 0.993148676253 0)
(-0.120813015276 0.976129814513 0)
(-0.114205997398 0.96129912357 0)
(-0.106573765877 0.947838820808 0)
(-0.098837052653 0.935498992517 0)
(-0.0918436754106 0.924219105269 0)
(0.0660095601086 1.84850039344 0)
(0.139405127261 1.69470719362 0)
(0.152795772877 1.67201989818 0)
(0.172976864347 1.75493190399 0)
(0.167888509774 2.19781765274 0)
(0.0523750252015 2.92174704225 0)
(-0.0912541393732 2.50720203992 0)
(-0.154375467216 1.76749059173 0)
(-0.174753580728 1.30624788199 0)
(-0.180519019256 1.11339078565 0)
(-0.182916021702 1.05566281173 0)
(-0.185665863297 1.0211253256 0)
(-0.186830909882 0.992670513745 0)
(-0.183209861192 0.970570413412 0)
(-0.174491970489 0.953867604475 0)
(-0.162735628085 0.940537766827 0)
(-0.149826817423 0.929135936022 0)
(-0.136915328436 0.918869147538 0)
(-0.124729181944 0.909462021174 0)
(-0.113922133901 0.900834116267 0)
(0.0790144760781 1.63557838322 0)
(0.181487439261 1.50530980289 0)
(0.227091038692 1.47678943407 0)
(0.278874328042 1.55966377531 0)
(0.295531776375 2.26816767292 0)
(0.0795027886985 4.01410785321 0)
(-0.176713499533 2.86374477063 0)
(-0.233790995927 1.76461118964 0)
(-0.233556870569 1.20275270359 0)
(-0.226268032674 1.00489892642 0)
(-0.221309015692 0.956975919443 0)
(-0.219036024115 0.935295665567 0)
(-0.217352067 0.918559982424 0)
(-0.21165472367 0.90643092818 0)
(-0.200076596261 0.898074732406 0)
(-0.18499848168 0.891823693287 0)
(-0.169101204213 0.886491558078 0)
(-0.153699710985 0.881442737279 0)
(-0.13941310572 0.876524512709 0)
(-0.126764763885 0.87175321273 0)
(0.0751280000657 1.35102048087 0)
(0.174260985642 1.26115594158 0)
(0.220593117781 1.23131698962 0)
(0.267633442764 1.29142093106 0)
(0.274959435861 2.2451293631 0)
(0.149384516145 5.12119220734 0)
(-0.0754987230419 3.51942121288 0)
(-0.195248583887 1.70348279835 0)
(-0.195894254874 1.06304214512 0)
(-0.194350272956 0.886691704126 0)
(-0.196053003592 0.85546711976 0)
(-0.198236075113 0.848009993653 0)
(-0.200755033463 0.843296207886 0)
(-0.200263112898 0.840905235414 0)
(-0.193556877458 0.840735008121 0)
(-0.181893631829 0.841585943 0)
(-0.168284726547 0.842338534106 0)
(-0.154479762581 0.84249417539 0)
(-0.141285976446 0.84204484724 0)
(-0.129315439383 0.841119662817 0)
(0.063658422811 1.15325504025 0)
(0.142899309595 1.09207350495 0)
(0.17286928405 1.06579429804 0)
(0.199593201986 1.10671294398 0)
(0.187511452072 2.25655452104 0)
(0.112889039574 5.64129926126 0)
(-0.0168652700444 4.33530910397 0)
(-0.109706668202 1.70489981233 0)
(-0.126934064421 0.969112646008 0)
(-0.136762453582 0.812820052796 0)
(-0.147316962374 0.792309018402 0)
(-0.155937260633 0.790885404929 0)
(-0.163685938246 0.791208661476 0)
(-0.169103602224 0.79286800531 0)
(-0.168904835305 0.796433929445 0)
(-0.163085457762 0.800980853604 0)
(-0.15418963798 0.805203216619 0)
(-0.144106951946 0.808562608609 0)
(-0.133820589657 0.811056991045 0)
(-0.124071620677 0.81282298806 0)
(0.0604851237167 1.06169552393 0)
(0.130916486001 1.01402590029 0)
(0.150505212275 0.992697086397 0)
(0.167382050275 1.02289976831 0)
(0.134895666078 2.38338574853 0)
(0.0444897152266 5.99656757899 0)
(-0.0326225325464 4.81514737679 0)
(-0.0710919812993 1.76357480059 0)
(-0.0881676256635 0.919515912119 0)
(-0.100513303161 0.780028291597 0)
(-0.113574561881 0.764398765855 0)
(-0.123754418704 0.762998389815 0)
(-0.132609711968 0.76304913097 0)
(-0.140136148216 0.764275802689 0)
(-0.143440569829 0.767761666495 0)
(-0.141678601661 0.772745559575 0)
(-0.136617531903 0.777733247017 0)
(-0.129887999865 0.78209288958 0)
(-0.122446908926 0.785751920801 0)
(-0.115053748334 0.788786807891 0)
(0.0607638373162 1.02790102607 0)
(0.129103510202 0.983842655479 0)
(0.14465648757 0.96755629353 0)
(0.156714233158 1.00722079543 0)
(0.051695143325 2.8487351599 0)
(-0.0949142609822 6.33353991415 0)
(-0.0947960963169 4.81198623914 0)
(-0.0619483929104 1.79728306665 0)
(-0.0718591408559 0.879666136899 0)
(-0.0845649579307 0.764309544912 0)
(-0.0973552881058 0.752028091512 0)
(-0.106322554238 0.749621884829 0)
(-0.113839632217 0.748180302476 0)
(-0.120572194073 0.747689280899 0)
(-0.124353953644 0.749703497496 0)
(-0.124204996298 0.753628342865 0)
(-0.12120625257 0.75794668185 0)
(-0.116549671165 0.762000476472 0)
(-0.111047577166 0.765662291376 0)
(-0.105396556022 0.768949462969 0)
(0.0650446773437 1.00837851559 0)
(0.137775578019 0.965229042327 0)
(0.154846053354 0.966987425263 0)
(0.155001937907 1.12822991785 0)
(-0.059219298252 3.94110946978 0)
(-0.211280288325 6.26091713592 0)
(-0.11265967158 4.50233485156 0)
(-0.0634378847976 1.77155142853 0)
(-0.0659125033793 0.839919601611 0)
(-0.0795513052247 0.751880269958 0)
(-0.0915954641527 0.742585804192 0)
(-0.0988624721922 0.739941760272 0)
(-0.104493205986 0.737650364359 0)
(-0.109395409701 0.735954371821 0)
(-0.112100517652 0.736644950427 0)
(-0.111929866753 0.739315666138 0)
(-0.109544304345 0.742627703873 0)
(-0.105766191554 0.745968414822 0)
(-0.101249335923 0.749188276717 0)
(-0.0965995980626 0.752266081042 0)
(0.0711884953557 0.970338782704 0)
(0.148021681394 0.9459969188 0)
(0.146887441515 1.06607629 0)
(0.0834032717675 1.56541974765 0)
(-0.0520533914619 4.87127924103 0)
(-0.114619094506 5.97090295336 0)
(-0.0750563200152 4.24482801651 0)
(-0.0521315292824 1.72539387773 0)
(-0.0615535853343 0.807140531018 0)
(-0.0781209160351 0.738076347112 0)
(-0.0896113055417 0.731075739822 0)
(-0.095702712322 0.728871650301 0)
(-0.0998072866587 0.72662959095 0)
(-0.102956238242 0.724684943221 0)
(-0.104266093396 0.724728375392 0)
(-0.103392525158 0.726587090706 0)
(-0.100824815182 0.729185601751 0)
(-0.0971844333224 0.731973603767 0)
(-0.0930068049678 0.734797042359 0)
(-0.0888183381563 0.737621237835 0)
(0.0585165386091 0.960874615576 0)
(0.0917379971569 1.00534887798 0)
(0.0192960212897 1.35983499278 0)
(-0.150297036232 2.40139061119 0)
(-0.237864027438 4.92551371488 0)
(-0.125969790121 5.57506765436 0)
(-0.0352525880256 4.09944073878 0)
(-0.033900810117 1.74456281272 0)
(-0.059643746883 0.802486335683 0)
(-0.0797743134995 0.720562766741 0)
(-0.0894465093065 0.715439014326 0)
(-0.0937672508435 0.7144557562 0)
(-0.096209952918 0.713228004277 0)
(-0.0977431572937 0.712007789583 0)
(-0.0977810946939 0.712201663784 0)
(-0.0961331342816 0.713890793256 0)
(-0.0931962396215 0.716282936168 0)
(-0.0894666754634 0.718889663031 0)
(-0.0853921506624 0.72156895979 0)
(-0.0814404215028 0.724292273774 0)
(0.0116226329196 1.15285681268 0)
(-0.0741311755446 1.52172082933 0)
(-0.261102821152 1.9554118665 0)
(-0.379571661526 2.9677000526 0)
(-0.330496878058 4.43534104379 0)
(-0.156112043407 4.83683395255 0)
(-0.0164470818445 3.82779123326 0)
(0.00437793328043 1.86575876507 0)
(-0.0414125306812 0.877646541561 0)
(-0.0729162680642 0.702929172973 0)
(-0.0835640057138 0.697082842298 0)
(-0.0871918078675 0.697919698661 0)
(-0.08900618378 0.698389796895 0)
(-0.089912868929 0.698521393305 0)
(-0.0895027531683 0.699399180784 0)
(-0.0876557709769 0.701332308251 0)
(-0.0847262740029 0.703854782891 0)
(-0.0811463871077 0.706551286048 0)
(-0.0773214275846 0.709297078754 0)
(-0.0736905840904 0.712072004266 0)
(-0.012274668206 1.60020374998 0)
(-0.0621792596345 2.16928352357 0)
(-0.128160984522 2.486053406 0)
(-0.160362607302 3.04402372967 0)
(-0.119885512804 3.9013121188 0)
(-0.0148578637464 4.16932975936 0)
(0.0600135378965 3.53661455402 0)
(0.0527585412593 2.03609462291 0)
(-0.00445548352633 1.05626291614 0)
(-0.0531544002395 0.705184535075 0)
(-0.0695857615989 0.68146410964 0)
(-0.0745248963746 0.682978657117 0)
(-0.0769867982558 0.684826487942 0)
(-0.0785028213607 0.686156701706 0)
(-0.0785939916506 0.687696196805 0)
(-0.0771699303605 0.689873411022 0)
(-0.0746757626589 0.692548086522 0)
(-0.0715734026396 0.695379357498 0)
(-0.0682513909664 0.698241522537 0)
(-0.0651339382609 0.701113897905 0)
(0.022240062735 1.95286931828 0)
(0.0252847919462 2.47829874066 0)
(-0.00767010755144 2.69721326931 0)
(-0.0158974176125 3.04524299648 0)
(0.0234800407961 3.56018709248 0)
(0.100399162831 3.73255689036 0)
(0.163451528005 3.37966768052 0)
(0.132886709705 2.31439663976 0)
(0.0372890779701 1.28447210273 0)
(-0.0267908222862 0.757032079057 0)
(-0.0513234633698 0.673232970871 0)
(-0.0587939189093 0.671461561976 0)
(-0.0622489810795 0.673818611261 0)
(-0.0647749183244 0.675878514693 0)
(-0.0658746548924 0.677851439433 0)
(-0.0652217292604 0.680146679791 0)
(-0.0633668298891 0.682875240728 0)
(-0.0609043251376 0.685773756648 0)
(-0.0582354266933 0.688705228896 0)
(-0.0557685846948 0.691643206705 0)
(0.0322778376967 2.04972714375 0)
(0.0576537425781 2.61926741059 0)
(0.0477225172922 2.79220018094 0)
(0.05103175315 2.99853824611 0)
(0.0812295392077 3.30778950982 0)
(0.133827697337 3.42942655442 0)
(0.176739787885 3.2499238872 0)
(0.151671777185 2.64264072446 0)
(0.0692172641558 1.5133140704 0)
(0.00157504034286 0.875633345636 0)
(-0.0311866730022 0.680928584202 0)
(-0.0422150736063 0.663869921253 0)
(-0.0466574291819 0.665331676976 0)
(-0.0499376454288 0.667719121726 0)
(-0.0521023309315 0.669952139528 0)
(-0.0524128395787 0.672294356003 0)
(-0.0513006023328 0.67500614551 0)
(-0.0495319764114 0.677906520855 0)
(-0.0475688728017 0.680847306001 0)
(-0.0458138872655 0.683798163169 0)
(0.0381372811723 2.04675561656 0)
(0.0745909934595 2.64333617941 0)
(0.074513312746 2.80129039566 0)
(0.0837472421642 2.93640070555 0)
(0.10917163129 3.1229773076 0)
(0.14858374648 3.21536234243 0)
(0.184224316913 3.13879767184 0)
(0.188059243287 2.81462081572 0)
(0.121057056522 1.82496166573 0)
(0.0339711269009 1.05264071293 0)
(-0.00851354284126 0.720013870739 0)
(-0.0248560287355 0.663034423978 0)
(-0.0309803287656 0.65953773473 0)
(-0.0348033637131 0.661651050952 0)
(-0.0378196511154 0.663991806099 0)
(-0.0391471488091 0.666330059634 0)
(-0.0388651255553 0.668972082993 0)
(-0.0378185653941 0.67181929021 0)
(-0.0365702164307 0.674714949505 0)
(-0.0355399750198 0.677625503211 0)
(0.0450660894333 1.97629673229 0)
(0.0910717576684 2.60630481849 0)
(0.0957076352474 2.76714717289 0)
(0.106991842627 2.86368425915 0)
(0.128302254801 2.98050046171 0)
(0.158417108869 3.05109080114 0)
(0.187683554405 3.02702236398 0)
(0.202462114453 2.85035542117 0)
(0.152503973164 2.21878126737 0)
(0.0665259038648 1.25987481366 0)
(0.0170500542142 0.797620772647 0)
(-0.00495634595425 0.67599209869 0)
(-0.0144410783648 0.65810619119 0)
(-0.0194307632794 0.658096151567 0)
(-0.0232897187276 0.660134240458 0)
(-0.0256736077376 0.662315746802 0)
(-0.0263320779714 0.664787184618 0)
(-0.0260509653078 0.667503366019 0)
(-0.0255153380213 0.670292546509 0)
(-0.0251951368221 0.673109266248 0)
(0.0532476161342 1.87508066915 0)
(0.10802757695 2.53057595759 0)
(0.113030864801 2.71428680678 0)
(0.12184546085 2.79770281088 0)
(0.135486712064 2.87759184478 0)
(0.153537625087 2.93497886783 0)
(0.170477086196 2.94060935748 0)
(0.17701107592 2.85232649454 0)
(0.151285157099 2.50111037671 0)
(0.0933819162115 1.46147649915 0)
(0.0422343805833 0.904346430697 0)
(0.0152753862195 0.707280893487 0)
(0.00252816107177 0.663299548417 0)
(-0.00420561224335 0.657552807293 0)
(-0.00898832156437 0.658435448416 0)
(-0.0123649400834 0.660202068257 0)
(-0.0139890719294 0.662371045807 0)
(-0.014478692388 0.664870245675 0)
(-0.0146259564015 0.667496621953 0)
(-0.014972969202 0.670177051162 0)
(0.0835182183495 1.71557792676 0)
(0.154524198557 2.43811107594 0)
(0.142874217294 2.66149966487 0)
(0.14591500299 2.74533030877 0)
(0.153036991168 2.80842917571 0)
(0.163867361012 2.85905834854 0)
(0.174769754487 2.88306058499 0)
(0.179706792938 2.85214740102 0)
(0.16143977767 2.65231475131 0)
(0.116173507566 1.63388147419 0)
(0.0665830415517 1.03408284951 0)
(0.0341399854733 0.754942718274 0)
(0.0189137596897 0.675687366516 0)
(0.0104969815728 0.659917464599 0)
(0.00485512165264 0.65852761455 0)
(0.000602233181203 0.659661757122 0)
(-0.00195805178859 0.66147228789 0)
(-0.00321025736851 0.663727687403 0)
(-0.00400279594158 0.666178770911 0)
(-0.00496603359092 0.668714600958 0)
(0.0862271025694 1.50984102108 0)
(0.158544816484 2.3159273072 0)
(0.151934478504 2.57573695396 0)
(0.164341601405 2.68079443027 0)
(0.175937391282 2.74016872338 0)
(0.190703871197 2.78446796577 0)
(0.208398134134 2.81226914571 0)
(0.227626154394 2.80501620034 0)
(0.246198676873 2.68927118281 0)
(0.187000087267 1.95012878536 0)
(0.0925078970443 1.18780260782 0)
(0.0535712307067 0.816748907546 0)
(0.0349814136516 0.694925859217 0)
(0.0251012502246 0.665191740681 0)
(0.0185506375828 0.660191100399 0)
(0.0134733937456 0.660432393592 0)
(0.00995719312893 0.661869466924 0)
(0.0078801889114 0.663901441754 0)
(0.00642168202622 0.666203570896 0)
(0.00485378674849 0.668618116808 0)
(0.0728680926095 1.34055149929 0)
(0.166764427681 2.01591875192 0)
(0.188636064994 2.47366469834 0)
(0.188806137986 2.62424986157 0)
(0.189019216239 2.68700410067 0)
(0.191615652545 2.7253256685 0)
(0.195757979952 2.75046568799 0)
(0.198831961911 2.75237852473 0)
(0.194716891378 2.68053115958 0)
(0.16302927839 2.28049314605 0)
(0.10941743226 1.34823076533 0)
(0.0695455841568 0.887553277585 0)
(0.0498462232536 0.719679533052 0)
(0.0392962772569 0.673519152047 0)
(0.0321552942874 0.663592277623 0)
(0.0264222259124 0.662534592336 0)
(0.0219775074632 0.663527640169 0)
(0.0189816278646 0.665339603688 0)
(0.0167838636141 0.667517874125 0)
(0.0145727280688 0.669838852767 0)
(0.068400307271 1.20754993219 0)
(0.146366507964 1.64394577558 0)
(0.158232498512 2.3800793623 0)
(0.161650003649 2.58620573421 0)
(0.163474260693 2.6585184781 0)
(0.165481614831 2.69621555524 0)
(0.167825812315 2.72251410405 0)
(0.16962122275 2.73470630773 0)
(0.168945871724 2.7000835542 0)
(0.150549076042 2.42940479574 0)
(0.112824215674 1.4833253578 0)
(0.0798635893578 0.956230913771 0)
(0.0618224177019 0.746636318055 0)
(0.0521065531188 0.68432410394 0)
(0.0451512303805 0.668807579841 0)
(0.0392426723872 0.666068765195 0)
(0.0341211569544 0.666519827344 0)
(0.0302008354238 0.668089463909 0)
(0.0271802304915 0.670151802301 0)
(0.024256682091 0.672392493909 0)
(0.063748998806 1.10227539624 0)
(0.130682899346 1.39477081601 0)
(0.134060815757 2.28562078954 0)
(0.135279822952 2.5424726122 0)
(0.137441607252 2.62871628277 0)
(0.139319527449 2.67155960883 0)
(0.140899475409 2.70116757117 0)
(0.141711756557 2.71961275345 0)
(0.139998239034 2.70408916693 0)
(0.128857134271 2.51744746703 0)
(0.106053908216 1.57897007815 0)
(0.0838306689727 1.01172797923 0)
(0.0703595644086 0.772515635821 0)
(0.06263792282 0.696455730623 0)
(0.056821986607 0.675664943511 0)
(0.0514092349449 0.671085433812 0)
(0.0461060256026 0.670936729002 0)
(0.0414478749876 0.672245882377 0)
(0.0375768714307 0.67418745425 0)
(0.033874999902 0.67634153115 0)
(0.0566873836598 1.02803652199 0)
(0.114881672345 1.21552808099 0)
(0.118134042697 2.20451911087 0)
(0.123740001518 2.48949407137 0)
(0.128064786021 2.601479961 0)
(0.127884036265 2.65566550283 0)
(0.125781835447 2.69061876012 0)
(0.122467495252 2.71476594095 0)
(0.117314489884 2.71312740254 0)
(0.106740552497 2.57200035187 0)
(0.0936418277894 1.63492349671 0)
(0.0833694646202 1.04759823364 0)
(0.076056016085 0.794444096897 0)
(0.0710830543693 0.708984417088 0)
(0.066896120834 0.684037091532 0)
(0.0624677724045 0.677699172354 0)
(0.0574942224826 0.676912561663 0)
(0.0524295649521 0.677944081752 0)
(0.047775228296 0.679736405309 0)
(0.0432616883459 0.681768168497 0)
(0.0504559390826 0.981320827157 0)
(0.102334912118 1.08541392536 0)
(0.128335084272 2.02636059338 0)
(0.154574382426 2.43261348807 0)
(0.152093743582 2.59845894423 0)
(0.142133725747 2.66879217066 0)
(0.130318197011 2.70832458983 0)
(0.117865442509 2.73538062463 0)
(0.104409614122 2.74117198089 0)
(0.08886268986 2.62400929604 0)
(0.0812292338915 1.64848782325 0)
(0.0815862023385 1.0620874881 0)
(0.0799546561222 0.810094566248 0)
(0.0777509300198 0.721231667124 0)
(0.075221773883 0.693782041104 0)
(0.0719665452715 0.686002583839 0)
(0.0676891898246 0.684562540433 0)
(0.0626055737604 0.685295191356 0)
(0.0573629745696 0.686885176236 0)
(0.052084818838 0.688727685832 0)
(0.0475406577033 0.958363019883 0)
(0.0962097538377 1.00246205512 0)
(0.141337074848 1.65181509346 0)
(0.18276230271 2.3998256785 0)
(0.171457014842 2.63686419931 0)
(0.153105508655 2.72084434177 0)
(0.133216228867 2.76258412181 0)
(0.112664467435 2.78912880161 0)
(0.0914608346388 2.79711349682 0)
(0.0700105142359 2.68709218285 0)
(0.0682045041352 1.61303274491 0)
(0.0796959324398 1.05538070595 0)
(0.0829091453921 0.818647139459 0)
(0.0830770405478 0.73244735015 0)
(0.0819844639969 0.704467529173 0)
(0.079797560267 0.695825283373 0)
(0.0763026669426 0.693834535728 0)
(0.0714509725732 0.694276291569 0)
(0.0658473848138 0.695613872622 0)
(0.0599228256574 0.69718791829 0)
(0.0483352892834 0.945594280249 0)
(0.0987962533956 0.949407949299 0)
(0.117471024517 1.31687110046 0)
(0.137741212791 2.35976090589 0)
(0.140523988273 2.66052390036 0)
(0.131795986636 2.78210933874 0)
(0.113700754364 2.83490739705 0)
(0.0918727874857 2.86267916693 0)
(0.0689416625857 2.86899242987 0)
(0.0482185554755 2.7538161853 0)
(0.0552549093085 1.52595674916 0)
(0.0774731031406 1.03009161767 0)
(0.085152689168 0.820849523988 0)
(0.0874373624041 0.742519797281 0)
(0.0875731941903 0.715827145006 0)
(0.0862299937407 0.706956733529 0)
(0.0833422708083 0.704596641981 0)
(0.0787087195727 0.704770044396 0)
(0.0728519850558 0.705804364537 0)
(0.0663952000025 0.707024411195 0)
(0.0469163269495 0.936716826578 0)
(0.0960520311731 0.914624618842 0)
(0.108885016389 1.1448095184 0)
(0.161099250024 2.11530591291 0)
(0.190843157949 2.69330308581 0)
(0.159845792306 2.88482117696 0)
(0.120060461675 2.95014732 0)
(0.0797425190805 2.97284772976 0)
(0.0477152646848 2.94553228099 0)
(0.031574136115 2.80300866915 0)
(0.0476240729724 1.40675047607 0)
(0.0755070630306 0.993591994023 0)
(0.0865516076787 0.819200536157 0)
(0.0906780533062 0.752245956471 0)
(0.091841656303 0.72805078686 0)
(0.0911293329341 0.719361776368 0)
(0.0886588348515 0.716756673185 0)
(0.0841491753746 0.716664616055 0)
(0.0780681340887 0.717319776866 0)
(0.0711677412749 0.718074806678 0)
(0.0460525804567 0.93418431685 0)
(0.0961305786356 0.895541267516 0)
(0.105542751581 1.02713854112 0)
(0.14126205824 1.74960434148 0)
(0.15959539463 2.77278725066 0)
(0.123088344029 3.06027960859 0)
(0.0696878828847 3.14235294687 0)
(0.00929246853053 3.16122243661 0)
(-0.0452165948645 3.06341687138 0)
(-0.0214735719844 2.66435326605 0)
(0.0453140002446 1.2833963601 0)
(0.0742266788228 0.955111929356 0)
(0.0868590756683 0.816804073653 0)
(0.0922289176666 0.762346037113 0)
(0.0941593398476 0.741233571602 0)
(0.0939419773723 0.732950210465 0)
(0.0917970046939 0.730189897953 0)
(0.0873670974287 0.729826231793 0)
(0.0811103803526 0.729988014626 0)
(0.0738769926612 0.73013368238 0)
(0.0455786684524 0.930987797694 0)
(0.0981222630874 0.884659768758 0)
(0.107488613873 0.954687567615 0)
(0.132469330588 1.48425301895 0)
(0.139530376559 2.87611949379 0)
(0.100513367567 3.25642728265 0)
(0.0393344454116 3.40574395779 0)
(-0.041957071214 3.44569171374 0)
(-0.133675262704 3.3150280828 0)
(-0.0759615011502 2.13684665546 0)
(0.0476250161083 1.17452757369 0)
(0.0738533311999 0.921232306028 0)
(0.0863614914258 0.815822490265 0)
(0.09218389249 0.772988487766 0)
(0.0944292517435 0.755131798604 0)
(0.0945035556755 0.747467528531 0)
(0.0925158725734 0.744697087089 0)
(0.0880290117785 0.744002367465 0)
(0.0816083575558 0.74349658667 0)
(0.0741781925531 0.742875969822 0)
(0.04394195081 0.938546398057 0)
(0.096802585298 0.885497654946 0)
(0.105807371745 0.916892526945 0)
(0.123601377688 1.28832987124 0)
(0.202530955019 2.65907240131 0)
(0.230379588381 3.48456477143 0)
(0.153152225889 3.73178699872 0)
(0.0748209534496 3.75670539614 0)
(0.0122470100852 3.61607932127 0)
(0.0123786320591 1.67349193251 0)
(0.0545864798815 1.09185790925 0)
(0.0756302797057 0.896821317949 0)
(0.0862858464772 0.817910010441 0)
(0.0913504183344 0.784711388696 0)
(0.0931943327568 0.769818484286 0)
(0.093094152927 0.762877025692 0)
(0.0907933764545 0.760132385374 0)
(0.0859104284562 0.758814302775 0)
(0.079293089388 0.757384846791 0)
(0.0718232247184 0.755843307738 0)
(0.0453143262462 0.960219317447 0)
(0.101318480334 0.900848574169 0)
(0.109890735063 0.906093643091 0)
(0.121226620076 1.14265490522 0)
(0.172430519331 2.20946243645 0)
(0.179647135408 3.72023759601 0)
(0.110295854328 4.0671269903 0)
(0.0410145300855 4.0388065553 0)
(0.0192847953417 3.74857040113 0)
(0.039542854219 1.5536814107 0)
(0.0611847496797 1.04149241384 0)
(0.0768438904856 0.885989283149 0)
(0.0850331242399 0.825459371064 0)
(0.0886919553969 0.799027273605 0)
(0.0898732043668 0.786078953729 0)
(0.089202102551 0.779481275716 0)
(0.0860483531647 0.776211598162 0)
(0.0805392609109 0.773663880193 0)
(0.0738547221766 0.771021038115 0)
(0.0666067096618 0.768432350879 0)
(0.0446521268609 0.996226119549 0)
(0.102423035866 0.916517726385 0)
(0.118397222273 0.905424033742 0)
(0.125925288628 1.05072573082 0)
(0.143953576334 1.95779187218 0)
(0.129280768779 3.89691457413 0)
(0.0830613020471 4.30352018739 0)
(0.0550855807295 4.22730639278 0)
(0.0547105532114 3.74165594447 0)
(0.0637105295973 1.52908431264 0)
(0.0675606525477 1.02213953402 0)
(0.074633905399 0.88623897307 0)
(0.0787788332421 0.835839343075 0)
(0.0806621930227 0.813446270534 0)
(0.0810543408669 0.801621624763 0)
(0.0796271608887 0.794762051255 0)
(0.0760085413037 0.790405913322 0)
(0.0708165977232 0.786667085748 0)
(0.0649215734548 0.783054209443 0)
(0.0585050055806 0.779643465001 0)
(0.0190076677729 0.893576299059 0)
(0.014759851294 0.890910320261 0)
(0.0111554961531 0.888418005612 0)
(0.00798489750265 0.886303000628 0)
(0.00534354553893 0.88656670175 0)
(0.0129531781964 0.900868033258 0)
(0.0312441972066 0.897237894903 0)
(0.0377927230831 0.89579317887 0)
(0.0318325182815 0.895831654619 0)
(0.0261313827187 0.894985685058 0)
(0.0212376229739 0.884524483921 0)
(0.0172384191548 0.848892346959 0)
(0.0134897281447 0.804353982351 0)
(0.00971367777043 0.757959074183 0)
(0.00585860185262 0.709266828102 0)
(0.00193591784421 0.657953440435 0)
(0.029705572124 0.921658459701 0)
(0.0223923918699 0.915183856077 0)
(0.0166500572267 0.909744236263 0)
(0.0119340661368 0.905278814119 0)
(0.00806957354061 0.90155412231 0)
(0.00487428188785 0.898303576512 0)
(0.00215472122646 0.895346059698 0)
(-0.000249522737783 0.892986976413 0)
(-0.00212841375654 0.893788110009 0)
(0.00678650083748 0.910834070751 0)
(0.0272600969659 0.910159475286 0)
(0.0352382328792 0.908534209799 0)
(0.0295810167679 0.908346113519 0)
(0.0241738478966 0.90720267671 0)
(0.0195946978193 0.896078874363 0)
(0.0159077320694 0.859888956717 0)
(0.0124989345463 0.815154018721 0)
(0.00910917025566 0.768653679624 0)
(0.00578777736085 0.720024587203 0)
(0.00207282720496 0.668926092663 0)
(0.0103655597757 0.93057841219 0)
(0.00481916298469 0.922899528628 0)
(0.000868610452946 0.916485365555 0)
(-0.00215765559374 0.911227045477 0)
(-0.00453606660066 0.906852011683 0)
(-0.00646075221072 0.903069080861 0)
(-0.00810798947538 0.899703225696 0)
(-0.0095824071986 0.897173836079 0)
(-0.010571986555 0.898625644834 0)
(-0.000757426212749 0.918647844422 0)
(0.0214842705907 0.921816669391 0)
(0.0310892044219 0.920022929122 0)
(0.0260116339977 0.919560081826 0)
(0.0211244335382 0.918080806944 0)
(0.0170335008925 0.906293827385 0)
(0.0138185694382 0.869564441997 0)
(0.0109281982528 0.824615872017 0)
(0.00809393249063 0.777989239245 0)
(0.00551768730337 0.729423586688 0)
(0.00217499637568 0.678597405268 0)
(-0.0119098886082 0.935550814517 0)
(-0.0151356139363 0.926807044091 0)
(-0.0168743985187 0.919573959991 0)
(-0.0178856091949 0.913672569091 0)
(-0.0185150463464 0.908786053854 0)
(-0.018952074111 0.904599147578 0)
(-0.0193470505013 0.900941253736 0)
(-0.0197460715634 0.89834603052 0)
(-0.019753943715 0.900515299456 0)
(-0.00950361952114 0.923700737535 0)
(0.0138884188314 0.931668090659 0)
(0.0251632827411 0.929738879988 0)
(0.0209698704937 0.928960624698 0)
(0.0168383154206 0.927124311399 0)
(0.0133944826197 0.914702171615 0)
(0.010817806294 0.877458487085 0)
(0.00865310416551 0.832295846785 0)
(0.00656450608184 0.785539447932 0)
(0.00491889088936 0.737043582547 0)
(0.00216066416571 0.686537762768 0)
(-0.0365066365883 0.935229869584 0)
(-0.0368427937493 0.925803802451 0)
(-0.035953304787 0.918099939336 0)
(-0.0346408641502 0.911856398146 0)
(-0.0332859316525 0.906716567942 0)
(-0.0320508960712 0.902346836735 0)
(-0.0310481059927 0.898580678531 0)
(-0.0302667840703 0.896054812933 0)
(-0.0292595164508 0.898965529367 0)
(-0.0191371236803 0.925330086645 0)
(0.00454740429819 0.939037289987 0)
(0.0173691454557 0.937054137525 0)
(0.0143843889281 0.935954968095 0)
(0.0112815242185 0.933775319043 0)
(0.00871612347787 0.920776745371 0)
(0.00698148512219 0.883058090761 0)
(0.00573103233092 0.837698971089 0)
(0.00456688354612 0.790824027575 0)
(0.00402219152142 0.742408370934 0)
(0.00203768120748 0.692269979075 0)
(-0.0619335517333 0.928339377032 0)
(-0.0589445128437 0.918916223447 0)
(-0.0551583579815 0.911308644464 0)
(-0.0513541245822 0.905187026479 0)
(-0.0479029117697 0.900176338105 0)
(-0.0449165629314 0.895939417369 0)
(-0.0424593940213 0.892318083744 0)
(-0.0404722870666 0.890028704934 0)