/*--------------------------------*- C++ -*----------------------------------*\
| =========                 |                                                 |
| \\      /  F ield         | OpenFOAM: The Open Source CFD Toolbox           |
|  \\    /   O peration     | Version:  2312                                  |
|   \\  /    A nd           | Website:  www.openfoam.com                      |
|    \\/     M anipulation  |                                                 |
\*---------------------------------------------------------------------------*/
FoamFile
{
    version     2.0;
    format      ascii;
    arch        "LSB;label=32;scalar=64";
    class       volScalarField;
    location    "0.9/heater";
    object      T;
}
// * * * * * * * * * * * * * * * * * * * * * * * * * * * * * * * * * * * * * //

dimensions      [0 0 0 1 0 0 0];

internalField   nonuniform List<scalar> 
150
(
790.220782734
790.111109673
789.899768334
789.590542592
789.145626495
790.221706218
790.11028467
789.897839502
789.595186422
789.168971857
790.234624573
790.121442932
789.90763132
789.613579946
789.223574318
790.257400601
790.142610499
789.926717315
789.637722552
789.29455324
790.293801792
790.178075496
789.960622344
789.672810462
789.358205942
790.353599163
790.238720451
790.022474858
789.736665032
789.429652075
790.442751963
790.331038502
790.119495533
789.838590571
789.538289449
790.534480834
790.4244307
790.213552549
789.930038992
789.627697665
790.619152925
790.508516194
790.292267257
789.994409638
789.676660494
790.695523342
790.584859039
790.363972681
790.050110102
789.71075721
790.762438647
790.653509993
790.433092575
790.112515274
789.759900099
790.814534588
790.708135381
790.492080555
790.176009349
789.826273844
790.848856367
790.744913092
790.533419807
790.222819171
789.877556789
790.863329637
790.762168777
790.556262714
790.25305532
789.914589007
790.861851014
790.765243218
790.569019724
790.277866498
789.945725209
790.84946326
790.756233395
790.566610166
790.275156032
789.894985179
790.825970121
790.734291296
790.548370498
790.254585335
789.814628396
790.795411558
790.704761444
790.523314491
790.2397133
789.804714499
790.767290335
790.677632761
790.501219765
790.232547159
789.819041208
790.750720315
790.661895103
790.4895685
790.234824365
789.847060887
790.743312432
790.655323162
790.486570939
790.245745958
789.891644632
790.738162904
790.65081077
790.484456606
790.25544415
789.94588901
790.728407387
790.641419553
790.475969462
790.253433419
789.999081286
790.705697334
790.618648197
790.452573807
790.229067656
789.98593504
790.662190695
790.57432909
790.405770306
790.177400721
789.930204749
790.589301344
790.498840306
790.323420049
790.082806397
789.822762291
790.483131189
790.389700895
790.205857602
789.948692598
789.668591487
790.351980535
790.256924021
790.067810385
789.797999228
789.498285207
790.219517557
790.121874192
789.924881863
789.635427336
789.302450426
790.133540196
790.033798193
789.829881523
789.521263904
789.153503858
)
;

boundaryField
{
    emptyPatch
    {
        type            empty;
    }
    minY
    {
        type            zeroGradient;
    }
    maxY
    {
        type            zeroGradient;
    }
    minX
    {
        type            zeroGradient;
    }
    heater_to_water
    {
        type            compressible::turbulentTemperatureTwoPhaseRadCoupledMixed;
        refValue        nonuniform List<scalar> 
60
(
341.114613382
329.175920168
329.175745295
325.464732795
327.421438182
346.11879204
346.117830203
480.618924631
480.618066099
536.872291155
536.871839757
551.541732408
559.54302252
566.776280867
566.7756892
570.670623554
570.670276077
576.969150626
576.968924806
580.704133579
585.747021374
587.845544326
587.845036424
590.521115611
590.520737236
592.276677708
592.276397235
596.35906184
602.271974883
601.509083351
601.5096459
430.322003828
430.324210412
333.639138579
333.639336741
329.941231794
332.638316349
330.099522911
330.09928906
326.127557057
326.127199161
325.198130558
325.197697682
335.580063131
428.342575371
573.988259752
573.988414071
601.101796122
601.102184286
604.824342363
604.825098251
605.130235541
602.593489484
596.858425768
596.859564357
586.838033954
586.83931809
575.134532613
575.135468739
573.111937716
)
;
        refGradient     uniform 0;
        valueFraction   nonuniform List<scalar> 
60
(
0.000746735090905
0.000738268810875
0.000738273390302
0.00073240130957
0.000738862297083
0.000742731377513
0.000742747233109
0.000605684053408
0.00060568694856
0.000587804227397
0.000587805352191
0.00058737246763
0.000587796108862
0.00058736570076
0.000587367007888
0.000587773173394
0.000587773930421
0.000587415961002
0.000587416441417
0.000587763222592
0.000587487075421
0.000587738219019
0.000587739258844
0.000587543587512
0.00058754435467
0.000587736406683
0.000587736972051
0.000587653605438
0.000587760492236
0.000589603212263
0.0005896021099
0.000671583792617
0.000671572359917
0.000733836814798
0.000733832394094
0.000724418595641
0.000738597356045
0.000738557384565
0.000738563275028
0.000731950427882
0.000731960781799
0.000729970818844
0.00072998382513
0.000745044297629
0.000669729376576
0.000588915426146
0.000588915093004
0.000586869025624
0.000586868265939
0.00058693027667
0.000586928815203
0.000586860944937
0.000586925822692
0.000586870654023
0.000586868393801
0.000586920596409
0.00058691795782
0.000586899867238
0.000586897861804
0.000587083489623
)
;
        source          uniform 0;
        value           nonuniform List<scalar> 
60
(
788.813442587
788.808421798
788.831986072
788.831969255
788.885349743
788.897450093
788.967485795
789.109694462
789.171337673
789.20992526
789.280924398
789.289650418
789.402781049
789.407128609
789.496385527
789.49858435
789.547268212
789.551046669
789.584813878
789.586935522
789.638854458
789.640036604
789.706387898
789.707999733
789.759266322
789.760260065
789.797287928
789.799703597
789.834309297
789.833513666
789.783371496
789.652960548
789.57477476
789.481440122
789.472365127
789.473980422
789.484093831
789.482237061
789.510529715
789.510662865
789.555559526
789.555804213
789.610459424
789.611195361
789.758825286
789.873825325
789.858737558
789.875091508
789.819125317
789.821298255
789.713760203
789.713951832
789.558186034
789.554830615
789.384529689
789.37863779
789.182686476
789.175820602
789.026614899
789.02538719
)
;
        kappaMethod     solidThermo;
        Tnbr            T.liquid;
        region          solid;
        otherPhase      gas;
    }
    procBoundary1to0
    {
        type            processor;
        value           nonuniform List<scalar> 5(790.235928834 790.12895932 789.920271896 789.607520119 789.153864341);
    }
}


// ************************************************************************* //
