/*--------------------------------*- C++ -*----------------------------------*\
| =========                 |                                                 |
| \\      /  F ield         | OpenFOAM: The Open Source CFD Toolbox           |
|  \\    /   O peration     | Version:  2312                                  |
|   \\  /    A nd           | Website:  www.openfoam.com                      |
|    \\/     M anipulation  |                                                 |
\*---------------------------------------------------------------------------*/
FoamFile
{
    version     2.0;
    format      ascii;
    arch        "LSB;label=32;scalar=64";
    class       volScalarField;
    location    "0.375/water";
    object      km;
}
// * * * * * * * * * * * * * * * * * * * * * * * * * * * * * * * * * * * * * //

dimensions      [0 2 -2 0 0 0 0];

internalField   nonuniform List<scalar> 
1504
(
2.04014592889
0.954684392353
0.465219972814
0.233834132777
0.116924392598
0.0605815393404
0.0344565061758
0.0220589709216
0.0156785247166
0.0116737007951
0.00854276401243
0.0055614653115
0.00297171415817
0.00179478748665
0.0016426317415
0.00171841977853
0.00166416313803
0.00146612776248
0.00117384753888
0.000662758881219
2.13317582923
0.997731310904
0.484417047338
0.238322325638
0.116729344784
0.0601090922836
0.0342717721022
0.022173942097
0.0158009691188
0.0116947332812
0.00851216051087
0.00553353094835
0.00299806145421
0.00183350298866
0.00166546156561
0.00173941841352
0.0017268688581
0.00156107655225
0.00128680775829
0.000799088638653
2.24090872735
1.04870235631
0.50540149574
0.243418794795
0.117741323407
0.0602341396042
0.0343530563701
0.0223373476365
0.0158385731663
0.0116475665951
0.00844056053395
0.0054915675848
0.00301955480248
0.00185981527834
0.00166985592992
0.00175189990936
0.00179475510756
0.00166828608008
0.00140728370938
0.000925390004591
2.36891512419
1.10887419119
0.528267223271
0.249763940088
0.11963324716
0.060856762306
0.0347429752817
0.0225424924051
0.0158333846437
0.0115740269757
0.00835879991409
0.00545727307867
0.00304816387456
0.00188084588116
0.00166279668272
0.00176223395981
0.00186474919017
0.00177577077803
0.00150452108175
0.00103760417217
2.55094094654
1.19170588331
0.554402693415
0.25512398057
0.121033625635
0.0617167857675
0.0354150250381
0.0228071686659
0.0158471488465
0.0115133521996
0.00829341374462
0.00544737492119
0.00309544224605
0.00190841682034
0.00166024659819
0.00177996136138
0.00193220758688
0.00187422853988
0.00158645060343
0.00114002051841
2.86118603134
1.32078676263
0.58182933209
0.258831502317
0.122902302885
0.0636555098156
0.0367648370799
0.0233699534237
0.016006566275
0.0115253696407
0.0082759307751
0.0054739819889
0.00317155455574
0.00195594276972
0.00167513029389
0.00181402045034
0.00199494677143
0.00196465932215
0.00167605498203
0.00124223564066
3.44763512728
1.44592550302
0.601715188501
0.265079516067
0.127706049808
0.067547983332
0.0391517737786
0.0244487206306
0.0163993349523
0.0116351814911
0.0082858048228
0.00551959858828
0.00328566955959
0.00203607283225
0.00171850638223
0.00187060815115
0.00205947401408
0.0020575796123
0.00178450321577
0.00135432614269
3.94046316179
1.53092873577
0.62771298424
0.275751751426
0.134168658794
0.0722554362588
0.0420425108587
0.0258175918794
0.0168810829191
0.0116803123325
0.0082343990043
0.00558497960352
0.00344278176156
0.00216361588924
0.00180807564385
0.00195104674302
0.00213613410321
0.00216564051413
0.00192275797162
0.0014856850468
3.94963186782
1.53230412654
0.62600745883
0.276840443266
0.137021651573
0.0754731800621
0.0443081373651
0.0268593718118
0.0170080196532
0.0115023271399
0.00815703786841
0.00568157826838
0.00362017140226
0.00232831222608
0.00193383417428
0.00204883134324
0.0022284550589
0.00229598393928
0.00209857861678
0.0016510408267
3.78343698559
1.45038855153
0.596183388563
0.268330973171
0.13617765618
0.0768151530404
0.0454481400185
0.0270466458634
0.0166381454795
0.0112107342068
0.00808765732081
0.00577453262596
0.00379369805924
0.0024931284724
0.00207255890064
0.00214759031591
0.002329863097
0.00244414498535
0.00230325193677
0.00183028523556
3.52097885362
1.34137409354
0.558886452425
0.257730303971
0.134505877267
0.0773059499711
0.0456872648202
0.0265298416815
0.0160440833173
0.0109128173596
0.00804320868846
0.00585407302358
0.00392438501119
0.00262749574868
0.00219282211029
0.00222806953717
0.00242299088121
0.00258922053465
0.00250137260739
0.00201707425503
3.18482381192
1.21767112564
0.518577286432
0.247366947092
0.133272437527
0.0776986450583
0.0453998821273
0.0256564165661
0.0154537531685
0.0107118276849
0.00801963957073
0.00589355265042
0.00397575380037
0.00271650564133
0.00226258159622
0.00227335001568
0.00247973203774
0.00270159680585
0.0026775497716
0.00222290894076
2.76988392956
1.06778237145
0.472362144854
0.238835567787
0.134200036485
0.0786691019719
0.0447167930223
0.0247222598596
0.0150557689721
0.0106097841786
0.00798493638563
0.00582607689846
0.00395944225004
0.00275448621108
0.00228801121638
0.00226937514942
0.00247402447789
0.00276310428567
0.00282285909295
0.00241400722912
2.26978957151
0.911963983937
0.442638117699
0.242097969197
0.139884971259
0.0799161662238
0.0436334541034
0.0240395570453
0.014941002312
0.010587347098
0.00787322077945
0.00569097103101
0.00391718996154
0.00275995059224
0.00226890416916
0.00221276519116
0.00239263339558
0.00274572498108
0.00291577410423
0.00255810315476
1.83048932111
0.857074520368
0.464349729759
0.263426349602
0.148218712209
0.0808517475678
0.0431744306135
0.0241804224671
0.0152268850831
0.0106484877098
0.00776138460545
0.00557709900888
0.0038720755996
0.00272107807464
0.00216732360228
0.00207475280903
0.0022367496404
0.00261738846074
0.00293792052778
0.0026387821126
1.75848261472
0.969200385694
0.544581817754
0.299999064909
0.15926247583
0.0830206330356
0.0442563103826
0.0253011556054
0.0159176315502
0.0108648804751
0.00774104058969
0.00551525528652
0.00382803820858
0.00265134904091
0.00202112874907
0.0018429026346
0.00199629105186
0.0023652743796
0.00284256470732
0.00262653223446
2.26468990918
1.26605288473
0.672182928985
0.342204505286
0.173083776473
0.0899538814293
0.049021701091
0.0283646307349
0.0175165565492
0.0115246236282
0.00794826420155
0.0055558371967
0.00380376657314
0.00256705652543
0.00186842822006
0.00161466471915
0.00167005680389
0.00203176797462
0.00258991409565
0.00251087670355
3.30776239489
1.66739335016
0.781020723953
0.379962099768
0.195731361254
0.10606148532
0.059525871552
0.0344921059312
0.0206678511845
0.0129685741578
0.00855408648066
0.00578740904952
0.00384259889467
0.00247634214316
0.00169718507598
0.00139977264355
0.00138858203064
0.00167691908231
0.00222924856272
0.00232076590043
4.40851362917
1.92481145231
0.871744132327
0.426868554844
0.228680578392
0.128547557626
0.0731659391667
0.0425421823684
0.0251531312912
0.0152385805031
0.00964149758962
0.00630085718738
0.00403384195915
0.00245113904926
0.00155385590561
0.00121400972872
0.00117973452439
0.0013601959982
0.00187103251593
0.00211189019144
4.86631032419
2.00840369674
0.91937757898
0.469599314561
0.263920463309
0.154181366299
0.0867591715934
0.0499796928993
0.0295606054794
0.0178252183058
0.011084038899
0.00709615653869
0.00442702384416
0.0025598058333
0.00149983938117
0.0010976026179
0.00104413375328
0.00118127783899
0.00160505761562
0.00192710635119
4.94969188675
2.05026301526
0.939524127106
0.490356329467
0.287695404095
0.176027308563
0.0981879248786
0.056164153399
0.0333225109747
0.0202113670106
0.0126116358328
0.00804687440913
0.00496614050664
0.00279677603194
0.00155201144855
0.0010652405558
0.000979932485385
0.00109540233925
0.00143352698033
0.00179160537777
5.02134511782
2.06185152002
0.944609866173
0.497762218355
0.297058458743
0.182644658359
0.105038332954
0.0612864135165
0.0367557270106
0.0224638745158
0.0141100949781
0.00902394029047
0.00555343943188
0.00311005507938
0.00168917323428
0.00110557599464
0.000974384017378
0.00106369578682
0.00134154284923
0.00171134346393
5.1383774174
2.08963186325
0.967943953364
0.513047889472
0.304887118179
0.183222203936
0.108851798124
0.065233050137
0.0397133469647
0.0245301949646
0.0155225761722
0.00993360149721
0.00610733757236
0.00344934132492
0.00188342280356
0.00120079895215
0.00101323827601
0.00106721836328
0.00130774338523
0.00167289960003
5.10568280871
2.1312414532
1.0183226111
0.54424871368
0.316456360901
0.188869674967
0.11360239897
0.0691185274347
0.0424927457145
0.026450915483
0.0167915473495
0.010693300964
0.00655701401318
0.00375015772403
0.00208696006776
0.00132398727881
0.00108177977713
0.00109622866568
0.001298001284
0.00165634879993
4.64720923585
2.11548995183
1.05971435124
0.576620816253
0.330974362962
0.196897497176
0.119159502345
0.0730312806016
0.0451570378262
0.0282507340433
0.0179043298378
0.0112943328453
0.00691069342801
0.00400989470944
0.00228438603453
0.00145843851422
0.00116697800255
0.00114165836196
0.00130262870492
0.00164334567974
4.0519262821
1.99796197993
1.04078945771
0.578653799677
0.335755513631
0.201032901834
0.122703489701
0.0758217472998
0.0472245628306
0.0296896670462
0.0187431138205
0.0117204623263
0.00718707183768
0.00424308557299
0.00247825757922
0.00160002123384
0.00126301473634
0.00119862638672
0.0013152169431
0.00163034165616
3.74969563775
1.85038238403
0.967378999681
0.546027124645
0.324096643951
0.197226180776
0.122164296983
0.0764808597143
0.0481917419237
0.0305014417253
0.0191967093396
0.0119707614696
0.00740690738747
0.00446518933858
0.00267439489043
0.00174785415597
0.00136725759929
0.00126517265449
0.00133440020662
0.00161505674659
3.7590251916
1.74788286801
0.895561797761
0.5046811249
0.301858525778
0.186655338219
0.117667469312
0.0748882255686
0.0479039947262
0.0305646205672
0.0192364359778
0.0120678190843
0.00759202945917
0.00468881249449
0.00287711326337
0.00190171478654
0.00147765418849
0.00134050767629
0.00136030555899
0.00159735015848
3.78106469713
1.68747498315
0.833287827786
0.459199641804
0.274637705209
0.172063664203
0.110305756911
0.0714491345774
0.0464509658964
0.0298742945193
0.0188917867642
0.012042508325
0.00775580630452
0.00491749550061
0.00308656920648
0.00205944159123
0.00159131328301
0.00142098777056
0.00139342656243
0.00156410685883
3.70776419871
1.59080650187
0.760441537755
0.411274877138
0.245747789809
0.155550815803
0.101239832733
0.066781310118
0.0440482236708
0.0284868544302
0.0182340958211
0.0119216440309
0.00789738941891
0.00514525653032
0.00329791283703
0.00221738071304
0.00170267765019
0.00149972387454
0.00143221199351
0.00152405601505
3.62650414664
1.50105194608
0.697373055126
0.369516276898
0.219418686648
0.139694391657
0.092184524175
0.0617899667167
0.0410232219131
0.0266253557387
0.017417405548
0.0117508712579
0.00802026140889
0.00536764168555
0.0035090909581
0.00237284893333
0.00180626469329
0.00156566777619
0.00146838885514
0.00148075262887
3.54507524745
1.43028516766
0.651172582233
0.337968239888
0.19857266886
0.126878666004
0.0847188886589
0.0570463366557
0.0376586559529
0.0246682991791
0.0166226288463
0.0115838297395
0.00813411918201
0.00558581675056
0.0037209195864
0.0025277500455
0.00189787073456
0.00161109582945
0.00148611113177
0.0014337470293
3.43542811142
1.36988864842
0.617661141737
0.316740005544
0.185221254763
0.118857297007
0.0792551729736
0.0525905509536
0.0345001331836
0.0230372734756
0.0160066777121
0.0114678369366
0.00824923499547
0.00579499078646
0.00392306069209
0.00265933383008
0.00196024741134
0.00162583512965
0.00147366054294
0.00138246986329
3.23693510713
1.28627302241
0.585258867649
0.304772380647
0.180261092922
0.115311206179
0.0753330090542
0.0491130497034
0.0323483194036
0.0220645973291
0.0156821160946
0.0114369316414
0.00835482179944
0.00595838380993
0.00408024958373
0.00276169477847
0.00199276866145
0.00160535655419
0.00142097353491
0.00130567801836
2.87657750352
1.19170287326
0.56848612729
0.308268372023
0.184480751372
0.116195558362
0.0743320855371
0.0480545431914
0.0318934641006
0.0220141299592
0.0157468348377
0.011508991866
0.00844476894182
0.00609412014283
0.00422503839246
0.00284826879343
0.00199910310627
0.00154982544423
0.00132767442433
0.00119424240422
2.55633654011
1.17642171772
0.602819139386
0.337561968599
0.200949792743
0.12483141979
0.0791524341298
0.051078991617
0.0338461462731
0.0231898265466
0.0163924353164
0.0118690867515
0.00869497187345
0.00630586949084
0.00439780539261
0.00293685887373
0.00199039722213
0.00147109603405
0.00120926498797
0.00105948941829
2.60111022209
1.29962668633
0.694248211033
0.387747985566
0.228752093805
0.141183354017
0.0897810411609
0.0581369723713
0.0383556452576
0.0260077702473
0.0181317636219
0.012903857938
0.00932506015707
0.0067178164642
0.00467116476444
0.00307151698674
0.0020033239379
0.00140088823964
0.00109501035234
0.000926192989299
2.92853585787
1.49303209663
0.788374560777
0.434218572177
0.254149370327
0.157361757575
0.10231256682
0.000149945927247
0.000148794139616
0.000151719547324
0.000165494147398
0.000204726633007
0.000292740942981
0.000447464381954
0.000656753017437
0.000883461127564
0.00109566865817
0.00127813397058
0.00142890851506
0.00155661591424
0.0016846003023
0.0018724851648
0.00228862662506
0.00338912244392
0.00021650176371
0.000160259390966
0.000154350283789
0.000151833582416
0.000151407892206
0.000156524362838
0.000175844994675
0.000226310525095
0.000330664248587
0.000499304057429
0.000711674478162
0.000931063822045
0.00113051914997
0.00129838186439
0.00143439868114
0.00154762772445
0.00166066879427
0.00183031217301
0.00221853199782
0.00328172485941
0.000256121531934
0.000164058680381
0.000156340896793
0.000154033604705
0.000154682721456
0.000162821330569
0.000189217474915
0.000252630196502
0.000373384920441
0.000553333078488
0.000765777725424
0.000976295284113
0.00116261277511
0.00131606266217
0.0014377496121
0.00153702638374
0.00163573620218
0.00178784866653
0.00214851831532
0.0031738698897
0.00031472743444
0.000169275365401
0.000158659281351
0.000156676658123
0.000158863874007
0.000171058787509
0.000206198353825
0.000283952355527
0.000420354951726
0.000608642442661
0.000818501376586
0.00101894075116
0.00119190174326
0.00133119078218
0.00143898826379
0.00152482688316
0.00160979167328
0.00174506918323
0.00207855478917
0.00306479405911
0.000394809876498
0.000176583177189
0.000161396558847
0.000159914300239
0.000164253399078
0.000181748609618
0.000227334752821
0.000320321807297
0.000470843560583
0.000664380326991
0.000869380159684
0.00105882669553
0.00121834605255
0.0013437745018
0.00143813207881
0.00151103340971
0.00158280948031
0.00170191528785
0.00200858113668
0.00295371840738
0.000492977689944
0.000187313473569
0.000164691472721
0.000163923146021
0.000171203412327
0.000195429339773
0.000253055077754
0.000361512319503
0.000523973138138
0.000719748075028
0.000918000080512
0.00109578615958
0.00124188990346
0.0013537993476
0.00143517494847
0.00149562796198
0.00155473774548
0.00165829243834
0.00193850044653
0.00283987602715
0.000602062645549
0.000204568727332
0.00016881528033
0.000168921827385
0.000180112341295
0.000212618105759
0.000283589810046
0.000407010320797
0.000578767741878
0.000773996823358
0.000963975587381
0.00112964546694
0.00126245487538
0.00136122306492
0.00143008293869
0.00147856618891
0.00152550053538
0.00161407456033
0.00186818133943
0.00272253506803
0.000718355493429
0.000234100909063
0.000174185232129
0.00017517657545
0.00019140747445
0.000233746018003
0.00031890448185
0.000456037409861
0.000634207428545
0.000826428009929
0.00100694020011
0.00116021986557
0.00127993709734
0.00136597294453
0.00142279185567
0.00145977902338
0.00149500373573
0.00156911953742
0.00179747588543
0.00260106048877
0.000845415222059
0.000283674030073
0.000181377062091
0.000182993852099
0.000205501659626
0.000259077308093
0.000358654856982
0.000507602270489
0.000689275743606
0.000876393295292
0.00104654146764
0.00118731046598
0.00129420482242
0.00136794353684
0.00141320698694
0.00143917557318
0.00146314775882
0.00152329235032
0.00172625331471
0.00247501451634
0.000990147513674
0.000359946241538
0.000191489927992
0.000192749269242
0.000222750163246
0.000288648984722
0.000402199398356
0.000560592521462
0.000743014883794
0.000923309063126
0.00108244924247
0.00121071099167
0.00130510372736
0.00136700220685
0.00140121004796
0.00141665467044
0.00142984519928
0.0014764991606
0.00165445319546
0.00234428206072
0.0011557536038
0.000465269569991
0.000207270608088
0.000205006347412
0.000243465448101
0.000322293712835
0.000448706574298
0.000613910658974
0.000794591927202
0.000966679952637
0.0011143663757
0.0012302122833
0.00131245901043
0.00136299125573
0.00138666360659
0.00139211203322
0.00139503660371
0.00142871781645
0.00158213850943
0.00220917266181
0.00133135573843
0.000596650617455
0.000234603388945
0.000220640915698
0.000267953114988
0.00035969721081
0.000497264110934
0.000666545481025
0.000843286673079
0.00100605538379
0.00114198240581
0.00124556182867
0.00131604398814
0.00135570711814
0.00136939981342
0.0013654376006
0.00135869385521
0.00138001467291
0.00150953181312
0.00207047564926
0.00149497064614
0.00074406112533
0.000282369061167
0.000240768297338
0.000296391913603
0.000400302215137
0.000546807900307
0.000717456197263
0.000888342349967
0.0010408996997
0.00116487800778
0.00125640059173
0.00131554417332
0.00134488531228
0.00134922016417
0.00133652238654
0.00132082932956
0.00133055253639
0.00143703010707
0.00192949884088
0.00163972695721
0.000895009786688
0.000359398277098
0.000266717555737
0.000328638502014
0.000443153453412
0.000596009058788
0.00076545932316
0.000928878013955
0.00107055373373
0.00118252772489
0.00126229294978
0.00131060257302
0.0013302531603
0.00132594932015
0.00130530861716
0.00128153472682
0.00128061523331
0.00136521812253
0.0017881181987
0.00173756677757
0.00104188623234
0.000468958751426
0.000300910819442
0.000364284424729
0.000487001547792
0.000643409161273
0.000809357068033
0.0009640259761
0.00109438240593
0.00119444385578
0.00126285599734
0.00130093063178
0.00131162366115
0.00129951661824
0.00127186237674
0.00124104721195
0.00123066085244
0.0012948997972
0.00164879765292
0.00182432463424
0.00117377010592
0.000605156946758
0.000348675241933
0.000402849916946
0.000530513145049
0.000687646854251
0.00084814377553
0.000993121992948
0.00111194112301
0.00120030976025
0.00125785832508
0.00128637867344
0.00128895056264
0.00127001132962
0.00123644333805
0.0011998377028
0.00118142212542
0.00122718193241
0.00151456152941
0.00190891360984
0.00127921183309
0.000756405160645
0.000419966074784
0.000444360930353
0.00057262670454
0.000727749818112
0.000881231925213
0.0010158809585
0.00112310711063
0.00120007124214
0.00124727633082
0.00126696442446
0.00126234290364
0.00123770741286
0.00119956671883
0.00115872792967
0.0011340678871
0.00116364136581
0.00138894671315
0.00195657602427
0.00136624627174
0.000906696153846
0.000526710602215
0.000490460999621
0.000613151463753
0.000763566198105
0.000908755514891
0.00103262657097
0.00112826999363
0.00119410066488
0.00123142034955
0.00124292836333
0.00123201300094
0.0012028912921
0.00116174032509
0.00111858766499
0.00108990689545
0.00110607140075
0.00127556716996
0.00194231977242
0.00141107961492
0.00103790163308
0.000670031382301
0.000545289130888
0.000653188824048
0.000796022465242
0.00093171587724
0.00104440146448
0.00112844038676
0.00118329128809
0.00121094650056
0.00121452350736
0.00119763025722
0.00116454428499
0.00112133176844
0.00107743778296
0.00104699724937
0.00105307764808
0.00117498322811
0.00189165400818
0.00144023018762
0.00114115731086
0.000829326345841
0.000615864400777
0.000694820069876
0.000826689019879
0.000951560455647
0.00105260266534
0.00112495314037
0.00116884714125
0.00118678950257
0.001182183653
0.00115880111507
0.00112109530941
0.00107539041596
0.00103109396228
0.00100057485923
0.00100048516277
0.00108514098803
0.0018291476823
0.00147915116886
0.00122849102989
0.000982504094333
0.000712274196836
0.000740988730781
0.000857165330124
0.000969657237853
0.00105856875866
0.00111916395643
0.00115214514733
0.00116035455301
0.00114737133525
0.00111708199192
0.00107416623347
0.00102540746115
0.00098062648714
0.000951228572564
0.000948495033313
0.00100580032241
0.00178105540887
0.00153141115195
0.00132435282914
0.0011317746951
0.000846627398757
0.000796093115454
0.000889171097315
0.000987487468615
0.00106379543132
0.00111263169579
0.00113482030554
0.00113338231189
0.00111201133938
0.00107471531775
0.00102638860031
0.000974092616615
0.000927969428243
0.000899658440361
0.000897158696648
0.000936229329594
0.0017590177334
0.00159736518112
0.00142289258262
0.00129495766451
0.00102785047101
0.000868809083334
0.000925314537513
0.00100697971379
0.00107001488039
0.0011069268277
0.00111822577859
0.0011069075434
0.0010766902317
0.00103167053678
0.000976908457049
0.000919544695045
0.000869838800818
0.000841434538784
0.000845114432551
0.000879443267505
0.00176132040675
0.00167664314361
0.00155185367312
0.00149243423297
0.00126074891935
0.000980610848669
0.000971605103576
0.00103095216373
0.00107938075832
0.00110400806861
0.00110427154057
0.0010828879486
0.00104353425214
0.000990395942481
0.000928679060884
0.000865644307245
0.00081192508278
0.000784298237099
0.000804906600196
0.000859312139233
0.00178041343714
0.00176664602158
0.00172060662014
0.00173861028159
0.0015563095285
0.00117052510588
0.0010411483519
0.00106382863745
0.00109497043301
0.00110698801214
0.00109650715384
0.0010653755171
0.00101695079582
0.000955352842612
0.000886003437219
0.000816730809672
0.000759568699518
0.000735827197813
0.000782131290448
0.000880221041129
0.00180704286434
0.0018634522873
0.00191544578296
0.00204787668586
0.00193203512371
0.00148092556075
0.00116196573902
0.00111343278506
0.00112039836875
0.0011190831953
0.00109863468169
0.00105854135179
0.00100121425453
0.000930689880003
0.000853327402247
0.000779469189804
0.000725859896839
0.000719787411174
0.000810743816021
0.000977264309948
0.00183268855655
0.0019554461511
0.00212251031465
0.00237844665215
0.00241218103243
0.00194096399877
0.00138721686685
0.0011941390813
0.00115671743014
0.00113782415038
0.00110676109592
0.0010577354414
0.0009919975782
0.000915197392454
0.000839022847189
0.000781329673776
0.000762499862503
0.00081381694621
0.000990850784451
0.00126269873957
0.00185060911024
0.00203744765825
0.00233864550111
0.00278977905581
0.003021512596
0.00255472103517
0.00176601432348
0.00132389231196
0.00119423372199
0.00114306557059
0.00109596172585
0.00103830778763
0.000973633948698
0.000916855314147
0.000887135373071
0.000899355353328
0.000972953979611
0.0011436461258
0.00146766541528
0.00189352899457
0.0018537939418
0.00211087532022
0.00255680393017
0.00326552999123
0.0037085047038
0.00327898057455
0.00229030265638
0.00151832607297
0.00121202828946
0.00110227376204
0.00104015881877
0.000995346542648
0.000974405961734
0.000990097533864
0.00104918525167
0.00116557709518
0.00136852110407
0.00170875359974
0.00224604447098
0.00291265084048
0.00183662991987
0.00216554932488
0.00276244920699
0.00376375913932
0.0044334312765
0.00407396231925
0.00290935228662
0.00180166209444
0.00123157368232
0.00103708602621
0.000978830984614
0.000977973676217
0.00102019036898
0.00110660232663
0.00124721968405
0.00146313045219
0.00179929628505
0.00232885440518
0.00312771873266
0.00414011098343
0.00179161712408
0.00218128679273
0.00292892446731
0.00421433907601
0.00518785340475
0.00485931721315
0.00359134558634
0.00223411538001
0.00135272841914
0.00100849076592
0.000927256102877
0.000942015369442
0.00101711198068
0.00115941138302
0.00137814596445
0.00168661664302
0.00214565456772
0.00286543819713
0.00395875485086
0.00541329305644
0.00171908058365
0.00213438867189
0.00300738677234
0.0045096991251
0.00578703262298
0.00561169851146
0.00440097626597
0.0028806023371
0.00168560771713
0.00103928040128
0.000816494044463
0.000796445646978
0.000897885207772
0.00111888176692
0.00144848483045
0.00184436347845
0.00239839174191
0.00329389260453
0.0047052876338
0.00668631700695
0.0015780175209
0.00200419147279
0.00292901414873
0.00452931993126
0.00603365793529
0.00623889229937
0.00528603989209
0.00373597403465
0.00232264666497
0.00128759837373
0.000709182447822
0.000586015505153
0.000712459074351
0.00108149009679
0.00164615618125
0.00208558726005
0.00262058693562
0.00362689109091
0.00535959420404
0.00796590946859
0.00141408041976
0.00179246531671
0.0026567228834
0.00422448112824
0.00583714089174
0.00640705097605
0.00583813512234
0.00477374808237
0.00330074973515
0.00196852728019
0.00113227031747
0.000736491507472
0.00071857738075
0.00130333714402
0.00265901583057
0.0029741179577
0.00293589382629
0.00386109803112
0.00586767318514
0.00924843160676
0.00125732384135
0.00147962590676
0.00223096995592
0.00362829437712
0.00517688930711
0.00602853252692
0.00593785259067
0.0052975219728
0.00442444400646
0.00349676342529
0.00254557576693
0.00188381894369
0.001695872293
0.00257696644898
0.00547457392556
0.00522734510783
0.00314957065365
0.00379376527463
0.00599251908052
0.0102891372167
0.00111038922632
0.00118014566623
0.0017419844699
0.00286018709673
0.00420526025176
0.00517575089603
0.00550473878314
0.00534134861879
0.0048735692178
0.0042599907572
0.00374774977435
0.00362977309897
0.00414148611708
0.00436375299475
0.00677379253961
0.00692763358777
0.00225433740533
0.00326292492553
0.00571807679933
0.0107995986953
0.00096078804929
0.000954502169505
0.00124648902996
0.00209105048683
0.00317939573543
0.00412618570468
0.00469747588001
0.00488981165778
0.00473298927877
0.00448385149303
0.00486738089004
0.00579661881456
0.00531742162211
0.00494819935621
0.00804304361952
0.00845177093521
0.00131795506683
0.00270008380564
0.00527413685273
0.0106663805304
0.00082097682038
0.000784629669196
0.000916275080609
0.00142070890655
0.00229741973717
0.00318061861764
0.00386444928769
0.00424742210501
0.00441991799248
0.00491288701158
0.00583376739314
0.00540647443003
0.00582964953215
0.00672324901862
0.00732706684746
0.00740023215164
0.00119766751294
0.00272624397629
0.00513532705618
0.0102105015621
)
;

boundaryField
{
    emptyPatch
    {
        type            empty;
    }
    minY
    {
        type            fixedValue;
        value           nonuniform List<scalar> 0();
    }
    maxY
    {
        type            inletOutlet;
        inletValue      nonuniform List<scalar> 0();
        value           nonuniform List<scalar> 0();
    }
    maxX
    {
        type            kqRWallFunction;
        value           nonuniform List<scalar> 
38
(
0.00338912244392
0.00328172485941
0.0031738698897
0.00306479405911
0.00295371840738
0.00283987602715
0.00272253506803
0.00260106048877
0.00247501451634
0.00234428206072
0.00220917266181
0.00207047564926
0.00192949884088
0.0017881181987
0.00164879765292
0.00151456152941
0.00138894671315
0.00127556716996
0.00117498322811
0.00108514098803
0.00100580032241
0.000936229329594
0.000879443267505
0.000859312139233
0.000880221041129
0.000977264309948
0.00126269873957
0.00189352899457
0.00291265084048
0.00414011098343
0.00541329305644
0.00668631700695
0.00796590946859
0.00924843160676
0.0102891372167
0.0107995986953
0.0106663805304
0.0102105015621
)
;
    }
    water_to_heater
    {
        type            kqRWallFunction;
        value           nonuniform List<scalar> 
60
(
2.04014592889
2.04014592889
2.13317582923
2.24090872735
2.36891512419
2.36891512419
2.55094094654
2.55094094654
2.86118603134
2.86118603134
3.44763512728
3.94046316179
3.94963186782
3.94963186782
3.78343698559
3.78343698559
3.52097885362
3.52097885362
3.18482381192
2.76988392956
2.26978957151
2.26978957151
1.83048932111
1.83048932111
1.75848261472
1.75848261472
2.26468990918
3.30776239489
4.40851362917
4.40851362917
4.86631032419
4.86631032419
4.94969188675
4.94969188675
5.02134511782
5.1383774174
5.10568280871
5.10568280871
4.64720923585
4.64720923585
4.0519262821
4.0519262821
3.74969563775
3.7590251916
3.78106469713
3.78106469713
3.70776419871
3.70776419871
3.62650414664
3.62650414664
3.54507524745
3.43542811142
3.23693510713
3.23693510713
2.87657750352
2.87657750352
2.55633654011
2.55633654011
2.60111022209
2.92853585787
)
;
    }
    procBoundary3to1
    {
        type            processor;
        value           nonuniform List<scalar> 
41
(
0.0680067741444
0.0454204437573
0.0307919203684
0.0211970459978
0.0148050805273
0.0104820360489
0.00746483471048
0.00516439539613
0.00334767855733
0.00209511236755
0.00138498550775
0.00101772590891
0.000821300832949
3.15896579804
1.53128636743
0.779689580423
0.431335862981
0.260010307751
0.168176692355
0.0680067741444
0.114340757418
0.000708695045678
0.000658168916173
0.000719614268572
0.00100474328741
0.00160941717771
0.0024641866137
0.00321733837526
0.00375097646995
0.00431379411707
0.0051981134071
0.0047861186796
0.00589060224336
0.00726706564036
0.00646547671066
0.0064551851507
0.00654028191381
0.00108569828023
0.00288289833184
0.00507991431699
0.00976732777169
)
;
    }
    procBoundary3to2
    {
        type            processor;
        value           nonuniform List<scalar> 
41
(
1.96049853794
0.919199847367
0.448926735492
0.229470623006
0.117911067436
0.0615255734639
0.0347938178952
0.0219694458721
0.0154601822861
0.0115507121052
0.00850475967642
0.00555279847676
0.0029300590966
0.00174462884454
0.00160482306855
0.00168666953015
0.00160711553224
0.00139156292675
0.00107373227008
0.000527196065658
0.000148281253482
0.000146666573439
0.000148047924865
0.000157602449095
0.000187449112384
0.000259943668497
0.000398753380358
0.000601714462232
0.000833789541865
0.00105815367341
0.00125532820287
0.00142126751019
0.00156399266724
0.00170755321626
0.00191435159178
0.00235858267254
0.00349643967402
0.000190913691396
0.000157359368074
0.000152586934745
0.000152586934745
)
;
    }
}


// ************************************************************************* //
