/*--------------------------------*- C++ -*----------------------------------*\
| =========                 |                                                 |
| \\      /  F ield         | OpenFOAM: The Open Source CFD Toolbox           |
|  \\    /   O peration     | Version:  2312                                  |
|   \\  /    A nd           | Website:  www.openfoam.com                      |
|    \\/     M anipulation  |                                                 |
\*---------------------------------------------------------------------------*/
FoamFile
{
    version     2.0;
    format      ascii;
    arch        "LSB;label=32;scalar=64";
    class       volScalarField;
    location    "0.415/water";
    object      alpha.gas;
}
// * * * * * * * * * * * * * * * * * * * * * * * * * * * * * * * * * * * * * //

dimensions      [0 0 0 0 0 0 0];

internalField   nonuniform List<scalar> 
1503
(
0.171430596066
0.10248210116
0.0287044287376
0.00716098918667
0.00136791720614
0.000219664505944
2.90975458006e-05
2.29651570678e-06
5.09962340146e-08
4.45792605372e-10
2.18082854109e-12
8.55679920642e-15
1e-15
1e-15
1e-15
1e-15
1e-15
1e-15
1e-15
1e-15
0.607204070205
0.26014698832
0.107582182435
0.0365240941965
0.0116094044214
0.00316255369775
0.00073443677226
0.000132595946979
1.32909174664e-05
2.84911840485e-07
8.8706465024e-10
1.41226508621e-12
2.60082249628e-15
1e-15
1e-15
1e-15
1e-15
1e-15
1e-15
1e-15
0.613303650933
0.346739766551
0.171201923334
0.0729621021079
0.0281352602925
0.00950608979406
0.00271519689909
0.000618879724572
9.15023246894e-05
4.72931453719e-06
2.04979119315e-08
2.40793230254e-11
2.50191952259e-14
1e-15
1e-15
1e-15
1e-15
1e-15
1e-15
1e-15
0.613304089033
0.42509682254
0.249704530392
0.127762737051
0.0575080022338
0.0222870886553
0.00722151471876
0.00187738799082
0.000345453147324
3.11505809213e-05
4.27573065102e-07
4.27063004141e-10
2.90274815585e-13
1.13086716887e-15
1e-15
1e-15
1e-15
1e-15
1e-15
1e-15
0.599835426625
0.472888865941
0.32979459446
0.201941343047
0.107504559664
0.0482586344474
0.0176606084632
0.00506042605616
0.00105308048071
0.000127017397605
4.48967306222e-06
6.73968843889e-09
4.16187905115e-12
3.0765433108e-15
1.00000385338e-15
1e-15
1e-15
1e-15
1e-15
1e-15
0.57637777059
0.491327426009
0.390676746873
0.279804604905
0.176304125145
0.094324682636
0.0408997989699
0.0135177233972
0.00315302296242
0.000448697519657
2.63634981559e-05
1.69881915056e-07
9.44685251023e-11
3.90773469427e-14
1.00835680435e-15
1e-15
1e-15
1e-15
1e-15
1e-15
0.557354522465
0.490267526107
0.422951312436
0.340473813479
0.247614497635
0.156827517098
0.0824590521292
0.0333680814661
0.00935064170301
0.00157638181378
0.000123941971892
2.27258226938e-06
1.57492282613e-09
5.63334136559e-13
1.15575295328e-15
1.00083231263e-15
1.00044532838e-15
1.00019693946e-15
1e-15
1e-15
0.550111248161
0.48427582225
0.431358482453
0.374522112105
0.302825715517
0.219736569446
0.136916657555
0.068304211896
0.0242658932162
0.00519423636674
0.000532636353701
1.7374635259e-05
4.32964655121e-08
1.02711464502e-11
2.63512202677e-15
1.00328801683e-15
1.00230120563e-15
1.0016363247e-15
1.00104115363e-15
1.00007549921e-15
0.538521542378
0.471584777017
0.435458968458
0.39633052841
0.34238378885
0.271453879305
0.191168428703
0.113548318277
0.0510466072439
0.0144691395782
0.0020207516512
0.000100174323818
8.31623109594e-07
1.34345634512e-10
9.00187606952e-15
1.00425632957e-15
1.00278564118e-15
1.00201010462e-15
1.00134498067e-15
1.00049018362e-15
0.520483093179
0.458879945779
0.441335091409
0.416283039663
0.373433526883
0.3107892112
0.236881531729
0.159988245235
0.0877973411704
0.0327674847376
0.00638551750227
0.000475889094366
8.79927916218e-06
1.00286244492e-09
1.91239270337e-14
1.00529643368e-15
1.00193609288e-15
1.0013427674e-15
1.00079919383e-15
1.0002074058e-15
0.508268552105
0.460611903842
0.454628400342
0.438728395768
0.400633172215
0.342274040105
0.274589871134
0.203307206575
0.130366286324
0.0619869048656
0.0168779642041
0.00194758171203
6.86363862027e-05
2.91026319438e-07
8.82999521543e-13
1.08268572755e-15
1.00022595518e-15
1.00020514955e-15
1.0002074058e-15
1.00018824343e-15
0.522612891304
0.483651085025
0.476338172319
0.461719986195
0.425887446427
0.371786378358
0.310094110939
0.245764247532
0.177020228402
0.103238417296
0.0388194666129
0.00702096100414
0.000455573521254
7.06506865596e-06
2.60432267223e-10
3.04089633814e-14
1.00219177159e-15
1.0002074058e-15
1.00015566335e-15
1.0002074058e-15
0.581581688395
0.524575335054
0.497407538002
0.479111805907
0.447967844129
0.401618814689
0.346705097389
0.288086867569
0.225421428161
0.154591722856
0.0780896541897
0.0219858686264
0.00254816148994
8.79875432884e-05
3.96720215008e-07
3.91962422195e-12
2.06216460239e-15
1.0000737853e-15
1.0002074058e-15
1.00007398431e-15
0.602652515491
0.542940580704
0.51464989597
0.493237373691
0.464476878489
0.424613368653
0.376991325985
0.324372835657
0.268911738471
0.207621231075
0.13308148467
0.0557501538438
0.0109748665833
0.000734219984129
1.13175976286e-05
1.5865871464e-09
6.9507263933e-14
1.01869306097e-15
1e-15
1.0002074058e-15
0.606205588031
0.54513955832
0.526003691
0.503747228107
0.472121299877
0.430533288823
0.386421030073
0.343806197336
0.29918425321
0.252053820622
0.191424236356
0.108755071111
0.03375996053
0.00396285258483
0.00012412486006
5.47312634518e-07
1.86776425415e-11
6.33150397562e-15
1.0002074058e-15
1e-15
0.603124112148
0.543488335194
0.529403693323
0.507203485014
0.472733055089
0.429305309944
0.384526136489
0.343979375443
0.312427576722
0.281759681043
0.239574050153
0.166582966823
0.0728786921799
0.0138196019295
0.000775985840857
8.85989963707e-06
1.91403207456e-09
4.62876232159e-13
1.16843787851e-15
1.00373994175e-15
0.606765805029
0.536955219575
0.526438074063
0.50459544282
0.468773151379
0.422341838794
0.37615087995
0.338501738221
0.313656557247
0.297461658319
0.271362537232
0.212174494894
0.116441615029
0.0321472054864
0.00292906268114
5.91269543448e-05
1.34338682075e-07
2.85125792524e-11
9.40571647052e-15
1.01886020889e-15
0.603124112148
0.52545561675
0.514398337474
0.491363345716
0.453255785929
0.404195991577
0.357658370224
0.324724319687
0.310340455347
0.304552910033
0.288848516718
0.23988644429
0.150274932312
0.0539084299857
0.00710706191071
0.000218057483638
1.05612627742e-06
6.08773327082e-10
2.40757976653e-13
1.10445576247e-15
0.606213683694
0.510686348699
0.496187956474
0.466614552417
0.424410810892
0.37434923731
0.330873611317
0.30778777958
0.307297686748
0.307238689466
0.298704973589
0.256314966446
0.172471775483
0.0725967388549
0.0124424513915
0.000528229105068
3.87418062812e-06
3.67058479423e-09
1.88088654587e-12
1.74293835067e-15
0.602791832394
0.497431457914
0.476864455674
0.43891385905
0.391676394123
0.342660992522
0.308146922508
0.307416040544
0.307357584553
0.309469014114
0.307130327172
0.270757208802
0.190847481151
0.0889025230101
0.0185062435915
0.00102920070117
1.03184082137e-05
1.27426763865e-08
7.00391758477e-12
3.52974166123e-15
0.604066703815
0.486871660296
0.460341355881
0.419736047074
0.372698688538
0.328903253442
0.30753840944
0.307476832943
0.307416040544
0.319807659804
0.321469862594
0.291100102035
0.216072552759
0.110970339481
0.0277929210164
0.00206299820613
2.95876095021e-05
4.46974367263e-08
1.6187336948e-11
3.66950371571e-15
0.602473845602
0.476909592366
0.447178901973
0.411838820748
0.370266850811
0.329576626277
0.307598731454
0.308800348078
0.322273388808
0.341618470113
0.34303132531
0.321852665207
0.259674563158
0.153524841566
0.0483298615197
0.00511957857136
0.000117728435051
3.68289450733e-07
1.58181129561e-11
1.5949725144e-15
0.597300560455
0.467443712703
0.441402997931
0.412973580921
0.376000101258
0.340846558795
0.324902876454
0.331890358577
0.3493501458
0.356835481757
0.355652539867
0.350059526454
0.318567307222
0.225979795267
0.094654483665
0.0152355284729
0.00061136229521
4.41732925097e-06
5.64324330248e-10
7.81257380099e-15
0.569632037107
0.465618259849
0.45365984746
0.435193242033
0.404959878072
0.373031621534
0.359781334707
0.363050786247
0.366237714324
0.359196526782
0.354652592193
0.354143929162
0.352400366086
0.302689040213
0.17417651194
0.0439530172472
0.00311258564896
4.67821268812e-05
5.52879938051e-08
2.81077569083e-13
0.545331948315
0.484644014921
0.497928710349
0.493022709792
0.461901732196
0.420165721243
0.396317067866
0.38430775371
0.368219455377
0.353061565628
0.345575583718
0.350825079639
0.352340111662
0.34884539083
0.258436394918
0.0996516165488
0.0125277395356
0.000380403480625
2.0119779143e-06
2.72511605136e-11
0.54743739151
0.5346787451
0.565608213203
0.565447064201
0.525535192602
0.466896636667
0.425104914151
0.395417345787
0.364873862857
0.336144081361
0.323953794599
0.335642843721
0.351287707102
0.351133584541
0.307592789992
0.166461666413
0.035560038815
0.00203363288995
2.42687712564e-05
3.7841760585e-09
0.566304617983
0.588517022722
0.619291983945
0.616675085325
0.575818170029
0.507817813486
0.448873610039
0.402170262609
0.357107625177
0.314845363813
0.302141353188
0.313503478748
0.338602637095
0.349399401458
0.32411464184
0.217150443281
0.0710454746158
0.00707549092857
0.000153580118255
3.38520953731e-07
0.599580139119
0.625747829374
0.643063931394
0.640467295776
0.606184119725
0.538862747267
0.46863102122
0.406648025262
0.348648698492
0.301269997667
0.29276376665
0.299223524624
0.317596425785
0.336987762348
0.322882324765
0.248942614459
0.10992474859
0.0171580048171
0.000622137425605
3.80706879688e-06
0.628219469629
0.64716156983
0.655434576931
0.65230422681
0.621952135611
0.557290385191
0.481164483749
0.407895588298
0.339900519518
0.294732003204
0.290560386642
0.293286352418
0.302502877443
0.316218498394
0.317481428236
0.27175204631
0.147303822952
0.0324699393717
0.00182354345587
1.97079361868e-05
0.651934719868
0.658990589455
0.66261726502
0.658945930455
0.6295349291
0.56539246944
0.48534315213
0.405487947353
0.329038491556
0.291370485553
0.290170339545
0.290745747822
0.295035760321
0.303368310554
0.31613346732
0.292186929718
0.185446501913
0.053558560013
0.00438018806055
7.34033370041e-05
0.680682521044
0.664655391526
0.664429348478
0.661178305923
0.63120590615
0.566201609123
0.483630839333
0.396197351111
0.316501878784
0.290194365506
0.290107482529
0.289958179393
0.291333048884
0.29858956981
0.319456446007
0.314896096897
0.227416442836
0.0821719645394
0.00952119095602
0.000240342050534
0.692390719547
0.665350191058
0.664430389868
0.659464211208
0.627425787688
0.560023885823
0.472357969838
0.378778031704
0.304408341239
0.290107482529
0.289610054384
0.290107482529
0.289841275335
0.295052307478
0.32701852471
0.343179112187
0.268538901411
0.118207530671
0.0190944202581
0.000720048444171
0.696549357968
0.663010956963
0.65958449823
0.649954186798
0.612244040776
0.540369997402
0.44868714935
0.354589498453
0.294657261187
0.289803264639
0.289880933409
0.289335183106
0.290107482529
0.29276709837
0.339327385595
0.362777992985
0.30147702361
0.156392576897
0.0338570048013
0.00186378638671
0.695392302469
0.656431853047
0.648383513964
0.630615033375
0.585195133531
0.509177549737
0.416873993065
0.328314808035
0.290084797886
0.289880933409
0.289245921199
0.289880933409
0.289069791395
0.294957547918
0.354386886244
0.363020635447
0.320737831183
0.18893407146
0.0518121777922
0.0039890521827
0.700560436504
0.646635236745
0.631593795524
0.603452062945
0.549670867518
0.470419340636
0.380370935286
0.304692967011
0.289880933409
0.289393333541
0.289662000127
0.288842344636
0.289880933409
0.302789854495
0.362828190337
0.362777992985
0.329707178177
0.210786224466
0.0695583077957
0.0071955068533
0.695507689435
0.633662656663
0.608462839516
0.568848545038
0.507099910849
0.426164180651
0.341893362502
0.291239800295
0.28955020666
0.289662000127
0.288739611152
0.289662000127
0.288753558589
0.320436858803
0.362777992985
0.363005932114
0.333134375011
0.225693834597
0.0864070829916
0.0115073642185
0.70205900344
0.615151823628
0.57554253021
0.524275656566
0.457326987314
0.379096882919
0.30759834205
0.289636659022
0.289662000127
0.288827967744
0.289329854835
0.288587221893
0.289662000127
0.342337421993
0.362972715567
0.362777992985
0.336094135083
0.241220723092
0.104892484712
0.0171059724013
0.696264944951
0.587996098137
0.528569162904
0.466392570976
0.399877838547
0.332560866441
0.29017116878
0.289662000127
0.288881769358
0.289329854835
0.288333527027
0.289329854835
0.300944242552
0.355502741155
0.362777992985
0.362834369464
0.342891436312
0.263861694096
0.128061622502
0.0243113916109
1e-15
1e-15
1e-15
1e-15
1e-15
1e-15
1e-15
1e-15
1e-15
1e-15
1e-15
1e-15
1e-15
1e-15
1e-15
1e-15
1e-15
1e-15
1e-15
1e-15
1e-15
1e-15
1e-15
1e-15
1e-15
1e-15
1e-15
1e-15
1e-15
1e-15
1e-15
1e-15
1e-15
1e-15
1e-15
1e-15
1e-15
1e-15
1e-15
1e-15
1e-15
1e-15
1e-15
1e-15
1e-15
1e-15
1e-15
1e-15
1e-15
1e-15
1e-15
1e-15
1e-15
1e-15
1e-15
1e-15
1e-15
1e-15
1e-15
1e-15
1e-15
1e-15
1e-15
1e-15
1e-15
1e-15
1e-15
1e-15
1e-15
1e-15
1e-15
1e-15
1e-15
1e-15
1e-15
1e-15
1e-15
1e-15
1e-15
1e-15
1e-15
1e-15
1e-15
1e-15
1e-15
1e-15
1e-15
1e-15
1e-15
1e-15
1e-15
1e-15
1e-15
1e-15
1e-15
1e-15
1.00264178372e-15
1e-15
1e-15
1e-15
1e-15
1e-15
1e-15
1e-15
1e-15
1e-15
1e-15
1e-15
1e-15
1e-15
1e-15
1e-15
1e-15
1e-15
1e-15
1e-15
1.00296697381e-15
1e-15
1e-15
1.03044958518e-15
1e-15
1e-15
1e-15
1e-15
1e-15
1e-15
1.00002364001e-15
1.00020157241e-15
1.00041178459e-15
1.00053655388e-15
1.00047660445e-15
1.00011891191e-15
1e-15
1e-15
1e-15
1.00261803497e-15
1.00295999737e-15
1e-15
1e-15
1.07617794512e-15
1e-15
1.0002942738e-15
1.00031006988e-15
1.000255668e-15
1.00032000716e-15
1.00051818986e-15
1.00084183111e-15
1.00117873746e-15
1.00153489866e-15
1.00170181607e-15
1.00149092939e-15
1.00064194427e-15
1e-15
1e-15
1.00063870082e-15
1.00618841568e-15
1.00075636792e-15
1e-15
1e-15
1.1165119328e-15
1.00016910156e-15
1.00066040993e-15
1.00075243156e-15
1.00088632409e-15
1.00109726999e-15
1.00133432417e-15
1.00171966748e-15
1.002205663e-15
1.00266688532e-15
1.00289388961e-15
1.00241952465e-15
1.00100231456e-15
1e-15
1e-15
1.00514225076e-15
1.00852051594e-15
1e-15
1e-15
1e-15
1.15241006028e-15
1.00020020727e-15
1.00039589146e-15
1.00059607886e-15
1.0008157214e-15
1.00111364586e-15
1.00156000873e-15
1.0021379109e-15
1.00281022172e-15
1.0034152894e-15
1.0036333981e-15
1.00289796613e-15
1.00091550481e-15
1e-15
1.00008338645e-15
1.01377657677e-15
1.00891774413e-15
1e-15
1e-15
1e-15
1.18492704576e-15
1.0002074058e-15
1.00019461004e-15
1.0002074058e-15
1.00048688131e-15
1.00098672259e-15
1.00162942457e-15
1.00242474491e-15
1.00346362592e-15
1.00439127352e-15
1.00424643146e-15
1.00322748265e-15
1.00086328057e-15
1e-15
1.00592463443e-15
1.01457149175e-15
1.00795007722e-15
1e-15
1e-15
1e-15
1.21565670094e-15
1.00013736042e-15
1.0002074058e-15
1.00017122177e-15
1.0003868301e-15
1.00105525894e-15
1.00194779383e-15
1.00309838299e-15
1.00503480111e-15
1.00657744864e-15
1.0054470128e-15
1.00377394296e-15
1.00109858675e-15
1e-15
1.01395180107e-15
1.01456823455e-15
1.00586977377e-15
1e-15
1e-15
1e-15
1.24344294312e-15
1.0002074058e-15
1.00010885097e-15
1.0002074058e-15
1.00095852087e-15
1.00191926784e-15
1.00315586545e-15
1.00499906539e-15
1.00823711106e-15
1.01002128985e-15
1.0079383946e-15
1.00490584861e-15
1.00203827764e-15
1.00379226144e-15
1.01478878472e-15
1.01397546503e-15
1.00308522723e-15
1e-15
1e-15
1e-15
1.26702187159e-15
1.00000818649e-15
1.0002074058e-15
1.00172799619e-15
1.00321438905e-15
1.00439797691e-15
1.00596423045e-15
1.00854997541e-15
1.01171831028e-15
1.01266005052e-15
1.01099900814e-15
1.00693928515e-15
1.00422917597e-15
1.01319735037e-15
1.01478542924e-15
1.0126796219e-15
1e-15
1e-15
1.0016818194e-15
1e-15
1.28632196153e-15
1.0002074058e-15
1.00420913453e-15
1.00663204736e-15
1.00749304514e-15
1.00857292202e-15
1.01014081131e-15
1.01231245868e-15
1.01380107925e-15
1.01389177919e-15
1.01305072214e-15
1.0096051927e-15
1.00708885591e-15
1.01478542924e-15
1.01478852284e-15
1.01072782832e-15
1e-15
1e-15
1.0040152757e-15
1e-15
1.30268710343e-15
1.00690880861e-15
1.01216865756e-15
1.01245110357e-15
1.0126671596e-15
1.01321809063e-15
1.01406804485e-15
1.01487470833e-15
1.01483677269e-15
1.01470360801e-15
1.0141804524e-15
1.01201320295e-15
1.01141748836e-15
1.01483843917e-15
1.01456256187e-15
1.00806832837e-15
1e-15
1e-15
1.00575704042e-15
1e-15
1.31784334516e-15
1.01813286679e-15
1.01808798316e-15
1.01718026452e-15
1.01656786651e-15
1.01636372899e-15
1.01627973049e-15
1.01589504649e-15
1.0164819842e-15
1.01541112558e-15
1.01488016797e-15
1.01355262452e-15
1.01486399088e-15
1.01478542924e-15
1.0140563197e-15
1.00395286211e-15
1e-15
1e-15
1.01055262441e-15
1e-15
1.33305125261e-15
1.02255007565e-15
1.02062925028e-15
1.0189993672e-15
1.01787176676e-15
1.01725688193e-15
1.0169681682e-15
1.02018285607e-15
1.02399565436e-15
1.01575025312e-15
1.01515316204e-15
1.01410585559e-15
1.01478542924e-15
1.01481165128e-15
1.0129838425e-15
1e-15
1e-15
1e-15
1.01922361664e-15
1e-15
1.34891954714e-15
1.02284260923e-15
1.02058557529e-15
1.01880503152e-15
1.01757202668e-15
1.01690532927e-15
1.01686534883e-15
1.02705716015e-15
1.02757712247e-15
1.01517160049e-15
1.01499419685e-15
1.01409298536e-15
1.01486204583e-15
1.01478542924e-15
1.01076363318e-15
1e-15
1e-15
1e-15
1.02142854834e-15
1e-15
1.36484303985e-15
1.02075297898e-15
1.01823049413e-15
1.01638699724e-15
1.01511116338e-15
1.014423133e-15
1.01435390088e-15
1.02757700627e-15
1.02757692393e-15
1.01675759602e-15
1.01362717196e-15
1.01356323858e-15
1.01478542924e-15
1.01460327125e-15
1.00664782505e-15
1e-15
1e-15
1e-15
1.02142886294e-15
1e-15
1.3819837972e-15
1.01478439833e-15
1.01275876351e-15
1.01132881832e-15
1.01025519769e-15
1.00932382368e-15
1.01507506195e-15
1.02757681208e-15
1.02757700598e-15
1.02379450095e-15
1.01137093317e-15
1.01249105927e-15
1.01479858156e-15
1.01338199255e-15
1e-15
1e-15
1e-15
1e-15
1.02127122887e-15
1e-15
1.39296472698e-15
1.00623354489e-15
1.00545213414e-15
1.00479657175e-15
1.00418054165e-15
1.00557764135e-15
1.02225231146e-15
1.02739682628e-15
1.02740762107e-15
1.02662737294e-15
1.01119000896e-15
1.01121194258e-15
1.01457182051e-15
1.01058167913e-15
1e-15
1e-15
1e-15
1e-15
1.02085065824e-15
1e-15
1.67950928204e-15
1.00031919252e-15
1.00028201651e-15
1.00020464594e-15
1.0001215141e-15
1.00588581491e-15
1.02623118182e-15
1.02685697581e-15
1.02700702822e-15
1.02676816774e-15
1.01436217619e-15
1.01092176165e-15
1.01352026698e-15
1.0060847897e-15
1e-15
1e-15
1e-15
1e-15
1.02010833437e-15
1e-15
1.71810344722e-15
1e-15
1e-15
1e-15
1e-15
1.01139547048e-15
1.02589358963e-15
1.02626854721e-15
1.02656119691e-15
1.02667441117e-15
1.0229295133e-15
1.01091948205e-15
1.01228644588e-15
1.00077542047e-15
1e-15
1e-15
1e-15
1e-15
1.01950265889e-15
1e-15
1.71267927558e-15
1.16806277323e-15
1e-15
1e-15
1e-15
1.02019711429e-15
1.02511633399e-15
1.02583484432e-15
1.0263591546e-15
1.02636210943e-15
1.02565124995e-15
1.01321079447e-15
1.01093284116e-15
1e-15
1e-15
1e-15
1e-15
1e-15
1.01945537313e-15
1e-15
1.71799631329e-15
8.61043738581e-15
1e-15
1e-15
1.00153274413e-15
1.02251598769e-15
1.0246820839e-15
1.02613989743e-15
1.02655489575e-15
1.02636608934e-15
1.02591498608e-15
1.02002557917e-15
1.00957825435e-15
1e-15
1e-15
1e-15
1e-15
1.00085303738e-15
1.02015219437e-15
1e-15
1.71267927558e-15
1.99942504564e-13
1e-15
1e-15
1.01004939479e-15
1.02278607003e-15
1.02492566467e-15
1.0266692216e-15
1.02682981615e-15
1.0265959622e-15
1.02582652964e-15
1.02360305939e-15
1.0088001092e-15
1e-15
1e-15
1e-15
1e-15
1.00510587639e-15
1.02208745108e-15
1.00263238389e-15
1.71753980295e-15
4.99403345542e-12
1e-15
1e-15
1.01675504594e-15
1.02309718197e-15
1.02596587602e-15
1.0272250165e-15
1.02729511608e-15
1.02688392592e-15
1.02584901297e-15
1.02359822433e-15
1.00869012394e-15
1e-15
1e-15
1e-15
1e-15
1.00706150056e-15
1.02458646374e-15
1.02217765777e-15
1.71267927558e-15
2.81778923716e-10
1e-15
1e-15
1.01733953358e-15
1.0241695341e-15
1.0267892852e-15
1.02773627702e-15
1.02757896363e-15
1.02741089093e-15
1.026162918e-15
1.02353938671e-15
1.00897075006e-15
1e-15
1e-15
1e-15
1e-15
1.00834822212e-15
1.02722559079e-15
1.03273322664e-15
1.71723180748e-15
2.952970626e-08
1e-15
1e-15
1.01546256371e-15
1.02569491578e-15
1.02769848385e-15
1.02757896363e-15
1.02793417785e-15
1.02757896363e-15
1.02659386397e-15
1.02372622155e-15
1.00942893721e-15
1e-15
1e-15
1e-15
1e-15
1.00977607764e-15
1.02989284846e-15
1.0380368216e-15
1.71267927558e-15
4.76959456372e-07
1e-15
1e-15
1.00918130612e-15
1.02703963622e-15
1.02755213354e-15
1.02824418029e-15
1.02757896363e-15
1.027848887e-15
1.02701794868e-15
1.02432282547e-15
1.00944795021e-15
1e-15
1e-15
1e-15
1e-15
1.01149123038e-15
1.03251303118e-15
1.04232488911e-15
1.71707237502e-15
3.0376951935e-06
1e-15
1e-15
1.00399309968e-15
1.02755464717e-15
1.02827859053e-15
1.02757896363e-15
1.02821383444e-15
1.02757896363e-15
1.02757002555e-15
1.02471129308e-15
1.00892925275e-15
1e-15
1e-15
1e-15
1.00536221164e-15
1.01340241244e-15
1.03506019345e-15
1.04628581751e-15
1.71267927558e-15
1.33928978288e-05
1e-15
1e-15
1.00282765884e-15
1.02793909624e-15
1.02757896363e-15
1.02844835644e-15
1.02757896363e-15
1.02796159224e-15
1.02757896363e-15
1.02414884662e-15
1.00873902251e-15
1.00284984364e-15
1.00120061742e-15
1.00513141405e-15
1.00957104054e-15
1.0152106457e-15
1.03727023841e-15
1.04982677121e-15
1.71690386413e-15
4.43798428947e-05
1e-15
1e-15
1.0019249058e-15
1.02757896363e-15
1.02844436909e-15
1.02757896363e-15
1.02826372683e-15
1.02757896363e-15
1.02767930386e-15
1.02198044185e-15
1.00919983202e-15
1.00744333226e-15
1.00758132119e-15
1.0090562792e-15
1.01128102265e-15
1.01653998709e-15
1.03863303374e-15
1.05217139292e-15
1.71267927558e-15
0.000117501977232
1e-15
1e-15
1e-15
1.02799682409e-15
1.02757896363e-15
1.02848552315e-15
1.02757896363e-15
1.02796472034e-15
1.02757896363e-15
1.01897029078e-15
1.00956856699e-15
1.00858511666e-15
1.00891442464e-15
1.00992686543e-15
1.01210810048e-15
1.01711017748e-15
1.03892884349e-15
1.05312618085e-15
1.7167629279e-15
0.000259220356227
1e-15
1e-15
1e-15
1.02757896363e-15
1.02837509105e-15
1.02757896363e-15
1.02825878434e-15
1.02757896363e-15
1.02762536899e-15
1.01570513333e-15
1.00938225038e-15
1.00870031327e-15
1.00896074748e-15
1.00992250564e-15
1.01205993321e-15
1.01687856297e-15
1.03832887602e-15
1.05234140352e-15
1.71267927558e-15
0.000489491927319
7.89633791952e-08
1e-15
1e-15
1.01480567137e-15
1.02757896363e-15
1.02842632777e-15
1.02757896363e-15
1.02781879966e-15
1.02477796068e-15
1.01194561378e-15
1.00835403207e-15
1.00789602433e-15
1.00809344212e-15
1.00895909097e-15
1.01096403071e-15
1.01559331774e-15
1.03694134793e-15
1.05028764069e-15
1.71657215236e-15
0.000822990352701
3.47846770279e-07
1e-15
)
;

boundaryField
{
    emptyPatch
    {
        type            empty;
    }
    minY
    {
        type            fixedValue;
        value           uniform 1e-15;
    }
    maxY
    {
        type            inletOutlet;
        phi             phi.gas;
        inletValue      nonuniform List<scalar> 0();
        value           nonuniform List<scalar> 0();
    }
    water_to_cooler
    {
        type            zeroGradient;
    }
    water_to_heater
    {
        type            zeroGradient;
    }
    procBoundary2to3
    {
        type            processor;
        value           nonuniform List<scalar> 
41
(
0.701984437342
0.547108651796
0.470322745526
0.399228384333
0.341135021164
0.295153670416
0.289662000127
0.288839797578
0.289329854835
0.288289700636
0.289085382929
0.288471013034
0.315770529055
0.354215677286
0.360392420329
0.362575517847
0.357968492957
0.295888825009
0.157526021647
0.0339004604419
1e-15
1e-15
1.02793345879e-15
1.02757896363e-15
1.02796729363e-15
1.02757896363e-15
1.0169404725e-15
1.00829018278e-15
1.00655204135e-15
1.0061939544e-15
1.00638667694e-15
1.00713673756e-15
1.00891063602e-15
1.01321417375e-15
1.03530739522e-15
1.05053209824e-15
1.71267927558e-15
0.0013390496045
1.19826421314e-06
1e-15
1e-15
)
;
    }
}


// ************************************************************************* //
