/*--------------------------------*- C++ -*----------------------------------*\
| =========                 |                                                 |
| \\      /  F ield         | OpenFOAM: The Open Source CFD Toolbox           |
|  \\    /   O peration     | Version:  2312                                  |
|   \\  /    A nd           | Website:  www.openfoam.com                      |
|    \\/     M anipulation  |                                                 |
\*---------------------------------------------------------------------------*/
FoamFile
{
    version     2.0;
    format      ascii;
    arch        "LSB;label=32;scalar=64";
    class       surfaceScalarField;
    location    "0.035/water";
    object      phi.gas;
}
// * * * * * * * * * * * * * * * * * * * * * * * * * * * * * * * * * * * * * //

dimensions      [0 3 -1 0 0 0 0];

oriented        oriented;

internalField   nonuniform List<scalar> 
2929
(
1.23276081418e-07
8.76389507726e-07
1.94757452329e-07
8.60259257546e-07
1.90822701356e-07
6.39055507424e-07
1.98465890911e-07
5.03293931114e-07
2.2679171297e-07
4.4198225278e-07
2.64928208849e-07
4.2557310624e-07
2.9786472134e-07
4.32745962753e-07
3.12843596941e-07
4.47925164426e-07
3.09128743343e-07
4.54582754915e-07
2.96076975362e-07
4.43334159413e-07
2.85252705531e-07
4.20667580838e-07
2.77484019439e-07
4.08194749592e-07
2.67152008982e-07
4.15275769578e-07
2.49924463844e-07
4.33634867093e-07
2.29754745925e-07
4.58153379719e-07
2.10583187602e-07
4.85767684781e-07
1.93158204629e-07
5.15232264276e-07
1.77173045263e-07
5.46270223018e-07
1.61941247857e-07
5.78952540497e-07
6.13401581318e-07
1.45436513987e-07
3.13417403551e-07
8.30651983612e-07
3.09068908613e-07
8.24695377048e-07
2.91933169615e-07
6.4339044672e-07
2.80846818554e-07
5.08066156697e-07
2.88848241115e-07
4.36604006397e-07
3.08393339222e-07
4.14079581705e-07
3.27730176096e-07
4.22245976577e-07
3.34110825589e-07
4.46317763282e-07
3.26118030066e-07
4.64807253883e-07
3.1340844904e-07
4.61695603273e-07
3.05568536524e-07
4.40608775524e-07
3.03805478465e-07
4.2794734331e-07
3.0028741476e-07
4.347425334e-07
2.87250188665e-07
4.52282399152e-07
2.68415572163e-07
4.75636664404e-07
2.4900823187e-07
5.02045180354e-07
2.30535639791e-07
5.30373734795e-07
2.12994625049e-07
5.60354830706e-07
1.95784732381e-07
5.92060596747e-07
6.25624839331e-07
1.76961778773e-07
3.44525725474e-07
7.80247583398e-07
3.29502594348e-07
7.70217976804e-07
3.28909108936e-07
6.2997675176e-07
3.22332625863e-07
5.0700337274e-07
3.24088955549e-07
4.34122606102e-07
3.32016776248e-07
4.07819293531e-07
3.40411432848e-07
4.15351291468e-07
3.40546790127e-07
4.44736961023e-07
3.30169419032e-07
4.73129228485e-07
3.18282095363e-07
4.77336495324e-07
3.12762662258e-07
4.58049403073e-07
3.15344000596e-07
4.45545476583e-07
3.16453757718e-07
4.52728368477e-07
3.06380000528e-07
4.70183121355e-07
2.89327163712e-07
4.93052692819e-07
2.71034442646e-07
5.18818246303e-07
2.53145589518e-07
5.46455990337e-07
2.35723134572e-07
5.75734500669e-07
2.18182251446e-07
6.06742844464e-07
6.39634247943e-07
1.98609175555e-07
3.37966758823e-07
7.27803495893e-07
3.28253413594e-07
7.14248382281e-07
3.41141919229e-07
6.06011339169e-07
3.43144109893e-07
5.01138543895e-07
3.43711678579e-07
4.32802877215e-07
3.44563615179e-07
4.05312315076e-07
3.45107266651e-07
4.11550112573e-07
3.40956191017e-07
4.43194594312e-07
3.2918215014e-07
4.79538485746e-07
3.17732338978e-07
4.90375008366e-07
3.13314692592e-07
4.72962186991e-07
3.18690039872e-07
4.60685811381e-07
3.2299710681e-07
4.68648010086e-07
3.15195095768e-07
4.86560405675e-07
2.99800345695e-07
5.09482518806e-07
2.82826579061e-07
5.35065419773e-07
2.659326735e-07
5.62404538278e-07
2.49187074981e-07
5.91325522523e-07
2.32001549085e-07
6.21944921544e-07
6.54433079064e-07
2.12453023413e-07
3.24441224831e-07
6.79935660197e-07
3.26198293915e-07
6.61445792561e-07
3.45146001463e-07
5.80145424163e-07
3.51820432239e-07
4.94598865155e-07
3.51700068471e-07
4.33364289648e-07
3.49043932773e-07
4.06101609701e-07
3.44997821589e-07
4.10760098671e-07
3.37755054899e-07
4.42221216867e-07
3.25021044367e-07
4.84418471574e-07
3.14030354641e-07
5.0123326319e-07
3.10518654189e-07
4.85839958613e-07
3.18008101826e-07
4.74090719042e-07
3.24751600017e-07
4.83074942373e-07
3.18712104751e-07
5.01717927087e-07
3.04605883911e-07
5.24970613665e-07
2.88693690848e-07
5.5062264857e-07
2.72673123064e-07
5.77898200724e-07
2.56619199295e-07
6.06690314017e-07
2.39932960534e-07
6.37145100223e-07
6.69445376859e-07
2.20665609449e-07
3.35410391605e-07
6.27629596818e-07
3.49740075061e-07
6.11222723595e-07
3.62361706117e-07
5.5797535237e-07
3.63350456764e-07
4.92230238028e-07
3.5850388953e-07
4.38270637161e-07
3.51964493384e-07
4.11161739871e-07
3.44265232175e-07
4.13681161252e-07
3.3372019044e-07
4.43162356632e-07
3.19698406678e-07
4.88812947242e-07
3.08730459486e-07
5.10436708608e-07
3.06061785537e-07
4.97052129688e-07
3.15272290637e-07
4.86379049208e-07
3.23841033384e-07
4.96601654784e-07
3.18987747308e-07
5.16072465949e-07
3.05767123148e-07
5.39737707441e-07
2.90641156961e-07
5.65553813883e-07
2.75325674389e-07
5.92879019479e-07
2.59887184929e-07
6.21672249614e-07
2.43704857063e-07
6.52104038063e-07
6.843632603e-07
2.24794293953e-07
3.43189740684e-07
5.7807151189e-07
3.68436758676e-07
5.66685211806e-07
3.74700715645e-07
5.38323891531e-07
3.69423438844e-07
4.93019921892e-07
3.59781979005e-07
4.46743516716e-07
3.50524205992e-07
4.19649194243e-07
3.40506683461e-07
4.1990587944e-07
3.26505584858e-07
4.4663256676e-07
3.10922253661e-07
4.93308670261e-07
3.00320178888e-07
5.17790241661e-07
2.9945265627e-07
5.06221157161e-07
3.1045306531e-07
4.97659803475e-07
3.20392993273e-07
5.09405533691e-07
3.1627983514e-07
5.29737452742e-07
3.03745647644e-07
5.53814235011e-07
2.89324721924e-07
5.79821591115e-07
2.74689589306e-07
6.07254278968e-07
2.59877711443e-07
6.36130039061e-07
2.44242028976e-07
6.66636411263e-07
6.98962029723e-07
2.25762159571e-07
3.37754119456e-07
5.37117848356e-07
3.70339491658e-07
5.30157930853e-07
3.69440807633e-07
5.20928220137e-07
3.61068952976e-07
4.94673036267e-07
3.49907617129e-07
4.56598685482e-07
3.39066118274e-07
4.29304906564e-07
3.28295842894e-07
4.27545085091e-07
3.11623094211e-07
4.52004694799e-07
2.95424156086e-07
4.9758654687e-07
2.87073483848e-07
5.22364553054e-07
2.89593437194e-07
5.12390195296e-07
3.02856556931e-07
5.07505435016e-07
3.13814024256e-07
5.2116001372e-07
3.10251112759e-07
5.42430503196e-07
2.98511266729e-07
5.66953403226e-07
2.84955814677e-07
5.93205636396e-07
2.71146395187e-07
6.20818996225e-07
2.57084237823e-07
6.49863552503e-07
2.42107062995e-07
6.80538640003e-07
7.1302965819e-07
2.24168637222e-07
3.1785463337e-07
5.07821756573e-07
3.50318788906e-07
5.03288881161e-07
3.44414761588e-07
5.06347528253e-07
3.36042796587e-07
4.95327491228e-07
3.26509026665e-07
4.65542109843e-07
3.16861758228e-07
4.38379446302e-07
3.05829058673e-07
4.34931833477e-07
2.87809558534e-07
4.5784332997e-07
2.73848155505e-07
5.00577782112e-07
2.70127257975e-07
5.23335061793e-07
2.772522058e-07
5.15172294474e-07
2.93037600336e-07
5.15627387194e-07
3.04477525044e-07
5.3152783547e-07
3.01307286507e-07
5.53834753532e-07
2.90529324122e-07
5.78883670611e-07
2.78034600394e-07
6.05474973065e-07
2.65214966228e-07
6.33371904949e-07
2.52033652926e-07
6.6268983694e-07
2.37827671583e-07
6.93636170692e-07
7.2639276683e-07
2.20535322485e-07
2.91493942288e-07
4.91373670289e-07
3.18056498532e-07
4.87827376538e-07
3.10719634131e-07
4.96289388713e-07
3.03617956258e-07
4.95977129438e-07
2.97023664961e-07
4.73436520209e-07
2.88648789776e-07
4.4667447511e-07
2.76793005681e-07
4.41869806087e-07
2.59639831925e-07
4.63203276786e-07
2.50543169115e-07
5.01115725794e-07
2.52898501447e-07
5.20541337193e-07
2.64767876964e-07
5.15485874298e-07
2.82702988314e-07
5.22251672236e-07
2.93835173546e-07
5.40516569087e-07
2.90749015674e-07
5.63907097841e-07
2.8091318419e-07
5.89552260266e-07
2.69500441851e-07
6.16574304135e-07
2.57692746814e-07
6.44854499166e-07
2.45412518421e-07
6.74544123228e-07
2.3200517439e-07
7.05854848711e-07
7.38965259254e-07
2.15396535534e-07
2.86668381416e-07
4.8149063584e-07
3.11337050244e-07
4.80531942764e-07
2.94870883642e-07
4.91758810993e-07
2.83962596979e-07
4.99079082975e-07
2.75126727449e-07
4.82750512317e-07
2.63771792893e-07
4.56060455308e-07
2.49288147985e-07
4.49305600513e-07
2.34081686005e-07
4.67938397643e-07
2.31122532211e-07
4.99236282065e-07
2.39488514106e-07
5.15144441238e-07
2.5480470416e-07
5.15703681677e-07
2.7378634771e-07
5.28061401192e-07
2.83586278009e-07
5.48520260136e-07
2.80083663906e-07
5.72926849331e-07
2.70920557689e-07
5.99170899859e-07
2.60388514664e-07
6.26663781097e-07
2.49432617456e-07
6.55383641001e-07
2.37928823795e-07
6.85505179342e-07
2.25233563827e-07
7.17239471951e-07
7.5076081739e-07
2.0925438218e-07
2.87572602943e-07
4.76772758724e-07
3.1308966813e-07
4.78260979476e-07
2.90721099993e-07
4.91215941513e-07
2.75374009022e-07
5.03822874593e-07
2.60850818431e-07
4.93926890614e-07
2.43133305246e-07
4.67505571409e-07
2.2646056849e-07
4.5732506822e-07
2.14868755369e-07
4.71531140432e-07
2.17700729842e-07
4.95552793637e-07
2.3098089844e-07
5.09018648852e-07
2.48699440536e-07
5.17153578382e-07
2.67083150248e-07
5.33687612179e-07
2.74506559445e-07
5.55989920606e-07
2.70133547041e-07
5.81262260992e-07
2.61300025461e-07
6.08050697434e-07
2.51358011688e-07
6.36002302708e-07
2.4100559514e-07
6.65168676692e-07
2.30074401464e-07
6.95735737128e-07
2.17934791162e-07
7.27909930691e-07
7.61859759075e-07
2.02471170585e-07
2.8736988694e-07
4.75456109769e-07
3.12243617134e-07
4.78230126833e-07
2.89131183686e-07
4.92585325165e-07
2.70572725583e-07
5.08701409788e-07
2.50128904975e-07
5.05775286118e-07
2.27068000573e-07
4.80634037368e-07
2.09764941882e-07
4.65361933977e-07
2.03003616321e-07
4.73358935828e-07
2.10715810178e-07
4.9100881561e-07
2.27022607953e-07
5.05084198876e-07
2.46138706291e-07
5.19788273868e-07
2.62235534668e-07
5.3947645323e-07
2.66516571337e-07
5.63250001602e-07
2.61041470301e-07
5.89228407645e-07
2.52246295426e-07
6.16486771315e-07
2.42613410961e-07
6.44854055983e-07
2.32609992794e-07
6.74435294739e-07
2.220371201e-07
7.05419615615e-07
2.10283602696e-07
7.3800824126e-07
7.72363939223e-07
1.95207444859e-07
2.80251537895e-07
4.7660002244e-07
3.05591722341e-07
4.79613699231e-07
2.84672106963e-07
4.94935379603e-07
2.64202083769e-07
5.13259050719e-07
2.39876497423e-07
5.16939786993e-07
2.16263605197e-07
4.93920745967e-07
2.01441430746e-07
4.73220765483e-07
1.99700590996e-07
4.74330182141e-07
2.1057424906e-07
4.88265463406e-07
2.27963863215e-07
5.0510111772e-07
2.46196306277e-07
5.2388411328e-07
2.58534987902e-07
5.45861547348e-07
2.59306829596e-07
5.7071103252e-07
2.52596184849e-07
5.97198956194e-07
2.43561878784e-07
6.24805106533e-07
2.33967205692e-07
6.53494514522e-07
2.24079748978e-07
6.83407043169e-07
2.13682960605e-07
7.14730018756e-07
2.02180904148e-07
7.4766093396e-07
7.8235791488e-07
1.87397586814e-07
2.65931328019e-07
4.82482260439e-07
2.89364632096e-07
4.83608598112e-07
2.72578482784e-07
4.98603688063e-07
2.51910919715e-07
5.1823898875e-07
2.28404369384e-07
5.27095745305e-07
2.10683926753e-07
5.0582631433e-07
2.01170348126e-07
4.80672899566e-07
2.0325344961e-07
4.76589483962e-07
2.14974060179e-07
4.89763590788e-07
2.3138977055e-07
5.08701396174e-07
2.46559676281e-07
5.29776398342e-07
2.54115984632e-07
5.53228420813e-07
2.51524975097e-07
5.78704909298e-07
2.43634823209e-07
6.05448235901e-07
2.34261104575e-07
6.33222808279e-07
2.24593666764e-07
6.62087646855e-07
2.14740469098e-07
6.92198795017e-07
2.04478721008e-07
7.23739074508e-07
1.93219325022e-07
7.56904069945e-07
7.91847960613e-07
1.78742883208e-07
2.65379962563e-07
4.88803667448e-07
2.9157728009e-07
4.88741531998e-07
2.69262928223e-07
5.03927485909e-07
2.4478808598e-07
5.25065387517e-07
2.22319782801e-07
5.37507578983e-07
2.09911989172e-07
5.16721875255e-07
2.05777343393e-07
4.88011064814e-07
2.09680025377e-07
4.81827560188e-07
2.19862910536e-07
4.95131036569e-07
2.32749264908e-07
5.14857584695e-07
2.43036253824e-07
5.37109543922e-07
2.45605103374e-07
5.61299354817e-07
2.40449684951e-07
5.8699349123e-07
2.31910855036e-07
6.13764120639e-07
2.22544468423e-07
6.41545821797e-07
2.13072745115e-07
6.7045108926e-07
2.03495155498e-07
7.00637975317e-07
1.93597581323e-07
7.32285233425e-07
1.82792788271e-07
7.65587363539e-07
8.00694457714e-07
1.68814628996e-07
2.67738476749e-07
4.95051928293e-07
2.95192724784e-07
4.94216523617e-07
2.69252781247e-07
5.09995130956e-07
2.41778432429e-07
5.33801443742e-07
2.18914265315e-07
5.4882974255e-07
2.10309640297e-07
5.26915236389e-07
2.10353221225e-07
4.95234479791e-07
2.1349743027e-07
4.88799303371e-07
2.19501072914e-07
5.01834326892e-07
2.26650879018e-07
5.21746896808e-07
2.31285119646e-07
5.44471667254e-07
2.29952365018e-07
5.68951192926e-07
2.23678753356e-07
5.94674399987e-07
2.15492547245e-07
6.21392144514e-07
2.06885351611e-07
6.49130660323e-07
1.98224391734e-07
6.78030200157e-07
1.89461002044e-07
7.08248685121e-07
1.80401047468e-07
7.39963764205e-07
1.70458504959e-07
7.73369000234e-07
8.08610633593e-07
1.57329550062e-07
2.66048623859e-07
5.01157681408e-07
2.96291442513e-07
4.99627521386e-07
2.69094794662e-07
5.1664130251e-07
2.37536581631e-07
5.45858566067e-07
2.13650073672e-07
5.62135557342e-07
2.07904301743e-07
5.36419920175e-07
2.08846823027e-07
5.0203431372e-07
2.09384376356e-07
4.95394794245e-07
2.10272143242e-07
5.0805176167e-07
2.11466177906e-07
5.27809117505e-07
2.11202949766e-07
5.50650794728e-07
2.07587682215e-07
5.75206114607e-07
2.01469625661e-07
6.00896650041e-07
1.94488864603e-07
6.27561119559e-07
1.87323680297e-07
6.55276617179e-07
1.80089990721e-07
6.84197571178e-07
1.7271030425e-07
7.14480552298e-07
1.64995557664e-07
7.46300114404e-07
1.56354348989e-07
7.79846891972e-07
8.15262483445e-07
1.44456034749e-07
2.61288361983e-07
5.0792929119e-07
2.9187600882e-07
5.05101732946e-07
2.6392110678e-07
5.25097068976e-07
2.24723976699e-07
5.64051816977e-07
1.99769200359e-07
5.78026440879e-07
1.96469188703e-07
5.45233910887e-07
1.96814148323e-07
5.08193335297e-07
1.94865432513e-07
5.00880407594e-07
1.92355322949e-07
5.12955088468e-07
1.89287924832e-07
5.32288530929e-07
1.85586494372e-07
5.54961349841e-07
1.80977551035e-07
5.79436800158e-07
1.75793357349e-07
6.05056393165e-07
1.70524118953e-07
6.31693881646e-07
1.6524752769e-07
6.59448046731e-07
1.59883448796e-07
6.8847236966e-07
1.54305298051e-07
7.18912841513e-07
1.48307188843e-07
7.50933933202e-07
1.41286707324e-07
7.84719846557e-07
8.20405249261e-07
1.30898515092e-07
2.5311910438e-07
5.18319476599e-07
2.81169328188e-07
5.12082959483e-07
2.42811655602e-07
5.38125395448e-07
1.95181104657e-07
5.86836456441e-07
1.74694578706e-07
5.93398297897e-07
1.74837852786e-07
5.52356075654e-07
1.74798345886e-07
5.13262791664e-07
1.71804568262e-07
5.03899698798e-07
1.67721760622e-07
5.15063086537e-07
1.62328819297e-07
5.33849851821e-07
1.56841667963e-07
5.56299174279e-07
1.52446351688e-07
5.8076279952e-07
1.48911095228e-07
6.06469328412e-07
1.45797629553e-07
6.33266338301e-07
1.42743204089e-07
6.61249341886e-07
1.39518834903e-07
6.9056035052e-07
1.35952504835e-07
7.21330625514e-07
1.31828056305e-07
7.53713297711e-07
1.26541797635e-07
7.87886263802e-07
8.23977248584e-07
1.17754940482e-07
2.65896049538e-07
5.25865662655e-07
2.73666506769e-07
5.19609811587e-07
2.12757998067e-07
5.54383780297e-07
1.68804448184e-07
6.06240760808e-07
1.55200722555e-07
6.04202331816e-07
1.55472837766e-07
5.57992918476e-07
1.53363236961e-07
5.17637151762e-07
1.49629216897e-07
5.03888139979e-07
1.44380434965e-07
5.13611580205e-07
1.37098119023e-07
5.31796595082e-07
1.30313851177e-07
5.54184808081e-07
1.26521156629e-07
5.78913117255e-07
1.24751040158e-07
6.05019836342e-07
1.23748986259e-07
6.32275247949e-07
1.22799452922e-07
6.60755338492e-07
1.21560268704e-07
6.90588963096e-07
1.19829158643e-07
7.21895498219e-07
1.17390996113e-07
7.54819952015e-07
1.136504181e-07
7.89536497354e-07
8.26168691501e-07
1.06292731774e-07
2.70192597841e-07
5.31569093354e-07
2.49686421883e-07
5.28985270445e-07
1.90675804243e-07
5.68178663434e-07
1.64178233886e-07
6.15429567135e-07
1.55047327536e-07
6.10194434137e-07
1.51147938417e-07
5.63950165147e-07
1.45753293426e-07
5.23092458595e-07
1.4078751538e-07
5.04380403011e-07
1.33991788316e-07
5.10703874407e-07
1.23789785088e-07
5.27798674455e-07
1.14233549966e-07
5.50030183661e-07
1.09604488094e-07
5.75122130383e-07
1.08376377747e-07
6.01803146445e-07
1.08448444773e-07
6.29694019405e-07
1.08710752939e-07
6.58828254723e-07
1.08676324218e-07
6.89319052143e-07
1.08093664473e-07
7.21276487334e-07
1.06735512663e-07
7.54839797721e-07
1.04009388562e-07
7.90181448801e-07
8.27424029594e-07
9.76291114505e-08
2.62063431566e-07
5.40036236463e-07
2.33791486853e-07
5.38907122053e-07
1.916771032e-07
5.76916643505e-07
1.77124043547e-07
6.17454589465e-07
1.69121093535e-07
6.14047916922e-07
1.61761089804e-07
5.71316538215e-07
1.54377012022e-07
5.30895311102e-07
1.47806432868e-07
5.08756674376e-07
1.39910643638e-07
5.09497564023e-07
1.26913155203e-07
5.2473253983e-07
1.13150008461e-07
5.46304567932e-07
1.05440471008e-07
5.71456440869e-07
1.02747521915e-07
5.98567127658e-07
1.02243508096e-07
6.27010652134e-07
1.02348817415e-07
6.56734459912e-07
1.02361228925e-07
6.87825449997e-07
1.01936675393e-07
7.20383421904e-07
1.00808630283e-07
7.54542046204e-07
9.83723438567e-08
7.90472097096e-07
8.28295640568e-07
9.2360602115e-08
2.5313504441e-07
5.51702884523e-07
2.29194877477e-07
5.48176698793e-07
1.98914843866e-07
5.81963328033e-07
1.87101855046e-07
6.17413072553e-07
1.80730903557e-07
6.16212973679e-07
1.74837168803e-07
5.78263525583e-07
1.68448184252e-07
5.39822802216e-07
1.61591984038e-07
5.16199143545e-07
1.54122497215e-07
5.11175603849e-07
1.40699230768e-07
5.24196704698e-07
1.23907014749e-07
5.44665754029e-07
1.12226415957e-07
5.69427242497e-07
1.06656502227e-07
5.96637676519e-07
1.04259919386e-07
6.25385090194e-07
1.03068414927e-07
6.55487129679e-07
1.02142303349e-07
6.86991240848e-07
1.01021322164e-07
7.19985046927e-07
9.93812919092e-08
7.54595936009e-07
9.65911670672e-08
7.90991060279e-07
8.29290298475e-07
9.039438869e-08
2.45177087849e-07
5.66013464196e-07
2.23809466423e-07
5.58211511613e-07
1.98194809649e-07
5.86158609502e-07
1.8668397544e-07
6.17595932837e-07
1.82825846992e-07
6.16981868104e-07
1.81510730865e-07
5.82969501227e-07
1.78514950734e-07
5.47750473926e-07
1.7339210963e-07
5.24410521209e-07
1.6756649496e-07
5.15278048086e-07
1.56178399684e-07
5.26053717608e-07
1.39164214903e-07
5.45321815079e-07
1.24613429717e-07
5.69430621431e-07
1.16058493433e-07
5.9646551672e-07
1.11356473704e-07
6.2528358947e-07
1.08409920545e-07
6.55552596263e-07
1.06100593059e-07
6.87272827175e-07
1.03862677268e-07
7.20519776332e-07
1.01313063145e-07
7.55415435882e-07
9.77932983141e-08
7.92123348226e-07
8.30761717494e-07
9.10634617462e-08
2.54320680741e-07
5.75128809611e-07
2.34756353987e-07
5.66221583547e-07
2.0293937582e-07
5.91882541788e-07
1.87443432072e-07
6.20155935654e-07
1.82362362043e-07
6.18523373613e-07
1.831650596e-07
5.86413739263e-07
1.83422849595e-07
5.54068946399e-07
1.80941190548e-07
5.32025601946e-07
1.77144770578e-07
5.20869293226e-07
1.68603794069e-07
5.29613664363e-07
1.5337891666e-07
5.47805971632e-07
1.37729446298e-07
5.71193808956e-07
1.26936926857e-07
5.97892125786e-07
1.20214789924e-07
6.26620847147e-07
1.15635592396e-07
6.56907528139e-07
1.11988824793e-07
6.88700210242e-07
1.08626693433e-07
7.22060043565e-07
1.05116932512e-07
7.57104413828e-07
1.00781822473e-07
7.93994767772e-07
8.3284972146e-07
9.34065018192e-08
2.60136314662e-07
5.81667306287e-07
2.39830815582e-07
5.72455479374e-07
2.04480791554e-07
5.97958449598e-07
1.8551471468e-07
6.2425769298e-07
1.78910796973e-07
6.20524967206e-07
1.8052700721e-07
5.88727496127e-07
1.83194814758e-07
5.58489970888e-07
1.83549156588e-07
5.38069863256e-07
1.82006069933e-07
5.26475259426e-07
1.76282719594e-07
5.33844472686e-07
1.636171302e-07
5.51249589827e-07
1.48351616188e-07
5.74023063672e-07
1.36415053488e-07
6.00372725649e-07
1.28362827367e-07
6.28960587329e-07
1.22624692517e-07
6.59206566849e-07
1.17984552918e-07
6.91006899353e-07
1.13751501914e-07
7.24409070107e-07
1.09464786539e-07
7.59527031746e-07
1.0443899126e-07
7.96521633982e-07
8.3551378865e-07
9.6490396845e-08
2.60654535777e-07
5.87950836716e-07
2.38649818697e-07
5.77744575434e-07
2.03412468015e-07
6.03639439256e-07
1.82936610324e-07
6.29158772897e-07
1.75123169096e-07
6.23050169043e-07
1.7665826053e-07
5.90386375871e-07
1.80621940035e-07
5.61420070356e-07
1.83194259739e-07
5.42523427867e-07
1.8357442577e-07
5.31311247244e-07
1.80041563136e-07
5.3797445607e-07
1.6971110812e-07
5.54895025505e-07
1.55506004779e-07
5.77233964121e-07
1.43305407104e-07
6.033194494e-07
1.34630281456e-07
6.31804228137e-07
1.28276391269e-07
6.62025665295e-07
1.23069776579e-07
6.9383764835e-07
1.18305283889e-07
7.27275714845e-07
1.13512578333e-07
7.62451128231e-07
1.08009604452e-07
7.9952540701e-07
8.38622834089e-07
9.96475104984e-08
2.57517545983e-07
5.93424299588e-07
2.34551753984e-07
5.83236570528e-07
2.01608069535e-07
6.09175509236e-07
1.81770859706e-07
6.3437159846e-07
1.73557121955e-07
6.2617691133e-07
1.7456416896e-07
5.92179724153e-07
1.79048646283e-07
5.63704408311e-07
1.82669733865e-07
5.46089037127e-07
1.84166607203e-07
5.35556932659e-07
1.81990641919e-07
5.41853596201e-07
1.73285394492e-07
5.58476403367e-07
1.60081603117e-07
5.80512349059e-07
1.47983242279e-07
6.06411352166e-07
1.39085414092e-07
6.34843573425e-07
1.32481226427e-07
6.65078184912e-07
1.27028888417e-07
6.96932426039e-07
1.22007504256e-07
7.30428712694e-07
1.16941889845e-07
7.65676173595e-07
1.11156861382e-07
8.02837348714e-07
8.42039628239e-07
1.02539164159e-07
2.50160529226e-07
6.01461856315e-07
2.25692353285e-07
5.90747781175e-07
1.95471901951e-07
6.15216936225e-07
1.77981833767e-07
6.39153813174e-07
1.71102233773e-07
6.28922706112e-07
1.7272561365e-07
5.93615473796e-07
1.77720379015e-07
5.65431400953e-07
1.82076582352e-07
5.48963157946e-07
1.84270598185e-07
5.39294109411e-07
1.82980695594e-07
5.45395974496e-07
1.75426183064e-07
5.61860244188e-07
1.63063104941e-07
5.83704067699e-07
1.51199717487e-07
6.0949091912e-07
1.42271349191e-07
6.37922330883e-07
1.35602653638e-07
6.68214017504e-07
1.30077770668e-07
7.00147050005e-07
1.24961707896e-07
7.33732016807e-07
1.19770989259e-07
7.69076187691e-07
1.13834497336e-07
8.0634315755e-07
8.45663363928e-07
1.05073286014e-07
2.5609127048e-07
6.06296417347e-07
2.32289029007e-07
5.96664263548e-07
1.97283047561e-07
6.22235329382e-07
1.77406116086e-07
6.44837316422e-07
1.69568565986e-07
6.31872695042e-07
1.71094784939e-07
5.94810637655e-07
1.76286840003e-07
5.66687483886e-07
1.81130135209e-07
5.51221462208e-07
1.83912449348e-07
5.42491857077e-07
1.83366495831e-07
5.48577207433e-07
1.76799271833e-07
5.65008482785e-07
1.65221848916e-07
5.86758716703e-07
1.53650855795e-07
6.12505225695e-07
1.4477005733e-07
6.40985630855e-07
1.38095480287e-07
6.71374007685e-07
1.32552096965e-07
7.03420209978e-07
1.27400933287e-07
7.37124098302e-07
1.22148764764e-07
7.72590015867e-07
1.16124888514e-07
8.09982617251e-07
8.49435933961e-07
1.07279255863e-07
2.6103781555e-07
6.09930558786e-07
2.36493186537e-07
6.01133783753e-07
1.99730738483e-07
6.28716535398e-07
1.77544086065e-07
6.50929326318e-07
1.68193711882e-07
6.3502698508e-07
1.68955765181e-07
5.95831201435e-07
1.74054886201e-07
5.6745359728e-07
1.79354364783e-07
5.52834352019e-07
1.8289012309e-07
5.4506338929e-07
1.83227525975e-07
5.51430350293e-07
1.77746854424e-07
5.67977245044e-07
1.67050852489e-07
5.89734354265e-07
1.55825434552e-07
6.15506128478e-07
1.46997450567e-07
6.44073451007e-07
1.40300228816e-07
6.74582962615e-07
1.34720358468e-07
7.06761800614e-07
1.29522641342e-07
7.4060203804e-07
1.24211082095e-07
7.76204840186e-07
1.18114549433e-07
8.1373580688e-07
8.53332283543e-07
1.09206198222e-07
2.61750339963e-07
6.12831978224e-07
2.36896581771e-07
6.04530014101e-07
2.0202761895e-07
6.33752590408e-07
1.79908608094e-07
6.56825546655e-07
1.68962061265e-07
6.39112287518e-07
1.68131323305e-07
5.97536491818e-07
1.72483269539e-07
5.68347329841e-07
1.77936390907e-07
5.54230320082e-07
1.82030545026e-07
5.47333685764e-07
1.83155017627e-07
5.54214515995e-07
1.78706075795e-07
5.709876258e-07
1.68871132132e-07
5.92811931286e-07
1.57958256288e-07
6.18631288162e-07
1.49119740466e-07
6.47284178437e-07
1.42341786527e-07
6.77908374395e-07
1.36678818857e-07
7.10215369474e-07
1.31401346196e-07
7.44188093478e-07
1.2601196356e-07
7.7992773229e-07
1.19838241708e-07
8.17598629983e-07
8.57340576038e-07
1.10872632879e-07
2.5972238195e-07
6.15038147828e-07
2.35676571479e-07
6.07858043686e-07
2.03697039154e-07
6.38180651859e-07
1.8279323205e-07
6.62587223062e-07
1.71235210183e-07
6.44142449215e-07
1.69029436868e-07
6.00345146518e-07
1.72407752214e-07
5.69927907683e-07
1.7761713816e-07
5.55904514459e-07
1.81950956971e-07
5.49703525448e-07
1.83533029744e-07
5.57191320193e-07
1.79771935537e-07
5.74215311137e-07
1.70564471604e-07
5.96110221937e-07
1.59847965056e-07
6.21954186144e-07
1.50954295625e-07
6.50661754075e-07
1.4407665936e-07
6.81374010333e-07
1.38319547588e-07
7.13789081015e-07
1.3296528447e-07
7.47881088988e-07
1.27504636599e-07
7.83748237651e-07
1.21265210257e-07
8.21554217172e-07
8.61440137225e-07
1.12256783565e-07
2.5111933479e-07
6.21031419898e-07
2.26368796369e-07
6.12872707671e-07
1.97130448978e-07
6.42561028977e-07
1.78444218538e-07
6.67381122309e-07
1.68919864725e-07
6.48119145166e-07
1.67501888892e-07
6.02783708172e-07
1.71052251931e-07
5.71413293656e-07
1.76489811845e-07
5.57450896204e-07
1.81240563249e-07
5.51912587895e-07
1.83254076826e-07
5.60103203428e-07
1.80057937788e-07
5.77434629403e-07
1.71364935535e-07
5.99440023092e-07
1.60898692871e-07
6.25326841802e-07
1.52072927351e-07
6.54094878109e-07
1.45204210653e-07
6.84893283623e-07
1.39441739134e-07
7.17412920731e-07
1.34076895732e-07
7.51623155082e-07
1.28600191062e-07
7.87616835616e-07
1.2234065647e-07
8.25559246214e-07
8.65591778276e-07
1.13325995605e-07
2.56897116608e-07
6.23808706414e-07
2.32762504754e-07
6.16446636147e-07
1.98308763938e-07
6.47958729118e-07
1.76585499854e-07
6.73261267652e-07
1.66436348567e-07
6.51976947829e-07
1.65208816593e-07
6.0490329533e-07
1.68890382686e-07
5.72656022992e-07
1.74576141077e-07
5.58731146421e-07
1.79697250438e-07
5.5382957169e-07
1.82130547425e-07
5.62743262958e-07
1.79387766361e-07
5.80430492828e-07
1.71132286556e-07
6.02599358895e-07
1.60992087193e-07
6.28576364194e-07
1.52368087574e-07
6.57438257581e-07
1.45642866939e-07
6.88347687418e-07
1.39992394091e-07
7.20991006809e-07
1.34706138039e-07
7.55334151779e-07
1.29286407582e-07
7.91468977653e-07
1.23064001518e-07
8.29559397011e-07
8.69749002782e-07
1.14087272824e-07
2.62122849637e-07
6.24825008967e-07
2.3665566396e-07
6.19162663001e-07
1.99344687904e-07
6.53234976256e-07
1.77037447506e-07
6.78817540611e-07
1.65477319814e-07
6.56180114728e-07
1.63320561585e-07
6.07125488566e-07
1.66630357471e-07
5.73756656956e-07
1.72358800019e-07
1.77748848786e-07
1.80558942512e-07
1.78218172574e-07
1.70347250807e-07
1.60526043366e-07
1.5214760679e-07
1.45622232518e-07
1.40137712939e-07
1.34984304227e-07
1.29662980775e-07
1.23513773037e-07
1.14606387899e-07
2.62327675786e-07
2.35024975328e-07
1.99512411286e-07
1.79524246639e-07
1.66476505955e-07
1.62589415142e-07
6.83272007012e-08
5.4151284518e-07
6.36365763781e-08
5.18746125183e-07
5.9642190151e-08
4.96310039159e-07
5.56172831275e-08
4.74367718525e-07
5.01243851237e-08
4.52920936236e-07
3.09841253946e-08
4.25054857515e-07
3.82043694244e-08
4.48259866e-07
2.22605756012e-08
4.44453490223e-07
1.9397562086e-08
4.24256125195e-07
1.66028845145e-08
4.04828192776e-07
1.38880514361e-08
3.86185491306e-07
1.13059259613e-08
3.68306718655e-07
9.54229045416e-09
3.50997132472e-07
8.81760529629e-09
3.3159053815e-07
7.64659719596e-09
2.99283160942e-07
2.8202409107e-09
2.59993941645e-07
2.25440256233e-07
1.29232168398e-07
6.18937216555e-07
1.15340414298e-07
5.94515037125e-07
1.03216406813e-07
5.70394003122e-07
9.35439456155e-08
5.46651008908e-07
8.58122769308e-08
5.23369535481e-07
7.93902711531e-08
5.00531161746e-07
7.35645338862e-08
4.78364292175e-07
6.69904770875e-08
4.56566273723e-07
4.74473529356e-08
4.27136768654e-07
5.79170891865e-08
4.48334443817e-07
3.78971862373e-08
4.49090096602e-07
3.26304166997e-08
4.28640726931e-07
2.76546473173e-08
4.08974214798e-07
2.29331218141e-08
3.90112718745e-07
1.85094969927e-08
3.72031777181e-07
1.51493195745e-08
3.54527976318e-07
1.30923629735e-08
3.34849498819e-07
1.06479866401e-08
3.02092880312e-07
3.75731911337e-09
2.6247871481e-07
2.27642380925e-07
1.58246893713e-07
6.29871358144e-07
1.4168965748e-07
6.03951006928e-07
1.26771873116e-07
5.78663149305e-07
1.1449618264e-07
5.5399470223e-07
1.04484269885e-07
5.29962400315e-07
9.6143266217e-08
5.06509340373e-07
8.88431144352e-08
4.83960516759e-07
8.13605493213e-08
4.61708511841e-07
6.07732101609e-08
4.30506329159e-07
7.33240648691e-08
4.53329769135e-07
5.21726794475e-08
4.55181483647e-07
4.47564144689e-08
4.34363916793e-07
3.78036218933e-08
4.14362214533e-07
3.12490166396e-08
3.95198090275e-07
2.51278433058e-08
3.76841769511e-07
2.02759939604e-08
3.59078900312e-07
1.69775147631e-08
3.39061911277e-07
1.33572448113e-08
3.05780577552e-07
4.67087704382e-09
2.65786947683e-07
2.3061278976e-07
1.7881363696e-07
6.42650315197e-07
1.60904855943e-07
6.15152219053e-07
1.44417723007e-07
5.88597586143e-07
1.30535136548e-07
5.62889372798e-07
1.18990774494e-07
5.37988351164e-07
1.09274193876e-07
5.13804308997e-07
1.00870176887e-07
4.90787329011e-07
9.26993124969e-08
4.68032285123e-07
7.09817511955e-08
4.34948267128e-07
8.63400142413e-08
4.62155353848e-07
6.38443579495e-08
4.62410698939e-07
5.47158240852e-08
4.4115434458e-07
4.61661916888e-08
4.20750822161e-07
3.81181660287e-08
4.01224288939e-07
3.06038991112e-08
3.82538415167e-07
2.45222862087e-08
3.64466654229e-07
2.0160038196e-08
3.440562142e-07
1.55439314561e-08
3.1019160527e-07
5.40430047303e-09
2.69777878409e-07
2.34224161408e-07
1.92380418704e-07