/*--------------------------------*- C++ -*----------------------------------*\
| =========                 |                                                 |
| \\      /  F ield         | OpenFOAM: The Open Source CFD Toolbox           |
|  \\    /   O peration     | Version:  2312                                  |
|   \\  /    A nd           | Website:  www.openfoam.com                      |
|    \\/     M anipulation  |                                                 |
\*---------------------------------------------------------------------------*/
FoamFile
{
    version     2.0;
    format      ascii;
    arch        "LSB;label=32;scalar=64";
    class       volScalarField;
    location    "0.03/water";
    object      alpha.gas_0;
}
// * * * * * * * * * * * * * * * * * * * * * * * * * * * * * * * * * * * * * //

dimensions      [0 0 0 0 0 0 0];

internalField   nonuniform List<scalar> 
1504
(
0.727403744396
0.611423086844
0.475793535939
0.359835961594
0.354419897549
0.41897613237
0.516159736472
0.528338598362
0.484765829822
0.364279722795
0.211327908001
0.106307624136
0.066093257609
0.0532441323477
0.0458792261199
0.0390516600838
0.0322650277977
0.025813208528
0.0199711791069
0.0149718565865
0.720795072834
0.590973590748
0.447641585989
0.329209335584
0.315769882445
0.373043474007
0.486949902325
0.522140044497
0.485162592362
0.366724617416
0.210272158111
0.101771387406
0.0630012490307
0.0510703515469
0.0440200157975
0.0374198537389
0.0309123203501
0.0247581242193
0.0192001014687
0.0144279023699
0.704417328831
0.572022813497
0.43031744576
0.319846957095
0.300384638788
0.337448474675
0.448513961389
0.514421437919
0.487743660998
0.375668754085
0.213468139916
0.100514156278
0.0611378268545
0.049508854215
0.0426365218586
0.036182363991
0.0298443451204
0.0238853876394
0.0185367160166
0.0139395350974
0.674336176861
0.555034920936
0.419771665304
0.31504120631
0.299565322315
0.311085083439
0.40456893858
0.500283634851
0.485162114763
0.382343426053
0.217498194641
0.0996681878072
0.0596201553507
0.0482433279307
0.0415518110602
0.0352217090336
0.0289919130919
0.0231595281426
0.0179637939267
0.0135028171072
0.632292113813
0.544935340937
0.419842592874
0.313942558774
0.299645879802
0.299468345069
0.366893745894
0.478502484928
0.476108208441
0.380970627422
0.216272946406
0.0977888214351
0.0581071121252
0.0471108416663
0.0406217772655
0.0344160190237
0.028276595668
0.0225401048852
0.0174628072596
0.0131088182295
0.5757514396
0.534131075781
0.435470559128
0.321103611311
0.299392416943
0.299645879802
0.340972379261
0.453522277183
0.461721719154
0.374301030323
0.211656430382
0.0947528774773
0.0565249299706
0.0460428887081
0.0397595655109
0.0336783356222
0.0276349246702
0.021993846312
0.0170223561286
0.01275563679
0.512398185834
0.519557411682
0.462801759415
0.341660352322
0.299645879802
0.299331461201
0.332147087445
0.435429452532
0.444872326776
0.360386433786
0.202239746995
0.090561937358
0.054916150154
0.0450371345755
0.0389309578892
0.0329578159161
0.0270198057904
0.0214885645364
0.0166250101377
0.0124365898075
0.468858111456
0.506360435683
0.479631098216
0.367897108867
0.300897923943
0.299645879802
0.334161443285
0.42367083192
0.425046489578
0.337867035727
0.186755902694
0.0849354154022
0.0532934560916
0.0441217892301
0.0381399293255
0.0322370669644
0.0264046758274
0.0209960783486
0.0162464599863
0.0121361909112
0.467144906572
0.494094877858
0.48611557336
0.392587284227
0.306685005743
0.300783945768
0.341482842712
0.411647112749
0.40015342179
0.305857608379
0.165221153658
0.0779040888361
0.0516552294506
0.0433039430843
0.037394541122
0.0315221965993
0.0257871381799
0.0205022396576
0.0158676255194
0.0118383978916
0.465186131259
0.479585915768
0.483942397333
0.41185413145
0.31546771901
0.30867083408
0.349751915513
0.392460559179
0.367060740324
0.266415008884
0.140066840938
0.0703342922389
0.0500367749368
0.0425368256562
0.0366707702491
0.0308185917493
0.0251792545407
0.0200114782656
0.0154863002032
0.0115374516674
0.466605061376
0.464948437205
0.480751525865
0.4314105596
0.330784800829
0.319381755096
0.349618327965
0.364115716604
0.325714469893
0.222922675813
0.115393606844
0.0635710394651
0.0485117305602
0.041744235912
0.0359139438247
0.0301116663133
0.024585410702
0.019534368715
0.0151133834259
0.0112397353971
0.462013569225
0.466605061376
0.473205740109
0.451858542214
0.353970104226
0.323817636627
0.338598843657
0.330390742968
0.277151313028
0.179516890529
0.0946260495297
0.0584200370887
0.0471318725066
0.0408614621197
0.0350688213731
0.0293694224882
0.0239877293452
0.0190667120267
0.0147536240477
0.0109523683125
0.466605061376
0.46198677584
0.466605061376
0.467743021966
0.37994873418
0.323700448368
0.314047859872
0.287525797957
0.224602509152
0.140215881914
0.0789035235331
0.054735083516
0.0458505854914
0.0398492356432
0.0341099860238
0.0285659926755
0.0233593945033
0.0185896697472
0.0143975933716
0.0106739531597
0.46173967438
0.466605061376
0.464630975358
0.476780156975
0.39726244602
0.317294035956
0.280124708901
0.237523137646
0.174621598995
0.108746046764
0.0679213865882
0.0519120816062
0.0445256458953
0.0386978914969
0.0330692178917
0.0277214815533
0.022704625323
0.0180995640136
0.0140399064857
0.010402805335
0.466605061376
0.461733019241
0.466605061376
0.480871703749
0.399364888745
0.304735115122
0.248756303531
0.196282661793
0.138509645685
0.0884237462155
0.0608046558305
0.0494753029464
0.0430787943354
0.0374881643487
0.0320679109487
0.0269383166215
0.0220990351524
0.0176453055723
0.0137087335127
0.0101559397059
0.463205849484
0.466605061376
0.481363585349
0.488720625351
0.39986048757
0.302644263138
0.240414025331
0.182489218508
0.123246306821
0.0783633877203
0.0564279543725
0.0473991622242
0.0417072622722
0.0364445976479
0.0312836200939
0.0263512008445
0.0216510601761
0.0173099861408
0.0134617344471
0.00996987605322
0.467144906572
0.464301475966
0.517676786862
0.503117496626
0.404663377042
0.307285389077
0.242511608193
0.182572916345
0.121132741673
0.0747559947742
0.0540241472634
0.0459698219677
0.0407431008441
0.035759710257
0.0307979792413
0.0260061340102
0.0214071748909
0.0171423219231
0.0133431646802
0.009879982216
0.46519896875
0.488018246121
0.554910139714
0.521061070896
0.422123150954
0.323809302328
0.252105732015
0.186583627132
0.121967428622
0.0743983664128
0.0533617294153
0.0454108143537
0.0403247300569
0.0354610625575
0.0305949805656
0.0258770202653
0.0213317091436
0.0171003452866
0.0133175841059
0.00986198998735
0.475843646782
0.532839603596
0.563664194214
0.536400934527
0.450872160446
0.353149056478
0.272728491677
0.198454855808
0.126583406939
0.0752531532991
0.0534415730687
0.0453793658513
0.0402668018403
0.0354137871273
0.0305665426399
0.0258658649048
0.0213330949699
0.0171097431029
0.0133294765491
0.00987385939692
0.524242661712
0.55680288788
0.563830254516
0.545130322595
0.477514758953
0.387883560513
0.302651046011
0.21973703028
0.13797206117
0.0788252381574
0.054101443506
0.0454980745787
0.0403145492786
0.0354626623343
0.0306229846018
0.0259323623783
0.0214144464078
0.0171962225554
0.013407432184
0.00994248171298
0.558563522565
0.563621911295
0.563653692649
0.549648269095
0.495437774765
0.418035876284
0.335103785104
0.247753180139
0.156886662324
0.0866172302386
0.0558871101356
0.0459044510704
0.0405202364428
0.0356770895832
0.0308509686519
0.0261625720947
0.0216414063708
0.0174000735251
0.0135759623115
0.0100854227998
0.568483253579
0.562611696488
0.563747958424
0.552741983335
0.506016630679
0.438329791317
0.362171952934
0.276003910389
0.18013523613
0.0984670662537
0.0590050877617
0.0465997986501
0.0408512731082
0.036021884229
0.0312185100631
0.0265189918301
0.0219711411266
0.0176825165694
0.0138047517606
0.0102767550643
0.572521391652
0.559271481698
0.563583792062
0.554755896034
0.512519266377
0.450582478564
0.380633713332
0.29849964648
0.202155476838
0.112124614324
0.0631232258285
0.047451924709
0.0411745438184
0.0363476035535
0.0315789951451
0.0268730860736
0.0223045550011
0.017978600725
0.0140527980935
0.0104859721209
0.580278228669
0.558752842401
0.563635325393
0.554050695915
0.51551026128
0.458131996479
0.392204029872
0.313619600361
0.219074386796
0.124709212238
0.067548375323
0.0483358368489
0.0414632120865
0.036615467761
0.031877238238
0.0271686408619
0.0225919543856
0.0182496281663
0.0142920933014
0.0106937672957
0.592984415746
0.558780713207
0.562257625093
0.550516573084
0.513923927484
0.460516450415
0.398247314678
0.322479520759
0.230202632464
0.134433226175
0.0715393311676
0.0491295413609
0.0416864741377
0.0368432324966
0.0321447399996
0.0274305252257
0.0228430391812
0.0184888752978
0.0145078327969
0.0108868451212
0.593029352073
0.561084045068
0.563665816256
0.548464861491
0.511208024996
0.45959192442
0.400121013449
0.327169819205
0.237331761416
0.141541527665
0.0748158454443
0.0497599926309
0.0417796615018
0.0369965294714
0.0323744750986
0.0276758030378
0.0230767546737
0.0187044382646
0.0146984482583
0.0110592892629
0.591772838821
0.56410919445
0.56855261081
0.550970555966
0.510012763043
0.457687541754
0.399820807765
0.329904365666
0.242705934225
0.147339098401
0.0776433628742
0.0502570446674
0.041794556937
0.0370125050082
0.0325169462766
0.0278728177421
0.0232820498281
0.0188981185215
0.0148696156758
0.0112141788292
0.589390273709
0.566983429163
0.574055856815
0.555900106612
0.511034606661
0.45608482712
0.399422682246
0.332329142046
0.247828793934
0.152980046451
0.0804706398324
0.0507139732975
0.0417700921333
0.0369904706402
0.0325618067863
0.0279816038327
0.0234295244543
0.0190586337432
0.0150226225423
0.0113562120358
0.592221997983
0.570875822281
0.5746768897
0.557858534047
0.511984418239
0.455566025547
0.399549519345
0.335025859878
0.253122683848
0.158838773424
0.0835396278834
0.0512015676809
0.0416783417353
0.036917566927
0.0325571949502
0.0280369433905
0.023521360466
0.0191763021043
0.0151506292591
0.0114834502516
0.600689535563
0.575447990679
0.574923697333
0.556036147797
0.510665689605
0.454651989904
0.399353655728
0.336986025844
0.257388936685
0.163925472311
0.086411858508
0.0516406715247
0.0415301078978
0.0367999620876
0.0325389714113
0.0280742812404
0.0235837620326
0.0192602272791
0.0152488182037
0.011588531299
0.600729602541
0.576814764463
0.576669405275
0.555131693948
0.508676417472
0.453043902393
0.3984964445
0.336887762604
0.259152330629
0.166833958708
0.0882645288075
0.0518366384904
0.0413491550493
0.0366649392425
0.0325051518871
0.0280904619472
0.0236316527583
0.0193232518129
0.0153209592139
0.0116687059356
0.59746132988
0.57632397941
0.57997648553
0.55753218419
0.508768594526
0.451190770453
0.396666092893
0.335962446764
0.259079375592
0.167874112667
0.0889859701686
0.0518034130019
0.0411199187741
0.03650405311
0.0324449031914
0.0280859192165
0.0236564946763
0.0193689603664
0.0153759398651
0.0117301309118
0.592855156757
0.57633843765
0.582257598642
0.562071079506
0.510797930847
0.450041822745
0.394319509397
0.334287118662
0.258777466408
0.168421843208
0.0893395126274
0.0515920946285
0.0408059095584
0.0362827224919
0.0323328145385
0.0280552744034
0.0236550936026
0.0193994518698
0.0154193107936
0.0117814395464
0.594561985927
0.576328669061
0.582517075292
0.565519222977
0.514378109013
0.450638299912
0.3930355586
0.333230141207
0.258820595018
0.169205943617
0.0898031979746
0.051325118833
0.0404271398594
0.0359915175552
0.0321540075321
0.0279747067398
0.0236359348306
0.0194065481342
0.0154519580545
0.0118280758905
0.601674890891
0.578208563081
0.582761184914
0.564791416128
0.514435664721
0.45080013183
0.392476317991
0.332841926458
0.259463245343
0.170598978485
0.0906147111238
0.051196967657
0.0400661841663
0.0356885320936
0.0319520080423
0.0278623738285
0.0235912280544
0.0194042260586
0.0154772390905
0.0118705164876
0.601689443256
0.579631629318
0.586106107629
0.565525919801
0.514741913633
0.450787977316
0.391976883654
0.332428199714
0.259918916987
0.171998457329
0.0916132130538
0.0511821639929
0.0397783708833
0.0354484476164
0.0318032170326
0.0277840658311
0.0235572700159
0.0194046870422
0.0154986571199
0.0119075178664
0.599211293757
0.580413695408
0.588532517734
0.568801364361
0.516702643896
0.451148207704
0.391258622494
0.331559825859
0.25959381312
0.172590034331
0.0922463710046
0.0511341010782
0.0395366625335
0.0352678857918
0.0317114316764
0.0277533063392
0.0235553192437
0.0194135009618
0.0155211662108
0.01194091701
0.59528646066
0.58043466358
0.588686592043
0.573640601616
0.521223449173
0.452194284082
0.390112456663
0.00552742713151
0.00532637135945
0.00471859659888
0.00313100130877
0.00109105813122
0.00010333425354
3.16806421888e-07
1.42367350572e-14
1.63006510675e-14
1.6370047312e-14
1.63075411783e-14
1.6131571114e-14
1.54576297518e-14
1.51103290615e-14
1.51012912793e-14
1.6702073759e-14
1.67495825712e-14
0.0106130724907
0.00720083835176
0.00575386101669
0.00549110054791
0.00529666340199
0.00468724033738
0.00308653140665
0.00105255423814
9.60953653433e-05
2.69816603867e-07
1.42189353884e-14
1.63358266089e-14
1.64362414865e-14
1.64227175761e-14
1.63086211329e-14
1.55204012175e-14
1.5102020702e-14
1.51054744984e-14
1.6704800492e-14
1.69066645101e-14
0.0102255260398
0.00697362772714
0.00568085692627
0.00545937453357
0.00526842351974
0.00463652010765
0.00299044010949
0.000968792193505
7.98777766925e-05
1.80657863297e-07
1.42014246319e-14
1.63546874304e-14
1.64507724736e-14
1.64439769981e-14
1.63637678287e-14
1.55851096341e-14
1.51054744984e-14
1.50989365573e-14
1.66687894555e-14
1.68877559126e-14
0.00986266995314
0.00676490581011
0.00562008554982
0.00543244972101
0.00524066281033
0.00457273594705
0.00286212797405
0.000862330301463
6.1309914817e-05
1.00117759383e-07
1.41833018137e-14
1.63521841762e-14
1.64512290549e-14
1.64395169573e-14
1.63850135468e-14
1.57547699357e-14
1.50989324564e-14
1.51005010762e-14
1.66034079118e-14
1.6906940204e-14
0.00953200776352
0.00658061557064
0.0055694777276
0.00540855305134
0.005212179517
0.00449942882814
0.00271886284089
0.000753369544998
4.52109756704e-05
4.95274538144e-08
1.420076642e-14
1.63299234088e-14
1.64474790247e-14
1.64297546404e-14
1.63987998552e-14
1.59687627207e-14
1.51328591066e-14
1.50911766239e-14
1.65885507983e-14
1.68877559126e-14
0.00922719114422
0.00641450492174
0.00552561456717
0.00538675079696
0.00518351104359
0.00442062789533
0.00257144255009
0.000651863024233
3.21403467564e-05
2.13610464567e-08
1.41833018137e-14
1.63130888551e-14
1.64381472429e-14
1.64227791489e-14
1.63957485461e-14
1.60667209292e-14
1.51593119003e-14
1.50957738781e-14
1.65645299988e-14
1.69027297847e-14
0.00894794920438
0.0062655895954
0.00548786048974
0.00536752249701
0.00515607506451
0.00434027579336
0.00242693469173
0.000561798745741
2.21111069624e-05
8.60992153169e-09
1.41706506416e-14
1.63121524798e-14
1.64167969656e-14
1.63958203678e-14
1.63519405394e-14
1.60527614404e-14
1.5164423922e-14
1.50904991895e-14
1.64846918225e-14
1.68877559126e-14
0.00869461824821
0.00613587033226
0.00545684453878
0.00535128337694
0.00512989086951
0.00425871655025
0.00228671084677
0.000483096996037
1.51848358648e-05
2.30820288565e-09
1.41541242028e-14
1.63052910173e-14
1.63558359505e-14
1.63132047274e-14
1.62408271184e-14
1.59813694541e-14
1.51630761302e-14
1.50908937145e-14
1.63878664619e-14
1.68979905712e-14
0.00846133700084
0.0060239830685
0.0054316302995
0.00533705325724
0.00510307042699
0.00417284316981
0.00214778106507
0.00041373992813
1.04985349917e-05
1.53150465709e-10
1.4138571574e-14
1.62590083268e-14
1.62470355229e-14
1.61877655036e-14
1.61099414389e-14
1.58988572282e-14
1.51781335382e-14
1.5084274708e-14
1.63037790553e-14
1.68877559126e-14
0.00823758033224
0.00592409496656
0.00540954299824
0.0053230949408
0.00507364847076
0.00408050654667
0.00200864398861
0.000352448400406
7.23694060288e-06
3.14897486348e-15
1.41233843291e-14
1.61562006193e-14
1.61378212239e-14
1.60944688755e-14
1.60589952829e-14
1.58896616967e-14
1.52483610935e-14
1.50860976024e-14
1.62670106049e-14
1.68934475217e-14
0.00801577978332
0.00583054387426
0.00538823662162
0.00530837741466
0.00504164286483
0.0039843159037
0.00187308139404
0.000299547821908
4.98594875577e-06
3.14861872992e-15
1.4170786981e-14
1.61068696153e-14
1.61006308578e-14
1.60806864353e-14
1.60588494546e-14
1.59051820001e-14
1.53732684226e-14
1.50836343358e-14
1.62712977557e-14
1.68877559126e-14
0.00779680283712
0.00574216710663
0.0053672514149
0.00529332687813
0.00500905565097
0.00388957169325
0.00174658720139
0.000255281565364
3.47180954749e-06
3.14897486411e-15
1.42543481908e-14
1.60973816599e-14
1.60975358954e-14
1.60857779662e-14
1.60737779422e-14
1.59463369163e-14
1.55051888074e-14
1.50808342623e-14
1.62819323502e-14
1.68897383208e-14
0.00758720583854
0.00566198756742
0.00534764316243
0.00527898092881
0.00497735228151
0.00379851147888
0.00163033492948
0.000218302585381
2.44691213592e-06
3.14861873046e-15
1.43506271548e-14
1.60921122168e-14
1.60938726422e-14
1.60853524761e-14
1.60779744454e-14
1.59595547251e-14
1.55680112954e-14
1.50780994412e-14
1.62670106552e-14
1.68877559126e-14
0.00739191431238
0.00559253126063
0.00532989409334
0.005265413039
0.0049460618434
0.00370985449788
0.0015223132682
0.000186811363598
1.73564509088e-06
3.14897486655e-15
1.44369554701e-14
1.60808296347e-14
1.60818172521e-14
1.6074512538e-14
1.6066776115e-14
1.59487782362e-14
1.55645797274e-14
1.50768721298e-14
1.62007527794e-14
1.68761834138e-14
0.00721150600762
0.00553243644323
0.00531289210898
0.00525162463662
0.00491460030494
0.00362464442465
0.00142377268462
0.000160370180575
1.24514264941e-06
3.14861873045e-15
1.44954954094e-14
1.60539377641e-14
1.60524114689e-14
1.60422555185e-14
1.60293925402e-14
1.59078925458e-14
1.55329970071e-14
1.50664255662e-14
1.60817931642e-14
1.67705415697e-14
0.00705060780286
0.00547980746976
0.00529527440775
0.00523681209624
0.00488515482069
0.00355160744022
0.00134237164861
0.000139972670652
9.27167847114e-07
3.14897486713e-15
1.4514896792e-14
1.60056554503e-14
1.60011421037e-14
1.59866114193e-14
1.59634702923e-14
1.58278196034e-14
1.54515202464e-14
1.50016979094e-14
1.59616552536e-14
1.66324677766e-14
0.00692663317151
0.00543701995701
0.00527715421742
0.00522160390628
0.00486252302391
0.00350790224567
0.00128961358924
0.000126898131299
7.46068734453e-07
3.14861873019e-15
1.45084402048e-14
1.59346676604e-14
1.59274352456e-14
1.59107954232e-14
1.58770357224e-14
1.57199660658e-14
1.53301040034e-14
1.48949662251e-14
1.58885478427e-14
1.65511462092e-14
0.00686652609474
0.0054083287974
0.00526022056673
0.00520789528014
0.00485142658866
0.0034969681751
0.00127108719325
0.000121238531439
6.74232969991e-07
3.14897486766e-15
1.44643501115e-14
1.58459554736e-14
1.58378933424e-14
1.58235411075e-14
1.57868340508e-14
1.56185652885e-14
1.52215120703e-14
1.48158670818e-14
1.58552403247e-14
1.64968045227e-14
0.00685546773847
0.00539006811685
0.00524581328136
0.00519676306174
0.00484870473866
0.00349923143409
0.00127060879364
0.000120191965356
6.64064433186e-07
3.14861873029e-15
1.43748581913e-14
1.57532684595e-14
1.57474563462e-14
1.57379401888e-14
1.57071828247e-14
1.55446231888e-14
1.51511343036e-14
1.47666813406e-14
1.58233462274e-14
1.64300032738e-14
0.00686354062046
0.00538561458577
0.00523360095246
0.00518715219005
0.00484976993949
0.00351926232652
0.00128509601391
0.000121977147566
6.92888916559e-07
3.14897486824e-15
1.42450812905e-14
1.56633585616e-14
1.56603464688e-14
1.5652281938e-14
1.5630307835e-14
1.54815978268e-14
1.50918642094e-14
1.47100703034e-14
1.57620418144e-14
1.63267865843e-14
0.0069090572102
0.00538895937605
0.00522170935744
0.00517714184886
0.00485604731455
0.00356765395691
0.00133080170156
0.000129994937268
8.16505697894e-07
3.14861873056e-15
1.40763981854e-14
1.55676530779e-14
1.55646484071e-14
1.55506818018e-14
1.55345960556e-14
1.54019984526e-14
1.50119801227e-14
1.46082947823e-14
1.56463203808e-14
1.61958737561e-14
0.00700389371387
0.00540096484714
0.00520843246097
0.00516524223397
0.0048665226444
0.00363930678098
0.00140967786254
0.000146276844419
1.09212029535e-06
3.14897486884e-15
1.38718078411e-14
1.54549200029e-14
1.54482648305e-14
1.54220596853e-14
1.54075806431e-14
1.52892632035e-14
1.48932815163e-14
1.44450246395e-14
1.5505031361e-14
1.6069568352e-14
0.00713200278936
0.00542192231682
0.00519344625447
0.00515129592711
0.0048777315046
0.00372405774756
0.00151504079517
0.000171191678832
1.59488312932e-06
3.14861872944e-15
1.3643189228e-14
1.53299859148e-14
1.53205586732e-14
1.528549062e-14
1.52712594881e-14
1.51585698524e-14
1.47500871967e-14
1.42615627881e-14
1.54052308577e-14
1.59529075487e-14
0.00727552814528
0.00545048390865
0.00517811507525
0.00513634983687
0.00488772524773
0.00381354521222
0.0016395516531
0.000205367100945
2.45502820537e-06
3.14897486803e-15
1.34108019823e-14
1.521270588e-14
1.52074908466e-14
1.51755230751e-14
1.51618477999e-14
1.50381160588e-14
1.46088592858e-14
1.41105322025e-14
1.53477725712e-14
1.58211759052e-14
0.00742517395557
0.00548655356369
0.00516383262418
0.00512108047229
0.00489618817294
0.00389919772709
0.00177417559097
0.000248759742687
3.85180955188e-06
3.14861872939e-15
1.31923540514e-14
1.51137999398e-14
1.51183433664e-14
1.50962203633e-14
1.50780154952e-14
1.49236752794e-14
1.44643208165e-14
1.39849483351e-14
1.52913936523e-14
1.56645252806e-14
0.00757321753989
0.00552839005197
0.0051502423865
0.00510484758296
0.00489553493016
0.00397241153189
0.00190895541366
0.000299882673414
5.98246277428e-06
3.14897486717e-15
1.30078638322e-14
1.5024281309e-14
1.50376329918e-14
1.50236255531e-14
1.4993109914e-14
1.47896459915e-14
1.4294203082e-14
1.3856905636e-14
1.52170313967e-14
1.5514551253e-14
0.00771182680126
0.00557120242901
0.00513580866251
0.00508653707202
0.00489170893616
0.00403255096536
0.00203745223948
0.000356454658678
9.01174844408e-06
1.49956435464e-10
3.50497356764e-15
1.48987525674e-14
1.49501950292e-14
1.49398700442e-14
1.48924998748e-14
1.46385308934e-14
1.41150763579e-14
1.3724907205e-14
1.51507006729e-14
1.54312559677e-14
0.00783790033357
0.00561113679932
0.00511964940286
0.00506605954343
0.00488447730125
0.00408315011442
0.00215807585095
0.000416273052631
1.29123710268e-05
1.21536551316e-09
3.506350372e-15
1.46794916674e-14
1.48589840971e-14
1.48479036048e-14
1.47925543596e-14
1.45244183933e-14
1.39961016875e-14
1.36214499448e-14
1.51284573094e-14
1.53984289914e-14
0.00795349792022
0.00564836001296
0.00510275146157
0.00504492626691
0.00487536909796
0.00412671280824
0.00226953267846
0.000476798397922
1.74108553283e-05
3.54011428504e-09
3.50497356748e-15
1.45036641338e-14
1.47798634946e-14
1.47662218579e-14
1.47192465931e-14
1.44704530608e-14
1.39446160674e-14
1.35542513218e-14
1.51167698414e-14
1.53673789244e-14
0.00806010019734
0.00568480417055
0.00508707492631
0.00502488063349
0.00486553453809
0.00416236294142
0.00236801416771
0.000534831437784
2.21732252157e-05
7.37150187302e-09
3.50635037199e-15
1.43570996012e-14
1.47136951446e-14
1.46979200456e-14
1.46664197711e-14
1.44384647066e-14
1.39111158778e-14
1.34939424054e-14
1.50859560013e-14
1.53069717676e-14
0.00815449571991
0.0057204611547
0.00507317289461
0.00500612459447
0.00485464026421
0.00418836193159
0.00245054586314
0.000588001757781
2.70332881847e-05
1.35122354506e-08
3.50497356672e-15
1.42195273919e-14
1.4645924177e-14
1.46283021093e-14
1.46106025285e-14
1.43978875316e-14
1.38634305276e-14
1.34072648247e-14
1.50027252198e-14
1.51924200765e-14
0.00823222227322
0.00575192621455
0.00505962812745
0.00498752636873
0.00484197936761
0.00420606332561
0.00251932084036
0.00063646752897
3.20596033529e-05
2.40563629736e-08
3.50635037022e-15
1.40443218403e-14
1.45619669314e-14
1.45417676484e-14
1.45309350224e-14
1.4324253117e-14
1.37755976657e-14
1.32695866285e-14
1.48648808399e-14
1.50379739006e-14
0.00829381908335
0.0057763588506
0.0050448598014
0.00496818006444
0.00482783441147
0.00421940492003
0.00258008624137
0.000682210417632
3.7397419908e-05
4.22975773079e-08
3.50497356651e-15
1.38065699735e-14
1.4454838427e-14
1.44305185292e-14
1.44161620225e-14
1.4200217704e-14
1.36299732664e-14
1.30946159311e-14
1.47402159002e-14
1.48928416466e-14
0.00834512704583
0.00579544989747
0.00502891646684
0.00494854983834
0.00481357380642
0.00423149135472
0.00263701948416
0.000726582970776
4.30202783394e-05
6.92542169421e-08
3.5063503701e-15
1.35330922847e-14
1.43297012739e-14
1.43007880662e-14
1.4273373544e-14
1.40303329576e-14
1.34391294584e-14
1.29324107713e-14
1.46771852898e-14
1.47755128481e-14
0.00839241217267
0.00581307995956
0.00501365923454
0.00493004888617
0.00480024529527
0.00424254243577
0.0026895501074
0.000768757588229
4.86997557685e-05
1.0165656495e-07
3.50497356205e-15
1.32647482712e-14
1.42026612633e-14
1.41716707344e-14
1.41304092326e-14
1.38537548639e-14
1.3250642636e-14
1.28141819883e-14
1.46479132185e-14
1.4677209027e-14
0.00843848776685
0.00583230356483
0.00500076814663
0.00491330835004
0.00478750363979
0.00425005368784
0.00273416830485
0.000806941524517
5.42139496274e-05
1.38861402148e-07
3.50635036871e-15
1.30223864288e-14
1.40867546362e-14
1.4057712162e-14
1.40094645286e-14
1.37110810997e-14
1.31053950438e-14
1.27222190751e-14
1.46136918251e-14
1.45902428256e-14
0.00848238615769
0.00585348974907
0.00498975579017
0.00489740301983
0.00477414250324
0.0042522895027
0.0027702486774
0.000841060964226
5.95745211362e-05
1.81615435556e-07
3.50497356159e-15
1.27980420115e-14
1.39807470984e-14
1.39562088362e-14
1.39087701237e-14
1.3606109431e-14
1.29995064144e-14
1.26302117031e-14
1.45761710542e-14
1.45058739636e-14
0.00852261937433
0.00587404131054
0.00497867377114
0.00488085275424
0.00475930845519
0.00425138235314
0.00280143673911
0.000873168718363
6.50101102616e-05
2.3187190353e-07
3.50635036851e-15
1.25814036136e-14
1.38804693571e-14
1.38629334321e-14
1.38224035202e-14
1.35272611648e-14
1.29194562142e-14
1.25352367584e-14
1.45266059729e-14
1.44547740951e-14
)
;

boundaryField
{
    emptyPatch
    {
        type            empty;
    }
    minY
    {
        type            fixedValue;
        value           nonuniform List<scalar> 0();
    }
    maxY
    {
        type            inletOutlet;
        phi             phi.gas;
        inletValue      nonuniform List<scalar> 0();
        value           nonuniform List<scalar> 0();
    }
    maxX
    {
        type            zeroGradient;
    }
    water_to_heater
    {
        type            zeroGradient;
    }
    procBoundary3to1
    {
        type            processor;
        value           nonuniform List<scalar> 
41
(
0.32991110846
0.258621056341
0.17258796097
0.0925711454752
0.0510091221383
0.0392839663227
0.0350925446897
0.031629172986
0.0277321818043
0.0235576794561
0.0194306092957
0.0155472902761
0.0119748106057
0.596502030168
0.580539494103
0.588816418662
0.57721732098
0.526110863236
0.453493258944
0.32991110846
0.388523635083
0.00856076464705
0.00589216443104
0.00496607911709
0.00486302426259
0.00474340346105
0.00425070059603
0.00283247177174
0.000905434568406
7.06820030038e-05
2.90849518982e-07
3.50497355933e-15
1.2373034108e-14
1.37821723308e-14
1.37732933637e-14
1.37437406712e-14
1.34592380318e-14
1.28488334187e-14
1.24438244683e-14
1.44799176932e-14
1.43959261263e-14
)
;
    }
    procBoundary3to2
    {
        type            processor;
        value           nonuniform List<scalar> 
41
(
0.730407709329
0.635953408025
0.525865640536
0.433678399313
0.425680086714
0.472689955825
0.539866609046
0.540481444128
0.489604833721
0.368604991962
0.222385456065
0.116746993943
0.0716591332784
0.0564020042121
0.0482412724936
0.0410083557783
0.0338223594845
0.0269677268287
0.020767710336
0.0154919158309
0.00556336845608
0.00535395673467
0.00472778615718
0.00313453045074
0.00109352198945
0.000103090674036
3.17500312956e-07
1.42549489766e-14
1.62440178876e-14
1.62632969562e-14
1.61366688508e-14
1.59253303496e-14
1.52709002949e-14
1.51070352423e-14
1.51103290615e-14
1.66846460933e-14
1.67023356857e-14
0.0109462510959
0.0073893179222
0.00582807914529
0.00582807914529
)
;
    }
}


// ************************************************************************* //
