/*--------------------------------*- C++ -*----------------------------------*\
| =========                 |                                                 |
| \\      /  F ield         | OpenFOAM: The Open Source CFD Toolbox           |
|  \\    /   O peration     | Version:  2312                                  |
|   \\  /    A nd           | Website:  www.openfoam.com                      |
|    \\/     M anipulation  |                                                 |
\*---------------------------------------------------------------------------*/
FoamFile
{
    version     2.0;
    format      ascii;
    arch        "LSB;label=32;scalar=64";
    class       volScalarField;
    location    "0.645/water";
    object      epsilonm;
}
// * * * * * * * * * * * * * * * * * * * * * * * * * * * * * * * * * * * * * //

dimensions      [0 2 -3 0 0 0 0];

internalField   nonuniform List<scalar> 
1504
(
3414.04401653
872.364904318
248.345546844
79.2797826464
28.2435972371
11.0308436909
4.68860206297
2.23303973401
1.29173140014
0.937366829922
0.816544916067
0.803926147879
0.838144191937
0.859365232732
0.866630623321
0.894559612294
0.835297755948
0.633434932599
0.272272171539
0.0373091536586
3221.58533926
829.206758223
241.929230468
78.5190728864
27.5414048689
10.3039669103
4.21440406356
2.02307424651
1.22733714655
0.920394174225
0.807507985404
0.794710672209
0.824792788108
0.84452203046
0.86952718899
0.939389338866
0.915290476218
0.736953479684
0.374813395301
0.0742872809015
2674.07763096
742.857502291
230.879718239
76.5665527713
26.0622654266
9.34007516975
3.79834034542
1.90073377236
1.19041699726
0.886499486751
0.761750062378
0.73753836751
0.758930979876
0.782780168144
0.820485333939
0.92869473302
0.94081649493
0.796974882098
0.467341571819
0.129328817353
2177.90093251
691.726966876
229.905189707
75.5239118314
25.4234069408
9.15750220986
3.80151194655
1.92101451502
1.17084969819
0.827816559507
0.679907770358
0.638207781873
0.647267517408
0.672594054024
0.713050646626
0.835699695149
0.894762733352
0.795528504393
0.509417047572
0.192806943381
2306.56428413
768.128473147
248.992197377
81.221380514
27.3823504006
10.1153390315
4.26660843819
2.09440493976
1.18568822496
0.769582406935
0.587396654969
0.52011317421
0.508921306711
0.526057448661
0.566367923606
0.671409696572
0.769031000746
0.728209026843
0.514569509122
0.24697214048
3107.73497438
956.525735465
281.754473733
89.5599364639
31.6064357458
12.5162839029
5.42838498134
2.55167602224
1.31068037857
0.759797228834
0.521615845821
0.424580986677
0.390369316252
0.388798712891
0.414660194987
0.492370889598
0.595211126976
0.618864420188
0.493743688848
0.284829798713
4394.92974375
1148.04049375
324.16942813
105.084295016
39.6284594695
16.7909147603
7.50310804309
3.42367085409
1.61261862558
0.834045569913
0.509474898728
0.375332272982
0.317493625279
0.294337669313
0.299798443806
0.347761737672
0.435387088378
0.503106734379
0.458849849779
0.301164256927
4457.03182075
1246.55008848
381.420215969
133.717568245
54.3164016478
23.974103517
10.6617598471
4.72171394927
2.09348063248
0.995884678985
0.55331189502
0.373444539028
0.29208967192
0.248718898475
0.235795520746
0.256687476912
0.325721828016
0.410004479746
0.426759052442
0.314111887451
4172.23897691
1218.38573396
393.530821386
147.668434876
65.2213560389
31.9322249216
14.9925022493
6.42064386916
2.71133973998
1.22391635029
0.639937419277
0.406827665722
0.30088217605
0.239826861985
0.210928655013
0.214661600607
0.260223066096
0.350588980159
0.404081724319
0.330530863604
3883.87737109
1156.45346377
381.551858482
148.325017293
69.4022952646
36.7334815513
18.7269334497
8.08015593564
3.38223170609
1.49220325207
0.7539569862
0.461632326849
0.329444370498
0.25260391865
0.210419560907
0.201750711833
0.231937522307
0.31941252776
0.392408422113
0.349236690315
3700.90294205
1102.52271604
365.059541279
143.35513863
68.8843835696
38.2487798682
20.8355783912
9.10796722045
3.84653559557
1.71101139437
0.863823440363
0.522827441633
0.366615285173
0.276075795599
0.223603504382
0.205560721398
0.22525486954
0.307340755596
0.391361653259
0.37278129431
3544.81529891
1058.1223444
349.04704338
136.66595262
66.2793883717
37.7153773714
21.1305081324
9.3102041953
4.00296877147
1.82551959561
0.943512093395
0.577960959854
0.404679634047
0.303334936005
0.243541031807
0.21894854039
0.231129647385
0.304864738693
0.39950944027
0.402595136818
3470.69947196
1026.76606319
335.552809754
130.195848206
62.9192114589
35.9597011431
19.7574151873
8.7851962424
3.8906064088
1.845590962
0.993585320488
0.624897521582
0.440854249874
0.331858604889
0.267314160817
0.238250183432
0.244816662036
0.311090257369
0.414325572512
0.440617928819
3422.17672525
1007.58085452
326.195257833
125.07137195
59.7391694022
33.669399206
17.3960905566
7.88410145341
3.63825894633
1.81321569904
1.02557718894
0.664921388427
0.474294774489
0.361107276323
0.294147798236
0.262165646771
0.264227570306
0.324040919014
0.435911900176
0.488715253981
3448.01369104
1001.17801704
319.374169606
120.618755781
56.5417203759
30.7254088937
14.9252622587
6.94129419287
3.35751497784
1.76471575095
1.04848579024
0.698885879444
0.505537153524
0.391681383312
0.32433710547
0.290526833384
0.288780585126
0.343268784697
0.464668130535
0.546357601375
3530.94620326
1014.47106402
317.406057135
117.01494784
53.0033379087
26.7729990219
12.7153239067
6.12041302646
3.10644500079
1.72107706865
1.06734567525
0.727766144228
0.536083734006
0.424740707377
0.358609058916
0.323701650253
0.318493910772
0.369138795911
0.499996113517
0.610328921388
3759.47927088
1049.36054013
319.459271493
113.66819187
48.91821544
22.9015427352
10.9781171431
5.48836777673
2.91161397866
1.69143513844
1.0841616446
0.753126397411
0.567636219567
0.461411324007
0.397576798484
0.361796506708
0.353252730165
0.401071549544
0.540054360796
0.678296055349
4217.05986655
1119.38286655
323.074237448
109.267812113
44.412659161
20.2152764028
9.84277358853
5.06476404905
2.78381036813
1.67528245595
1.09722679362
0.77722428827
0.601840077171
0.502366999399
0.441074530449
0.404209785182
0.39198036089
0.437591478251
0.582679779139
0.747229520568
4913.92444054
1234.99664397
333.131897706
106.959741255
41.8736401289
18.8218999939
9.23516981055
4.82013127958
2.715761912
1.66735135186
1.10679320472
0.803379071573
0.640193664095
0.547324363131
0.487898404989
0.449116811103
0.432607179444
0.475674275609
0.624322013205
0.815171340678
5597.63852526
1383.63411308
359.063395845
109.797287343
41.5451802014
18.4292207571
8.97927050053
4.70207839399
2.67921388276
1.65684492137
1.11865166975
0.83614257726
0.683412650137
0.594664178697
0.5352258108
0.493456715813
0.471695652583
0.510837208376
0.660064881588
0.880207692604
5984.98284133
1505.78470807
394.056861832
118.416260292
43.5192348557
18.7780263157
8.95627824507
4.66665351744
2.65419394661
1.65022238857
1.14555299156
0.881167661875
0.730954694969
0.640768640406
0.578720088907
0.532502459701
0.504537171876
0.536760017678
0.682840417007
0.936356755417
5989.65868795
1544.33376684
418.69636194
127.797033839
46.1922487093
19.3216784753
9.00718411023
4.64277643769
2.62886058575
1.66979408469
1.20284345544
0.942651594067
0.779054623878
0.679336711216
0.611610544484
0.559804258054
0.525005344758
0.545644493901
0.68530274285
0.970708786745
5601.5022624
1475.72900566
416.886964291
131.018315323
47.2098276726
19.3447342241
8.89261426335
4.56113715139
2.62168408865
1.7432380463
1.3052119992
1.02051807951
0.819664382829
0.700324231711
0.626549335684
0.56922627659
0.526245487866
0.530773049185
0.665373601069
0.962860787777
4908.96555789
1326.27086269
389.710737991
125.832946849
45.467638415
18.4945829439
8.50673124894
4.4400387255
2.68648806201
1.90790706397
1.46743909664
1.11106630753
0.841115530187
0.6922331466
0.61145079573
0.552945982055
0.504523874904
0.492848665828
0.613237031704
0.896256141042
4164.76797866
1172.96634685
356.146525959
116.787154159
42.3073376012
17.2530892693
8.08962550425
4.44582452174
2.91690512896
2.21546042987
1.70946263162
1.21078538015
0.831381274403
0.636602689804
0.557611437156
0.510279842474
0.463673651605
0.438667965707
0.518693418148
0.779202062575
3678.17007009
1091.72248409
338.324178767
111.902633618
40.7323781509
16.8718884123
8.24559279529
4.84766496941
3.43335096701
2.72870815919
2.04672607682
1.30014671139
0.786301828871
0.560353650071
0.480510975555
0.444149671008
0.406832194121
0.375181048188
0.412314149056
0.635222864694
3767.62949171
1129.38683057
347.822580446
114.941073618
42.7468045511
18.4391232656
9.37304176475
5.72325179767
4.20181578058
3.35898532224
2.38951018661
1.39321547104
0.770007311884
0.499339580022
0.402619835583
0.367921056151
0.341068840598
0.310915280215
0.321549270449
0.473854726433
4349.00525336
1233.29853044
368.951657173
123.054373714
47.7117727041
21.3462109036
10.9623902562
6.68476842472
4.87116927421
3.86684680495
2.74383215189
1.57736067804
0.82467710814
0.481321641027
0.35098661584
0.305376009369
0.282687819358
0.256871628497
0.253891936098
0.347294458634
4564.16667978
1255.65542952
378.349836195
129.586342319
51.9656072599
23.8371116732
12.3892520207
7.49959633278
5.38394754593
4.30036091424
3.16488248899
1.86837988225
0.95905250522
0.518771669003
0.341801798306
0.274250947588
0.245479289912
0.222322045999
0.209318075758
0.274100899925
4266.92741558
1196.81861356
367.726250481
129.545837856
53.3898586904
24.9461212504
13.170858578
8.04926618189
5.79412380616
4.67065421556
3.567145485
2.21426733017
1.16153308375
0.608676999495
0.372576751487
0.277170648804
0.234508751438
0.208567577751
0.189277351868
0.23522422057
3996.74514337
1133.64394991
352.405125962
125.836064313
52.4308919459
24.7501448767
13.2605902715
8.22061634364
5.97696099208
4.86760724795
3.82605204988
2.47982982179
1.3533938011
0.717840988653
0.427705088337
0.303429073654
0.245235002368
0.212731959979
0.190417822768
0.219996631719
3813.34371642
1081.77470824
336.90885543
120.153480581
49.6268065619
23.3795561056
12.6247924538
7.91585154526
5.82010597359
4.79637071744
3.85033831322
2.58135695618
1.46733182676
0.803831058256
0.483703426442
0.339672501265
0.26938021605
0.229997797843
0.204680019933
0.223583670366
3702.61398949
1050.09749247
325.014264581
114.145713885
46.0652830404
21.4327157529
11.5440866147
7.25800234828
5.36783319065
4.45251676188
3.61506312919
2.49050108176
1.47712888214
0.846437884146
0.527318687605
0.37696491118
0.300173695315
0.255243139686
0.226057936554
0.237295051194
3725.16781615
1044.31676127
318.343581836
109.186502495
43.1246647213
19.7384485273
10.4731614398
6.50721193023
4.77702541805
3.93937460238
3.19726782447
2.25270833907
1.39612339588
0.844043147122
0.553196029089
0.409601477735
0.331997671021
0.283469919057
0.250241970309
0.255173570663
3877.49854438
1063.14910614
315.849662831
105.9424086
41.3317114954
18.6414720774
9.66807088372
5.85532573472
4.19817145926
3.39247355375
2.72609116676
1.95389150008
1.26310979042
0.808683540442
0.561719595314
0.433684029306
0.359561633148
0.309268224782
0.27264786255
0.272034884762
4150.07839337
1110.4853692
322.231062421
105.852845469
40.7465048465
18.099165309
9.15742232361
5.36600069575
3.71016131787
2.9023573054
2.29130838418
1.65950013472
1.11480946595
0.755631370685
0.555432490223
0.445759204642
0.377432185548
0.327640588884
0.28882272241
0.283604410186
4414.88576259
1164.07584166
333.357441361
107.707806311
40.8094351336
17.828828458
8.81301705541
4.99736444388
3.31818532261
2.4960527922
1.92397022521
1.39982840539
0.973958369638
0.695772928844
0.535350632165
0.442891143091
0.382765633754
0.335712370997
0.296630408762
0.287062076198
4566.07443721
1198.10530509
342.899351738
109.938977196
41.0112663991
17.5690666142
8.4896389805
0.000153061405208
0.000202698256152
0.000318362044539
0.000573710583112
0.00112904493785
0.00226603253324
0.00430136433089
0.00729283998479
0.0109200499524
0.0148118748065
0.0188381225481
0.023201956622
0.0285678114718
0.0365100013456
0.051106289231
0.085395575308
0.191262814931
0.00160355853366
0.000284259077081
0.0001660806763
0.000171628052602
0.000231835713844
0.000374068318589
0.000686258333289
0.00134934695991
0.00264896515767
0.00483730760167
0.00785781503875
0.011354129672
0.0150045079859
0.0187284877059
0.0227478740457
0.0277091229955
0.0351016893134
0.048679898996
0.0801298724743
0.176177175795
0.00340834659733
0.000404961895531
0.000192533651478
0.000193118084429
0.000265805971788
0.00043956912631
0.000817034232091
0.00159677822424
0.00305494672331
0.00536464598642
0.00837266313057
0.0117148791576
0.0151206653453
0.0185508192843
0.0222398928368
0.0268148043973
0.0336866018819
0.0463140696563
0.0750603853372
0.16093062199
0.00837023904382
0.000635601323288
0.000228678710492
0.000218353431429
0.000305486964558
0.000516202726096
0.000967434438934
0.00187061306792
0.00347780291152
0.00587505257519
0.00883523176572
0.012006922408
0.0151683625296
0.0183141662556
0.0216870679058
0.0258936101813
0.0322734578333
0.0440240584419
0.0702636555242
0.145940409575
0.0208145222743
0.00109838275941
0.000281385090688
0.000248421332498
0.000351899430915
0.000605459120327
0.00113886511541
0.00216976878606
0.00391165371127
0.00636270974865
0.0092460462688
0.0122361871543
0.0151559968166
0.0180276103133
0.0210984661492
0.0249543792263
0.0308705780092
0.0418211393123
0.0657997097957
0.131622123807
0.0454168460592
0.00214333631675
0.000365877565767
0.000284901996912
0.000406252969168
0.00070904288561
0.00133283459914
0.00249303063458
0.00435147734597
0.00682443125614
0.00960790119864
0.0124097126329
0.0150923916918
0.0177003940115
0.0204832496116
0.0240060033896
0.0294858364746
0.0397128982737
0.0617150015848
0.118380564089
0.0818662758651
0.00485177575141
0.000516397782874
0.000330496854282
0.000470323479199
0.000829352573387
0.0015515707191
0.00283989907959
0.00479418819164
0.00726013228361
0.0099259096056
0.0125357566368
0.0149869322063
0.0173420102309
0.0198507037182
0.023057455636
0.0281268683844
0.0377033762583
0.058037626603
0.106572412781
0.123744810606
0.0117602884333
0.000805208230905
0.000389880870245
0.000546840836767
0.000970000768432
0.00179860813225
0.00321123291197
0.00523914210611
0.00767253677361
0.010206857835
0.0126231499766
0.0148489267079
0.0169615581408
0.0192096028178
0.0221172247395
0.0268007285277
0.0357929330185
0.0547732730126
0.0964684611146
0.165089403506
0.0263022548119
0.00139244272577
0.000471631759792
0.000639920551029
0.00113623926482
0.0020790074197
0.00360922848699
0.00568764574445
0.00806591741202
0.0104577696677
0.0126799527807
0.0146863787119
0.0165666223589
0.0185671908899
0.0211924185803
0.0255133275923
0.0339784598063
0.0519031637683
0.088225640019
0.204937049732
0.050091289811
0.00264944904837
0.000592449225413
0.000755623623388
0.00133517502954
0.00239896165971
0.00403654986947
0.00614148893295
0.00844412126296
0.0106840248981
0.012711844907
0.0145046372246
0.0161621320106
0.0179281940265
0.0202879275077
0.0242691182994
0.0322549354766
0.049385950127
0.081870727948
0.238317802822
0.0815297859791
0.00533260604257
0.000785109066237
0.000902415145803
0.0015752226336
0.00276425263878
0.00449434299013
0.00660059512364
0.00880822621335
0.0108874801313
0.012720749926
0.0143054198159
0.0157496523139
0.0172942395131
0.0194057857733
0.0230700958092
0.030615261022
0.0471603811928
0.0773002925195
0.268203424287
0.117918011754
0.0106797141236
0.00111098491143
0.00109141596285
0.00186441610264
0.00317758289414
0.00497966351964
0.00706070148674
0.00915483079161
0.0110655258573
0.0127045007734
0.0140868689912
0.0153276430201
0.0166641546763
0.0185453397336
0.0219157752588
0.0290503635862
0.0451555001474
0.0742981466077
0.303666715111
0.158098362441
0.0203450707459
0.00167971521876
0.0013365861408
0.00220796886954
0.00363601603122
0.0054839739405
0.00751277038902
0.00947638965306
0.011212136001
0.0126582782399
0.0138451166016
0.0148929725573
0.0160353389926
0.017704123705
0.0208038457264
0.0275530231709
0.0433030087348
0.0725695482343
0.349195670146
0.203707106791
0.0363455793695
0.00267640846771
0.00165656066489
0.00260724704719
0.00413103498929
0.00599475444169
0.0079454508245
0.00976415432678
0.0113209051144
0.0125774561249
0.01357679897
0.0144431244805
0.0154056723972
0.0168805466318
0.0197326982721
0.026119202275
0.0415461488593
0.0717801247843
0.407500572621
0.257453331925
0.0606638377921
0.00441741444599
0.00208130145161
0.00306223976475
0.00465203235554
0.0064996360979
0.00834902641289
0.0100116373181
0.0113878745672
0.0124597820663
0.0132807105634
0.0139774116457
0.0147747588096
0.01607354769
0.0186998245111
0.0247438302069
0.0398451290108
0.0715964334263
0.479026836053
0.319920381732
0.094512868282
0.0074838430025
0.00266741825954
0.00357601482022
0.00518963632508
0.00698874244835
0.00871675847122
0.0102151899565
0.0114115667789
0.0123050829291
0.0129573381023
0.0134966178821
0.0141425444605
0.0152806967882
0.0177024366954
0.0234245973737
0.0381753731338
0.0717059193532
0.564326376972
0.385252152295
0.138435418354
0.012962254506
0.00352543522336
0.00415918496436
0.0057363446305
0.0074537543114
0.00904339275205
0.0103724568644
0.0113916036653
0.0121141305448
0.0126079825726
0.013001723655
0.0135096342977
0.0145043950246
0.0167432163288
0.0221657292149
0.0365253234599
0.0718120376103
0.661485856995
0.458585878349
0.193314444736
0.0228789904411
0.00488004905225
0.00484187823736
0.00629099127517
0.00788982870675
0.00932625564264
0.0104832000351
0.0113293900227
0.0118892072855
0.0122351744371
0.012495431798
0.0128795657534
0.01374758004
0.0158253580952
0.0209735234873
0.0348972367815
0.0716550207877
0.764363125218
0.543581556609
0.259320388851
0.0405974837296
0.00718927454796
0.00569834623255
0.00686845235259
0.00829988601432
0.0095672740174
0.0105502141356
0.0112283631465
0.0116339105994
0.0118424150426
0.0119811786455
0.0122550289955
0.013012385697
0.0149509102578
0.0198529611582
0.0332995242952
0.0710115231275
0.870748690212
0.644489970523
0.33609642897
0.0702910026412
0.0113579972485
0.00688194172639
0.00750450941171
0.00869254731657
0.00976929604856
0.0105756737859
0.0110907901279
0.0113504197827
0.0114316290355
0.0114604198561
0.0116367809426
0.0122986207249
0.0141184555613
0.0188038263676
0.0317411859452
0.0697008728013
0.977824859632
0.767928017722
0.429160086987
0.116454363303
0.0192586412848
0.00870972829553
0.0082694395192
0.00908530678898
0.00993714753691
0.0105620067315
0.0109188417476
0.011040719532
0.0110042697654
0.0109338648811
0.0110249268571
0.0116049180418
0.0133237584497
0.0178204968048
0.0302314584065
0.0676205050578
1.08138950561
0.9120507804
0.542711786065
0.183768732472
0.0346742323527
0.0118676137179
0.00931707506331
0.00952774361296
0.0100924384788
0.0105224569582
0.0107225000384
0.0107126951871
0.0105663643564
0.0104056348992
0.0104213373117
0.010931065148
0.0125634432391
0.0168950139183
0.0287786490475
0.0647738328507
1.16875562372
1.05666722525
0.665910614216
0.273241851989
0.0633199391695
0.0177249179416
0.0109537666281
0.0101209568842
0.0102821219475
0.0104853189246
0.0105217027953
0.0103812891997
0.0101292054726
0.00988392245212
0.0098308209171
0.0102765648366
0.0118288040779
0.0160081710282
0.0273707724287
0.0612233432284
1.22052245531
1.17233239931
0.801903229474
0.383664683187
0.109469927726
0.0285011541236
0.0137081206259
0.0110272780695
0.0105786977055
0.010492443581
0.0103449768933
0.01006767822
0.00970873306434
0.00937950098489
0.00925720290706
0.00963426227352
0.0110931714981
0.0150962479568
0.0258993684562
0.0569706113205
1.21606206873
1.23033730736
0.911527794291
0.476021035074
0.168765859131
0.0465591881336
0.018420767311
0.0125050150259
0.011087243434
0.0106017710868
0.0102318273157
0.00980252705199
0.00932952967997
0.0089095984093
0.00870553749089
0.00898798900136
0.0103021490889
0.0140320472583
0.024126503346
0.051870803692
1.13801356908
1.21668303426
0.972969871328
0.543460577291
0.229451775895
0.0723985452258
0.0260710809122
0.0148936331588
0.0119347320647
0.0108810826734
0.010233036872
0.00963319058362
0.00904009134838
0.00852465107337
0.00822765134542
0.00839080201648
0.0095101759749
0.0128631734864
0.0220496327852
0.0459175571966
0.987029097202
1.14309625573
0.985154476762
0.598172389034
0.284468956533
0.103449507879
0.0371130510114
0.0185431136066
0.0132690571339
0.011416771492
0.0104330724563
0.00965944041143
0.0089623132471
0.00837451165639
0.0080115420151
0.00808956028384
0.00906370449724
0.0120977374553
0.0202945392048
0.0393411843784
0.798270905694
1.03270664088
0.964012841405
0.643993992705
0.328180883189
0.136919877773
0.0516687915139
0.02379375346
0.0152850021153
0.0123639261851
0.0110146917813
0.0101137545423
0.00938798217571
0.00882247035673
0.00851383284108
0.00867261633891
0.00974506116043
0.012770455058
0.019886119523
0.0319064840466
0.628290246934
0.912931349625
0.93383253558
0.688344156846
0.374108175007
0.173940486544
0.0701907305678
0.0310015085628
0.0182605666511
0.0139907369116
0.0122997254423
0.0114010816417
0.0108174615769
0.0104794798719
0.010476832421
0.0110234205153
0.0125066361271
0.0155112182055
0.0199466154455
0.021396818777
0.496303053191
0.811769129753
0.915263001382
0.738757611437
0.431911404762
0.218184377534
0.0941664679651
0.0409196158969
0.0225735102772
0.0166198833738
0.0146905192508
0.014072021033
0.0139889900567
0.0142918623894
0.0149893914016
0.0161001979477
0.0175599909052
0.0185953118926
0.0173748852653
0.0125667567041
0.403790425365
0.744989632206
0.918143733743
0.803780734385
0.508843043031
0.275935755357
0.126989571248
0.0553728925979
0.0289622099831
0.0208352776549
0.0191103145262
0.019688263527
0.0213369446289
0.0237644586286
0.0269790194112
0.0296851104903
0.0311270427356
0.0317778807395
0.0334983834429
0.0384642741896
0.34955343286
0.706935106825
0.939450930542
0.883058134983
0.611047028165
0.356581443463
0.175216991049
0.0787783092971
0.0397423340894
0.0286512544963
0.0284305645834
0.0325291981687
0.0388618850999
0.0467710387515
0.0540041162671
0.0609628795647
0.0687211074655
0.0791082994332
0.0953308464182
0.123698347523
0.324509946728
0.667837426028
0.965722117957
0.971874025497
0.744567910427
0.472286212183
0.253314005119
0.122799764044
0.0617665063742
0.0437377123428
0.0446554405131
0.0531143100489
0.0650546687314
0.0774056398896
0.0892302586263
0.101327052001
0.116852016847
0.143713171409
0.196554678749
0.298002190092
0.3182685421
0.606653311309
0.962881660634
1.04999223831
0.888095728098
0.633172147266
0.394480055296
0.213983060314
0.113908295683
0.0752241658112
0.0705673574204
0.0814763157319
0.100303669221
0.120726024677
0.140796101725
0.159786348738
0.175885176299
0.207606407392
0.311205569539
0.561733221934
0.318680495461
0.54439642831
0.908491235362
1.06115308337
0.998616963808
0.814350330938
0.622156412923
0.413560904608
0.252623343164
0.165115777549
0.134908556437
0.139002856753
0.163086944661
0.194819658818
0.234448442869
0.282104544344
0.287736189264
0.27410691489
0.421004702164
0.906821337631
0.319057464619
0.484574533305
0.813332750304
1.00096169859
1.01505224008
0.918147738009
0.783049364889
0.654820827059
0.54586983666
0.423965717063
0.333588262503
0.288894008102
0.281302298553
0.298733053668
0.344864173778
0.416180952243
0.365420320495
0.274151193233
0.463404886215
1.32788464204
0.314548598219
0.426783108487
0.699578890522
0.890443961279
0.947116784859
0.912040063061
0.830197178996
0.741518899668
0.660482325784
0.589196190238
0.530820829228
0.476444853616
0.412763669614
0.353423733547
0.382200538251
0.460040743529
0.361957909161
0.230617467363
0.394578610504
1.57399920999
0.302835644038
0.370014978392
0.580705893103
0.755520950996
0.830860671692
0.831831708444
0.783345653611
0.714894636137
0.641824858064
0.56918703191
0.4951741476
0.415976336852
0.33332543243
0.2792964023
0.317719230519
0.431042542123
0.382613462682
0.224436146917
0.341708643755
1.45492401099
)
;

boundaryField
{
    emptyPatch
    {
        type            empty;
    }
    minY
    {
        type            fixedValue;
        value           nonuniform List<scalar> 0();
    }
    maxY
    {
        type            inletOutlet;
        inletValue      nonuniform List<scalar> 0();
        value           nonuniform List<scalar> 0();
    }
    maxX
    {
        type            fixedValue;
        value           nonuniform List<scalar> 
38
(
0.628592258742
0.589373256776
0.551271192212
0.514798155173
0.48043154549
0.44859099647
0.419598579033
0.393643145934
0.37075758787
0.350804321748
0.333512065252
0.318504635907
0.305351265153
0.293619654166
0.282945821293
0.273024735296
0.263573489996
0.25438854934
0.245287750999
0.236099754514
0.226702426451
0.217025411563
0.206884604089
0.195419905596
0.180681141645
0.163017303971
0.148344212416
0.146745841457
0.164003752877
0.219507501187
0.399680299234
0.780388089815
1.37599914655
2.07186336555
2.78010126238
3.39816065624
3.56975489759
3.16809384706
)
;
    }
    water_to_heater
    {
        type            fixedValue;
        value           nonuniform List<scalar> 
60
(
9366.49090058
9366.49090058
8502.313279
6972.73235577
6172.47807192
6172.47807192
7272.3310606
7272.3310606
10406.1141751
10406.1141751
13690.7655192
14094.192907
13506.3857691
13506.3857691
12807.1086715
12807.1086715
12206.6293205
12206.6293205
11765.7501112
11445.4409451
11283.1068491
11283.1068491
11266.2817867
11266.2817867
11536.3070126
11536.3070126
12224.2869377
13536.9497764
15355.7170461
15355.7170461
17101.7002265
17101.7002265
18154.4622534
18154.4622534
18040.9525639
16518.9515396
13991.9905356
13991.9905356
11666.9024112
11666.9024112
10650.0497601
10650.0497601
11499.77043
13517.4553084
13978.507894
13978.507894
13211.2226609
13211.2226609
12499.3273526
12499.3273526
11947.4983919
11693.6637193
11728.2724404
11728.2724404
12116.6331899
12116.6331899
12748.6859173
12748.6859173
13349.5115724
13512.5973061
)
;
    }
    procBoundary3to1
    {
        type            processor;
        value           nonuniform List<scalar> 
41
(
4.67874555763
2.99656267453
2.16853999249
1.62787816029
1.18663736441
0.851879603965
0.633316531034
0.502953892598
0.426385434316
0.375143380761
0.332842057157
0.295918409233
0.281331140522
4438.10471056
1183.03078214
343.398238013
110.758858057
40.8851967452
17.1682671051
4.67874555763
8.13342135642
0.284218444973
0.319382019864
0.458652560319
0.617546003409
0.700985106778
0.720236254609
0.694736228496
0.643442620013
0.579893149593
0.510114687922
0.434974995774
0.356005818751
0.280122314249
0.228242911917
0.255640991508
0.366641467827
0.398174233244
0.220103757709
0.291434058083
1.11223917507
)
;
    }
    procBoundary3to2
    {
        type            processor;
        value           nonuniform List<scalar> 
41
(
3434.88096507
876.403912343
247.104386237
78.2858601366
28.1711060717
11.3204768961
4.99423142965
2.42681306811
1.36371217705
0.944442329511
0.798983876445
0.773572419117
0.800792677054
0.83234617266
0.829916505459
0.822164826753
0.726860888094
0.500768485686
0.185199858469
0.0168151912637
0.000136944973643
0.000177793200918
0.000271400304545
0.000478175788723
0.000936413974026
0.00191253879073
0.00376804186701
0.00668396421324
0.010410632642
0.0145360631411
0.0188713703378
0.0235936870191
0.0293830395898
0.0379042238843
0.0535794593538
0.0907939342274
0.205999175536
0.000874231259561
0.00021602510153
0.000145569117402
0.000145569117402
)
;
    }
}


// ************************************************************************* //
