/*--------------------------------*- C++ -*----------------------------------*\
| =========                 |                                                 |
| \\      /  F ield         | OpenFOAM: The Open Source CFD Toolbox           |
|  \\    /   O peration     | Version:  2312                                  |
|   \\  /    A nd           | Website:  www.openfoam.com                      |
|    \\/     M anipulation  |                                                 |
\*---------------------------------------------------------------------------*/
FoamFile
{
    version     2.0;
    format      ascii;
    arch        "LSB;label=32;scalar=64";
    class       surfaceScalarField;
    location    "50";
    object      phi.water;
}
// * * * * * * * * * * * * * * * * * * * * * * * * * * * * * * * * * * * * * //

dimensions      [0 3 -1 0 0 0 0];

oriented        oriented;

internalField   nonuniform List<scalar> 
3650
(
5.19386e-05
-5.34672e-05
0.000103223
-5.65765e-05
0.000157194
-5.70773e-05
0.000210239
-5.49406e-05
0.00025984
-5.10882e-05
0.000305065
-4.60197e-05
0.000344854
-4.02179e-05
0.000378496
-3.39042e-05
0.000405401
-2.71185e-05
0.000425003
-1.98981e-05
0.000436767
-1.2263e-05
0.000439829
-4.24041e-06
0.000433745
4.0757e-06
0.000418704
1.25505e-05
0.000394796
2.09409e-05
0.000362459
2.88527e-05
0.000322444
3.58038e-05
0.000276319
4.10911e-05
0.000226934
4.37711e-05
0.00017817
4.32124e-05
0.000134491
3.95984e-05
9.77206e-05
3.46615e-05
6.59305e-05
3.09647e-05
3.45636e-05
2.98148e-05
2.9049e-05
5.50854e-05
-9.58129e-05
0.000101965
-9.46685e-05
0.000144582
-9.15155e-05
0.000184299
-8.62744e-05
0.000220977
-7.92836e-05
0.000254342
-7.06956e-05
0.000283813
-6.07391e-05
0.000308762
-4.96626e-05
0.000328771
-3.76812e-05
0.000343489
-2.49357e-05
0.000352665
-1.15077e-05
0.000356104
2.49853e-06
0.000353463
1.68258e-05
0.000343856
3.11971e-05
0.000326618
4.50427e-05
0.000302185
5.77089e-05
0.000272074
6.84782e-05
0.000237264
7.65044e-05
0.000199537
8.03209e-05
0.000160782
7.94508e-05
0.000123272
7.45204e-05
8.88349e-05
6.79003e-05
5.72407e-05
6.28755e-05
2.87729e-05
6.03787e-05
5.79655e-05
4.11031e-05
-0.000127784
7.64521e-05
-0.000124256
0.000107344
-0.000118167
0.000135413
-0.000110431
0.000160883
-0.000100891
0.000183331
-8.94366e-05
0.000202322
-7.61677e-05
0.000217517
-6.14069e-05
0.000228735
-4.55438e-05
0.000235898
-2.88132e-05
0.000238967
-1.13275e-05
0.000237912
6.84732e-06
0.00023251
2.55544e-05
0.000222759
4.43566e-05
0.000208732
6.24965e-05
0.000190254
7.89331e-05
0.000167853
9.24598e-05
0.000142602
0.000101963
0.000116159
0.000105763
9.01193e-05
0.000103647
6.60295e-05
9.65223e-05
4.50898e-05
8.70967e-05
2.80687e-05
7.89531e-05
1.47525e-05
7.34743e-05
7.01411e-05
1.95344e-05
-0.000143131
3.83274e-05
-0.000139144
5.55979e-05
-0.000132418
7.13561e-05
-0.000123402
8.50749e-05
-0.000111816
9.582e-05
-9.76625e-05
0.000102986
-8.1313e-05
0.000106611
-6.34164e-05
0.000107079
-4.45513e-05
0.00010465
-2.49942e-05
9.94429e-05
-4.83335e-06
9.15529e-05
1.58853e-05
8.12082e-05
3.6966e-05
6.91134e-05
5.7772e-05
5.63705e-05
7.7209e-05
4.3872e-05
9.39268e-05
3.21291e-05
0.000106455
2.21431e-05
0.000113688
1.40156e-05
0.000114903
8.01944e-06
0.00011016
4.14323e-06
0.000100965
1.21285e-06
9.02031e-05
-5.2988e-07
8.08565e-05
-6.93176e-07
7.40628e-05
6.98756e-05
1.468e-06
-0.000144843
3.61988e-06
-0.000140453
4.49319e-06
-0.000133252
4.28216e-06
-0.000123158
1.70374e-06
-0.000109699
-4.00405e-06
-9.33027e-05
-1.26281e-05
-7.47489e-05
-2.34688e-05
-5.4975e-05
-3.58098e-05
-3.47278e-05
-4.90654e-05
-1.42984e-05
-6.26198e-05
6.27139e-06
-7.57492e-05
2.6861e-05
-8.73876e-05
4.70248e-05
-9.62669e-05
6.5858e-05
-0.000101186
8.21336e-05
-0.000101335
9.47065e-05
-9.69087e-05
0.000102644
-8.81616e-05
0.000105332
-7.57817e-05
0.000102787
-6.09966e-05
9.55771e-05
-4.57226e-05
8.56033e-05
-3.1363e-05
7.56787e-05
-1.87199e-05
6.81032e-05
-8.3445e-06
6.32113e-05
6.10779e-05
-1.54061e-05
-0.000132337
-2.84194e-05
-0.000127436
-4.39586e-05
-0.00011914
-6.23771e-05
-0.000107479
-8.48651e-05
-9.20386e-05
-0.000110366
-7.39677e-05
-0.000136934
-5.47083e-05
-0.000162741
-3.54039e-05
-0.000186298
-1.6704e-05
-0.000206447
1.24858e-06
-0.000222106
1.84463e-05
-0.000232339
3.48091e-05
-0.000236184
4.98071e-05
-0.000233068
6.26959e-05
-0.000222982
7.2605e-05
-0.000206483
7.8965e-05
-0.000184491
8.14337e-05
-0.000158394
7.99978e-05
-0.000129659
7.4949e-05
-0.000100507
6.73716e-05
-7.32856e-05
5.9048e-05
-4.92113e-05
5.19569e-05
-2.86735e-05
4.75852e-05
-1.23722e-05
4.63635e-05
4.79882e-05
-2.96781e-05
-0.000107041
-5.65072e-05
-0.000101706
-8.78033e-05
-9.1889e-05
-0.000124693
-7.82202e-05
-0.000165382
-6.09863e-05
-0.000206304
-4.25894e-05
-0.000243938
-2.5257e-05
-0.000275571
-9.94313e-06
-0.000299776
3.3058e-06
-0.000315977
1.48712e-05
-0.000324071
2.50884e-05
-0.000323859
3.40743e-05
-0.00031539
4.14881e-05
-0.000299171
4.69726e-05
-0.000276059
5.02049e-05
-0.000247363
5.09863e-05
-0.000214407
4.92766e-05
-0.000178792
4.54045e-05
-0.000142735
4.00182e-05
-0.000108596
3.41927e-05
-7.81732e-05
2.91579e-05
-5.2145e-05
2.60681e-05
-3.05327e-05
2.57734e-05
-1.39973e-05
2.87409e-05
3.40627e-05
-3.82707e-05
-7.42716e-05
-7.54034e-05
-6.74042e-05
-0.000117583
-5.51797e-05
-0.000165972
-3.93207e-05
-0.000214367
-2.14841e-05
-0.000258686
-5.28072e-06
-0.000295398
7.06356e-06
-0.000322856
1.54182e-05
-0.00034098
2.084e-05
-0.000350142
2.43716e-05
-0.000350722
2.64581e-05
-0.000342728
2.72928e-05
-0.000326781
2.70844e-05
-0.000303852
2.57003e-05
-0.00027545
2.32803e-05
-0.000242698
1.98802e-05
-0.000207369
1.56652e-05
-0.000171372
1.10831e-05
-0.000136702
6.71709e-06
-0.000104877
3.27024e-06
-7.6754e-05
1.44819e-06
-5.24616e-05
1.89284e-06
-3.20129e-05
5.15603e-06
-1.61676e-05
1.16547e-05
1.93562e-05
-4.21609e-05
-3.86371e-05
-8.39971e-05
-2.91821e-05
-0.00012872
-1.46278e-05
-0.000177622
2.16794e-06
-0.000223124
1.86756e-05
-0.000262782
3.09077e-05
-0.000294134
3.71994e-05
-0.000316319
3.81047e-05
-0.000329221
3.5301e-05
-0.00033387
3.0667e-05
-0.000330156
2.50792e-05
-0.000318757
1.87099e-05
-0.000301508
1.21331e-05
-0.000279191
5.66111e-06
-0.000252808
-6.39966e-07
-0.000223878
-6.72344e-06
-0.000193801
-1.23751e-05
-0.000163839
-1.72929e-05
-0.000134962
-2.11043e-05
-0.000107725
-2.3381e-05
-8.23822e-05
-2.36534e-05
-5.8943e-05
-2.14526e-05
-3.7717e-05
-1.63109e-05
-1.97886e-05
-7.79905e-06
1.32534e-06
-4.27292e-05
-3.89463e-06
-8.06525e-05
8.46077e-06
-0.00012196
2.39892e-05
-0.00016414
4.00432e-05
-0.000202661
5.42387e-05
-0.000235999
6.25957e-05
-0.000262315
6.36024e-05
-0.00028067
5.79593e-05
-0.000290643
4.79597e-05
-0.000293013
3.61475e-05
-0.000288953
2.41616e-05
-0.000279897
1.26773e-05
-0.000266646
1.94866e-06
-0.000250198
-7.91851e-06
-0.000231294
-1.69992e-05
-0.000210702
-2.52361e-05
-0.000188995
-3.25013e-05
-0.000166573
-3.86174e-05
-0.000143641
-4.33256e-05
-0.000120262
-4.62923e-05
-9.6509e-05
-4.7107e-05
-7.23868e-05
-4.53332e-05
-4.85486e-05
-4.04707e-05
-2.61445e-05
-3.20012e-05
-2.27737e-05
-3.92284e-05
2.76496e-05
-6.86204e-05
4.13303e-05
-0.000102391
5.67981e-05
-0.000135919
7.12198e-05
-0.000166535
8.30655e-05
-0.000193202
8.84018e-05
-0.000214561
8.54963e-05
-0.000229434
7.48535e-05
-0.000238193
5.96397e-05
-0.000241793
4.30161e-05
-0.000241162
2.68087e-05
-0.000237228
1.17707e-05
-0.000230616
-2.00859e-06
-0.00022167
-1.46448e-05
-0.000210692
-2.62202e-05
-0.000197841
-3.67416e-05
-0.000183191
-4.61318e-05
-0.000166778
-5.42406e-05
-0.000148613
-6.08466e-05
-0.00012867
-6.56762e-05
-0.000106942
-6.83933e-05
-8.3255e-05
-6.86517e-05
-5.80987e-05
-6.60097e-05
-3.2351e-05
-5.97917e-05
-5.25711e-05
-3.09132e-05
5.25977e-05
-5.18734e-05
6.62247e-05
-7.53461e-05
8.10177e-05
-9.94212e-05
9.39868e-05
-0.000121421
0.000104108
-0.000140969
0.000107545
-0.000157048
0.000102421
-0.000169102
8.90228e-05
-0.000177839
7.10109e-05
-0.000183867
5.1664e-05
-0.000187628
3.28364e-05
-0.000189216
1.52251e-05
-0.000188609
-1.10049e-06
-0.000185787
-1.62399e-05
-0.000180724
-3.02676e-05
-0.00017341
-4.31755e-05
-0.000163863
-5.48731e-05
-0.000152143
-6.51986e-05
-0.000138336
-7.39484e-05
-0.000122472
-8.09139e-05
-0.000104548
-8.58784e-05
-8.42439e-05
-8.87038e-05
-6.13903e-05
-8.92923e-05
-3.51491e-05
-8.71295e-05
-8.38523e-05
-1.85065e-05
6.76232e-05
-3.04141e-05
8.08711e-05
-4.33484e-05
9.4965e-05
-5.69447e-05
0.000107005
-6.94738e-05
0.000116231
-8.12735e-05
0.000119182
-9.21653e-05
0.000113917
-0.000102185
0.00010036
-0.000111459
8.18981e-05
-0.000119883
6.15851e-05
-0.000127168
4.1294e-05
-0.000132883
2.1821e-05
-0.000136675
3.38117e-06
-0.000138327
-1.3999e-05
-0.000137725
-3.03184e-05
-0.000134814
-4.55295e-05
-0.000129577
-5.95022e-05
-0.000122105
-7.20268e-05
-0.000112529
-8.28831e-05
-0.000100982
-9.1873e-05
-8.75838e-05
-9.88504e-05
-7.23036e-05
-0.000103851
-5.46204e-05
-0.00010723
-3.18893e-05
-0.000109186
-0.0001102
-5.2789e-06
7.17159e-05
-7.59459e-06
8.46171e-05
-1.03939e-05
9.83364e-05
-1.35258e-05
0.000109982
-1.64915e-05
0.000119099
-2.03106e-05
0.000122916
-2.5668e-05
0.000119459
-3.30105e-05
0.000108149
-4.17036e-05
9.1275e-05
-5.09908e-05
7.16087e-05
-6.00953e-05
5.10604e-05
-6.83819e-05
3.06393e-05
-7.54015e-05
1.07846e-05
-8.07993e-05
-8.32766e-06
-8.42923e-05
-2.66021e-05
-8.56724e-05
-4.39159e-05
-8.48442e-05
-6.00579e-05
-8.17999e-05
-7.47531e-05
-7.65681e-05
-8.77329e-05
-6.93003e-05
-9.87414e-05
-6.01153e-05
-0.000107599
-4.93361e-05
-0.000114319
-3.71762e-05
-0.0001194
-2.17727e-05
-0.000123816
-0.000127381
5.14719e-06
6.65497e-05
1.17944e-05
7.87209e-05
1.82635e-05
9.20862e-05
2.45014e-05
0.000103726
3.04237e-05
0.000113247
3.4602e-05
0.000118683
3.59392e-05
0.000118176
3.31943e-05
0.000110864
2.705e-05
9.75155e-05
1.85659e-05
8.02661e-05
8.89489e-06
6.09626e-05
-1.07787e-06
4.08023e-05
-1.06851e-05
2.04779e-05
-1.94044e-05
3.5707e-07
-2.6807e-05
-1.93258e-05
-3.25404e-05
-3.83367e-05
-3.63829e-05
-5.63676e-05
-3.81685e-05
-7.30749e-05
-3.78066e-05
-8.81159e-05
-3.53283e-05
-0.000101145
-3.087e-05
-0.000111884
-2.46619e-05
-0.000120166
-1.77888e-05
-0.000126272
-1.01868e-05
-0.000131672
-0.000136354
1.16264e-05
5.49741e-05
2.56642e-05
6.53782e-05
3.97786e-05
7.80539e-05
5.3724e-05
8.99071e-05
6.6972e-05
0.000100115
7.83079e-05
0.000107398
8.62302e-05
0.00011025
8.91957e-05
0.00010761
8.7109e-05
9.92279e-05
8.09445e-05
8.6038e-05
7.19526e-05
6.95947e-05
6.13872e-05
5.10901e-05
5.01611e-05
3.14333e-05
3.89529e-05
1.12308e-05
2.82755e-05
-9.09878e-06
1.8558e-05
-2.91863e-05
1.01904e-05
-4.86209e-05
3.48336e-06
-6.69661e-05
-1.37509e-06
-8.37834e-05
-4.23751e-06
-9.86349e-05
-5.16443e-06
-0.000111108
-4.52749e-06
-0.000120794
-3.36039e-06
-0.000127728
-2.13701e-06
-0.000133689
-0.000139333
1.27207e-05
3.95992e-05
3.18911e-05
4.69983e-05
5.22543e-05
5.82308e-05
7.23263e-05
7.03114e-05
9.10498e-05
8.15884e-05
0.000107657
9.09464e-05
0.000120774
9.71711e-05
0.000129129
9.91228e-05
0.000131737
9.6168e-05
0.00012888
8.82489e-05
0.000121741
7.60038e-05
0.000111573
6.04842e-05
9.96797e-05
4.26141e-05
8.69962e-05
2.32401e-05
7.41774e-05
3.01874e-06
6.16871e-05
-1.74975e-05
4.99281e-05
-3.77718e-05
3.92478e-05
-5.72587e-05
2.99075e-05
-7.54141e-05
2.21149e-05
-9.17125e-05
1.61007e-05
-0.000105605
1.13861e-05
-0.000116433
7.53835e-06
-0.000124109
4.17981e-06
-0.00013064
-0.000136923
1.66645e-05
2.18227e-05
3.75615e-05
2.61892e-05
6.13348e-05
3.5579e-05
8.49093e-05
4.77238e-05
0.000106612
6.04117e-05
0.000125751
7.21396e-05
0.000141409
8.17139e-05
0.000152646
8.79781e-05
0.000158645
9.00168e-05
0.000158916
8.74403e-05
0.000153881
8.03363e-05
0.000144758
6.86468e-05
0.000132949
5.33562e-05
0.000119666
3.54878e-05
0.000105791
1.59213e-05
9.19103e-05
-4.56044e-06
7.84077e-05
-2.52422e-05
6.55544e-05
-4.54404e-05
5.35451e-05
-6.44895e-05
4.24783e-05
-8.17663e-05
3.25541e-05
-9.66238e-05
2.36106e-05
-0.000108258
1.57634e-05
-0.000116545
8.95737e-06
-0.000123566
-0.000130247
2.19974e-05
2.8853e-06
4.21784e-05
5.43386e-06
6.61186e-05
1.31325e-05
9.07422e-05
2.50504e-05
0.000113389
3.91035e-05
0.000133025
5.3373e-05
0.000148997
6.63512e-05
0.000160564
7.67411e-05
0.000167416
8.34069e-05
0.000169095
8.56093e-05
0.000165782
8.30498e-05
0.000158239
7.54687e-05
0.000147443
6.31071e-05
0.000134592
4.71397e-05
0.000120779
2.85571e-05
0.00010677
8.36727e-06
9.30274e-05
-1.24827e-05
7.97757e-05
-3.31201e-05
6.70897e-05
-5.273e-05
5.49403e-05
-7.05616e-05
4.31829e-05
-8.58688e-05
3.16618e-05
-9.78966e-05
2.12871e-05
-0.000106606
1.16007e-05
-0.000113972
-0.000121195
2.09946e-05
-1.50241e-05
3.98442e-05
-1.3723e-05
6.18997e-05
-7.27319e-06
8.54787e-05
4.23788e-06
0.000107596
1.9284e-05
0.000126713
3.59347e-05
0.000141963
5.22773e-05
0.000152909
6.66535e-05
0.000159261
7.76043e-05
0.000161101
8.39922e-05
0.000158973
8.50232e-05
0.000152909
8.10272e-05
0.000143598
7.1571e-05
0.000132161
5.74727e-05
0.000119591
3.99189e-05
0.000106716
2.00854e-05
9.40671e-05
-8.45412e-07
8.18827e-05
-2.1779e-05
7.01518e-05
-4.1726e-05
5.87543e-05
-5.97863e-05
4.71994e-05
-7.51038e-05
3.51832e-05
-8.7147e-05
2.41099e-05
-9.59831e-05
1.24114e-05
-0.000103376
-0.000111449
1.8362e-05
-3.0798e-05
3.40011e-05
-2.98652e-05
5.15689e-05
-2.38519e-05
7.09084e-05
-1.2627e-05
8.99299e-05
2.915e-06
0.000106873
2.13024e-05
0.000120413
4.05233e-05
0.000129901
5.8446e-05
0.000135191
7.30785e-05
0.00013674
8.29189e-05
0.000134867
8.71078e-05
0.000130123
8.55408e-05
0.000122827
7.83216e-05
0.000113813
6.56328e-05
0.000103811
4.88902e-05
9.34719e-05
2.93705e-05
8.32546e-05
8.43475e-06
7.33583e-05
-1.2615e-05
6.3703e-05
-3.26114e-05
5.4008e-05
-5.05174e-05
4.36733e-05
-6.54544e-05
3.2595e-05
-7.72409e-05
2.22998e-05
-8.60368e-05
1.1584e-05
-9.33136e-05
-0.000102234
1.50196e-05
-4.36094e-05
2.58698e-05
-4.17602e-05
3.74245e-05
-3.54056e-05
5.03568e-05
-2.42003e-05
6.39237e-05
-8.46136e-06
7.6681e-05
1.09331e-05
8.70492e-05
3.22022e-05
9.40713e-05
5.29148e-05
9.76078e-05
7.05024e-05
9.81113e-05
8.29667e-05
9.62703e-05
8.91567e-05
9.29014e-05
8.88259e-05
8.83024e-05
8.25994e-05
8.28107e-05
7.06055e-05
7.67629e-05
5.43166e-05
7.04288e-05
3.50733e-05
6.39741e-05
1.43368e-05
5.73999e-05
-6.46385e-06
5.05245e-05
-2.60426e-05
4.28908e-05
-4.33126e-05
3.42688e-05
-5.75844e-05
2.50932e-05
-6.90427e-05
1.67721e-05
-7.78797e-05
9.13651e-06
-8.52319e-05
-9.46543e-05
1.07509e-05
-5.19566e-05
1.65533e-05
-4.84698e-05
2.23518e-05
-4.15046e-05
2.88018e-05
-3.01947e-05
3.5807e-05
-1.42927e-05
4.24039e-05
5.73142e-06
4.74133e-05
2.82832e-05
5.04836e-05
5.06887e-05
5.17115e-05
6.99252e-05
5.1562e-05
8.35801e-05
5.0643e-05
9.03855e-05
4.92991e-05
9.02313e-05
4.79089e-05
8.38337e-05
4.64493e-05
7.1822e-05
4.48816e-05
5.56264e-05
4.30836e-05
3.66518e-05
4.08617e-05
1.63963e-05
3.79535e-05
-3.69542e-06
3.40579e-05
-2.23453e-05
2.87084e-05
-3.85834e-05
2.23974e-05
-5.21332e-05
1.60885e-05
-6.33813e-05
1.05286e-05
-7.23466e-05
5.84554e-06
-7.99053e-05
-8.96079e-05
5.81946e-06
-5.48904e-05
6.90918e-06
-4.98075e-05
7.40615e-06
-4.2241e-05
8.07873e-06
-3.08186e-05
8.59711e-06
-1.46989e-05
8.50922e-06
5.76231e-06
7.69589e-06
2.88936e-05
6.60052e-06
5.17299e-05
5.70433e-06
7.0986e-05
5.40776e-06
8.41479e-05
5.94302e-06
9.01038e-05
7.21739e-06
8.90778e-05
9.27553e-06
8.17599e-05
1.17585e-05
6.92681e-05
1.43535e-05
5.29859e-05
1.66419e-05
3.43686e-05
1.81639e-05
1.49022e-05
1.84414e-05
-4.06563e-06
1.71965e-05
-2.14374e-05
1.43143e-05
-3.6547e-05
1.10281e-05
-4.95247e-05
7.96343e-06
-6.0602e-05
5.12383e-06
-6.95411e-05
2.80026e-06
-7.723e-05
-8.70931e-05
-2.29066e-07
-5.26415e-05
-3.03886e-06
-4.66405e-05
-6.69485e-06
-3.84768e-05
-1.07961e-05
-2.68418e-05
-1.58317e-05
-1.03929e-05
-2.15166e-05
1.03013e-05
-2.68852e-05
3.32402e-05
-3.10068e-05
5.52265e-05
-3.31608e-05
7.29759e-05
-3.30352e-05
8.41461e-05
-3.09793e-05
8.81682e-05
-2.72389e-05
8.54788e-05
-2.22083e-05
7.68648e-05
-1.64514e-05
6.36597e-05
-1.05517e-05
4.72902e-05
-5.17508e-06
2.92131e-05
-9.85072e-07
1.08113e-05
1.54932e-06
-6.80542e-06
2.37226e-06
-2.28736e-05
2.18511e-06
-3.70936e-05
2.0529e-06
-4.96502e-05
1.82603e-06
-6.0392e-05
1.19581e-06
-6.89826e-05
6.90472e-07
-7.65649e-05
-8.6445e-05
-6.31832e-06
-4.67235e-05
-1.21516e-05
-4.01825e-05
-1.87587e-05
-3.15158e-05
-2.65822e-05
-1.95592e-05
-3.59636e-05
-2.70683e-06
-4.55963e-05
1.79175e-05
-5.37833e-05
3.98362e-05
-5.91841e-05
5.97641e-05
-6.11731e-05
7.47767e-05
-6.00444e-05
8.30645e-05
-5.64893e-05
8.47581e-05
-5.07351e-05
8.00246e-05
-4.35564e-05
7.00087e-05
-3.56628e-05
5.61359e-05
-2.7828e-05
3.98399e-05
-2.08558e-05
2.25044e-05
-1.53946e-05
5.27531e-06
-1.15246e-05
-1.10785e-05
-8.94514e-06
-2.61244e-05
-6.59247e-06
-3.97461e-05
-4.40566e-06
-5.18527e-05
-2.67279e-06
-6.2047e-05
-1.80651e-06
-7.00521e-05
-1.00354e-06
-7.73974e-05
-8.72584e-05
-1.02944e-05
-3.84823e-05
-1.83639e-05
-3.15548e-05
-2.74488e-05
-2.25239e-05
-3.82122e-05
-1.02112e-05
-5.03637e-05
6.88693e-06
-6.16152e-05
2.68654e-05
-7.02252e-05
4.68805e-05
-7.51425e-05
6.39531e-05
-7.63199e-05
7.57369e-05
-7.42718e-05
8.10426e-05
-6.94707e-05
8.02359e-05
-6.25798e-05
7.35422e-05
-5.44214e-05
6.23227e-05
-4.58234e-05
4.80127e-05
-3.76201e-05
3.19903e-05
-3.05224e-05
1.54463e-05
-2.47255e-05
-7.83268e-07
-2.00429e-05
-1.62132e-05
-1.59057e-05
-3.05838e-05
-1.19427e-05
-4.37111e-05
-8.43282e-06
-5.52626e-05
-5.59789e-06
-6.47797e-05
-3.80458e-06
-7.21347e-05
-2.01022e-06
-7.92882e-05
-8.90434e-05
-1.18158e-05
-2.90086e-05
-2.12047e-05
-2.18527e-05
-3.19384e-05
-1.24888e-05
-4.45447e-05
9.57551e-08
-5.7192e-05
1.69617e-05
-6.77859e-05
3.5514e-05
-7.50784e-05
5.29955e-05
-7.86941e-05
6.70372e-05
-7.90751e-05
7.58307e-05
-7.655e-05
7.86062e-05
-7.12317e-05
7.53624e-05
-6.42347e-05
6.70237e-05
-5.63481e-05
5.49396e-05
-4.84075e-05
4.04454e-05
-4.10681e-05
2.47588e-05
-3.45846e-05
8.81394e-06
-2.88542e-05
-6.78331e-06
-2.36162e-05
-2.16732e-05
-1.86193e-05
-3.55823e-05
-1.4016e-05
-4.82027e-05
-1.00204e-05
-5.91254e-05
-6.81593e-06
-6.79319e-05
-4.5991e-06
-7.4642e-05
-2.40301e-06
-8.16147e-05
-9.12221e-05
-1.18017e-05
-1.95845e-05
-2.16732e-05
-1.21349e-05
-3.27819e-05
-2.44144e-06
-4.54691e-05
1.02319e-05
-5.6665e-05
2.62511e-05
-6.53987e-05
4.28408e-05
-7.09488e-05
5.77006e-05
-7.33316e-05
6.89592e-05
-7.27307e-05
7.51001e-05
-6.96268e-05
7.57497e-05
-6.4569e-05
7.0758e-05
-5.8421e-05
6.13137e-05
-5.1871e-05
4.87143e-05
-4.54512e-05
3.4156e-05
-3.94323e-05
1.86706e-05
-3.37863e-05
3.0106e-06
-2.83859e-05
-1.23153e-05
-2.31102e-05
-2.6929e-05
-1.81082e-05
-4.04682e-05
-1.36047e-05
-5.25631e-05
-9.84797e-06
-6.28501e-05
-6.76511e-06
-7.10157e-05
-4.56778e-06
-7.71466e-05
-2.35936e-06
-8.39546e-05
-9.34355e-05
-1.05931e-05
-1.11395e-05
-1.97463e-05
-3.3344e-06
-2.97751e-05
6.61322e-06
-4.06936e-05
1.9093e-05
-4.94691e-05
3.38302e-05
-5.59534e-05
4.83847e-05
-5.97561e-05
6.09476e-05
-6.09622e-05
6.99134e-05
-5.98594e-05
7.39885e-05
-5.69145e-05
7.29662e-05
-5.28599e-05
6.6931e-05
-4.82369e-05
5.69005e-05
-4.34437e-05
4.40196e-05
-3.8693e-05
2.93812e-05
-3.40131e-05
1.39005e-05
-2.93426e-05
-1.74778e-06
-2.45834e-05
-1.70431e-05
-1.9864e-05
-3.15188e-05
-1.54262e-05
-4.47323e-05
-1.15893e-05
-5.63179e-05
-8.45799e-06
-6.60338e-05
-5.81481e-06
-7.36798e-05
-3.97435e-06
-7.93265e-05
-2.01013e-06
-8.60442e-05
-9.54096e-05
-8.72007e-06
-4.10579e-06
-1.57179e-05
3.93498e-06
-2.36917e-05
1.4e-05
-3.18508e-05
2.60432e-05
-3.81215e-05
3.94124e-05
-4.25296e-05
5.21825e-05
-4.48824e-05
6.29089e-05
-4.53792e-05
7.01777e-05
-4.44195e-05
7.29621e-05
-4.22329e-05
7.08749e-05
-3.94059e-05
6.41864e-05
-3.63008e-05
5.38319e-05
-3.30739e-05
4.07823e-05
-2.97779e-05
2.60305e-05
-2.63571e-05
1.042e-05
-2.27019e-05
-5.36994e-06
-1.88873e-05
-2.07383e-05
-1.50816e-05
-3.51339e-05
-1.1585e-05
-4.80674e-05
-8.63197e-06
-5.92159e-05
-6.30987e-06
-6.84521e-05
-4.32681e-06
-7.56927e-05
-3.0294e-06
-8.09648e-05
-1.43368e-06
-8.76761e-05
-9.69409e-05
-6.76998e-06
1.21424e-06
-1.12754e-05
9.28798e-06
-1.67122e-05
1.93122e-05
-2.19335e-05
3.0811e-05
-2.58505e-05
4.30165e-05
-2.84515e-05
5.44262e-05
-2.96477e-05
6.38273e-05
-2.96476e-05
6.9977e-05
-2.87814e-05
7.19789e-05
-2.72885e-05
6.93401e-05
-2.55453e-05
6.2397e-05
-2.36963e-05
5.19505e-05
-2.18159e-05
3.88427e-05
-1.98134e-05
2.39749e-05
-1.75456e-05
8.17676e-06
-1.5005e-05
-7.7965e-06
-1.23069e-05
-2.32588e-05
-9.65233e-06
-3.76035e-05
-7.24865e-06
-5.03366e-05
-5.22143e-06
-6.11623e-05
-3.7863e-06
-7.00077e-05
-2.63889e-06
-7.6935e-05
-1.90294e-06
-8.19926e-05
-7.84921e-07
-8.87855e-05
-9.79636e-05
-4.61525e-06
4.57731e-06
-7.07681e-06
1.25337e-05
-9.93878e-06
2.23848e-05
-1.25038e-05
3.337e-05
-1.43071e-05
4.47507e-05
-1.53129e-05
5.52623e-05
-1.54992e-05
6.38291e-05
-1.5035e-05
6.93492e-05
-1.41747e-05
7.09913e-05
-1.31809e-05
6.82326e-05
-1.22399e-05
6.13601e-05
-1.14192e-05
5.10342e-05
-1.0638e-05
3.79787e-05
-9.71921e-06
2.30355e-05
-8.53115e-06
7.0772e-06
-7.13843e-06
-9.04084e-06
-5.64048e-06
-2.45779e-05
-4.18218e-06
-3.89067e-05
-2.8595e-06
-5.15374e-05
-1.7633e-06
-6.21674e-05
-1.13322e-06
-7.07235e-05
-8.9884e-07
-7.74107e-05
-6.21888e-07
-8.24118e-05
-4.86806e-08
-8.92748e-05
-9.83786e-05
-2.17926e-06
5.96538e-06
-2.77686e-06
1.37203e-05
-3.4636e-06
2.33642e-05
-3.93979e-06
3.39913e-05
-4.02285e-06
4.48783e-05
-3.69886e-06
5.48821e-05
-2.99597e-06
6.30197e-05
-2.0731e-06
6.82988e-05
-1.135e-06
6.99307e-05
-4.41407e-07
6.73915e-05
-7.36865e-08
6.0849e-05
-7.38487e-10
5.08258e-05
-6.2745e-08
3.79463e-05
-5.22028e-08
2.30244e-05
1.08172e-07
7.0055e-06
3.67045e-07
-9.17457e-06
6.57984e-07
-2.47526e-05
9.6871e-07
-3.91019e-05
1.24747e-06
-5.17132e-05
1.40102e-06
-6.22589e-05
1.31185e-06
-7.06556e-05
8.28838e-07
-7.71952e-05
6.63023e-07
-8.224e-05
6.71352e-07
-8.91063e-05
-9.81092e-05
3.74881e-08
5.51057e-06
1.27637e-06
1.30214e-05
2.33589e-06
2.25411e-05
3.46087e-06
3.303e-05
4.7599e-06
4.36915e-05
6.17899e-06
5.34835e-05
7.65912e-06
6.15035e-05
9.03248e-06
6.68385e-05
1.01152e-05
6.8734e-05
1.067e-05
6.66672e-05
1.06796e-05
6.06656e-05
1.02459e-05
5.11041e-05
9.54475e-06
3.85413e-05
8.77849e-06
2.37768e-05
8.0163e-06
7.82466e-06
7.24143e-06
-8.32414e-06
6.44846e-06
-2.39007e-05
5.69432e-06
-3.82814e-05
4.9774e-06
-5.09228e-05
4.21916e-06
-6.14667e-05
3.42655e-06
-6.9833e-05
2.4673e-06
-7.6345e-05
1.88173e-06
-8.14932e-05
1.44493e-06
-8.83654e-05
-9.72253e-05
1.86408e-06
3.4433e-06
4.97859e-06
1.05922e-05
7.4729e-06
2.01884e-05
9.84931e-06
3.08286e-05
1.21807e-05
4.15062e-05
1.44431e-05
5.13048e-05
1.65514e-05
5.94248e-05
1.83257e-05
6.50257e-05
1.95928e-05
6.73796e-05
2.01563e-05
6.59479e-05
1.99862e-05
6.06532e-05
1.92269e-05
5.16983e-05
1.80444e-05
3.95989e-05
1.66276e-05
2.51391e-05
1.50855e-05
9.37461e-06
1.34592e-05
-6.66384e-06
1.17825e-05
-2.2197e-05
1.01306e-05
-3.66001e-05
8.55683e-06
-4.93001e-05
7.02752e-06
-5.99019e-05
5.58109e-06
-6.83301e-05
4.15985e-06
-7.49103e-05
3.09877e-06
-8.01726e-05
2.14868e-06
-8.7014e-05
-9.57641e-05
3.40395e-06
1.44923e-08
8.12135e-06
6.69792e-06
1.18419e-05
1.6558e-05
1.51866e-05
2.76558e-05
1.82533e-05
3.85826e-05
2.11325e-05
4.85545e-05
2.37287e-05
5.69151e-05
2.58567e-05
6.2915e-05
2.73256e-05
6.58509e-05
2.80017e-05
6.5144e-05
2.78212e-05
6.06642e-05
2.6908e-05
5.24398e-05
2.54084e-05
4.09466e-05
2.34979e-05
2.69382e-05
2.13349e-05
1.14769e-05
1.90282e-05
-4.37876e-06
1.66455e-05
-1.98245e-05
1.42694e-05
-3.42264e-05
1.19952e-05
-4.69919e-05
9.81529e-06
-5.76812e-05
7.77149e-06
-6.62156e-05
5.82829e-06
-7.2914e-05
4.29938e-06
-7.82958e-05
2.87089e-06
-8.5075e-05
-9.36897e-05
4.49975e-06
-4.46019e-06
1.03181e-05
1.71095e-06
1.51288e-05
1.19095e-05
1.92196e-05
2.37298e-05
2.28285e-05
3.51198e-05
2.61256e-05
4.53974e-05
2.90874e-05
5.40788e-05
3.15371e-05
6.05324e-05
3.32823e-05
6.40888e-05
3.41955e-05
6.41435e-05
3.41723e-05
6.05346e-05
3.32892e-05
5.31479e-05
3.16658e-05
4.23862e-05
2.94565e-05
2.89704e-05
2.68551e-05
1.39328e-05
2.40416e-05
-1.65681e-06
2.1114e-05
-1.69535e-05
1.8149e-05
-3.1306e-05
1.52871e-05
-4.41151e-05
1.25331e-05
-5.48902e-05
9.93517e-06
-6.35373e-05
7.45002e-06
-7.03683e-05
5.44814e-06
-7.58775e-05
3.5535e-06
-8.25907e-05
-9.105e-05
5.2795e-06
-9.70295e-06
1.18081e-05
-3.99888e-06
1.7441e-05
6.60343e-06
2.20003e-05
1.93573e-05
2.59107e-05
3.1383e-05
2.93962e-05
4.20434e-05
3.25577e-05
5.10497e-05
3.52605e-05
5.79187e-05
3.73317e-05
6.20419e-05
3.85978e-05
6.2813e-05
3.89867e-05
6.0024e-05
3.84e-05
5.35571e-05
3.69156e-05
4.36547e-05
3.46581e-05
3.09826e-05
3.18349e-05
1.65143e-05
2.86851e-05
1.30839e-06
2.53493e-05
-1.37435e-05
2.19004e-05
-2.79632e-05
1.85116e-05
-4.0759e-05
1.52348e-05
-5.15939e-05
1.21107e-05
-6.03362e-05
9.08926e-06
-6.72886e-05
6.56071e-06
-7.29076e-05
4.20447e-06
-7.95634e-05
-8.78999e-05
6.44629e-06
-1.52866e-05
1.29474e-05
-9.83757e-06
1.85846e-05
1.27476e-06
2.31305e-05
1.49881e-05
2.70399e-05
2.76641e-05
3.05462e-05
3.86577e-05
3.38313e-05
4.78772e-05
3.68195e-05
5.50119e-05
3.93306e-05
5.95651e-05
4.11025e-05
6.09686e-05
4.20802e-05
5.89341e-05
4.2122e-05
5.33391e-05
4.11331e-05
4.43887e-05
3.9168e-05
3.26269e-05
3.64047e-05
1.89222e-05
3.3112e-05
4.28335e-06
2.94926e-05
-1.03671e-05
2.56365e-05
-2.43166e-05
2.17277e-05
-3.69937e-05
1.79341e-05
-4.78371e-05
1.42706e-05
-5.66464e-05
1.07029e-05
-6.37041e-05
7.52027e-06
-6.94046e-05
4.76747e-06
-7.60998e-05
-8.43216e-05
7.3346e-06
-2.08306e-05
1.26703e-05
-1.51706e-05
1.69963e-05
-3.41879e-06
2.10358e-05
1.09818e-05
2.47602e-05
2.40545e-05
2.83228e-05
3.51701e-05
3.18991e-05
4.43798e-05
3.54371e-05
5.15425e-05
3.87427e-05
5.62996e-05
4.15115e-05
5.81637e-05
4.34749e-05
5.68254e-05
4.45409e-05
5.20991e-05
4.44714e-05
4.41742e-05
4.31826e-05
3.35168e-05
4.07872e-05
2.08281e-05
3.75551e-05
7.01727e-06
3.37606e-05
-7.00711e-06
2.95517e-05
-2.04966e-05
2.51091e-05
-3.29038e-05
2.07402e-05
-4.3682e-05
1.64922e-05
-5.25378e-05
1.23975e-05
-5.9687e-05
8.30094e-06
-6.54321e-05
5.22327e-06
-7.23046e-05
-8.04735e-05
7.01096e-06
-2.56062e-05
1.03714e-05
-1.93653e-05
1.24861e-05
-6.94156e-06
1.56699e-05
7.61216e-06
1.90378e-05
2.05819e-05
2.27197e-05
3.14427e-05
2.67866e-05
4.03188e-05
3.11449e-05
4.72224e-05
3.55526e-05
5.19234e-05
3.97405e-05
5.39918e-05
4.33501e-05
5.31818e-05
4.58939e-05
4.94161e-05
4.71071e-05
4.26975e-05
4.6806e-05
3.33809e-05
4.50542e-05
2.19877e-05
4.20388e-05
9.33935e-06
3.81113e-05
-3.77076e-06
3.35166e-05
-1.65618e-05
2.84469e-05
-2.85045e-05
2.33198e-05
-3.91034e-05
1.83407e-05
-4.79818e-05
1.36484e-05
-5.52352e-05
9.07562e-06
-6.10527e-05
5.69817e-06
-6.81976e-05
-7.6323e-05
4.92311e-06
-2.89317e-05
5.35523e-06
-2.19012e-05
5.20705e-06
-9.11479e-06
7.6544e-06
4.79251e-06
1.08582e-05
1.69833e-05
1.49991e-05
2.71103e-05
1.99073e-05
3.5306e-05
2.54008e-05
4.17076e-05
3.11746e-05
4.61945e-05
3.68241e-05
4.8395e-05
4.19742e-05
4.80808e-05
4.60771e-05
4.52689e-05
4.86906e-05
3.99059e-05
4.95468e-05
3.2139e-05
4.86085e-05
2.23475e-05
4.59841e-05
1.11593e-05
4.20152e-05
-7.16718e-07
3.70483e-05
-1.2548e-05
3.13495e-05
-2.38164e-05
2.54104e-05
-3.40993e-05
1.96915e-05
-4.29739e-05
1.44207e-05
-5.0395e-05
9.91046e-06
-5.64087e-05
6.28169e-06
-6.37447e-05
-7.17799e-05
1.37679e-06
-3.06579e-05
-2.36292e-06
-2.26485e-05
-3.36797e-06
-1.02898e-05
-1.18082e-06
1.97323e-06
2.60838e-06
1.27272e-05
7.80776e-06
2.17101e-05
1.38996e-05
2.90506e-05
2.06391e-05
3.49065e-05
2.76554e-05
3.92125e-05
3.44393e-05
4.16643e-05
4.05317e-05
4.20136e-05
4.56e-05
4.02012e-05
4.91969e-05
3.62078e-05
5.09807e-05
3.00931e-05
5.07194e-05
2.21164e-05
4.85938e-05
1.25641e-05
4.47526e-05
2.1557e-06
3.95982e-05
-8.50287e-06
3.35224e-05
-1.89374e-05
2.70461e-05
-2.87914e-05
2.08274e-05
-3.76266e-05
1.51268e-05
-4.5262e-05
1.06266e-05
-5.15794e-05
6.81687e-06
-5.90039e-05
-6.68668e-05
-4.04255e-06
-3.00673e-05
-9.95702e-06
-2.16702e-05
-1.00594e-05
-1.12261e-05
-7.2478e-06
-1.49943e-06
-2.09633e-06
7.40406e-06
4.40044e-06
1.51367e-05
1.15919e-05
2.17681e-05
1.91266e-05
2.73217e-05
2.66693e-05
3.16898e-05
3.37865e-05
3.45968e-05
4.00403e-05
3.57749e-05
4.51572e-05
3.50732e-05
4.88652e-05
3.24315e-05
5.09359e-05
2.78923e-05
5.10858e-05
2.16101e-05
4.93204e-05
1.37843e-05
4.57476e-05
4.92241e-06
4.07266e-05
-4.48086e-06
3.47476e-05
-1.40319e-05
2.83061e-05
-2.33943e-05
2.20058e-05
-3.21079e-05
1.60866e-05
-3.98794e-05
1.13597e-05
-4.64567e-05
7.32122e-06
-5.38893e-05
-6.15605e-05
-1.07505e-05
-2.66953e-05
-1.41934e-05
-2.02594e-05
-1.24572e-05
-1.33226e-05
-7.80011e-06
-6.30337e-06
-1.18057e-06
8.87552e-07
6.22494e-06
7.75716e-06
1.38469e-05
1.41315e-05
2.13201e-05
1.98152e-05
2.8436e-05
2.45875e-05
3.49088e-05
2.81702e-05
4.04232e-05
3.02863e-05
4.47737e-05
3.07175e-05
4.78107e-05
2.9354e-05
4.93689e-05
2.62153e-05
4.94074e-05
2.13891e-05
4.7737e-05
1.51244e-05
4.44666e-05
7.67985e-06
3.99093e-05
-5.70172e-07
3.45152e-05
-9.3009e-06
2.86672e-05
-1.81485e-05
2.2753e-05
-2.66102e-05
1.6869e-05
-3.43374e-05
1.19712e-05
-4.10251e-05
7.69468e-06
-4.83852e-05
-5.58057e-05
-1.02248e-05
-2.26709e-05
-1.01588e-05
-1.99707e-05
-6.59008e-06
-1.65784e-05
-9.63914e-07
-1.1668e-05
5.85702e-06
-5.61438e-06
1.28818e-05
8.89576e-07
1.96797e-05
7.3966e-06
2.59987e-05
1.35004e-05
3.17387e-05
1.88617e-05
3.67588e-05
2.31843e-05
4.0887e-05
2.61938e-05
4.3966e-05
2.76465e-05
4.59041e-05
2.74035e-05
4.65838e-05
2.54675e-05
4.60093e-05
2.18394e-05
4.41975e-05
1.6724e-05
4.12472e-05
1.03793e-05
3.73652e-05
3.04136e-06
3.28354e-05
-4.98844e-06
2.78415e-05
-1.33125e-05
2.26055e-05
-2.13969e-05
1.70617e-05
-2.88874e-05
1.22127e-05
-3.55057e-05
7.87124e-06
-4.26902e-05
-4.98494e-05
-3.18772e-06
-2.05771e-05
-1.71812e-06
-2.06106e-05
2.21878e-06
-1.95595e-05
7.53991e-06
-1.60716e-05
1.35011e-05
-1.07471e-05
1.93112e-05
-4.36691e-06
2.46622e-05
2.3891e-06
2.94046e-05
8.95173e-06
3.34984e-05
1.48855e-05
3.69046e-05
1.98606e-05
3.95668e-05
2.35978e-05
4.13911e-05
2.58554e-05
4.22979e-05
2.64728e-05
4.22932e-05
2.54095e-05
4.13879e-05
2.26759e-05
3.95997e-05
1.84252e-05
3.7029e-05
1.28539e-05
3.38185e-05
6.19259e-06
3.00897e-05
-1.25315e-06
2.58831e-05
-9.05794e-06
2.13346e-05
-1.66906e-05
1.63425e-05
-2.38157e-05
1.17815e-05
-3.02133e-05
7.65665e-06
-3.71467e-05
-4.40064e-05
1.17044e-07
-2.00849e-05
2.44704e-06
-2.15121e-05