/*--------------------------------*- C++ -*----------------------------------*\
| =========                 |                                                 |
| \\      /  F ield         | OpenFOAM: The Open Source CFD Toolbox           |
|  \\    /   O peration     | Version:  2312                                  |
|   \\  /    A nd           | Website:  www.openfoam.com                      |
|    \\/     M anipulation  |                                                 |
\*---------------------------------------------------------------------------*/
FoamFile
{
    version     2.0;
    format      ascii;
    arch        "LSB;label=32;scalar=64";
    class       volScalarField;
    location    "0.935/water";
    object      d.gas;
}
// * * * * * * * * * * * * * * * * * * * * * * * * * * * * * * * * * * * * * //

dimensions      [0 1 0 0 0 0 0];

internalField   nonuniform List<scalar> 
1503
(
0.00497025924885
0.00497032100063
0.00497033711078
0.00497034956962
0.00497036019792
0.00497036973596
0.00497037850673
0.00497038650796
0.00497039368559
0.00497040006655
0.00497040567607
0.0049704105609
0.00497041479297
0.00497041844064
0.00497042156084
0.00497042419952
0.00497042639358
0.00497042817072
0.00497042955011
0.00497043054413
0.00497056782034
0.00497059767873
0.00497059516939
0.00497059513244
0.00497059981257
0.00497060413738
0.00497060830983
0.00497061241648
0.00497061657153
0.00497062066421
0.00497062447529
0.00497062791968
0.00497063102733
0.00497063383252
0.00497063634529
0.00497063855921
0.004970640462
0.00497064204016
0.00497064328032
0.00497064417032
0.00497084251405
0.00497087339178
0.0049708612519
0.0049708520622
0.004970849846
0.00497084826152
0.00497084727105
0.00497084703706
0.00497084749334
0.00497084851885
0.00497084989419
0.00497085136127
0.00497085278412
0.00497085413731
0.00497085541846
0.00497085661202
0.00497085768913
0.00497085861377
0.00497085934837
0.00497085985979
0.00497107764573
0.00497109883762
0.00497108561564
0.00497107954777
0.00497107971499
0.00497107914661
0.00497107792496
0.00497107675968
0.00497107595065
0.00497107556065
0.00497107555272
0.00497107577681
0.00497107607426
0.00497107637069
0.00497107665298
0.00497107691904
0.00497107715848
0.00497107735036
0.00497107746732
0.00497107748319
0.00497130957789
0.00497132363077
0.00497130603691
0.00497129992128
0.00497130108602
0.0049713018683
0.0049713015421
0.00497130076498
0.0049713000461
0.00497129951468
0.00497129917451
0.00497129896526
0.00497129878221
0.00497129855397
0.004971298267
0.00497129793356
0.00497129756754
0.00497129717506
0.00497129675478
0.00497129630364
0.00497152837093
0.0049715436154
0.00497152627712
0.00497151957886
0.00497152020568
0.00497152180404
0.00497152271324
0.00497152281882
0.00497152258455
0.00497152228906
0.00497152196528
0.00497152159984
0.00497152115004
0.00497152057954
0.00497151988956
0.00497151910659
0.00497151826369
0.00497151738941
0.00497151650569
0.00497151563128
0.0049717570649
0.00497177675213
0.00497175906987
0.00497175066431
0.00497174882999
0.00497174872836
0.00497174886699
0.00497174862671
0.00497174796512
0.00497174716093
0.00497174627908
0.0049717452963
0.00497174420689
0.00497174300926
0.00497174171578
0.00497174035473
0.00497173896223
0.00497173757306
0.00497173621759
0.00497173492409
0.00497199431545
0.00497201642097
0.0049720009888
0.00497199175799
0.00497198785157
0.00497198514347
0.00497198275363
0.00497198036489
0.00497197776723
0.00497197513904
0.00497197264766
0.00497197024204
0.00497196789418
0.0049719656069
0.00497196338314
0.00497196122926
0.0049719591604
0.00497195719567
0.00497195535487
0.00497195365959
0.00497224850407
0.00497226462299
0.00497224188649
0.00497223148056
0.00497222649066
0.00497222160728
0.00497221678495
0.00497221206418
0.00497220723531
0.00497220238825
0.00497219789902
0.00497219381137
0.00497219005331
0.00497218660133
0.00497218343553
0.00497218052823
0.00497217786098
0.0049721754258
0.00497217322261
0.00497217125432
0.00497246711811
0.00497247875004
0.0049724571526
0.00497244989875
0.00497244694629
0.00497244304186
0.00497243814849
0.0049724329705
0.00497242766303
0.00497242213899
0.00497241679128
0.00497241190058
0.00497240747629
0.00497240349806
0.00497239993612
0.00497239674864
0.00497239389896
0.00497239136312
0.00497238912582
0.00497238717538
0.00497267735663
0.00497268872665
0.0049726656681
0.00497265698706
0.00497265348585
0.00497264971417
0.00497264522515
0.00497264059779
0.0049726360687
0.00497263147456
0.00497262680979
0.0049726223737
0.00497261836127
0.0049726148208
0.00497261170898
0.00497260897267
0.00497260657363
0.00497260448544
0.00497260268829
0.00497260116564
0.00497283303073
0.00497285209596
0.00497284005359
0.00497283670091
0.00497283730071
0.00497283733151
0.00497283639169
0.00497283476694
0.00497283285241
0.00497283067218
0.00497282808328
0.00497282532617
0.00497282274717
0.00497282058327
0.00497281878706
0.00497281726533
0.0049728159842
0.0049728149263
0.00497281407474
0.00497281341328
0.00497302048563
0.00497304686705
0.00497303533686
0.00497302879251
0.00497302751387
0.00497302714581
0.0049730266926
0.00497302624643
0.00497302584099
0.00497302520939
0.00497302422802
0.00497302315509
0.00497302240144
0.00497302218847
0.00497302235411
0.00497302267125
0.00497302306887
0.00497302353543
0.00497302405467
0.00497302461165
0.00497318584063
0.00497321655535
0.00497320826936
0.00497320576695
0.0049732078449
0.00497321026612
0.0049732128233
0.00497321523009
0.004973216836
0.0049732174141
0.00497321745852
0.00497321784947
0.0049732191606
0.00497322144627
0.00497322420486
0.00497322692351
0.0049732294547
0.00497323179948
0.00497323395694
0.00497323592644
0.00497338325985
0.00497341752299
0.0049734019908
0.00497339606245
0.00497339717188
0.00497340015879
0.00497340421658
0.00497340834457
0.00497341101042
0.00497341189196
0.00497341214663
0.00497341352653
0.00497341682179
0.00497342176721
0.00497342746029
0.00497343283554
0.00497343763572
0.00497344188949
0.00497344564093
0.00497344892202
0.00497355973498
0.00497359912395
0.00497358784334
0.0049735852836
0.00497359040953
0.00497359762583
0.00497360533435
0.0049736114716
0.00497361472049
0.00497361560396
0.00497361587853
0.00497361751704
0.00497362192918
0.00497362886734
0.00497363694775
0.00497364442978
0.00497365092533
0.00497365651142
0.00497366128694
0.00497366532926
0.00497377100399
0.00497381836434
0.00497380779547
0.00497380590879
0.00497381295437
0.00497382187292
0.004973830051
0.00497383558557
0.00497383801146
0.00497383822765
0.00497383784344
0.00497383845846
0.00497384209487
0.00497384923669
0.00497385798888
0.00497386596708
0.00497387263557
0.00497387818806
0.00497388278215
0.00497388652832
0.00497401131883
0.00497406300951
0.00497405835299
0.00497405829562
0.00497406554922
0.00497407352403
0.00497408052903
0.00497408490102
0.00497408607218
0.00497408536938
0.00497408366713
0.00497408194645
0.00497408260358
0.0049740871836
0.00497409393232
0.00497409996916
0.00497410455944
0.00497410808533
0.0049741108069
0.00497411284321
0.00497428735507
0.00497433908433
0.0049743321683
0.00497433343429
0.00497434147346
0.00497434961553
0.00497435580935
0.00497435851863
0.00497435836741
0.00497435646173
0.00497435286005
0.00497434826834
0.00497434465786
0.00497434351201
0.00497434455727
0.00497434559473
0.00497434557337
0.00497434491166
0.00497434399825
0.00497434292909
0.00497460927166
0.00497466015809
0.00497464774663
0.00497464593964
0.00497464938567
0.00497465132358
0.00497465064459
0.00497464742241
0.00497464257401
0.00497463670621
0.00497463045708
0.00497462424245
0.00497461785438
0.00497461080143
0.00497460336708
0.00497459675432
0.0049745902801
0.0049745840553
0.00497457845839
0.00497457353115
0.00497495393712
0.00497499496893
0.00497497146104
0.00497496085208
0.00497495434538
0.00497494585639
0.00497493528686
0.00497492346783
0.00497491139682
0.00497490081023
0.00497489200695
0.00497488343277
0.00497487560423
0.00497486707246
0.0049748550092
0.00497484161616
0.00497482922085
0.0049748180727
0.00497480838474
0.00497480013517
0.0049752245297
0.00497524319159
0.00497521714149
0.00497520491866
0.00497519679231
0.00497518625106
0.00497517285822
0.00497515797575
0.00497514326465
0.00497513031207
0.00497511928528
0.00497510949392
0.0049751001257
0.0049750916455
0.00497508188238
0.0049750678133
0.00497505316397
0.00497503992308
0.00497502847636
0.00497501876363
0.00497538159667
0.00497539290241
0.00497537837755
0.00497537248251
0.00497536984248
0.00497536454504
0.00497535558138
0.00497534441537
0.00497533280402
0.00497532207783
0.00497531296174
0.00497530435804
0.00497529605311
0.00497528863153
0.00497528120562
0.00497527109028
0.00497525869858
0.00497524690835
0.00497523662907
0.00497522783045
0.00497554615325
0.00497555104347
0.00497553002502
0.00497552421918
0.00497552281988
0.00497551959488
0.00497551348807
0.00497550592691
0.00497549809258
0.00497549231698
0.0049754877912
0.00497548232884
0.00497547654736
0.00497546935702
0.00497546250262
0.00497545652882
0.00497544887871
0.00497544119113
0.00497543440103
0.00497542850058
0.00497568512459
0.00497569131319
0.00497567174163
0.00497566854131
0.00497566924729
0.00497566845034
0.00497566531449
0.00497566073887
0.00497565686168
0.00497565650737
0.00497565595425
0.00497565258869
0.00497564879484
0.00497564312351
0.00497563747313
0.00497563397483
0.00497563076352
0.00497562790269
0.00497562569222
0.00497562376263
0.00497584760033
0.00497585545272
0.00497583228244
0.00497582638376
0.00497582562628
0.00497582426593
0.00497582091809
0.00497581709673
0.00497581775548
0.0049758226426
0.00497582120611
0.00497582049042
0.00497581968519
0.00497581701291
0.00497581317137
0.00497581096119
0.00497581093318
0.00497581247568
0.00497581487584
0.00497581710988
0.00497597607345
0.00497599113068
0.00497597591548
0.00497597243718
0.00497597332413
0.00497597361971
0.00497597243446
0.00497597306334
0.00497598087755
0.00497598582887
0.00497598918744
0.00497599024108
0.00497599234902
0.00497599471524
0.0049759937733
0.00497599247774
0.00497599421589
0.00497599923721
0.00497600563733
0.00497601162867
0.00497613150244
0.00497615328241
0.00497613925242
0.00497613377413
0.00497613318292
0.00497613283815
0.0049761327748
0.00497613803828
0.00497614909276
0.0049761581594
0.00497616067835
0.00497616624254
0.00497617248593
0.00497617822008
0.00497618322868
0.00497618175379
0.00497618379261
0.00497619110963
0.00497620050889
0.00497620953769
0.00497628517919
0.00497630962063
0.00497629445938
0.00497629148268
0.00497629370732
0.00497629640264
0.0049763010367
0.00497631347067
0.00497632956379
0.00497633553172
0.00497634451153
0.00497635096885
0.00497636090233
0.00497637986552
0.00497638291416
0.0049763791544
0.00497638078063
0.00497638912394
0.00497640043311
0.00497641188402
0.00497647662918
0.00497650302872
0.00497647928302
0.00497647369095
0.00497647539549
0.00497647885029
0.00497648689428
0.00497650383991
0.00497651528385
0.0049765271145
0.00497653408789
0.00497654623411
0.00497656662674
0.00497657988702
0.00497657990745
0.00497657692896
0.00497658095837
0.00497659091616
0.00497660447828
0.00497661867204
0.00497664615358
0.00497667808887
0.00497665766539
0.00497665480698
0.00497665971402
0.00497666713138
0.00497668089944
0.00497669902664
0.00497671475498
0.00497672320133
0.00497673637645
0.00497675062251
0.00497676968524
0.00497678463487
0.00497678298394
0.00497678531614
0.00497678845507
0.00497679860266
0.00497681417076
0.0049768312378
0.00497684002403
0.00497688084918
0.00497685980347
0.00497685575808
0.00497686157151
0.00497687192293
0.00497689018859
0.00497691151273
0.00497692185183
0.00497693676065
0.00497694928545
0.0049769644821
0.00497699127496
0.0049769960439
0.00497700158701
0.00497700215792
0.00497700466227
0.00497701496849
0.00497703228701
0.00497705198515
0.00497703309022
0.00497708256429
0.00497706975974
0.0049770685971
0.00497707795541
0.00497709276495
0.0049771143252
0.00497712983681
0.00497714677109
0.00497715818467
0.00497717317012
0.00497720953823
0.00497722236151
0.00497722644102
0.00497723040367
0.00497723362977
0.00497723511873
0.00497724478413
0.00497726268149
0.00497728390897
0.00497725767541
0.00497731347137
0.00497729749765
0.00497729998762
0.00497731366008
0.00497733128749
0.00497735075341
0.00497737223782
0.00497738897052
0.00497740792579
0.00497744476894
0.00497746082189
0.00497746374662
0.00497746969997
0.00497747794981
0.00497747995063
0.00497748189332
0.00497749086586
0.00497750800538
0.00497752927993
0.00497750033202
0.00497756223054
0.00497754993339
0.00497755645369
0.00497757285549
0.00497759245742
0.00497761769504
0.00497764495218
0.004977668978
0.0049776936045
0.00497770663672
0.00497771284494
0.00497771956723
0.00497772963203
0.00497773758947
0.00497774312171
0.0049777485004
0.00497775685977
0.00497777091765
0.00497779004974
0.00497775810336
0.00497783858514
0.00497783620535
0.00497784613878
0.00497786727246
0.00497789435065
0.00497792435138
0.00497794732612
0.00497795960928
0.00497796531706
0.00497797254059
0.00497798169055
0.00497799359896
0.0049780060565
0.00497801839423
0.00497803043604
0.00497804048283
0.00497804561808
0.00497805351546
0.00497806737637
0.00497811307613
0.00497821185887
0.00497821249453
0.00497822136493
0.00497823702223
0.0049782528591
0.0049782650327
0.00497826853801
0.00497826792405
0.0049782705622
0.00497827810294
0.00497828968057
0.00497830241428
0.00497831528326
0.0049783301153
0.00497834501558
0.00497835163443
0.00497835157909
0.00497835374812
0.00497835977191
0.00497860828082
0.00497871029238
0.00497871384429
0.00497871283499
0.00497870539133
0.00497869052654
0.00497867515236
0.00497866043663
0.00497864869028
0.00497864236439
0.00497864320261
0.00497864668272
0.00497865024796
0.00497865561207
0.00497866434126
0.00497867131228
0.00497866949697
0.00497866695715
0.00497866498409
0.00497866257015
0.00497043114643
0.00497043136344
0.00497043123829
0.00497043081527
0.00497043012671
0.00497042919447
0.00497042803201
0.00497042664563
0.00497042503607
0.00497042319908
0.00497042112584
0.00497041880141
0.00497041620124
0.0049704132851
0.00497040999731
0.00497040630626
0.00497040226387
0.00497039778214
0.00497039171858
0.00497033065654
0.00497064469365
0.0049706448522
0.00497064468549
0.00497064423949
0.00497064355058
0.00497064264747
0.00497064155358
0.00497064028859
0.00497063886957
0.0049706373104
0.00497063562005
0.00497063379899
0.00497063183693
0.00497062971994
0.00497062746551
0.00497062516979
0.00497062294984
0.004970620775
0.00497061835293
0.00497061822559
0.00497086012807
0.00497086014805
0.00497085993937
0.00497085953728
0.00497085897642
0.00497085828838
0.00497085750151
0.00497085664069
0.00497085572677
0.00497085477475
0.00497085379245
0.00497085278087
0.00497085174194
0.00497085069956
0.00497084972818
0.00497084893735
0.0049708483816
0.00497084797488
0.00497084754311
0.00497084921503
0.00497107739542
0.00497107720609
0.00497107691554
0.00497107653984
0.00497107610102
0.00497107561981
0.0049710751142
0.00497107459801
0.00497107407986
0.00497107356226
0.00497107304269
0.00497107251826
0.00497107199688
0.00497107151225
0.0049710711241
0.00497107087111
0.00497107069871
0.0049710704489
0.00497107012126
0.00497107158354
0.00497129584919
0.00497129541307
0.00497129498488
0.00497129456328
0.00497129415461
0.004971293764
0.00497129339455
0.00497129304591
0.00497129271399
0.00497129239126
0.00497129206969
0.00497129174676
0.00497129143467
0.00497129116631
0.00497129098123
0.00497129087826
0.00497129077346
0.00497129057705
0.00497129046283
0.00497129172802
0.00497151482244
0.00497151412038
0.00497151351005
0.00497151297742
0.0049715125142
0.00497151211173
0.0049715117606
0.00497151144973
0.00497151116678
0.00497151089926
0.00497151063833
0.00497151038412
0.00497151015188
0.00497150997125
0.00497150986464
0.0049715098032
0.00497150969298
0.00497150953463
0.00497150953278
0.00497151050575
0.00497173376421
0.00497173278917
0.00497173197837
0.004971731304
0.00497173074403
0.00497173027796
0.00497172988658
0.00497172955119
0.00497172925445
0.00497172898179
0.00497172872501
0.00497172848636
0.00497172828159
0.00497172813417
0.00497172804938
0.00497172797724
0.00497172784243
0.00497172773427
0.00497172779583
0.00497172853635
0.00497195217881
0.00497195096207
0.0049719499769
0.00497194917768
0.00497194852866
0.00497194799878
0.00497194756097
0.00497194719112
0.00497194686892
0.00497194657912
0.0049719463145
0.00497194607847
0.00497194588559
0.00497194575196
0.00497194566717
0.00497194556926
0.00497194542735
0.00497194537549
0.0049719454583
0.00497194602453
0.00497216957739
0.00497216823057
0.00497216716365
0.0049721663146
0.00497216563622
0.00497216508947
0.00497216464203
0.00497216426681
0.00497216394251
0.00497216365444
0.00497216339673
0.00497216317355
0.00497216299759
0.00497216287713
0.00497216278803
0.00497216266848
0.00497216254383
0.00497216254156
0.00497216262468
0.00497216306716
0.00497238555483
0.00497238428509
0.00497238330209
0.00497238253592
0.00497238193463
0.00497238145666
0.00497238106889
0.00497238074473
0.00497238046458
0.00497238021603
0.00497237999551
0.00497237980828
0.00497237966515
0.00497237956669
0.00497237947823
0.00497237935344
0.00497237926652
0.00497237930237
0.00497237938037
0.00497237973582
0.00497259994507
0.00497259902656
0.00497259834199
0.00497259782758
0.00497259743711
0.00497259713442
0.00497259689168
0.00497259668749
0.00497259650728
0.00497259634331
0.00497259619573
0.00497259607176
0.00497259598064
0.00497259591593
0.00497259583757
0.00497259572908
0.00497259569165
0.00497259575566
0.00497259583116
0.00497259612648
0.00497281295071
0.00497281266383
0.00497281249275
0.00497281239588
0.00497281234471
0.00497281231746
0.00497281229842
0.00497281227639
0.00497281224551
0.00497281220511
0.00497281216069
0.00497281212231
0.00497281209801
0.00497281207548
0.00497281201686
0.00497281194373
0.00497281195826
0.00497281204421
0.0049728121216
0.00497281237647
0.00497302519231
0.00497302575068
0.00497302624915
0.00497302668379
0.00497302705523
0.00497302736458
0.0049730276144
0.00497302780815
0.00497302795167
0.00497302805331
0.00497302812498
0.00497302817999
0.0049730282251
0.00497302824403
0.00497302821049
0.00497302818294
0.00497302824363
0.00497302834744
0.00497302842974
0.00497302865845
0.0049732376773
0.00497323915303
0.00497324035626
0.00497324133426
0.00497324212593
0.00497324276151
0.00497324326595
0.00497324365985
0.00497324396215
0.00497324419072
0.00497324436372
0.00497324449703
0.00497324459562
0.00497324464181
0.00497324463006
0.00497324464559
0.0049732447397
0.00497324485632
0.00497324494355
0.00497324515575
0.00497345170418
0.00497345394505
0.00497345570536
0.00497345708998
0.0049734581791
0.00497345903308
0.00497345969904
0.00497346021372
0.00497346060759
0.00497346090621
0.00497346113195
0.00497346130116
0.00497346141586
0.00497346146032
0.0049734614557
0.00497346149846
0.00497346160776
0.00497346172877
0.00497346181746
0.00497346201867
0.00497366863207
0.00497367119374
0.00497367313852
0.00497367461906
0.0049736757478
0.00497367660719
0.00497367725938
0.00497367775098
0.00497367811844
0.00497367839015
0.00497367858839
0.00497367872626
0.0049736788013
0.00497367880326
0.0049736787804
0.00497367882392
0.0049736789265
0.00497367903971
0.00497367912315
0.00497367931503
0.00497388945102
0.00497389160353
0.00497389315414
0.00497389427035
0.0049738950718
0.00497389564364
0.00497389604778
0.00497389632863
0.00497389651903
0.0049738966424
0.00497389671463
0.00497389674086
0.00497389671239
0.00497389662749
0.00497389655538
0.00497389656879
0.00497389664224
0.00497389673359
0.00497389680329
0.00497389698441
0.00497411424142
0.00497411510123
0.00497411558634
0.00497411582441
0.00497411590301
0.00497411588116
0.00497411579918
0.00497411568322
0.0049741155504
0.00497411540999
0.0049741152645
0.00497411510644
0.00497411491953
0.00497411471214
0.00497411456359
0.00497411452021
0.00497411454631
0.00497411460355
0.00497411465166
0.00497411481864
0.0049743417387
0.0049743405314
0.00497433939354
0.00497433834834
0.00497433740733
0.00497433657276
0.00497433584176
0.00497433520689
0.0049743346586
0.0049743341842
0.00497433376746
0.00497433338509
0.00497433301325
0.0049743326703
0.00497433243303
0.00497433231961
0.00497433229006
0.00497433230727
0.00497433232968
0.00497433247906
0.00497456924963
0.00497456566365
0.00497456271604
0.00497456027959
0.00497455826057
0.00497455658558
0.00497455519635
0.00497455404401
0.00497455308747
0.00497455228926
0.00497455161299
0.0049745510197
0.00497455048022
0.00497455002149
0.00497454970718
0.00497454953073
0.00497454945169
0.00497454943291
0.00497454943171
0.00497454956176
0.00497479325579
0.00497478772455
0.00497478333504
0.00497477981862
0.0049747769839
0.00497477468843
0.00497477282447
0.00497477130709
0.00497477006853
0.004974769051
0.00497476820204
0.00497476747114
0.0049747668289
0.00497476630905
0.00497476595595
0.00497476574537
0.00497476563879
0.00497476559929
0.00497476558381
0.00497476569611
0.00497501075705
0.00497500441648
0.00497499945938
0.00497499554694
0.00497499243751
0.00497498995276
0.00497498795954
0.00497498635494
0.00497498505849
0.00497498400296
0.00497498312847
0.00497498238068
0.00497498173727
0.00497498123711
0.00497498090439
0.00497498070565
0.00497498060601
0.0049749805701
0.00497498055565
0.00497498065535
0.00497522056796
0.00497521484843
0.0049752104135
0.0049752069487
0.00497520422558
0.00497520207411
0.00497520036752
0.00497519900842
0.00497519792124
0.00497519704273
0.00497519631592
0.0049751956922
0.00497519516414
0.00497519477424
0.00497519452997
0.00497519439654
0.00497519434406
0.00497519434032
0.00497519434528
0.00497519444044
0.00497542358939
0.00497541974262
0.00497541679771
0.00497541453823
0.00497541280042
0.00497541145943
0.0049754104219
0.00497540961606
0.00497540898642
0.004975408485
0.00497540806698
0.00497540769881
0.00497540739401
0.00497540719711
0.00497540710486
0.00497540708705
0.0049754071198
0.00497540717552
0.00497540721763
0.00497540731761
0.00497562215561
0.00497562096766
0.0049756201473
0.0049756196065
0.00497561927074
0.0049756190797
0.00497561898849
0.0049756189626
0.00497561897544
0.0049756190011
0.00497561901333
0.00497561900132
0.00497561900212
0.00497561906067
0.00497561916951
0.00497561930653
0.00497561945448
0.00497561959135
0.00497561968495
0.00497561979882
0.00497581908294
0.00497582083668
0.00497582240224
0.00497582381236
0.00497582508098
0.00497582621419
0.0049758272182
0.00497582809826
0.00497582885875
0.0049758294979
0.00497583001181
0.00497583041731
0.00497583077374
0.00497583112504
0.00497583146525
0.00497583178169
0.00497583206391
0.00497583229591
0.00497583245048
0.00497583258578
0.00497601695224
0.00497602153961
0.00497602545384
0.00497602881672
0.00497603171258
0.00497603420326
0.00497603633944
0.00497603816185
0.00497603970289
0.00497604098391
0.0049760420252
0.00497604287319
0.00497604360505
0.0049760442632
0.0049760448472
0.00497604535366
0.00497604577878
0.00497604611249
0.00497604633281
0.00497604649524
0.00497621771132
0.00497622481056
0.00497623086927
0.00497623605411
0.00497624049294
0.00497624428656
0.00497624751921
0.00497625025959
0.00497625256329
0.00497625447285
0.00497625603394
0.00497625732178
0.00497625842565
0.00497625938696
0.0049762602131
0.00497626090915
0.0049762614775
0.00497626191361
0.00497626220069
0.00497626239417
0.00497642248339
0.00497643180329
0.00497643980442
0.00497644666593
0.00497645253946
0.0049764575525
0.00497646181484
0.00497646541776
0.00497646843692
0.00497647093588
0.00497647298729
0.00497647469269
0.00497647614827
0.00497647739603
0.00497647845209
0.00497647932907
0.0049764800348
0.00497648056966
0.00497648092181
0.00497648114906
0.00497663180042
0.00497664332021
0.00497665319485
0.00497666164845
0.00497666886888
0.00497667501551
0.00497668022578
0.00497668461449
0.00497668827872
0.00497669130587
0.00497669379811
0.00497669587994
0.00497669765089
0.00497669915572
0.00497670041917
0.00497670146026
0.00497670229148
0.00497670291721
0.00497670333003
0.00497670359256
0.00497684694697
0.00497686061768
0.00497687226178
0.00497688217903
0.00497689060968
0.00497689775357
0.00497690378043
0.00497690883144
0.0049769130283
0.00497691648638
0.00497691933882
0.00497692172856
0.00497692375627
0.00497692547096
0.00497692690487
0.00497692808214
0.00497692901866
0.00497692972157
0.00497693018696
0.00497693048464
0.00497706999844
0.00497708549467
0.00497709858692
0.0049771096654
0.00497711902727
0.00497712691377
0.00497713352653
0.00497713903317
0.00497714358165
0.0049771473175
0.00497715040309
0.00497715299331
0.00497715518797
0.00497715704021
0.00497715858754
0.00497715985732
0.00497716086719
0.0049771616252
0.00497716212953
0.00497716245938
0.00497730337853
0.00497731993532
0.0049773338263
0.00497734551391
0.00497735533186
0.00497736354851
0.0049773703881
0.00497737603954
0.00497738067519
0.00497738446889
0.00497738760553
0.00497739024348
0.00497739247891
0.00497739436688
0.00497739594688
0.00497739724696
0.00497739828415
0.00497739906507
0.00497739958807
0.00497739994327
0.00497754903273
0.00497756555451
0.00497757930178
0.00497759080708
0.00497760041183
0.00497760838839
0.00497761496821
0.00497762035221
0.00497762473111
0.00497762829959
0.00497763125331
0.00497763374397
0.00497763585998
0.00497763765403
0.0049776391635
0.00497764041385
0.00497764141875
0.00497764218052
0.00497764269514
0.00497764306417
0.00497780842714
0.00497782343362
0.00497783577787
0.00497784606494
0.00497785460061
0.00497786162408
0.00497786734967
0.00497787197413
0.00497787569351
0.00497787870867
0.00497788120928
0.00497788332894
0.00497788514242
0.00497788669432
0.00497788801501
0.00497788912369
0.00497789002743
0.00497789072121
0.00497789119571
0.00497789156284
0.00497808202151
0.00497809363495
0.0049781030452
0.00497811089346
0.0049781173832
0.00497812266334
0.00497812689375
0.00497813024156
0.00497813288639
0.00497813501352
0.00497813678679
0.00497813830996
0.00497813963703
0.00497814079796
0.00497814181113
0.0049781426855
0.00497814341851
0.00497814399475
0.00497814439651
0.00497814474318
0.00497836804791
0.0049783743685
0.00497837935507
0.00497838359261
0.00497838712035
0.00497838993447
0.00497839209884
0.00497839372071
0.00497839493662
0.00497839589259
0.00497839670726
0.00497839744497
0.00497839813165
0.00497839877736
0.00497839938353
0.00497839994606
0.00497840044972
0.0049784008668
0.0049784011682
0.004978401477
0.0049786622519
0.0049786618191
0.00497866131966
)
;

boundaryField
{
    emptyPatch
    {
        type            empty;
    }
    minY
    {
        type            calculated;
        value           nonuniform List<scalar> 
40
(
0.00497017067483
0.00497022538133
0.00497023378151
0.00497024393823
0.00497025392096
0.00497026332689
0.00497027207481
0.00497028007223
0.00497028724898
0.00497029362939
0.00497029923843
0.00497030412285
0.00497030835455
0.00497031200191
0.00497031512184
0.00497031776029
0.00497031995417
0.00497032173116
0.00497032311043
0.00497032410436
0.00497032470661
0.0049703249236
0.00497032479846
0.00497032437548
0.00497032368698
0.00497032275482
0.00497032159245
0.00497032020619
0.00497031859677
0.00497031675995
0.00497031468688
0.00497031236265
0.0049703097627
0.00497030684681
0.0049703035593
0.00497029986857
0.00497029582653
0.00497029134518
0.00497028528214
0.00497022422533
)
;
    }
    maxY
    {
        type            calculated;
        value           nonuniform List<scalar> 0();
    }
    maxX
    {
        type            calculated;
        value           nonuniform List<scalar> 
37
(
0.00497033065654
0.00497061822559
0.00497084921503
0.00497107158354
0.00497129172802
0.00497151050575
0.00497172853635
0.00497194602453
0.00497216306716
0.00497237973582
0.00497259612648
0.00497281237647
0.00497302865845
0.00497324515575
0.00497346201867
0.00497367931503
0.00497389698441
0.00497411481864
0.00497433247906
0.00497454956176
0.00497476569611
0.00497498065535
0.00497519444044
0.00497540731761
0.00497561979882
0.00497583258578
0.00497604649524
0.00497626239417
0.00497648114906
0.00497670359256
0.00497693048464
0.00497716245938
0.00497739994327
0.00497764306417
0.00497789156284
0.00497814474318
0.004978401477
)
;
    }
    water_to_heater
    {
        type            calculated;
        value           nonuniform List<scalar> 
61
(
0.00497025924276
0.00497053682438
0.00497057808129
0.00497082182946
0.00497086302399
0.00497106722196
0.00497110842473
0.00497130942067
0.00497152818359
0.00497172050778
0.00497176896197
0.00497196984211
0.00497201828629
0.00497223634107
0.00497228384004
0.00497246678531
0.00497267698985
0.00497279924275
0.00497284375527
0.00497299760687
0.00497304249277
0.00497317423446
0.0049732187666
0.00497338275479
0.00497355919246
0.00497373670436
0.00497378167001
0.00497398823846
0.00497403317538
0.00497427529483
0.00497432096039
0.00497460860741
0.00497495323439
0.004975191613
0.00497523447407
0.00497536129692
0.00497540022561
0.00497553553241
0.00497557455235
0.00497568421757
0.00497584666295
0.00497594621963
0.00497598471716
0.00497611098278
0.00497615000037
0.00497627448674
0.00497631303456
0.00497647554304
0.00497664502335
0.00497680955341
0.00497684863292
0.0049770124436
0.00497705133157
0.0049772466579
0.00497728578021
0.00497749905734
0.00497775682415
0.00497807667109
0.00497812352153
0.00497858314512
0.00497863081816
)
;
    }
    procBoundary2to3
    {
        type            processor;
        value           nonuniform List<scalar> 
41
(
0.00497915088007
0.00497922977285
0.00497921292667
0.00497920195477
0.00497918596853
0.004979157301
0.00497912392183
0.00497909355253
0.00497906769713
0.0049790478453
0.00497903335901
0.00497902084516
0.00497900986531
0.00497900245645
0.00497899918235
0.00497899570659
0.00497898824038
0.0049789822345
0.00497897542424
0.0049789669984
0.00497866112711
0.00497866106568
0.00497866093453
0.00497866066687
0.00497866028392
0.00497865985657
0.00497865947082
0.00497865918835
0.00497865902671
0.00497865898119
0.0049786590363
0.00497865917604
0.00497865937908
0.00497865961845
0.00497865985013
0.0049786600327
0.00497866028733
0.00497895790894
0.00497895038005
0.00497866112711
0.00497894420509
)
;
    }