/*--------------------------------*- C++ -*----------------------------------*\
| =========                 |                                                 |
| \\      /  F ield         | OpenFOAM: The Open Source CFD Toolbox           |
|  \\    /   O peration     | Version:  2312                                  |
|   \\  /    A nd           | Website:  www.openfoam.com                      |
|    \\/     M anipulation  |                                                 |
\*---------------------------------------------------------------------------*/
FoamFile
{
    version     2.0;
    format      ascii;
    arch        "LSB;label=32;scalar=64";
    class       volScalarField;
    location    "0.31/water";
    object      alpha.gas;
}
// * * * * * * * * * * * * * * * * * * * * * * * * * * * * * * * * * * * * * //

dimensions      [0 0 0 0 0 0 0];

internalField   nonuniform List<scalar> 
1503
(
0.171547387622
0.104151055571
0.0297730312105
0.00745539107961
0.00137845330821
0.000207981366193
2.60243633796e-05
1.97705610671e-06
4.51172994928e-08
4.26124176991e-10
2.31034894532e-12
1.00115105728e-14
1e-15
1e-15
1e-15
1e-15
1e-15
1e-15
1e-15
1e-15
0.613295062351
0.260089494951
0.108108652198
0.0367652711252
0.0115156547815
0.00304671097536
0.000686785753498
0.000122211479032
1.2326835654e-05
2.76382031503e-07
9.89591181037e-10
1.7452369882e-12
3.18242160794e-15
1e-15
1e-15
1e-15
1e-15
1e-15
1e-15
1e-15
0.613294019074
0.342479727672
0.168839917316
0.072024501952
0.0276314286035
0.00917966135744
0.00256401538479
0.000575915335145
8.54344480053e-05
4.48010032353e-06
2.21262238235e-08
3.01385015587e-11
3.30884520906e-14
1.00066090889e-15
1e-15
1e-15
1e-15
1e-15
1e-15
1e-15
0.613295062351
0.420628632672
0.245512046096
0.125520135805
0.056521314638
0.0217483624292
0.00693368207671
0.00177484368711
0.000325199563933
2.94417580979e-05
4.05026165791e-07
4.70753951605e-10
3.49315630849e-13
1.19124716514e-15
1e-15
1e-15
1e-15
1e-15
1e-15
1e-15
0.597212670331
0.467405647524
0.325177557229
0.199390648443
0.106507489822
0.0477652795467
0.0172876498002
0.00486804314421
0.00100006994404
0.000119833117373
4.13197549495e-06
6.57433850186e-09
4.15400154662e-12
3.52451042756e-15
1.00005588601e-15
1e-15
1e-15
1e-15
1e-15
1e-15
0.570272950118
0.484614777855
0.38560115541
0.277495084974
0.175715335319
0.094009434314
0.0403535744981
0.0130748661803
0.00298865119522
0.000419652837751
2.42145660168e-05
1.38530474047e-07
8.10241990889e-11
4.11991520567e-14
1.01373215294e-15
1e-15
1e-15
1e-15
1e-15
1e-15
0.562619521677
0.492522301337
0.4219922475
0.340527431915
0.24835919506
0.156850804924
0.081487148373
0.0323055911985
0.00886420936098
0.00147919528264
0.000116521562681
2.13573517603e-06
1.50556909591e-09
6.73969531846e-13
1.29718492845e-15
1.0000825603e-15
1.00004881666e-15
1.0000406164e-15
1.00003463317e-15
1.00001555303e-15
0.563844656259
0.497427945471
0.441131272258
0.382289976573
0.307842303295
0.221774813578
0.136679326745
0.0673257869491
0.0237280692771
0.00512960874829
0.000547680228526
1.95403348068e-05
5.34193931877e-08
1.99342876741e-11
8.21799322992e-15
1.00261887004e-15
1.0001162753e-15
1.00006283089e-15
1.00005498673e-15
1.00002800037e-15
0.562513294486
0.499325990948
0.457334851192
0.412918665604
0.353080157069
0.2774711489
0.194716966921
0.116087194148
0.0530864189896
0.0157481248681
0.002412778831
0.000140440833323
1.70883355761e-06
7.34879312023e-10
2.36712384101e-13
1.0819581745e-15
1.00121136174e-15
1.00088010395e-15
1.00057286552e-15
1.00006454152e-15
0.565129525228
0.498672420293
0.469222178575
0.434776079376
0.385231132164
0.319615584562
0.246044274762
0.170031273196
0.0972876677719
0.0392994707799
0.00881426920472
0.000816368883221
2.12139938307e-05
4.46282293536e-08
1.40199742695e-11
4.35925398837e-15
1.00395303689e-15
1.00288679984e-15
1.00219510359e-15
1.00115301623e-15
0.562504403936
0.494763872552
0.469886741398
0.441276929034
0.401366331895
0.347414949957
0.285970472363
0.21950257294
0.148294175092
0.0771255782661
0.0245490950947
0.00352176985466
0.000158563696241
1.27232070111e-06
6.84109090265e-10
1.82009086476e-13
1.04443488329e-15
1.00665946805e-15
1.00528336195e-15
1.00350392519e-15
0.564825065341
0.485499898026
0.462940497896
0.436429932096
0.402824253915
0.362175467892
0.314268141409
0.259055294414
0.194511571832
0.120888842715
0.0511764881653
0.0108347936631
0.000782035830739
1.24537869243e-05
1.55435271247e-08
6.29447815684e-12
2.68392424776e-15
1.01137165844e-15
1.00910872243e-15
1.00653882348e-15
0.562438505854
0.47059083657
0.443318452221
0.420551823041
0.397285092206
0.368907579146
0.333423550789
0.286962943948
0.228460969238
0.159063728478
0.0831378295207
0.0242383915729
0.0026187537967
6.86638208331e-05
2.24089771276e-07
1.28560978703e-10
3.99724253562e-14
1.02029447386e-15
1.01027821598e-15
1.00787762908e-15
0.563034382538
0.454442219937
0.42553284092
0.406726389982
0.392958743226
0.374291839269
0.346744881329
0.305268197242
0.251897948573
0.189237552276
0.11482744704
0.0428289163422
0.00655634522408
0.000268728671042
1.9703636073e-06
1.16134027163e-09
2.53542128232e-13
1.03956507047e-15
1.00961093165e-15
1.0076120089e-15
0.559397191069
0.446005158624
0.424616767416
0.409119443664
0.397715475653
0.383362516403
0.358304550252
0.319304863835
0.2717350317
0.217360861309
0.14793089342
0.067337120578
0.0141535580045
0.000926189674204
1.39038670102e-05
7.57658580718e-09
7.63218690251e-13
1.06123997549e-15
1.00651639905e-15
1.00577031499e-15
0.541267960446
0.450037925489
0.437894719327
0.428932603633
0.418052913946
0.40014206618
0.371715838798
0.335098782247
0.295239018583
0.250679160506
0.189042667309
0.104072757948
0.0303978002756
0.00330878379888
0.00010135857156
4.67808559386e-07
2.80723539455e-12
2.2416870133e-15
1.00382815022e-15
1.00384678122e-15
0.543501101533
0.481794259606
0.477249359491
0.471229020708
0.453534005324
0.423849405321
0.389542060267
0.356135895434
0.324383958684
0.289375513345
0.23960285741
0.160521985658
0.0669289514956
0.0123403571695
0.000741116478171
1.01796068488e-05
1.66207641824e-09
3.50018316881e-14
1.02064931416e-15
1.00367844312e-15
0.588211858649
0.539885077103
0.527061397886
0.515937321952
0.489181871285
0.44917281979
0.40906748663
0.374664005543
0.345023388185
0.318981449842
0.285658366049
0.228622266367
0.133236218739
0.0404487698781
0.00444659777813
0.000128920070338
4.95927875358e-07
4.81809365851e-12
1.65759150852e-15
1.00370239919e-15
0.622931156542
0.575134312696
0.566985826695
0.549787644247
0.515768677086
0.468690895526
0.421760108885
0.380375894684
0.345863153454
0.321426550795
0.311265025633
0.286957382774
0.214374714526
0.0981721209105
0.0186384456224
0.00104497697703
1.24762416458e-05
2.32188405272e-09
3.25874069098e-13
1.08703560335e-15
0.621105062902
0.583319461714
0.583195549175
0.568964161237
0.531788254386
0.478564773705
0.425179685
0.379444069741
0.341127039625
0.315591754081
0.312559161696
0.312474364898
0.27550608453
0.169202629513
0.0508373138173
0.005028938562
0.000118730043943
3.56298696515e-07
1.67408938686e-11
8.65370159521e-15
0.625300923283
0.583345027526
0.583197380254
0.574527411147
0.537672506568
0.480614510831
0.42379200499
0.372418580841
0.326505655039
0.302006238149
0.308499398858
0.312389431828
0.300699457459
0.221140781794
0.0926284936091
0.0146485214911
0.000595300839814
4.44704984067e-06
4.17535085174e-10
1.85577777457e-13
0.621511105307
0.579525233591
0.583065634767
0.57368515946
0.536364934809
0.477389404567
0.414522939395
0.353427243627
0.304226934199
0.297536300745
0.298787631051
0.310314684241
0.306553360317
0.246298470299
0.125671692992
0.0279303044594
0.00173931886486
2.15815004824e-05
2.32085381534e-08
9.02027636717e-12
0.625488387229
0.570381811339
0.577981594768
0.565898902974
0.526155920443
0.462715504535
0.391553028917
0.323720311043
0.297519209074
0.297641565297
0.297254274267
0.30016819156
0.304430102421
0.258487138655
0.146569932544
0.0401130114013
0.00338419069932
5.90901794098e-05
1.37275447487e-07
9.38782144276e-11
0.621511105307
0.557850120056
0.566248217123
0.548787149052
0.502833410022
0.433608071056
0.357947364564
0.299783069784
0.297641565297
0.296905120639
0.297641565297
0.2971370777
0.301285912396
0.267951438274
0.162074936391
0.0506894073187
0.00533786011453
0.000119986707921
4.25127682903e-07
4.06699381031e-10
0.625224013451
0.544642820801
0.550789276765
0.525356162383
0.470314572275
0.396101672677
0.32253756408
0.297641565297
0.296938112197
0.297641565297
0.296353595197
0.297641565297
0.311740737329
0.286496979297
0.180935878947
0.0635717468284
0.00824469386148
0.000235998085938
1.11358419327e-06
1.2579223653e-09
0.621105062902
0.533086949197
0.532553286744
0.498958451581
0.436859526808
0.362199239583
0.300474523031
0.297209103802
0.297641565297
0.296134642738
0.297641565297
0.298089332305
0.352904417802
0.320276267882
0.215218463593
0.0873585589232
0.0142631111239
0.000537186888181
3.24629847836e-06
4.01026944114e-09
0.624111967122
0.521099104789
0.509225478687
0.470131228448
0.408366725465
0.340144822239
0.297566479953
0.297641565297
0.296314464283
0.297641565297
0.296070457957
0.340661510821
0.362719670896
0.360016636995
0.270656147036
0.13083629677
0.0276747805368
0.00144722530558
1.18367546508e-05
1.54281798433e-08
0.620648277615
0.504339068089
0.479259996371
0.439140957412
0.385449384708
0.328653000385
0.297641565297
0.296727522664
0.297641565297
0.296070457957
0.317623411733
0.363032937928
0.362124776138
0.362613090873
0.320424725804
0.192328440152
0.0536320272706
0.00403361878941
4.9692700126e-05
7.42335067322e-08
0.621249646075
0.480643426123
0.454659451765
0.419251781746
0.375488964474
0.327029787732
0.297287696651
0.297641565297
0.296070457957
0.30940273959
0.361482176767
0.362124776138
0.3630258541
0.362124776138
0.359269814558
0.254113327004
0.092383358853
0.0103734412921
0.000216668695858
5.75271617389e-07
0.594157717853
0.454952477633
0.447934100753
0.419928588964
0.378049793375
0.334025902033
0.306964031278
0.307976966115
0.321889739377
0.348947335545
0.362124776138
0.362650383754
0.362124776138
0.362640103514
0.362124776138
0.29478023677
0.138937523796
0.0236096451457
0.000867984577906
4.67035439428e-06
0.541105488069
0.455905106344
0.460320488534
0.438869711729
0.39700534321
0.359815949297
0.345031580508
0.350468789928
0.351224946673
0.348001542613
0.345155338318
0.351058484952
0.36236493829
0.362124776138
0.362267673644
0.318490604275
0.187045315554
0.0473081169605
0.00298785712504
3.08488454422e-05
0.539179397704
0.513157396232
0.522995157642
0.498021723548
0.439224191556
0.39804798424
0.381144412562
0.37002977272
0.349728484704
0.327622224593
0.312733763188
0.321228383463
0.344390688429
0.357648857801
0.359659290413
0.331198587564
0.234292190891
0.0849876111475
0.00894002858815
0.000174091704146
0.610575736615
0.627491615017
0.62436733383
0.593292034881
0.508103250505
0.442110077779
0.404478735758
0.374862141978
0.339635281821
0.303147228331
0.286573770057
0.292014973745
0.313227733223
0.335561509284
0.345095341362
0.337521861352
0.279183934465
0.137888617114
0.0234247482918
0.000843374767964
0.684048908019
0.683517521738
0.682272754899
0.673132933579
0.606351663863
0.511613701571
0.439060511493
0.387459744503
0.340979838406
0.297633392388
0.274487329804
0.27512853829
0.286763179088
0.30510838213
0.325169354063
0.342096394725
0.317073475601
0.201183964042
0.0527996431314
0.00338312505155
0.688247493756
0.683839760988
0.685353586475
0.683902833611
0.67706029099
0.598092565084
0.499301040889
0.420801469751
0.355926716691
0.301280723151
0.270356220783
0.26828349171
0.272551268517
0.283142553854
0.306819214408
0.344066241672
0.348264044219
0.263379003957
0.0986558574106
0.0107954806969
0.684609242788
0.685616357217
0.684048908019
0.685808903351
0.683902833611
0.650634627662
0.561329742053
0.464963839322
0.381996558204
0.311513377563
0.270324449273
0.267223875885
0.267532714915
0.271288745825
0.291353956908
0.342181690608
0.376595925767
0.310551329996
0.150231062004
0.0261747695818
0.690678853205
0.684422059781
0.68641010058
0.684048908019
0.6850865352
0.66741030146
0.593935495255
0.49467578598
0.401396440027
0.320157919411
0.270694176546
0.267322536327
0.267028640174
0.267322536327
0.280935343942
0.339072372407
0.377877091256
0.335619355091
0.192997060455
0.0484776174183
0.684783860832
0.685982207407
0.684505713995
0.686010265295
0.684048908019
0.669841968287
0.600475674411
0.502411586036
0.405917546336
0.321018444896
0.270339034541
0.267035235812
0.266861966653
0.266979101957
0.273355701789
0.331938089355
0.377886641254
0.345689238949
0.221085531877
0.0722422903117
1e-15
1e-15
1e-15
1e-15
1e-15
1e-15
1e-15
1e-15
1e-15
1e-15
1e-15
1e-15
1e-15
1e-15
1e-15
1e-15
1e-15
1e-15
1e-15
1e-15
1e-15
1e-15
1e-15
1e-15
1e-15
1e-15
1e-15
1e-15
1e-15
1e-15
1e-15
1e-15
1e-15
1e-15
1e-15
1e-15
1e-15
1e-15
1e-15
1e-15
1e-15
1e-15
1e-15
1e-15
1e-15
1e-15
1e-15
1e-15
1e-15
1e-15
1e-15
1e-15
1e-15
1e-15
1e-15
1e-15
1e-15
1e-15
1e-15
1e-15
1e-15
1e-15
1e-15
1e-15
1e-15
1e-15
1e-15
1e-15
1e-15
1e-15
1e-15
1e-15
1e-15
1e-15
1e-15
1e-15
1e-15
1e-15
1e-15
1e-15
1e-15
1e-15
1e-15
1e-15
1e-15
1e-15
1e-15
1e-15
1e-15
1e-15
1e-15
1e-15
1e-15
1e-15
1e-15
1.00002649728e-15
1.00090356836e-15
1e-15
1e-15
1e-15
1e-15
1e-15
1e-15
1e-15
1e-15
1e-15
1e-15
1e-15
1e-15
1e-15
1e-15
1e-15
1e-15
1e-15
1e-15
1e-15
1.00424192702e-15
1e-15
1e-15
1.03026871744e-15
1.00001880807e-15
1.000054112e-15
1.00007324272e-15
1.00008741451e-15
1.00010635646e-15
1.0001386783e-15
1.00028648248e-15
1.00048049628e-15
1.00068450572e-15
1.00080399762e-15
1.00075210056e-15
1.00041619902e-15
1.00003703478e-15
1e-15
1.0000114478e-15
1.0026301252e-15
1.00424278628e-15
1e-15
1e-15
1.07449130122e-15
1.00003437771e-15
1.00009567639e-15
1.00025941295e-15
1.00038026002e-15
1.00054482975e-15
1.0008004151e-15
1.00111171383e-15
1.00148515057e-15
1.00185968469e-15
1.00207185997e-15
1.0018710576e-15
1.00102141467e-15
1.00003821765e-15
1.00001084402e-15
1.00123265608e-15
1.00888752416e-15
1.00247017752e-15
1e-15
1e-15
1.11544990526e-15
1.00012502083e-15
1.00080573089e-15
1.00103160619e-15
1.00119046924e-15
1.00141731979e-15
1.00174166754e-15
1.0021468053e-15
1.00263647975e-15
1.0031436985e-15
1.00340717111e-15
1.00298550513e-15
1.00153339141e-15
1.00005199189e-15
1.00009269788e-15
1.00524054523e-15
1.01102308664e-15
1e-15
1e-15
1e-15
1.15481225303e-15
1.00114657772e-15
1.00190408796e-15
1.00204587076e-15
1.00212617043e-15
1.00231906702e-15
1.00265619624e-15
1.00316147659e-15
1.00378752725e-15
1.00441700241e-15
1.00472384546e-15
1.00405885524e-15
1.00199792868e-15
1.00027182692e-15
1.0013577088e-15
1.01529712037e-15
1.0110228109e-15
1e-15
1e-15
1e-15
1.19073629851e-15
1.00297678611e-15
1.00357834705e-15
1.00343588384e-15
1.00338480865e-15
1.00355772417e-15
1.0039139672e-15
1.0045026502e-15
1.00526656889e-15
1.00601777114e-15
1.00618884337e-15
1.00527876656e-15
1.00269513738e-15
1.00088532454e-15
1.00460062633e-15
1.01596920454e-15
1.00988208502e-15
1e-15
1e-15
1e-15
1.22174077593e-15
1.00544882132e-15
1.00599325401e-15
1.00551486395e-15
1.00516422234e-15
1.00517248966e-15
1.00556019297e-15
1.00617565675e-15
1.00720308048e-15
1.00963429474e-15
1.00782401241e-15
1.00674208596e-15
1.00377690424e-15
1.00229555117e-15
1.01412253578e-15
1.01596903193e-15
1.00732878615e-15
1e-15
1.00001782378e-15
1e-15
1.24638005369e-15
1.00677763764e-15
1.00675053973e-15
1.00676669994e-15
1.00678286015e-15
1.00693930515e-15
1.0071328358e-15
1.00782056551e-15
1.00936444946e-15
1.01166580145e-15
1.00984306189e-15
1.00836786146e-15
1.00514613527e-15
1.00461010499e-15
1.01597078485e-15
1.01551714447e-15
1.00233902807e-15
1e-15
1.00017290177e-15
1e-15
1.26566596061e-15
1.00661519914e-15
1.00661408591e-15
1.00669369553e-15
1.00682378208e-15
1.00727038586e-15
1.00805710137e-15
1.00912676914e-15
1.0113285084e-15
1.01166551168e-15
1.01121325661e-15
1.00887269428e-15
1.006267801e-15
1.00742031047e-15
1.0159779383e-15
1.01359187297e-15
1e-15
1e-15
1.00085691224e-15
1e-15
1.2820971213e-15
1.00522425241e-15
1.00514701493e-15
1.00563074874e-15
1.00620916759e-15
1.00693099361e-15
1.0079417936e-15
1.00956570007e-15
1.01146896311e-15
1.01165141727e-15
1.01114363914e-15
1.00875092875e-15
1.00699732022e-15
1.01037649531e-15
1.01597078485e-15
1.00998467233e-15
1e-15
1e-15
1.00210375052e-15
1e-15
1.29806936301e-15
1.00381514294e-15
1.00379851133e-15
1.00389562463e-15
1.00474133913e-15
1.00603263523e-15
1.0075098177e-15
1.00940155368e-15
1.01112548677e-15
1.01123044584e-15
1.01065187283e-15
1.00850478633e-15
1.00774051878e-15
1.01327574465e-15
1.01565345485e-15
1.00527172231e-15
1e-15
1e-15
1.01678759592e-15
1e-15
1.31483866956e-15
1.00370239919e-15
1.00369008593e-15
1.00370239919e-15
1.00370188556e-15
1.00543111216e-15
1.00729839385e-15
1.00927901806e-15
1.01065206575e-15
1.01084332866e-15
1.01019677042e-15
1.00852572937e-15
1.00887996932e-15
1.015836029e-15
1.01422012051e-15
1e-15
1e-15
1e-15
1.02261384447e-15
1e-15
1.33276141743e-15
1.00362852216e-15
1.00370239919e-15
1.00366540324e-15
1.00370692623e-15
1.00578008965e-15
1.00779669717e-15
1.00966734163e-15
1.0107473198e-15
1.01093619446e-15
1.01031428792e-15
1.00907349186e-15
1.01129029338e-15
1.0179788213e-15
1.01188717019e-15
1e-15
1e-15
1e-15
1.02219427316e-15
1e-15
1.34668488259e-15
1.00370239919e-15
1.00358288008e-15
1.00370239919e-15
1.00593174841e-15
1.00795680264e-15
1.00983995718e-15
1.01121039673e-15
1.01157977412e-15
1.01186784104e-15
1.01127649144e-15
1.0108354284e-15
1.01536493433e-15
1.01797773348e-15
1.0091787101e-15
1e-15
1e-15
1.00002126039e-15
1.02259077468e-15
1e-15
1.58406129974e-15
1.00352336531e-15
1.00370239919e-15
1.00717924428e-15
1.01120952094e-15
1.01246857315e-15
1.01353922708e-15
1.01429310435e-15
1.02308160411e-15
1.01542835242e-15
1.01351058257e-15
1.01377891645e-15
1.01895274963e-15
1.01794805173e-15
1.00685370319e-15
1e-15
1e-15
1.00084578309e-15
1.02219427316e-15
1e-15
1.6130153562e-15
1.00577278261e-15
1.01419343417e-15
1.01817512753e-15
1.01826844704e-15
1.01811071099e-15
1.01800452484e-15
1.01793603951e-15
1.03061619017e-15
1.02995434031e-15
1.01621718988e-15
1.01722027584e-15
1.0209326765e-15
1.0175690158e-15
1.00503569697e-15
1e-15
1e-15
1.00386815997e-15
1.02254644871e-15
1.00016567869e-15
1.62053627995e-15
1.10672030654e-15
1.02924811369e-15
1.02657316127e-15
1.0243417089e-15
1.0227239861e-15
1.02159018507e-15
1.0304842837e-15
1.02995434031e-15
1.03061056414e-15
1.02450904685e-15
1.02036993316e-15
1.02167615596e-15
1.01657155765e-15
1.00266431173e-15
1e-15
1e-15
1.00593812606e-15
1.02219427316e-15
1.00414619456e-15
1.6130153562e-15
2.48013079498e-15
1.03289246356e-15
1.03002718385e-15
1.02704195987e-15
1.0246087476e-15
1.02385277472e-15
1.02995434031e-15
1.03061109274e-15
1.02995434031e-15
1.0304366056e-15
1.0226939302e-15
1.02189033251e-15
1.01462119187e-15
1.00004232412e-15
1e-15
1e-15
1.00604924688e-15
1.02244015296e-15
1.00924986954e-15
1.6204228522e-15
1.05279309751e-14
1.02913240137e-15
1.02996918802e-15
1.02692032463e-15
1.02426666584e-15
1.02391574591e-15
1.03049975624e-15
1.02995434031e-15
1.03058631965e-15
1.02995434031e-15
1.02400768657e-15
1.02169318133e-15
1.01180852077e-15
1e-15
1e-15
1.00002370461e-15
1.00537251812e-15
1.02219427316e-15
1.01040730111e-15
1.6130153562e-15
3.64761491025e-14
1.01155439232e-15
1.02645832122e-15
1.02373837734e-15
1.02085357962e-15
1.02340539817e-15
1.02995434031e-15
1.03052131924e-15
1.02995434031e-15
1.03038156095e-15
1.02499175413e-15
1.02067699196e-15
1.00828380692e-15
1e-15
1e-15
1.00003624113e-15
1.00349618405e-15
1.02230050836e-15
1.01009623274e-15
1.6201569457e-15
1.20347531657e-13
1e-15
1.0132208379e-15
1.01623125907e-15
1.01474624034e-15
1.02363635058e-15
1.03028593342e-15
1.02995434031e-15
1.03041016727e-15
1.02995434031e-15
1.02710638952e-15
1.01811699279e-15
1.00278957339e-15
1e-15
1e-15
1.00001472726e-15
1.00144193958e-15
1.02219427316e-15
1.00920825892e-15
1.6130153562e-15
4.12171632509e-13
1e-15
1e-15
1.00821867758e-15
1.01215460816e-15
1.02597761499e-15
1.02995434031e-15
1.03028875947e-15
1.02995434031e-15
1.03019538744e-15
1.02870463503e-15
1.01426024384e-15
1.00001101267e-15
1e-15
1e-15
1e-15
1.00035269287e-15
1.02186590126e-15
1.00842822085e-15
1.61979298886e-15
2.02042341778e-12
1e-15
1e-15
1.00347077596e-15
1.01233080444e-15
1.02662884394e-15
1.03002238854e-15
1.02995434031e-15
1.03017532978e-15
1.02995434031e-15
1.02783412542e-15
1.00971475567e-15
1e-15
1e-15
1e-15
1e-15
1.00009331638e-15
1.0200332652e-15
1.00787409521e-15
1.6130153562e-15
1.95756208613e-11
1e-15
1e-15
1.00158070068e-15
1.01452618897e-15
1.02530428162e-15
1.02765484226e-15
1.03005890895e-15
1.02995434031e-15
1.02999626686e-15
1.02443804341e-15
1.00456172771e-15
1e-15
1e-15
1e-15
1e-15
1e-15
1.01841444481e-15
1.00759089011e-15
1.61931639524e-15
5.96274816426e-11
1e-15
1e-15
1.00054765261e-15
1.01449873396e-15
1.02149377863e-15
1.02590405052e-15
1.02995434031e-15
1.02998964198e-15
1.02715983977e-15
1.01846505546e-15
1e-15
1e-15
1e-15
1e-15
1e-15
1e-15
1.01765167966e-15
1.00759413734e-15
1.6130153562e-15
4.46743321909e-09
1e-15
1e-15
1e-15
1.0125385967e-15
1.01806165684e-15
1.02617325519e-15
1.02963345579e-15
1.02934006452e-15
1.02202285858e-15
1.01201094537e-15
1e-15
1e-15
1e-15
1e-15
1e-15
1e-15
1.01767970055e-15
1.00735957519e-15
1.61873326679e-15
1.63906973275e-07
1e-15
1e-15
1e-15
1.00915290828e-15
1.01728479835e-15
1.02600583509e-15
1.02822811608e-15
1.02784266835e-15
1.01794346579e-15
1.00678086574e-15
1e-15
1e-15
1e-15
1e-15
1e-15
1e-15
1.01894410717e-15
1.00754230001e-15
1.6130153562e-15
2.96590221293e-06
1e-15
1e-15
1e-15
1.00716223681e-15
1.01774957013e-15
1.02505739412e-15
1.02677744723e-15
1.02633490761e-15
1.01650325168e-15
1.00361195695e-15
1e-15
1e-15
1e-15
1e-15
1e-15
1.00379810449e-15
1.02188518246e-15
1.00820539772e-15
1.61807523366e-15
3.01076878586e-05
1.0357337158e-15
1e-15
1e-15
1.00668975681e-15
1.01879745961e-15
1.02414663622e-15
1.02710990141e-15
1.02648638431e-15
1.01768862426e-15
1.00289428256e-15
1e-15
1e-15
1e-15
1e-15
1e-15
1.00748110358e-15
1.02565518504e-15
1.02630081435e-15
1.6130153562e-15
0.000204362157698
1.24209978039e-08
1e-15
1e-15
1.00741302133e-15
1.01956670375e-15
1.02450256132e-15
1.02939290382e-15
1.0289467362e-15
1.02110786843e-15
1.00432221025e-15
1e-15
1e-15
1e-15
1e-15
1e-15
1.01125863615e-15
1.03015507119e-15
1.03601953361e-15
1.61758174055e-15
0.000973065362326
1.61389312736e-06
1e-15
1e-15
1.01108210289e-15
1.02099000481e-15
1.02688313096e-15
1.03032409409e-15
1.03019614126e-15
1.02495680532e-15
1.00917491954e-15
1e-15
1e-15
1e-15
1e-15
1e-15
1.01529959142e-15
1.03515446695e-15
1.04225632216e-15
1.6130153562e-15
0.00314948085906
1.90298487805e-05
1.03063404813e-15
1e-15
1.01669554969e-15
1.02301508713e-15
1.02992625092e-15
1.03019614126e-15
1.03052017931e-15
1.02954506454e-15
1.01550862394e-15
1e-15
1e-15
1e-15
1e-15
1.00339032279e-15
1.0188655464e-15
1.03984054849e-15
1.04651159187e-15
1.61741699549e-15
0.00732589083116
9.90090952766e-05
1e-15
)
;

boundaryField
{
    emptyPatch
    {
        type            empty;
    }
    minY
    {
        type            fixedValue;
        value           uniform 1e-15;
    }
    maxY
    {
        type            inletOutlet;
        phi             phi.gas;
        inletValue      nonuniform List<scalar> 0();
        value           nonuniform List<scalar> 0();
    }
    maxX
    {
        type            zeroGradient;
    }
    water_to_heater
    {
        type            zeroGradient;
    }
    procBoundary2to3
    {
        type            processor;
        value           nonuniform List<scalar> 
41
(
0.691114303049
0.684732588975
0.686218262458
0.684505713995
0.684794271078
0.666954622244
0.595861198558
0.498283636382
0.400799796711
0.314417998746
0.268456582539
0.266861966653
0.266650214446
0.266861966653
0.268679742038
0.32550128127
0.377896191162
0.349733032036
0.239071631837
0.0940563164974
1e-15
1.01667522987e-15
1.0262628977e-15
1.03016569411e-15
1.03083170836e-15
1.03019614126e-15
1.03031830828e-15
1.02036314989e-15
1.00386344212e-15
1e-15
1e-15
1.0011533343e-15
1.01234403587e-15
1.02148011094e-15
1.04366010173e-15
1.04957046301e-15
1.6130153562e-15
0.0134267937103
0.000323420119927
1e-15
1.03927398467e-08
)
;
    }
}


// ************************************************************************* //
