/*--------------------------------*- C++ -*----------------------------------*\
| =========                 |                                                 |
| \\      /  F ield         | OpenFOAM: The Open Source CFD Toolbox           |
|  \\    /   O peration     | Version:  2312                                  |
|   \\  /    A nd           | Website:  www.openfoam.com                      |
|    \\/     M anipulation  |                                                 |
\*---------------------------------------------------------------------------*/
FoamFile
{
    version     2.0;
    format      ascii;
    arch        "LSB;label=32;scalar=64";
    class       volScalarField;
    location    "0.31/water";
    object      nut.gas;
}
// * * * * * * * * * * * * * * * * * * * * * * * * * * * * * * * * * * * * * //

dimensions      [0 2 -1 0 0 0 0];

internalField   nonuniform List<scalar> 
1503
(
3.17282470602e-07
1.23069566569e-07
5.18909537613e-08
3.42315694605e-08
1.25297885747e-07
9.21975337251e-07
3.98192057204e-06
9.08232601695e-06
1.37623484772e-05
1.67302384433e-05
1.82827032923e-05
1.90042244805e-05
1.93054866046e-05
1.94130601443e-05
1.94389520973e-05
1.94344870925e-05
1.94215082293e-05
1.94084340283e-05
1.93979682493e-05
1.93906011334e-05
1.61800874252e-06
9.73389356597e-07
4.71802832068e-07
2.49894635155e-07
1.05275451467e-07
7.8393747199e-08
1.63800828417e-07
9.6079726068e-07
4.17201070399e-06
9.52684666629e-06
1.41663107507e-05
1.69978087192e-05
1.84405631496e-05
1.90915331281e-05
1.93497857533e-05
1.94313764192e-05
1.9441460271e-05
1.94273577346e-05
1.94087126257e-05
1.93928170617e-05
2.26056108918e-06
1.63654941988e-06
1.01501450017e-06
5.53157869784e-07
3.0462116377e-07
1.44532645995e-07
1.03754430551e-07
2.46297908547e-07
1.31444854424e-06
4.68696874169e-06
9.66656963898e-06
1.40130410906e-05
1.68268424941e-05
1.83550327078e-05
1.90839390216e-05
1.93872623128e-05
1.94879872028e-05
1.9502773848e-05
1.94872330037e-05
1.94656900368e-05
2.68237988087e-06
2.04530458385e-06
1.39854724851e-06
8.6114074397e-07
5.55124129207e-07
2.61838424843e-07
1.3967389937e-07
1.35098206868e-07
5.00905722125e-07
2.30346094812e-06
6.27763525042e-06
1.09872604975e-05
1.47773505418e-05
1.72059015211e-05
1.8543270112e-05
1.91918607968e-05
1.94636820036e-05
1.95516734156e-05
1.95606082672e-05
1.95421357011e-05
2.97288780633e-06
2.34403238237e-06
1.68076297236e-06
1.12193559482e-06
6.73688695477e-07
4.43653920666e-07
1.90672961723e-07
1.25086126049e-07
2.40433622398e-07
1.1642568345e-06
4.02466110418e-06
8.41651928621e-06
1.26768031576e-05
1.58223811224e-05
1.77758602602e-05
1.88396517809e-05
1.93503936416e-05
1.95584943422e-05
1.96189919409e-05
1.96170610375e-05
3.13016981623e-06
2.54512551183e-06
1.89256051154e-06
1.32712741415e-06
8.65603129042e-07
4.93371728002e-07
3.01326993208e-07
1.29448096015e-07
1.45686417325e-07
5.90710862144e-07
2.53329920991e-06
6.352255895e-06
1.07229392815e-05
1.43607407663e-05
1.68568927073e-05
1.83494936645e-05
1.91408977509e-05
1.95081682232e-05
1.96471311388e-05
1.96770475287e-05
3.18036577213e-06
2.63025881773e-06
2.01305305661e-06
1.46867914442e-06
1.01412747524e-06
6.36722981361e-07
3.34702496176e-07
1.78265475201e-07
9.97615923948e-08
2.91099855677e-07
1.52270771761e-06
4.70171184947e-06
8.97527280089e-06
1.29213976745e-05
1.58607558141e-05
1.77576980772e-05
1.88453440189e-05
1.93983723282e-05
1.96386650718e-05
1.97153446562e-05
3.19227569803e-06
2.66129698949e-06
2.07363326172e-06
1.55589487136e-06
1.1193351186e-06
7.50897743838e-07
4.41905656192e-07
2.19366954931e-07
9.83640073318e-08
1.30553237803e-07
8.20102440406e-07
3.35495006426e-06
7.42422286034e-06
1.15540795995e-05
1.48437017266e-05
1.71017938386e-05
1.8480963611e-05
1.92332614134e-05
1.95916437676e-05
1.97280196105e-05
3.20334958393e-06
2.67802087705e-06
2.10461235587e-06
1.60610686831e-06
1.18967485526e-06
8.38440554837e-07
5.36780917971e-07
2.81948076457e-07
1.36011120839e-07
6.92528487811e-08
3.38317678747e-07
2.18924570593e-06
6.01122898142e-06
1.02649316484e-05
1.38382950029e-05
1.64122074888e-05
1.80661856942e-05
1.90203793304e-05
1.9506996367e-05
1.97130761168e-05
3.20239024236e-06
2.6849961903e-06
2.11830249708e-06
1.63167749364e-06
1.23463293668e-06
9.04307522843e-07
6.16251964631e-07
3.59238781066e-07
1.53538818443e-07
7.10450706985e-08
1.08547118773e-07
1.15165276581e-06
4.65591182496e-06
9.02351471727e-06
1.28474943649e-05
1.5703417268e-05
1.76135378711e-05
1.87661920708e-05
1.93863118515e-05
1.96688405778e-05
3.19116941651e-06
2.67787787262e-06
2.11446099218e-06
1.63887347905e-06
1.26266212171e-06
9.54526061054e-07
6.81543055335e-07
4.27635050991e-07
2.03894703288e-07
6.72530507892e-08
5.49574026714e-08
4.09632104467e-07
3.26262291524e-06
7.73718310571e-06
1.18145943613e-05
1.49537792247e-05
1.71194094695e-05
1.84707063258e-05
1.92281371672e-05
1.95945985453e-05
3.16203077497e-06
2.65600027526e-06
2.0967043472e-06
1.63478092689e-06
1.28196046874e-06
9.95153316286e-07
7.34751450867e-07
4.85104035302e-07
2.50429397516e-07
8.30175663201e-08
4.50580808858e-08
1.26037546063e-07
1.83970312828e-06
6.26438939007e-06
1.06212278262e-05
1.40995933674e-05
1.6554062214e-05
1.81235901014e-05
1.90317521494e-05
1.94907705931e-05
3.13664838297e-06
2.63099827604e-06
2.07880145676e-06
1.6351701759e-06
1.30431890251e-06
1.03255150304e-06
7.79212964199e-07
5.32515070085e-07
2.9106875449e-07
1.01373976719e-07
3.46393740405e-08
5.71973931883e-08
7.48366927769e-07
4.50623641338e-06
9.0999771863e-06
1.30382215325e-05
1.58779848686e-05
1.77145197366e-05
1.87957741494e-05
1.93585360918e-05
3.13215381411e-06
2.62148278151e-06
2.08111622881e-06
1.65668054027e-06
1.33932240432e-06
1.07137319568e-06
8.18681922965e-07
5.73557229823e-07
3.28604654782e-07
1.23526173567e-07
3.86943269908e-08
3.84485054341e-08
2.20355043138e-07
2.59872589889e-06
7.18171761159e-06
1.16870787351e-05
1.50456402046e-05
1.72257556733e-05
1.85161944053e-05
1.91989778883e-05
3.15439662137e-06
2.65801383428e-06
2.14312506522e-06
1.72357174958e-06
1.39379314762e-06
1.11224341036e-06
8.55194751334e-07
6.11994864286e-07
3.67533101851e-07
1.54517561918e-07
4.75656085487e-08
2.73810830607e-08
6.91654317258e-08
1.1401551931e-06
5.01621662198e-06
9.98451242537e-06
1.40007320695e-05
1.6631493133e-05
1.81850731321e-05
1.90117355947e-05
3.29639961522e-06
2.83387565244e-06
2.30369770652e-06
1.83221784873e-06
1.45365584134e-06
1.14813366514e-06
8.87683706946e-07
6.49814424093e-07
4.16087064228e-07
1.96961924844e-07
6.14173787529e-08
2.59668279953e-08
3.82512721146e-08
3.55160156371e-07
2.94861068058e-06
7.96233596748e-06
1.27032452326e-05
1.59045749238e-05
1.77907869638e-05
1.87937294185e-05
3.58001874348e-06
3.09536083846e-06
2.4773997062e-06
1.91838369362e-06
1.49192980809e-06
1.17144357735e-06
9.14030896813e-07
6.90279625459e-07
4.7360016519e-07
2.51062919406e-07
8.18248522054e-08
2.88371609461e-08
2.66689563864e-08
8.6966056173e-08
1.35437509083e-06
5.79988389488e-06
1.11511350832e-05
1.50224671733e-05
1.73187703622e-05
1.85383945738e-05
3.80194339529e-06
3.21256610615e-06
2.53357734698e-06
1.94808383064e-06
1.5072196978e-06
1.18298103446e-06
9.33491259583e-07
7.27797500313e-07
5.3168919127e-07
3.12392204776e-07
1.09518579775e-07
3.31386451542e-08
2.41089688368e-08
4.69190519612e-08
3.9035954293e-07
3.74360493381e-06
9.41054797135e-06
1.39805863581e-05
1.67552113622e-05
1.82363717809e-05
3.87948802199e-06
3.26218123893e-06
2.5671951705e-06
1.9661911348e-06
1.51497147911e-06
1.18894561431e-06
9.47316452841e-07
7.57826399429e-07
5.80642237955e-07
3.68889731758e-07
1.40576727932e-07
3.85417332694e-08
2.40875951305e-08
3.04185923048e-08
1.07888921676e-07
1.889219581e-06
7.58442001931e-06
1.27918619334e-05
1.60881099528e-05
1.78764430762e-05
3.94385639395e-06
3.31231072534e-06
2.59988498327e-06
1.98411140025e-06
1.52205759906e-06
1.19317354927e-06
9.57118944673e-07
7.80458318764e-07
6.19193590785e-07
4.14366987028e-07
1.6669371233e-07
4.29447750544e-08
2.38407399268e-08
2.81065968572e-08
6.81478666906e-08
5.97144825892e-07
5.66119260053e-06
1.14514347399e-05
1.52997346993e-05
1.74450260757e-05
3.95884496279e-06
3.33402420066e-06
2.6194129572e-06
1.99630560937e-06
1.52620894927e-06
1.19498720596e-06
9.63490174176e-07
7.98210104422e-07
6.50790887498e-07
4.49398966127e-07
1.8509550436e-07
4.5409654914e-08
2.33117458328e-08
2.59624780458e-08
4.22727176873e-08
2.04598427524e-07
3.73179364769e-06
9.98547554999e-06
1.43743270958e-05
1.69272431453e-05
3.96268782908e-06
3.3453114528e-06
2.63104908405e-06
2.0015993106e-06
1.52643053994e-06
1.19466884052e-06
9.69197872528e-07
8.16427371802e-07
6.80208908892e-07
4.75637636865e-07
1.97083728448e-07
4.66574540706e-08
2.28280768566e-08
2.423683562e-08
3.47960327234e-08
1.21244275553e-07
2.06585019404e-06
8.36893504028e-06
1.32854523796e-05
1.63047476054e-05
3.9518618411e-06
3.34866260164e-06
2.63510958062e-06
2.00172152022e-06
1.52506390549e-06
1.19589005357e-06
9.79034183463e-07
8.39133643188e-07
7.07547466925e-07
4.94327169651e-07
2.05723817636e-07
4.80288706125e-08
2.2703468397e-08
2.32107253507e-08
2.95746553023e-08
8.07256889337e-08
1.00761901087e-06
6.61400359449e-06
1.20068979232e-05
1.55564000264e-05
3.96794075173e-06
3.35584521273e-06
2.63553222862e-06
1.99904859013e-06
1.52459366352e-06
1.20184491462e-06
9.95739037552e-07
8.65093047774e-07
7.30800302915e-07
5.07588635043e-07
2.14065557057e-07
5.0724793493e-08
2.30329193852e-08
2.29091780965e-08
2.68226431975e-08
5.41824465345e-08
4.78376300156e-07
4.85919516839e-06
1.05329838966e-05
1.46616401185e-05
3.99066308948e-06
3.36984123467e-06
2.63912776833e-06
1.99810439154e-06
1.52748946118e-06
1.2134320178e-06
1.01807971658e-06
8.90893677762e-07
7.49373500442e-07
5.16430473012e-07
2.22822456381e-07
5.47427853778e-08
2.36724199009e-08
2.31248831555e-08
2.5939874728e-08
3.76228464481e-08
2.22365063152e-07
3.22641280604e-06
8.86875411781e-06
1.36007771545e-05
4.02302259804e-06
3.38240167127e-06
2.64001346254e-06
1.99704255386e-06
1.53311392964e-06
1.22967542224e-06
1.04262414851e-06
9.14142686704e-07
7.62662375846e-07
5.19882828912e-07
2.29967621847e-07
5.87173661771e-08
2.43471335482e-08
2.36281902726e-08
2.60765974186e-08
3.00828854653e-08
1.0414397932e-07
1.87718829319e-06
7.08322628524e-06
1.23683937947e-05
4.02879200384e-06
3.37526490718e-06
2.62631490788e-06
1.99073243423e-06
1.54096698558e-06
1.25025159099e-06
1.06785832173e-06
9.34065425299e-07
7.68187268692e-07
5.15625351297e-07
2.32458972136e-07
6.15159120144e-08
2.50574877797e-08
2.40261150435e-08
2.66130584779e-08
2.94608552e-08
6.22263043317e-08
9.432820508e-07
5.33026050555e-06
1.09832413682e-05
4.01027681476e-06
3.33640744518e-06
2.59299738573e-06
1.98263872593e-06
1.55697830708e-06
1.27783643385e-06
1.09421565608e-06
9.48374213939e-07
7.61884219221e-07
5.02128407508e-07
2.2920155887e-07
6.48724927447e-08
2.59696675492e-08
2.41953082438e-08
2.69832048385e-08
2.95418339158e-08
4.73362620799e-08
3.92543248116e-07
3.72894285605e-06
9.46807441972e-06
3.92686478512e-06
3.24909755866e-06
2.55765006178e-06
1.9972091956e-06
1.59464805788e-06
1.31545166485e-06
1.11960845933e-06
9.50826406564e-07
7.40921405663e-07
4.80450313153e-07
2.28069408534e-07
7.08982933634e-08
2.7166392418e-08
2.42433398675e-08
2.68538876635e-08
2.93419123412e-08
3.37996164809e-08
1.48272146346e-07
2.36013280926e-06
7.85350489674e-06
3.85624023774e-06
3.25454117467e-06
2.63078723864e-06
2.08785860303e-06
1.66605128167e-06
1.35853071609e-06
1.13225238874e-06
9.32257292321e-07
7.10469177823e-07
4.66759101623e-07
2.36024173248e-07
7.95901124307e-08
2.89506839618e-08
2.42533834389e-08
2.64535540199e-08
2.87739569536e-08
3.18120818118e-08
7.56384940787e-08
1.30114278249e-06
6.20864676517e-06
4.02868639275e-06
3.52823344048e-06
2.88558629859e-06
2.24596294543e-06
1.73680953493e-06
1.37700962881e-06
1.1194197838e-06
9.03559726528e-07
6.91016075354e-07
4.72047126976e-07
2.56065816978e-07
9.30189264188e-08
3.19170378938e-08
2.44071166248e-08
2.60619737325e-08
2.8023368524e-08
3.0244852881e-08
5.49284812851e-08
5.7254527802e-07
4.60366005237e-06
4.50952084751e-06
3.98613432688e-06
3.17350751034e-06
2.36936201174e-06
1.77519276239e-06
1.38162341113e-06
1.10683197558e-06
8.90861391014e-07
6.98250945232e-07
5.03376485768e-07
2.94885220911e-07
1.15713372617e-07
3.7161344799e-08
2.49335566655e-08
2.58399212685e-08
2.73826015678e-08
2.89024018266e-08
3.49939663317e-08
2.00441988568e-07
3.08514227853e-06
5.06094750481e-06
4.27952894121e-06
3.29584542273e-06
2.45226367554e-06
1.83910660626e-06
1.42086174465e-06
1.12629374565e-06
9.09067739012e-07
7.3355181043e-07
5.60668082695e-07
3.58046888419e-07
1.54341542792e-07
4.6660719481e-08
2.61603523381e-08
2.5893557401e-08
2.70016526492e-08
2.78632933985e-08
3.15588158354e-08
9.07002816209e-08
1.72994929545e-06
5.22039390512e-06
4.39147934692e-06
3.43238162176e-06
2.59718657997e-06
1.95769266546e-06
1.49930157591e-06
1.17667010549e-06
9.49149091988e-07
7.82411425046e-07
6.30115945088e-07
4.3963832071e-07
2.12227560946e-07
6.28658894609e-08
2.84861857902e-08
2.62465874529e-08
2.6880672597e-08
2.70867377295e-08
2.94274385824e-08
6.12017006025e-08
7.0510990785e-07
5.37376586015e-06
4.54158130763e-06
3.57416980571e-06
2.74092838113e-06
2.08652846191e-06
1.58745131644e-06
1.23263421544e-06
9.90252254807e-07
8.25399862756e-07
6.90637912715e-07
5.199376253e-07
2.81507073719e-07
8.68307953326e-08
3.22549304004e-08
2.68509916349e-08
2.69610172152e-08
2.65208445916e-08
2.77977924463e-08
3.91533992996e-08
2.33481008552e-07
5.45699641977e-06
4.6475618539e-06
3.69618731276e-06
2.86324689126e-06
2.19125641514e-06
1.66113337355e-06
1.27566329178e-06
1.01909103013e-06
8.53258778777e-07
7.30646336502e-07
5.80154417563e-07
3.45418941049e-07
1.16436064376e-07
3.77817640446e-08
2.7666037684e-08
2.71642930127e-08
2.61370908052e-08
2.64932691583e-08
3.37662998349e-08
1.18854317988e-07
5.45846031622e-06
4.69993297441e-06
3.77436206587e-06
2.94489444541e-06
2.26223804711e-06
1.71117294758e-06
1.30713058436e-06
1.03958011166e-06
8.70562751151e-07
7.53453291146e-07
6.15412653244e-07
3.88696567173e-07
1.44523541568e-07
4.49327022968e-08
2.87485270249e-08
2.73944197538e-08
2.59411757749e-08
2.55264662723e-08
2.99831856896e-08
8.26887533821e-08
5.45389365646e-06
4.72184282865e-06
3.81119162256e-06
2.97874169353e-06
2.28683668867e-06
1.72986412067e-06
1.32499185258e-06
1.05517135901e-06
8.83941800447e-07
7.68064750607e-07
6.34295456288e-07
4.10692416448e-07
1.62214614938e-07
5.10062098415e-08
2.98948439948e-08
2.76305744206e-08
2.59433793615e-08
2.49535871633e-08
2.73934300407e-08
4.90866352585e-08
1.93862074457e-05
1.93843208267e-05
1.93843253609e-05
1.93857723474e-05
1.93882589486e-05
1.93910701963e-05
1.93924479148e-05
1.93879665779e-05
1.9366914259e-05
1.93044171423e-05
1.9144941377e-05
1.87697281227e-05
1.79393825456e-05
1.62189633254e-05
1.29899549181e-05
7.98409541702e-06
2.86160949645e-06
4.7508638597e-07
1.48565712535e-07
6.75671502073e-07
1.93821003852e-05
1.93766455716e-05
1.93752968447e-05
1.93766588145e-05
1.93787429397e-05
1.93775781375e-05
1.93643239126e-05
1.93194999373e-05
1.92020100507e-05
1.89298669373e-05
1.83506175254e-05
1.7207753375e-05
1.51377587594e-05
1.18009372608e-05
7.33434129081e-06
3.04319026572e-06
7.28494858077e-07
1.91136304168e-07
3.49180165176e-07
1.34293253294e-06
1.9448141156e-05
1.94374835074e-05
1.94325094963e-05
1.94301550741e-05
1.94249104726e-05
1.94057655729e-05
1.93502115374e-05
1.92138222177e-05
1.89141306667e-05
1.83101034981e-05
1.71866044442e-05
1.52711090427e-05
1.23376244479e-05
8.46564026959e-06
4.40773619634e-06
1.5105452094e-06
3.74541019125e-07
2.35758353754e-07
7.03298858657e-07
1.96202203588e-06
1.9519982677e-05
1.95031584747e-05
1.94915009293e-05
1.94796249771e-05
1.94563185486e-05
1.93997271174e-05
1.92686552328e-05
1.89898962052e-05
1.84436868487e-05
1.74550821296e-05
1.58090727056e-05
1.33188920828e-05
9.97773920027e-06
6.18070930572e-06
2.83780651339e-06
8.89499257895e-07
2.88166941612e-07
3.87822022657e-07
1.16293685085e-06
2.46817865071e-06
1.95954688045e-05
1.95728147645e-05
1.95514094923e-05
1.95230274878e-05
1.94688217899e-05
1.93534169306e-05
1.91152434409e-05
1.86555009756e-05
1.78316046565e-05
1.64667753454e-05
1.43931401627e-05
1.15450134492e-05
8.10047079762e-06
4.61190911639e-06
1.92818811906e-06
6.00719253973e-07
3.04499193675e-07
6.40654030927e-07
1.62951640116e-06
2.83505198808e-06
1.96627686823e-05
1.96353507642e-05
1.96010280608e-05
1.95484319454e-05
1.9449822553e-05
1.92553943286e-05
1.88849885831e-05
1.82221830189e-05
1.71188881401e-05
1.54217938246e-05
1.30315549561e-05
9.9965395765e-06
6.6195197592e-06
3.50489600665e-06
1.3691405285e-06
4.66296622202e-07
3.94621320022e-07
9.66332800504e-07
2.02701362614e-06
3.0836990335e-06
1.97156536717e-05
1.96848533123e-05
1.96343131598e-05
1.95495053119e-05
1.93934481628e-05
1.91028062237e-05
1.8583136085e-05
1.77101050025e-05
1.63450088424e-05
1.43726991351e-05
1.17651398298e-05
8.66222493778e-06
5.44091969885e-06
2.70142228392e-06
1.0149777915e-06
4.214112277e-07
5.53379416667e-07
1.31437496628e-06
2.33258198732e-06
3.24722012143e-06
1.97498592565e-05
1.97170762602e-05
1.96469844313e-05
1.95221568593e-05
1.92969605762e-05
1.88968794586e-05
1.82187558289e-05
1.71395150773e-05
1.55402855692e-05
1.33498579003e-05
1.06047400841e-05
7.51266429588e-06
4.49026164343e-06
2.10648692984e-06
7.92130035533e-07
4.41104860186e-07
7.70357606704e-07
1.63908506731e-06
2.55704521283e-06
3.35177652074e-06
1.97624296693e-05
1.97290298076e-05
1.96361910731e-05
1.94641681681e-05
1.91600784577e-05
1.86414954357e-05
1.78023098547e-05
1.65281411812e-05
1.47260315298e-05
1.2368690299e-05
9.54707622983e-06
6.51723700376e-06
3.7140889244e-06
1.6624975368e-06
6.6061755352e-07
5.1582397784e-07
1.02397518496e-06
1.91648281519e-06
2.71935311906e-06
3.41558583874e-06
1.97512841083e-05
1.97185978793e-05
1.96001123265e-05
1.9374665907e-05
1.89841260542e-05
1.83418300229e-05
1.73439632244e-05
1.58902100417e-05
1.39161970106e-05
1.1435436357e-05
8.58324738809e-06
5.64967811014e-06
3.07538170304e-06
1.33338437481e-06
5.97568155037e-07
6.39942205256e-07
1.28794598019e-06
2.1425559332e-06
2.83583386082e-06
3.45115278535e-06
1.97153634497e-05
1.96846617514e-05
1.95379940428e-05
1.92539786101e-05
1.87715974772e-05
1.80036187002e-05
1.68528921328e-05
1.52366336786e-05
1.31194168332e-05
1.05512022496e-05
7.70305925757e-06
4.88934116247e-06
2.54889418735e-06
1.09531033269e-06
5.89648223618e-07
8.05461173078e-07
1.54036577858e-06
2.32350909493e-06
2.91871072299e-06
3.46712987608e-06
1.96548962651e-05
1.96273458687e-05
1.94502856632e-05
1.91035910848e-05
1.8525885654e-05
1.76327518269e-05
1.63370929355e-05
1.4575589605e-05
1.23407569291e-05
9.71453642884e-06
6.89709035664e-06
4.22091049002e-06
2.11738350335e-06
9.31466081878e-07
6.28920314597e-07
1.00026393447e-06
1.76851634093e-06
2.46799309739e-06
2.97694663795e-06
3.46954866682e-06
1.95714017768e-05
1.95480726487e-05
1.93386191653e-05
1.89259819979e-05
1.82509766972e-05
1.72349506168e-05
1.58033231646e-05
1.3913054041e-05
1.15829297354e-05
8.92290824741e-06
6.15751690266e-06
3.63353182074e-06
1.7686620499e-06
8.2936605419e-07
7.09802161763e-07
1.2100212821e-06
1.96832736545e-06
2.5837327041e-06
3.01707359228e-06
3.46262337845e-06
1.94671669635e-05
1.94491584235e-05
1.92054029868e-05
1.87241548826e-05
1.79509302473e-05
1.68153144991e-05
1.52569208362e-05
1.32530646921e-05
1.08469561832e-05
8.17340076775e-06
5.478221054e-06
3.11968566562e-06
1.4933481402e-06
7.79547833592e-07
8.26686804513e-07
1.42148817396e-06
2.1411324376e-06
2.67688235064e-06
3.04379511459e-06
3.44925652416e-06
1.93441304577e-05
1.93328961147e-05
1.90530078762e-05
1.85008646386e-05
1.7629154233e-05
1.63777354031e-05
1.47014918934e-05
1.2597754303e-05
1.0132448679e-05
7.46294625899e-06
4.85454690372e-06
2.67402353751e-06
1.28339398962e-06
7.74884526569e-07
9.72644720572e-07
1.62499862864e-06
2.29048671695e-06
2.75226694159e-06
3.06046244146e-06
3.43136426955e-06
1.92025497525e-05
1.92004373502e-05
1.88828327637e-05
1.82578115569e-05
1.72877251754e-05
1.59244043056e-05
1.41386772409e-05
1.19473875627e-05
9.43780385978e-06
6.78844026818e-06
4.28301161504e-06
2.29240125985e-06
1.13145964496e-06
8.09962492976e-07
1.13944421852e-06
1.8151981805e-06
2.42025071206e-06
2.81368621773e-06
3.0694600232e-06
3.41011318027e-06
1.90400589382e-05
1.90510200041e-05
1.86947214367e-05
1.79952063332e-05
1.69270962941e-05
1.54556983515e-05
1.35682511368e-05
1.13006448743e-05
8.76056268814e-06
6.14699549731e-06
3.76118339171e-06
1.97126712358e-06
1.03093940449e-06
8.80296738395e-07
1.31852818459e-06
1.99030112053e-06
2.53383509685e-06
2.86413215722e-06
3.07251340114e-06
3.38613002341e-06
1.8851716154e-05
1.88819886041e-05
1.84870600593e-05
1.77119456158e-05
1.65463656484e-05
1.49705739144e-05
1.29886534973e-05
1.06552588482e-05
8.09806050755e-06
5.53645272014e-06
3.28777890817e-06
1.70739812016e-06
9.76220910017e-07
9.81492234466e-07
1.5022421527e-06
2.15072344261e-06
2.63406065074e-06
2.90595445162e-06
3.07093229306e-06
3.35971450445e-06
1.86307559119e-05
1.86894650211e-05
1.82574162048e-05
1.74062577098e-05
1.61439735025e-05
1.44673524034e-05
1.23978693278e-05
1.00089494015e-05
7.44833528154e-06
4.95609256405e-06
2.86284576669e-06
1.4978271454e-06
9.62774334206e-07
1.10862927123e-06
1.68470303451e-06
2.29783437559e-06
2.72321346421e-06
2.94099798485e-06
3.06579288645e-06
3.33105258179e-06
1.83691890779e-05
1.84690186694e-05
1.80032072222e-05
1.70764248233e-05
1.57185254245e-05
1.39446576718e-05
1.17944564828e-05
9.36048388368e-06
6.81111660929e-06
4.40731215804e-06
2.48774701821e-06
1.33975753609e-06
9.86884606726e-07
1.25609418476e-06
1.86204926102e-06
2.43316913333e-06
2.80312325416e-06
2.97071224096e-06
3.05805458132e-06
3.3004023633e-06
1.80580802059e-05
1.82158824613e-05
1.77220320537e-05
1.67212991413e-05
1.52694948277e-05
1.3402263124e-05
1.11784706946e-05
8.71059534216e-06
6.18859433764e-06
3.89390556164e-06
2.16467304612e-06
1.2303601577e-06
1.04509784063e-06
1.41787848437e-06
2.03216648791e-06
2.55809521799e-06
2.87523922779e-06
2.99623170759e-06
3.04860848872e-06
3.2682157717e-06
1.76869124655e-05
1.7924705211e-05
1.74116834247e-05
1.63405419569e-05
1.47976296164e-05
1.28415909354e-05
1.05519833847e-05
8.06243421481e-06
5.58562391365e-06
3.42162015862e-06
1.89565106738e-06
1.166522907e-06
1.13363270808e-06
1.58816592285e-06
2.19416969264e-06
2.67376330416e-06
2.94071214772e-06
3.01843293248e-06
3.03826684639e-06
3.23517136316e-06
1.72433551657e-05
1.75893651032e-05
1.70700377974e-05
1.59345514283e-05
1.43048785586e-05
1.2265612138e-05
9.91893783733e-06
7.42132480509e-06
5.00916876775e-06
2.99693148653e-06
1.68140513666e-06
1.14470470502e-06
1.24803969939e-06
1.76193262096e-06
2.34790857985e-06
2.78117083191e-06
3.00047750316e-06
3.0379761404e-06
3.02771574036e-06
3.20212053714e-06
1.67141605093e-05
1.72032633166e-05
1.66949718973e-05
1.55040809658e-05
1.3793801021e-05
1.1678140938e-05
9.28438966617e-06
6.79391228691e-06
4.46710958452e-06
2.62540701285e-06
1.52063664742e-06
1.16095937559e-06
1.3832601588e-06
1.93533484071e-06
2.49362906376e-06
2.88123128407e-06
3.05532342914e-06
3.05533821763e-06
3.01746042343e-06
3.16997699496e-06
1.60866464735e-05
1.67602045147e-05
1.62844832197e-05
1.50497927856e-05
1.32667932815e-05
1.10829258003e-05
8.653557602e-06
6.18710958974e-06
3.96685864763e-06
2.31032509067e-06
1.41008711221e-06
1.21106490013e-06
1.53402129307e-06
2.10579570296e-06
2.6317873858e-06
2.97480693071e-06
3.10593222406e-06
3.07084260541e-06
3.0077890961e-06
3.13959380671e-06
1.53526354285e-05
1.62560156222e-05
1.58372354949e-05
1.45721723125e-05
1.27256744808e-05
1.04831006938e-05
8.0312019218e-06
5.60730283213e-06
3.51427609152e-06
2.05210718362e-06
1.34524760789e-06
1.29065938769e-06
1.69534747378e-06
2.27183531191e-06
2.76294974364e-06
3.0627043209e-06
3.15289813799e-06
3.0846906038e-06
2.99876826315e-06
3.11166662401e-06
1.45109079646e-05
1.56897034536e-05
1.53532428402e-05
1.40719122923e-05
1.21718895909e-05
9.88127548221e-06
7.42158251707e-06
5.06005250909e-06
3.11318192984e-06
1.84866187484e-06
1.32123328187e-06
1.39533276536e-06
1.86296206062e-06
2.43276183483e-06
2.88772026217e-06
3.14565160816e-06
3.1967345275e-06
3.09699646298e-06
2.99026620664e-06
3.08667755435e-06
1.35618768659e-05
1.50620528796e-05
1.48337542125e-05
1.35502889404e-05
1.16070640213e-05
9.28010326585e-06
6.82888778947e-06
4.55022098177e-06
2.76542476445e-06
1.69626900981e-06
1.33338466601e-06
1.52068070239e-06
2.03346869523e-06
2.5883508481e-06
3.00668125985e-06
3.22428098745e-06
3.23788438009e-06
3.10782546654e-06
2.98198888289e-06
3.06486300979e-06
1.2501923692e-05
1.43723953227e-05
1.42801521932e-05
1.30091705267e-05
1.10335171674e-05
8.68293857141e-06
6.25776013162e-06
4.08218228145e-06
2.47118814653e-06
1.59047886648e-06
1.37744940431e-06
1.66236881591e-06
2.20433750211e-06
2.73860674066e-06
3.1203580771e-06
3.29913067499e-06
3.27673966521e-06
3.11723133096e-06
2.97351238018e-06
3.04616953168e-06
1.1326305748e-05
1.3617244155e-05
1.36931535829e-05
1.24509441619e-05
1.04545766645e-05
8.09421577403e-06
5.7134642844e-06
3.65971762118e-06
2.22922739797e-06
1.52671441579e-06
1.44947757753e-06
1.8162637026e-06
2.37379342974e-06
2.88364152837e-06
3.22921731713e-06
3.37066324694e-06
3.31366272708e-06
3.12528842836e-06
2.96430903078e-06
3.03017019757e-06
1.00291441404e-05
1.27903060894e-05
1.30726868996e-05
1.18784949922e-05
9.87457070288e-06
7.51927651332e-06
5.20142938334e-06
3.28549729825e-06
2.03701402582e-06
1.50057960751e-06
1.54567100071e-06
1.97864225426e-06
2.54069110207e-06
3.02364632013e-06
3.33368540471e-06
3.43928255671e-06
3.34899612452e-06
3.13211647729e-06
2.95378290294e-06
3.01595125455e-06
8.60559915986e-06
1.18825599963e-05
1.24180372417e-05
1.12950986019e-05
9.29836037961e-06
6.96356337457e-06
4.72626552243e-06
2.96045235084e-06
1.8909771006e-06
1.50802078236e-06
1.66235353236e-06
2.14641717994e-06
2.70440327135e-06
3.15889500819e-06
3.43415850908e-06
3.50532938597e-06
3.38304960002e-06
3.13789683251e-06
2.94133976653e-06
3.00202659295e-06
7.0823099152e-06
1.08876329351e-05
1.17287335089e-05
1.07040957727e-05
8.73040277334e-06
6.43143662404e-06
4.29075983526e-06
2.68352999361e-06
1.78698275225e-06
1.545441831e-06
1.79607188282e-06
2.3172713808e-06
2.86469963349e-06
3.28972056929e-06
3.53097958266e-06
3.56904856112e-06
3.41606358059e-06
3.14287864675e-06
2.9265065045e-06
2.98637180555e-06
5.52907121221e-06
9.81366521254e-06
1.10067467837e-05
1.01084712898e-05
8.17367999219e-06
5.92522265145e-06
3.89549909246e-06
2.45212669391e-06
1.72097104428e-06
1.60975685317e-06
1.94371331661e-06
2.48961455346e-06
3.02158249714e-06
3.41643600782e-06
3.62438066375e-06
3.63053958981e-06
3.44816172655e-06
3.14737038145e-06
2.90908418173e-06
2.96665962653e-06
3.97088417999e-06
8.68084557057e-06
1.02559168324e-05
9.51001321979e-06
7.62900323346e-06
5.44511272066e-06
3.5394384793e-06
2.26303839112e-06
1.68948827099e-06
1.69829888779e-06
2.10251411508e-06
2.66235436029e-06
3.17507844029e-06
3.53921688658e-06
3.71441517144e-06
3.68971773372e-06
3.47931383614e-06
3.15171229853e-06
2.88928456639e-06
2.94070584997e-06
2.384666073e-06
7.50104569117e-06
9.47725673869e-06
8.90838537439e-06
7.09530652202e-06
4.99020604894e-06
3.22118465398e-06
2.11343309534e-06
1.68985773316e-06
1.80854506784e-06
2.26992065195e-06
2.83456577104e-06
3.32503257075e-06
3.6579956015e-06
3.80091754707e-06
3.74631152097e-06
3.50932788336e-06
3.15622979936e-06
2.86778389547e-06
2.9070114122e-06
1.09116436677e-06
6.27212923153e-06
8.67036487438e-06
8.30233787939e-06
6.57142396545e-06
4.56039227069e-06
2.94028835583e-06
2.00133029614e-06
1.71990395454e-06
1.93773998828e-06
2.44338343925e-06
3.00519842398e-06
3.47097965031e-06
3.7724217018e-06
3.8835165858e-06
3.7999011907e-06
3.53786505045e-06
3.16114586618e-06
2.84556719439e-06
2.86502002275e-06
4.42407806685e-07
4.99867354654e-06
7.83982760135e-06
)
;

boundaryField
{
    emptyPatch
    {
        type            empty;
    }
    minY
    {
        type            calculated;
        value           nonuniform List<scalar> 
40
(
1.93835371717e-05
1.93828969188e-05
1.93827966241e-05
1.93826753471e-05
1.93825540538e-05
1.93824385468e-05
1.93823297308e-05
1.93822287517e-05
1.93821367831e-05
1.93820536455e-05
1.93819790444e-05
1.93819124505e-05
1.93818530488e-05
1.93818000676e-05
1.93817528826e-05
1.93817110006e-05
1.9381674042e-05
1.93816417386e-05
1.9381613933e-05
1.93815905564e-05
1.9381572058e-05
1.93815589538e-05
1.93815509545e-05
1.93815474658e-05
1.93815480426e-05
1.93815523586e-05
1.93815601876e-05
1.93815713875e-05
1.93815858856e-05
1.93816036692e-05
1.93816247841e-05
1.93816493498e-05
1.93816776023e-05
1.93817099619e-05
1.93817470295e-05
1.93817891185e-05
1.93818355649e-05
1.93818873533e-05
1.93819578093e-05
1.93826708635e-05
)
;
    }
    maxY
    {
        type            calculated;
        value           nonuniform List<scalar> 0();
    }
    maxX
    {
        type            nutkWallFunction;
        blending        stepwise;
        value           uniform 0;
    }
    water_to_heater
    {
        type            nutkWallFunction;
        blending        stepwise;
        value           uniform 0;
    }
    procBoundary2to3
    {
        type            processor;
        value           nonuniform List<scalar> 
41
(
5.45320646425e-06
4.74961493001e-06
3.8293426887e-06
2.9729579803e-06
2.26684563607e-06
1.71741887923e-06
1.32774244081e-06
1.06465586966e-06
8.94631889291e-07
7.78516501777e-07
6.42282938818e-07
4.15748845367e-07
1.68701054419e-07
5.45868294613e-08
3.07707456294e-08
2.78206838116e-08
2.60751227902e-08
2.47700600842e-08
2.58477571016e-08
3.73294987891e-08
7.69261382211e-06
6.05853352509e-06
4.15794400029e-06
2.69768255673e-06
1.9253562123e-06
1.77738849571e-06
2.08261063213e-06
2.62022964341e-06
3.17294806641e-06
3.61214938681e-06
3.88192121548e-06
3.96172668576e-06
3.85005040153e-06
3.56464794252e-06
3.16694529339e-06
2.82469213529e-06
2.81714443773e-06
2.09637525299e-07
3.70212328832e-06
7.69261382211e-06
6.98817370875e-06
)
;
    }
}

