/*--------------------------------*- C++ -*----------------------------------*\
| =========                 |                                                 |
| \\      /  F ield         | OpenFOAM: The Open Source CFD Toolbox           |
|  \\    /   O peration     | Version:  2312                                  |
|   \\  /    A nd           | Website:  www.openfoam.com                      |
|    \\/     M anipulation  |                                                 |
\*---------------------------------------------------------------------------*/
FoamFile
{
    version     2.0;
    format      ascii;
    arch        "LSB;label=32;scalar=64";
    class       volScalarField;
    location    "0.15/water";
    object      p;
}
// * * * * * * * * * * * * * * * * * * * * * * * * * * * * * * * * * * * * * //

dimensions      [1 -1 -2 0 0 0 0];

internalField   nonuniform List<scalar> 
6000
(
101533.88213
101530.055985
101529.056466
101528.310484
101527.68785
101527.14184
101526.64976
101526.211327
101525.831067
101525.507148
101525.237342
101525.018252
101524.844905
101524.712454
101524.616735
101524.554186
101524.52174
101524.516794
101524.537184
101524.581061
101514.691451
101512.829462
101513.027446
101513.085577
101512.851218
101512.645115
101512.453692
101512.271584
101512.091906
101511.921064
101511.772584
101511.651637
101511.555901
101511.482653
101511.430688
101511.399758
101511.389907
101511.401145
101511.43338
101511.486344
101497.571186
101495.659353
101496.464635
101497.105514
101497.317571
101497.49814
101497.648375
101497.755794
101497.824836
101497.863392
101497.884329
101497.9028
101497.926851
101497.957591
101497.994553
101498.037987
101498.088927
101498.14879
101498.219046
101498.300829
101483.010984
101481.712559
101482.568003
101483.005199
101483.065167
101483.185006
101483.361599
101483.545709
101483.715427
101483.865299
101483.996005
101484.114626
101484.229444
101484.344307
101484.459458
101484.574372
101484.689002
101484.803921
101484.920107
101485.038452
101468.462572
101467.613543
101468.744501
101469.220967
101469.261465
101469.335307
101469.495117
101469.696805
101469.902297
101470.09913
101470.284598
101470.460056
101470.630047
101470.79823
101470.965326
101471.130449
101471.292536
101471.450922
101471.605389
101471.755792
101454.521325
101453.698884
101454.907709
101455.474663
101455.614354
101455.707582
101455.857485
101456.067794
101456.301113
101456.531642
101456.753428
101456.966078
101457.172046
101457.37441
101457.574407
101457.771451
101457.964234
101458.151459
101458.332105
101458.505204
101441.292794
101440.340763
101441.405985
101441.913257
101442.113835
101442.266729
101442.434176
101442.646178
101442.895502
101443.151564
101443.400178
101443.639248
101443.869739
101444.094055
101444.313885
101444.529245
101444.739106
101444.94213
101445.137039
101445.322528
101427.943638
101426.846489
101427.737121
101428.307691
101428.63175
101428.915743
101429.171117
101429.419805
101429.688501
101429.968056
101430.239172
101430.496815
101430.741562
101430.976207
101431.203365
101431.424038
101431.637896
101431.843992
101432.041238
101432.22831
101415.996601
101414.783328
101415.544523
101415.868429
101415.998591
101416.176768
101416.377722
101416.587248
101416.81673
101417.073623
101417.335736
101417.586679
101417.823035
101418.04728
101418.262726
101418.47111
101418.672689
101418.866947
101419.053056
101419.229921
101402.766094
101401.522068
101402.696826
101403.220024
101403.435471
101403.640948
101403.849975
101404.046537
101404.245563
101404.467601
101404.701402
101404.923636
101405.126619
101405.315019
101405.494947
101405.669451
101405.839495
101406.005033
101406.165587
101406.320413
101392.367772
101390.824872
101391.630598
101391.893896
101391.867916
101391.851375
101391.87699
101391.943912
101392.052535
101392.200809
101392.367439
101392.517642
101392.645111
101392.760313
101392.873566
101392.988963
101393.107194
101393.228069
101393.351019
101393.475014
101380.903853
101378.886928
101379.695431
101380.041399
101379.989602
101379.894399
101379.850374
101379.881217
101379.969649
101380.082477
101380.185004
101380.246784
101380.27073
101380.283341
101380.306841
101380.346869
101380.402752
101380.473021
101380.555974
101380.649548
101370.313535
101367.826703
101368.066219
101368.146143
101367.890652
101367.661169
101367.550865
101367.57938
101367.690295
101367.804915
101367.866888
101367.854018
101367.780941
101367.691775
101367.630683
101367.605481
101367.612593
101367.647893
101367.70756
101367.787685
101357.388703
101354.607434
101354.976722
101354.966299
101354.643271
101354.426836
101354.39494
101354.517492
101354.69723
101354.851723
101354.945515
101354.943566
101354.848118
101354.720539
101354.633361
101354.599506
101354.610279
101354.658133
101354.737048
101354.84133
101342.811732
101340.038098
101340.51208
101340.553568
101340.280689
101340.147667
101340.236958
101340.451025
101340.671669
101340.874309
101341.064557
101341.188093
101341.201927
101341.160349
101341.157928
101341.21753
101341.321957
101341.458837
101341.621028
101341.802497
101327.263292
101324.224533
101324.719808
101324.787891
101324.616418
101324.648475
101324.878531
101325.163173
101325.435484
101325.741674
101326.105852
101326.46597
101326.756558
101326.982366
101327.217041
101327.496574
101327.800583
101328.111397
101328.423228
101328.733115
101309.105026
101306.306849
101307.213715
101307.687225
101307.936219
101308.307782
101308.758127
101309.199643
101309.640373
101310.141803
101310.725108
101311.328765
101311.929349
101312.540205
101313.133274
101313.719576
101314.287397
101314.819703
101315.313931
101315.773581
101293.080844
101291.159665
101292.054235
101292.654611
101293.081905
101293.58415
101294.144702
101294.721685
101295.320017
101295.947158
101296.588172
101297.229851
101297.886614
101298.675595
101299.546129
101300.389443
101301.174471
101301.887893
101302.529101
101303.106331
101280.296073
101279.372389
101280.648389
101281.245845
101281.583766
101281.977768
101282.460957
101282.987429
101283.502806
101283.989163
101284.474574
101284.978274
101285.509502
101286.164325
101287.030038
101287.945353
101288.801251
101289.573749
101290.263522
101290.877866
101271.99252
101271.151215
101272.242552
101272.496762
101272.502788
101272.600847
101272.816946
101273.08832
101273.37759
101273.649195
101273.898895
101274.246999
101274.674548
101275.141161
101275.76718
101276.530774
101277.279978
101277.963928
101278.581386
101279.134608
101262.068652
101261.299533
101262.733532
101263.145854
101263.232908
101263.349251
101263.527641
101263.739024
101263.929446
101263.97785
101264.071769
101264.27677
101264.593181
101264.996565
101265.423945
101265.94347
101266.466822
101266.951473
101267.399615
101267.81024
101254.672163
101253.475662
101254.353207
101254.572844
101254.530669
101254.525935
101254.60957
101254.713201
101254.630058
101254.488269
101254.450352
101254.521919
101254.761271
101255.166416
101255.516522
101255.817067
101256.080767
101256.313149
101256.540016
101256.761209
101245.676925
101244.051969
101244.819088
101245.178962
101245.26142
101245.358958
101245.496891
101245.491297
101245.188808
101244.880693
101244.891232
101244.873557
101244.937171
101245.323136
101245.642681
101245.781436
101245.806674
101245.788744
101245.789763
101245.813193
101237.441127
101235.644139
101236.405961
101236.608441
101236.54251
101236.504416
101236.439624
101236.04121
101235.382973
101235.310396
101235.13429
101234.811929
101234.8355
101235.167453
101235.485885
101235.524508
101235.362819
101235.139624
101234.949251
101234.800285
101227.055303
101225.149509
101226.41746
101226.794547
101226.786808
101226.73184
101226.48203
101225.775457
101225.381452
101224.990686
101224.841582
101224.645332
101224.233921
101224.516947
101224.841547
101224.826183
101224.551598
101224.192851
101223.867452
101223.593209
101217.685535
101215.525148
101216.623249
101216.868819
101216.711753
101216.465949
101215.916095
101215.170732
101214.567875
101214.433506
101214.099747
101213.193035
101212.962712
101213.31732
101213.61675
101213.58716
101213.281069
101212.858819
101212.457054
101212.111301
101206.847649
101204.267374
101205.396178
101205.718373
101205.540469
101205.17375
101204.436021
101203.520145
101203.229753
101202.702313
101202.231907
101201.715232
101201.237576
101201.569889
101201.799805
101201.787058
101201.515091
101201.097125
101200.675291
101200.312166
101196.080949
101193.133914
101193.819857
101194.01692
101193.709802
101193.189709
101192.349745
101191.739572
101191.092644
101190.753568
101190.286698
101188.942423
101188.966851
101189.153578
101189.262874
101189.29796
101189.170498
101188.867828
101188.501222
101188.181595
101183.735152
101180.656911
101181.602308
101181.672836
101181.232147
101180.669027
101179.947857
101179.074787
101178.571179
101177.969269
101176.399094
101176.015689
101176.118043
101176.036082
101175.97063
101176.188577
101176.333676
101176.240497
101175.990915
101175.761204
101170.508447
101167.439782
101168.471236
101168.475402
101168.001071
101167.417852
101166.531814
101165.505718
101164.543194
101163.388942
101163.033334
101163.125497
101163.027087
101162.676335
101162.695965
101163.116898
101163.404053
101163.438281
101163.287795
101163.143479
101157.307137
101153.716617
101154.522501
101154.416024
101153.757332
101152.896607
101151.782525
101150.753594
101150.138674
101150.098455
101150.254238
101150.25044
101149.880101
101149.448375
101149.661038
101149.916028
101150.248611
101150.409862
101150.386991
101150.343446
101142.571394
101138.333487
101138.815596
101138.568596
101137.91731
101137.284022
101136.686064
101136.423999
101136.583179
101136.853072
101136.945485
101136.671991
101136.13717
101135.894788
101136.028957
101136.376175
101136.84715
101137.093104
101137.229312
101137.333043
101125.131388
101120.494392
101120.434223
101120.401081
101120.376134
101120.584503
101120.83447
101121.226392
101121.711713
101122.08277
101122.154031
101121.924143
101121.691201
101121.726763
101122.02582
101122.48375
101122.920474
101123.340323
101123.742799
101124.107056
101104.298034
101100.210972
101101.060865
101101.593699
101102.147858
101102.944138
101103.752315
101104.573445
101105.37806
101106.016605
101106.364373
101106.631692
101106.923908
101107.355761
101107.677647
101108.20488
101108.794556
101109.40626
101110.090987
101110.8063
101084.558059
101081.568062
101083.154363
101083.941639
101084.612248
101085.554958
101086.664658
101087.834444
101088.993985
101090.002599
101090.821164
101091.627748
101092.4144
101093.166224
101093.735983
101094.396834
101095.090214
101095.876424
101096.711579
101097.737808
101068.583169
101067.097203
101068.687951
101069.301273
101069.75311
101070.468705
101071.55512
101072.840972
101074.185904
101075.447958
101076.594658
101077.770661
101078.872988
101079.915606
101080.749174
101081.542041
101082.374881
101083.153325
101084.056797
101085.253422
101056.918863
101056.625756
101057.848655
101058.271705
101058.468744
101058.811034
101059.590304
101060.692337
101061.941601
101063.194464
101064.403855
101065.603464
101066.877489
101067.965861
101069.013813
101069.762201
101070.676997
101071.566048
101072.465601
101073.645033
101048.236546
101048.356529
101049.218198
101049.553466
101049.621557
101049.72541
101050.206181
101051.039918
101052.055624
101053.117189
101054.150212
101055.287485
101056.416634
101057.483286
101058.449839
101059.197391
101060.067949
101060.883978
101061.907316
101063.010761
101040.274465
101040.805122
101041.880952
101042.212326
101042.218021
101042.20951
101042.489592
101043.095602
101043.873451
101044.695328
101045.52618
101046.379619
101047.419691
101048.333509
101048.996023
101049.633763
101050.441343
101051.426871
101052.437377
101053.386485
101033.152063
101033.958107
101035.211853
101035.602281
101035.622963
101035.582855
101035.754222
101036.205188
101036.79653
101037.402171
101037.961035
101038.651192
101039.362777
101040.154571
101040.684678
101041.243291
101041.793712
101042.755457
101043.691819
101044.490335
101028.033967
101028.661795
101029.77963
101030.087393
101030.049339
101029.943631
101029.968448
101030.223075
101030.600601
101030.981827
101031.321909
101031.688004
101032.297884
101032.783645
101033.185513
101033.404777
101033.645644
101034.52437
101035.227525
101036.027487
101023.191384
101023.6271
101024.60291
101024.891649
101024.874845
101024.758656
101024.705193
101024.815074
101025.011737
101025.18479
101025.259911
101025.457986
101025.717285
101026.129015
101026.252365
101025.783851
101025.831838
101026.599946
101027.354984
101028.027273
101019.610909
101019.615979
101020.175134
101020.317119
101020.235079
101020.083122
101019.948075
101019.915225
101019.934439
101019.899871
101019.730076
101019.57588
101019.721372
101019.668132
101019.521901
101018.900554
101018.844414
101019.367372
101019.79482
101020.397997
101014.881313
101014.91174
101015.731365
101015.94075
101015.893447
101015.744386
101015.564699
101015.419247
101015.281781
101015.045582
101014.612046
101014.303249
101014.053125
101013.957781
101013.445695
101012.282819
101011.908236
101012.258287
101012.718961
101013.007778
101011.511845
101011.364018
101012.177804
101012.305067
101012.210464
101012.009031
101011.728167
101011.428814
101011.109486
101010.639076
101009.903876
101009.185769
101008.780797
101008.10413
101007.107108
101005.698246
101005.741378
101005.774578
101005.630529
101005.825431
101007.700413
101007.297396
101008.32814
101008.500933
101008.414032
101008.171776
101007.822905
101007.420993
101006.944656
101006.186947
101005.055666
101004.208364
101003.348571
101002.599769
101000.821792
100999.719812
100999.528881
100999.114775
100998.927594
100998.844857
101004.620868
101003.70962
101004.611296
101004.698853
101004.451096
101004.02936
101003.512777
101002.941605
101002.227077
101001.027062
100999.642454
100998.453314
100997.513854
100996.194083
100994.254802
100993.158128
100993.024645
100992.512652
100991.889582
100991.794748
100999.74444
100998.16379
100999.080113
100999.222064
100998.918302
100998.433334
100997.86951
100997.212097
100996.214426
100994.6176
100993.034053
100991.911414
100990.615225
100988.968422
100987.131069
100986.747492
100986.017723
100985.172952
100984.572675
100983.886497
100994.173326
100992.170563
100993.317766
100993.288252
100992.722347
100992.017271
100991.26514
100990.331905
100988.767113
100986.910229
100985.68132
100984.372551
100983.094549
100981.413105
100979.791419
100978.729508
100978.03468
100977.230406
100976.364832
100975.898711
100987.208063
100984.497537
100986.040049
100985.972298
100985.206157
100984.298387
100983.283618
100981.831459
100979.878509
100978.506326
100977.14208
100975.889193
100974.436335
100972.223104
100970.483137
100970.069927
100969.042433
100968.068639
100967.356482
100966.49792
100980.318602
100976.799922
100978.125454
100977.794573
100976.683389
100975.444127
100973.983473
100972.025076
100970.393535
100968.867079
100967.51698
100965.974792
100964.238951
100962.227475
100960.733419
100959.620536
100958.667116
100957.718554
100956.734824
100956.20775
100973.089246
100968.259301
100968.907182
100968.276963
100966.863254
100965.346737
100963.505818
100961.55992
100959.771691
100958.330448
100956.76961
100954.90782
100953.115118
100950.554035
100948.875887
100947.927303
100946.711793
100945.69183
100944.934199
100944.096329
100964.888539
100958.75052
100958.053602
100957.020137
100955.427943
100953.803592
100951.803034
100949.551631
100947.774653
100945.954762
100943.576554
100941.594808
100939.415798
100937.201286
100935.524283
100934.031087
100932.977331
100931.966456
100931.061629
100930.639551
100953.281934
100945.66531
100944.556936
100943.180936
100941.368097
100939.497639
100937.000526
100934.249619
100931.60449
100928.957496
100927.001818
100925.34583
100923.557463
100921.429194
100919.504216
100917.959389
100916.860899
100916.064194
100915.529591
100915.001666
100930.918961
100921.974945
100920.734953
100919.081128
100917.58315
100916.070529
100913.588244
100910.890384
100908.650273
100907.273758
100906.448747
100905.536647
100904.13371
100902.41644
100900.700629
100899.386577
100898.686277
100898.193192
100897.857105
100897.929778
100891.143967
100881.746102
100880.559304
100879.940561
100880.091601
100880.498814
100880.189399
100879.818524
100879.902942
100880.411439
100880.931371
100881.020295
100880.670824
100880.026587
100879.351856
100878.895543
100878.541584
100878.631072
100878.867811
100879.114518
100848.771789
100840.49419
100840.646943
100841.373941
100842.271176
100843.671469
100845.333103
100847.099217
100848.876248
100850.643675
100852.270045
100853.626379
100854.684577
100855.5402
100856.299021
100856.904951
100857.300797
100857.978808
100858.74018
100859.754985
100818.046795
100811.687786
100812.265774
100813.111682
100813.755822
100814.582104
100816.003924
100818.076697
100820.301611
100822.527275
100824.767204
100827.021921
100829.217987
100831.306936
100833.285823
100835.032826
100836.241784
100837.552138
100838.863904
100840.089872
100793.44936
100789.719582
100791.133964
100792.010359
100792.591967
100793.074534
100793.739116
100795.13024
100797.00408
100799.101984
100801.384427
100803.891413
100806.591926
100809.350971
100812.072426
100814.679525
100816.728508
100818.240329
100819.80101
100821.538789
100774.236443
100771.958833
100773.583253
100774.511238
100775.174631
100775.685319
100776.129151
100777.042077
100778.489433
100780.299779
100782.397037
100784.808481
100787.531225
100790.445049
100793.426604
100796.311207
100798.738836
100800.50796
100802.284485
100803.97294
100758.506885
100756.668396
100758.128823
100759.022431
100759.723638
100760.361264
100760.923994
100761.816829
100763.163681
100764.854176
100766.819063
100769.085746
100771.660794
100774.465247
100777.357251
100780.148429
100782.719
100784.60094
100786.491869
100788.533324
100745.992178
100744.103929
100745.190936
100745.95086
100746.395092
100747.052904
100747.766256
100748.854823
100750.332666
100752.062436
100754.011209
100756.216365
100758.676564
100761.269754
100763.972727
100766.549219
100768.915959
100770.912747
100772.804454
100774.623668
100738.46533
100736.499571
100737.299603
100737.971898
100737.965253
100738.288199
100738.660698
100739.663304
100741.107745
100742.764564
100744.610596
100746.682278
100748.858994
100751.040114
100753.271732
100755.477218
100757.462359
100759.283904
100760.994401
100762.939665
100732.485141
100731.089675
100732.359558
100732.874435
100732.835721
100732.980646
100732.890545
100733.509283
100734.876478
100736.454529
100738.127549
100739.850586
100741.427881
100743.012492
100744.803096
100746.566525
100748.099089
100749.775463
100751.361152
100753.099969
100727.673659
100726.748124
100728.53434
100728.681646
100728.650159
100728.620216
100728.347727
100728.407629
100729.494925
100730.96776
100732.474196
100733.808252
100734.996506
100736.414802
100737.895324
100739.342073
100740.674762
100742.128718
100743.660882
100745.24226
100724.047816
100723.337793
100725.37639
100725.373767
100725.328745
100725.249447
100725.006162
100724.474105
100724.95604
100726.104454
100727.349243
100728.492751
100729.680428
100730.984829
100732.33867
100733.658439
100734.853347
100736.305664
100737.87759
100739.261069
100721.839823
100721.188072
100722.786535
100722.771438
100722.734941
100722.675312
100722.5087
100721.789527
100721.64946
100722.416509
100723.497284
100724.574459
100725.676337
100726.875694
100728.111368
100729.328777
100730.579609
100732.051504
100733.652786
100735.038871
100720.171269
100719.729813
100720.497612
100720.481726
100720.4418
100720.373648
100720.285551
100719.932851
100719.264436
100719.419668
100720.275893
100721.324372
100722.451332
100723.628112
100724.839043
100726.094454
100727.360531
100728.9046
100730.517518
100731.822834
100718.366829
100718.445952
100718.641003
100718.630913
100718.603567
100718.556935
100718.487724
100718.402475
100718.027471
100717.625902
100717.878549
100718.672657
100719.757168
100720.966082
100722.232294
100723.517599
100724.909509
100726.488357
100728.031105
100729.248572
100717.183007
100717.153924
100717.156464
100717.152719
100717.138146
100717.11245
100717.075534
100717.027503
100716.960602
100716.712003
100716.766718
100717.19615
100718.014129
100719.097277
100720.321249
100721.645433
100723.092789
100724.671284
100726.16103
100727.924661
100715.964366
100715.945091
100715.936387
100715.929025
100715.92076
100715.912248
100715.903129
100715.893245
100715.882227
100715.904961
100716.061783
100716.463255
100717.165284
100718.108651
100719.176544
100720.35472
100721.68031
100723.061487
100724.67422
100725.683781
100714.78138
100714.763924
100714.7584
100714.758771
100714.762706
100714.771534
100714.785946
100714.80649
100714.833623
100714.985207
100715.258641
100715.72903
100716.421719
100717.297976
100718.237197
100719.235463
100720.352687
100721.797383
100722.870721
100723.845143
100713.564654
100713.547516
100713.542251
100713.545477
100713.555466
100713.573387
100713.601097
100713.642474
100713.731896
100713.968159
100714.29604
100714.795194
100715.487437
100716.306127
100717.106719
100717.875744
100718.93936
100719.795273
100720.7303
100719.95372
100712.229411
100712.214722
100712.211547
100712.215509
100712.224121
100712.238636
100712.257898
100712.346816
100712.612771
100713.019633
100713.519593
100714.101572
100714.76887
100715.429316
100715.916938
100716.435265
100717.004562
100717.978048
100717.661998
100709.703666
100710.791335
100710.776465
100710.776221
100710.788041
100710.810916
100710.847157
100710.905494
100711.118974
100711.538722
100712.153885
100712.785001
100713.291498
100713.591721
100713.691477
100713.708473
100713.704086
100714.311158
100713.741128
100706.30911
100706.899813
100709.127229
100709.115463
100709.1195
100709.136029
100709.166218
100709.218933
100709.28284
100709.424835
100709.857841
100710.35909
100710.568124
100710.435006
100710.242755
100710.242886
100710.234011
100710.346368
100709.463765
100702.611687
100702.145732
100704.689683
100707.242253
100707.223724
100707.216048
100707.216922
100707.226017
100707.299474
100707.261579
100707.232433
100707.256086
100706.95412
100706.409104
100706.061351
100705.986746
100706.092931
100705.97746
100704.608702
100698.646961
100697.613557
100700.014201
100701.450466
100705.168483
100705.152987
100705.150518
100705.155786
100705.213458
100705.270209
100704.884186
100704.458465
100703.583658
100702.465863
100701.436871
100700.687575
100700.544707
100700.8861
100700.072201
100695.316812
100693.274043
100695.593401
100697.148965
100697.810365
100702.984816
100702.97041
100702.974504
100702.995545
100703.27989
100702.968066
100702.281838
100701.070685
100699.197083
100697.309087
100695.834446
100695.690482
100696.244455
100696.422302
100693.507172
100689.621422
100691.342082
100693.17353
100693.772139
100694.223405
100700.584835
100700.572447
100700.577326
100701.054408
100701.523736
100701.047356
100699.829019
100697.589644
100695.117239
100693.222547
100693.223641
100693.725112
100693.851809
100692.15147
100687.594495
100687.487897
100689.501721
100690.018107
100690.26444
100690.777974
100698.019363
100697.994905
100698.429906
100699.646753
100700.104844
100699.380683
100697.351372
100694.415145
100691.81165
100691.115069
100691.450027
100691.212825
100690.246791
100686.883028
100683.522775
100685.364944
100686.017323
100686.161262
100686.509342
100686.86996
100695.479377
100695.483284
100697.200291
100698.858689
100699.11351
100697.806285
100694.690835
100691.239342
100688.746226
100688.384067
100688.317916
100687.48632
100684.94185
100679.772038
100680.0171
100681.036172
100681.294716
100681.582796
100681.885788
100682.653629
100692.336607
100692.839789
100695.241195
100696.983414
100696.881265
100694.587022
100690.891069
100687.804771
100685.968448
100685.785659
100685.270342
100682.16137
100675.732398
100673.674179
100674.621135
100675.149616
100675.457162
100675.813486
100676.628274
100677.26886
100688.985714
100690.597697
100694.294313
100695.494192
100693.915202
100690.009188
100686.589653
100684.1809
100682.658982
100681.333633
100677.785131
100669.630243
100664.660448
100665.597125
100666.885139
100667.467341
100668.034182
100669.076821
100669.983666
100671.404435
100685.983749
100687.279418
100691.313241
100690.986319
100686.717729
100682.254333
100679.157854
100676.706057
100673.725676
100670.336777
100663.357726
100654.281566
100654.964141
100656.9807
100657.722893
100658.386593
100659.526414
100660.644513
100662.261548
100664.209586
100683.284612
100681.036008
100683.834485
100680.679906
100675.398674
100671.450537
100668.510302
100664.866533
100661.645321
100656.694616
100644.724953
100643.861424
100646.19842
100646.833472
100647.336226
100648.278147
100649.352732
100651.066508
100653.101455
100655.147309
100681.071443
100674.232425
100673.168313
100668.498349
100663.793906
100660.504359
100656.308905
100652.574017
100647.115465
100634.129276
100631.752189
100634.215764
100634.77073
100635.028259
100635.660315
100636.472638
100637.912126
100639.823635
100642.423493
100642.957689
100678.508158
100668.705662
100662.408859
100656.820296
100652.774498
100647.46778
100642.603301
100636.178458
100622.77622
100618.813664
100621.115507
100621.57241
100621.534133
100621.803299
100622.227053
100623.111636
100624.333149
100626.831341
100628.860119
100627.669769
100667.769206
100654.929452
100647.130685
100644.337853
100638.846782
100633.374331
100626.020918
100611.546561
100605.305615
100607.057576
100607.453322
100607.153278
100607.13101
100607.187923
100607.669193
100608.315882
100609.581307
100611.957547
100612.657858
100610.918906
100670.626789
100651.525984
100646.881088
100641.142385
100632.07214
100621.428139
100604.1577
100594.288926
100593.32813
100593.140659
100592.440136
100592.083797
100591.794176
100592.042907
100592.372167
100593.289155
100594.489912
100596.30333
100596.02569
100594.458241
100665.71351
100634.551635
100637.279452
100629.983173
100616.688547
100600.206085
100587.720676
100581.226616
100578.564588
100576.969688
100576.048304
100575.449786
100575.534408
100575.863069
100576.803535
100577.982237
100579.770554
100580.85913
100579.974789
100578.259375
100533.422749
100515.40104
100536.877818
100545.221795
100549.796364
100552.13467
100552.665554
100552.701704
100553.300747
100554.072505
100555.027646
100556.366971
100557.773618
100559.406904
100561.075552
100562.95419
100564.899982
100565.016428
100563.400949
100561.14857
100427.153313
100427.110447
100427.141389
100430.755011
100439.847095
100454.222635
100472.498863
100489.281847
100503.780508
100515.778584
100524.009615
100530.393704
100535.338253
100539.323187
100542.576727
100545.246463
100547.05533
100546.477264
100544.576628
100542.471205
100424.600926
100424.579213
100424.525522
100424.447371
100424.415032
100424.513612
100426.371063
100434.964512
100449.111089
100466.027485
100481.458362
100493.76564
100503.733137
100511.184795
100516.770437
100520.778254
100522.919962
100523.061766
100522.33713
100521.682514
100423.092112
100423.080038
100423.057289
100423.026702
100422.980455
100422.915135
100422.877521
100422.718707
100424.056092
100430.529045
100441.455006
100453.181895
100465.05344
100475.771818
100484.334178
100490.435381
100494.361796
100496.810107
100498.437239
100499.686487
100421.928987
100421.924173
100421.916222
100421.902974
100421.885944
100421.864178
100421.834286
100421.797501
100421.751919
100422.224884
100424.983486
100430.310528
100437.272761
100445.289235
100453.582003
100460.976984
100467.048097
100472.062798
100476.087738
100479.180403
100420.938443
100420.935162
100420.931502
100420.92682
100420.919994
100420.909825
100420.895708
100420.875973
100420.848055
100420.886197
100421.726466
100423.785492
100427.138359
100431.588723
100436.955613
100442.751735
100448.405508
100453.702922
100458.321869
100461.874882
100420.032191
100420.030923
100420.030764
100420.03108
100420.030301
100420.028422
100420.025263
100420.020377
100420.013687
100420.02011
100420.504892
100421.690318
100423.62954
100426.297481
100429.638345
100433.452653
100437.477175
100441.58279
100445.349273
100448.552788
100419.170458
100419.169396
100419.170136
100419.171845
100419.172694
100419.17294
100419.172588
100419.171225
100419.174874
100419.203653
100419.502871
100420.31011
100421.614138
100423.335589
100425.381967
100427.653401
100430.244641
100432.940149
100435.462584
100437.745956
100418.307127
100418.306836
100418.308406
100418.309591
100418.309165
100418.307511
100418.304225
100418.297158
100418.361047
100418.397655
100418.597542
100419.152214
100420.087852
100421.217787
100422.225887
100423.252686
100424.568303
100425.968609
100427.352545
100428.670065
100417.439415
100417.43931
100417.441238
100417.442709
100417.443465
100417.444659
100417.44725
100417.452604
100417.584519
100417.61959
100417.79586
100418.217875
100418.802501
100419.155753
100418.971517
100418.907753
100419.396748
100419.876738
100420.213667
100420.578561
100416.542078
100416.542783
100416.543926
100416.543205
100416.540171
100416.535108
100416.526557
100416.547063
100416.609534
100416.587058
100416.667078
100416.878398
100416.88897
100416.10983
100414.906112
100414.544587
100414.182544
100413.862919
100413.460928
100412.927136
100415.613739
100415.616589
100415.61972
100415.622943
100415.626368
100415.631717
100415.640178
100415.659953
100415.523435
100415.342425
100415.213755
100415.000457
100414.056629
100412.104049
100410.698007
100409.600827
100408.598983
100407.545533
100406.175735
100405.133617
100414.607786
100414.609737
100414.610112
100414.613635
100414.61959
100414.628613
100414.57483
100414.380653
100414.07235
100413.707799
100413.303437
100412.356328
100410.021275
100407.416166
100405.530674
100403.906191
100402.143142
100400.161981
100398.391595
100396.591487
100413.361477
100413.380657
100413.404327
100413.426228
100413.433543
100413.29051
100412.856256
100412.324068
100411.729746
100411.084866
100410.097356
100407.686346
100404.191627
100401.350515