/*--------------------------------*- C++ -*----------------------------------*\
| =========                 |                                                 |
| \\      /  F ield         | OpenFOAM: The Open Source CFD Toolbox           |
|  \\    /   O peration     | Version:  2312                                  |
|   \\  /    A nd           | Website:  www.openfoam.com                      |
|    \\/     M anipulation  |                                                 |
\*---------------------------------------------------------------------------*/
FoamFile
{
    version     2.0;
    format      ascii;
    arch        "LSB;label=32;scalar=64";
    class       volVectorField;
    location    "47";
    object      U.air;
}
// * * * * * * * * * * * * * * * * * * * * * * * * * * * * * * * * * * * * * //

dimensions      [0 1 -1 0 0 0 0];

internalField   nonuniform List<vector> 
1875
(
(0.0255288 0.127451 0)
(0.0747666 0.122924 0)
(0.143948 0.125219 0)
(0.201609 0.127763 0)
(0.254973 0.131383 0)
(0.300514 0.13612 0)
(0.337906 0.141772 0)
(0.366492 0.148012 0)
(0.385735 0.154867 0)
(0.395487 0.162127 0)
(0.39477 0.171045 0)
(0.384548 0.179899 0)
(0.363669 0.190924 0)
(0.333664 0.195211 0)
(0.293325 0.192443 0)
(0.243734 0.195569 0)
(0.189745 0.199193 0)
(0.139428 0.199506 0)
(0.0963904 0.194418 0)
(0.069624 0.188865 0)
(0.0567471 0.186827 0)
(0.0441698 0.186802 0)
(0.0192766 0.179275 0)
(0.00608519 0.159263 0)
(-0.00126624 0.139157 0)
(0.0285279 0.162956 0)
(0.080283 0.16733 0)
(0.134784 0.171127 0)
(0.182934 0.180143 0)
(0.226343 0.191535 0)
(0.263798 0.20472 0)
(0.294425 0.219175 0)
(0.317619 0.234834 0)
(0.333433 0.251776 0)
(0.342384 0.270243 0)
(0.343702 0.289932 0)
(0.336836 0.311215 0)
(0.321851 0.334322 0)
(0.296989 0.363212 0)
(0.263154 0.391893 0)
(0.224611 0.411593 0)
(0.184278 0.417346 0)
(0.145953 0.416734 0)
(0.111668 0.410078 0)
(0.0884258 0.395932 0)
(0.0758664 0.379906 0)
(0.0668687 0.371714 0)
(0.0584171 0.372863 0)
(0.0355241 0.379374 0)
(0.0126706 0.37159 0)
(0.0212018 0.0627268 0)
(0.0618285 0.0691858 0)
(0.100578 0.0766066 0)
(0.136839 0.0894324 0)
(0.168672 0.106375 0)
(0.193598 0.126792 0)
(0.212098 0.149772 0)
(0.225042 0.174513 0)
(0.232581 0.20039 0)
(0.23446 0.227226 0)
(0.230683 0.255201 0)
(0.220535 0.284423 0)
(0.201716 0.315469 0)
(0.175402 0.350179 0)
(0.143583 0.384677 0)
(0.108516 0.419467 0)
(0.0775051 0.437429 0)
(0.0575554 0.434002 0)
(0.0476998 0.418352 0)
(0.0405582 0.392791 0)
(0.0358451 0.366236 0)
(0.0293904 0.352085 0)
(0.0236362 0.35171 0)
(0.0123373 0.354217 0)
(0.00400779 0.352384 0)
(0.0174404 0.0245231 0)
(0.0458389 0.0353834 0)
(0.059593 0.0460192 0)
(0.0789334 0.0630884 0)
(0.0906957 0.0855423 0)
(0.0949032 0.112166 0)
(0.0928567 0.141521 0)
(0.0858114 0.1724 0)
(0.0740468 0.204422 0)
(0.0566992 0.238436 0)
(0.0327429 0.275734 0)
(0.00310829 0.316515 0)
(-0.0291166 0.360534 0)
(-0.0584552 0.40551 0)
(-0.0816271 0.448032 0)
(-0.0881532 0.475261 0)
(-0.0817266 0.479321 0)
(-0.0665128 0.462186 0)
(-0.0453425 0.436722 0)
(-0.0255916 0.408203 0)
(-0.011177 0.387697 0)
(-0.00276666 0.381401 0)
(-0.00033509 0.385985 0)
(-0.00118267 0.392122 0)
(-0.000542707 0.392611 0)
(0.0148433 0.00346914 0)
(0.0265693 0.0144306 0)
(0.00425567 0.0249724 0)
(0.00241575 0.0420955 0)
(-0.0110285 0.0660703 0)
(-0.0323603 0.094556 0)
(-0.0588019 0.125592 0)
(-0.0906771 0.159434 0)
(-0.12647 0.196105 0)
(-0.162534 0.234979 0)
(-0.195014 0.274071 0)
(-0.221184 0.314829 0)
(-0.236814 0.352629 0)
(-0.240164 0.385632 0)
(-0.228443 0.407731 0)
(-0.201808 0.417729 0)
(-0.166265 0.410287 0)
(-0.126413 0.391299 0)
(-0.088076 0.371874 0)
(-0.0566609 0.355942 0)
(-0.0360493 0.348375 0)
(-0.024361 0.350486 0)
(-0.0186023 0.359692 0)
(-0.010398 0.3677 0)
(-0.0033742 0.36867 0)
(0.0121581 0.0444053 0)
(0.00675558 0.0541229 0)
(-0.0495404 0.0723958 0)
(-0.0701929 0.0986548 0)
(-0.107158 0.128733 0)
(-0.149541 0.158147 0)
(-0.192461 0.184329 0)
(-0.231327 0.209137 0)
(-0.264825 0.234403 0)
(-0.291311 0.260597 0)
(-0.309133 0.287992 0)
(-0.315341 0.311128 0)
(-0.309408 0.332008 0)
(-0.291556 0.348181 0)
(-0.26204 0.355163 0)
(-0.224006 0.35301 0)
(-0.182089 0.343958 0)
(-0.142903 0.332385 0)
(-0.10984 0.322482 0)
(-0.0845893 0.31693 0)
(-0.0669802 0.318477 0)
(-0.053303 0.328457 0)
(-0.0417133 0.340762 0)
(-0.0202583 0.346609 0)
(-0.00672022 0.348936 0)
(0.00620731 0.104409 0)
(-0.0193263 0.115928 0)
(-0.0894287 0.1423 0)
(-0.11215 0.175365 0)
(-0.151521 0.206521 0)
(-0.188871 0.229437 0)
(-0.226216 0.244845 0)
(-0.258117 0.257619 0)
(-0.282217 0.269924 0)
(-0.29846 0.28107 0)
(-0.306178 0.292454 0)
(-0.305814 0.301486 0)
(-0.296618 0.30663 0)
(-0.275224 0.304744 0)
(-0.249335 0.301668 0)
(-0.220053 0.297034 0)
(-0.19153 0.290594 0)
(-0.166187 0.284192 0)
(-0.144104 0.27939 0)
(-0.124368 0.277816 0)
(-0.106239 0.280703 0)
(-0.0851011 0.287356 0)
(-0.0626371 0.294636 0)
(-0.0279038 0.300679 0)
(-0.00894994 0.30773 0)
(-0.00414311 0.174808 0)
(-0.0335227 0.191521 0)
(-0.0920798 0.226849 0)
(-0.108568 0.264304 0)
(-0.139181 0.295238 0)
(-0.167987 0.311258 0)
(-0.200069 0.315127 0)
(-0.227585 0.313089 0)
(-0.248801 0.310229 0)
(-0.261466 0.308066 0)
(-0.266219 0.302972 0)
(-0.263594 0.297184 0)
(-0.255329 0.291874 0)
(-0.245866 0.287351 0)
(-0.234313 0.280516 0)
(-0.221536 0.271456 0)
(-0.207795 0.261263 0)
(-0.192726 0.251178 0)
(-0.175609 0.242173 0)
(-0.15578 0.235729 0)
(-0.132708 0.232616 0)
(-0.103931 0.233602 0)
(-0.0735279 0.237929 0)
(-0.0317849 0.247154 0)
(-0.0114364 0.26053 0)
(-0.00942232 0.230549 0)
(-0.0298884 0.252249 0)
(-0.0664382 0.290448 0)
(-0.0769446 0.329206 0)
(-0.0952619 0.360494 0)
(-0.114823 0.374645 0)
(-0.138874 0.372283 0)
(-0.160705 0.359045 0)
(-0.177916 0.342935 0)
(-0.190076 0.328137 0)
(-0.198651 0.316853 0)
(-0.204875 0.307395 0)
(-0.209065 0.296944 0)
(-0.211496 0.284369 0)
(-0.211436 0.269755 0)
(-0.208009 0.253538 0)
(-0.201933 0.236359 0)
(-0.192044 0.219628 0)
(-0.177535 0.204465 0)
(-0.15856 0.192036 0)
(-0.135351 0.183254 0)
(-0.107257 0.179105 0)
(-0.0778371 0.180213 0)
(-0.0369403 0.188928 0)
(-0.0155517 0.20011 0)
(-0.00641048 0.264576 0)
(-0.0151437 0.288128 0)
(-0.0308894 0.32729 0)
(-0.0339733 0.367521 0)
(-0.03843 0.403968 0)
(-0.0451504 0.421386 0)
(-0.0588408 0.417988 0)
(-0.0761539 0.401073 0)
(-0.0942263 0.380236 0)
(-0.110948 0.360089 0)
(-0.12585 0.342356 0)
(-0.138592 0.325454 0)
(-0.149292 0.307834 0)
(-0.15805 0.288693 0)
(-0.164422 0.267627 0)
(-0.168005 0.2451 0)
(-0.166574 0.221509 0)
(-0.160075 0.198094 0)
(-0.149645 0.176991 0)
(-0.135159 0.159373 0)
(-0.117185 0.145867 0)
(-0.0958962 0.137116 0)
(-0.0739055 0.133261 0)
(-0.0418519 0.136575 0)
(-0.0182965 0.139656 0)
(-0.00276987 0.27449 0)
(0.00034962 0.295877 0)
(0.00340673 0.331853 0)
(0.00880162 0.371054 0)
(0.0174789 0.408959 0)
(0.025107 0.436088 0)
(0.0255219 0.44586 0)
(0.0167401 0.43447 0)
(-0.000210449 0.412625 0)
(-0.0184363 0.390362 0)
(-0.0361607 0.367262 0)
(-0.052289 0.344765 0)
(-0.0667659 0.322481 0)
(-0.0796946 0.298456 0)
(-0.0908739 0.271847 0)
(-0.0994899 0.242668 0)
(-0.104331 0.212701 0)
(-0.104975 0.183992 0)
(-0.101416 0.157822 0)
(-0.0938208 0.135538 0)
(-0.0830029 0.117954 0)
(-0.0694682 0.105481 0)
(-0.0546818 0.0976094 0)
(-0.0377786 0.0946164 0)
(-0.0160843 0.0905588 0)
(-0.00246367 0.265762 0)
(0.00806139 0.283278 0)
(0.0317377 0.312616 0)
(0.0439993 0.348922 0)
(0.0615387 0.386592 0)
(0.0801134 0.419214 0)
(0.0944852 0.440135 0)
(0.100389 0.447446 0)
(0.0954876 0.437894 0)
(0.0808703 0.415621 0)
(0.0629966 0.393774 0)
(0.0454361 0.370499 0)
(0.0285687 0.343748 0)
(0.0125742 0.315435 0)
(-0.00246762 0.284586 0)
(-0.0165205 0.25091 0)
(-0.0290163 0.215812 0)
(-0.038732 0.181407 0)
(-0.0444485 0.149649 0)
(-0.0456612 0.122214 0)
(-0.042177 0.100315 0)
(-0.0357068 0.0845656 0)
(-0.0261077 0.0748447 0)
(-0.021282 0.0699656 0)
(-0.0103228 0.0633908 0)
(-0.00532305 0.239429 0)
(0.0076613 0.252854 0)
(0.045521 0.278101 0)
(0.0661956 0.310734 0)
(0.0895141 0.346229 0)
(0.113685 0.380444 0)
(0.136264 0.409136 0)
(0.152673 0.426835 0)
(0.16097 0.437384 0)
(0.15909 0.434669 0)
(0.150058 0.417609 0)
(0.133686 0.392253 0)
(0.116668 0.369509 0)
(0.0992337 0.340678 0)
(0.0821543 0.307666 0)
(0.0648761 0.271463 0)
(0.0473857 0.233292 0)
(0.0307333 0.19498 0)
(0.0163826 0.158644 0)
(0.00539313 0.12633 0)
(-0.00103405 0.0999389 0)
(-0.00259713 0.080713 0)
(0.000171426 0.0687988 0)
(-0.00756652 0.0622855 0)
(-0.00477065 0.0531251 0)
(-0.00190319 0.208559 0)
(0.00934485 0.217986 0)
(0.0481634 0.23763 0)
(0.075453 0.266271 0)
(0.102999 0.299732 0)
(0.129051 0.334511 0)
(0.153829 0.367336 0)
(0.174091 0.39458 0)
(0.188373 0.411796 0)
(0.195125 0.41898 0)
(0.19299 0.422004 0)
(0.185443 0.415366 0)
(0.170759 0.39351 0)
(0.154008 0.36801 0)
(0.136952 0.33743 0)
(0.119645 0.302368 0)
(0.102116 0.264072 0)
(0.0843479 0.22455 0)
(0.0669472 0.185837 0)
(0.0508212 0.150142 0)
(0.0362625 0.119736 0)
(0.0249659 0.0967157 0)
(0.0195643 0.0823254 0)
(0.000275474 0.0730604 0)
(-0.00250136 0.0618446 0)
(0.00590792 0.169904 0)
(0.0180359 0.179736 0)
(0.0493792 0.197333 0)
(0.0728387 0.223526 0)
(0.0992817 0.255611 0)
(0.124024 0.291 0)
(0.146714 0.327129 0)
(0.166097 0.361119 0)
(0.17972 0.389581 0)
(0.186559 0.412936 0)
(0.186565 0.423897 0)
(0.182194 0.424105 0)
(0.173648 0.414804 0)
(0.161292 0.394373 0)
(0.147958 0.367594 0)
(0.133881 0.334281 0)
(0.119633 0.297436 0)
(0.105301 0.258587 0)
(0.0905343 0.21972 0)
(0.0754115 0.183092 0)
(0.0598491 0.150906 0)
(0.0423338 0.125323 0)
(0.0282141 0.107906 0)
(0.00548335 0.0942992 0)
(0.0003018 0.0804612 0)
(0.0111636 0.12863 0)
(0.0270392 0.142186 0)
(0.0475338 0.16075 0)
(0.0627172 0.186806 0)
(0.0815402 0.218184 0)
(0.100465 0.253906 0)
(0.117994 0.292225 0)
(0.133096 0.330559 0)
(0.144092 0.366428 0)
(0.151634 0.395856 0)
(0.153182 0.415697 0)
(0.150504 0.42527 0)
(0.144676 0.425031 0)
(0.135975 0.41254 0)
(0.126116 0.389717 0)
(0.116685 0.361103 0)
(0.107394 0.326916 0)
(0.098129 0.289678 0)
(0.088151 0.251856 0)
(0.0765946 0.215917 0)
(0.0632866 0.184024 0)
(0.045504 0.157549 0)
(0.0280802 0.13758 0)
(0.00730569 0.120316 0)
(0.0023061 0.103368 0)
(0.0145282 0.09453 0)
(0.0305181 0.110636 0)
(0.0351255 0.130363 0)
(0.0442866 0.156583 0)
(0.0550053 0.188401 0)
(0.0648628 0.225081 0)
(0.0730591 0.265314 0)
(0.0787237 0.30693 0)
(0.0816229 0.346706 0)
(0.0824375 0.380739 0)
(0.0819995 0.40722 0)
(0.0808606 0.422813 0)
(0.0776884 0.42881 0)
(0.074793 0.424325 0)
(0.0722176 0.40666 0)
(0.0706261 0.37865 0)
(0.0696329 0.345302 0)
(0.0678995 0.309243 0)
(0.0643796 0.273214 0)
(0.0578326 0.239481 0)
(0.048271 0.209742 0)
(0.0346793 0.184229 0)
(0.0220568 0.162941 0)
(0.00754822 0.14229 0)
(0.0029153 0.123184 0)
(0.0112708 0.0768248 0)
(0.0205607 0.0927495 0)
(0.0131438 0.11324 0)
(0.0182095 0.139129 0)
(0.0216522 0.171356 0)
(0.0216911 0.209487 0)
(0.0184731 0.251989 0)
(0.0128732 0.296289 0)
(0.00634427 0.338836 0)
(0.000648724 0.375672 0)
(-0.00335457 0.403338 0)
(-0.00437491 0.42109 0)
(-0.00252473 0.425902 0)
(0.00205802 0.418527 0)
(0.00936966 0.401296 0)
(0.0177666 0.375078 0)
(0.0254654 0.343669 0)
(0.0310967 0.310598 0)
(0.033687 0.278428 0)
(0.0326543 0.248881 0)
(0.0286225 0.222904 0)
(0.0219721 0.199734 0)
(0.0164987 0.178447 0)
(0.00797966 0.159061 0)
(0.00325687 0.14026 0)
(0.00822834 0.0758415 0)
(0.00881495 0.0917762 0)
(-0.00965456 0.112264 0)
(-0.00965608 0.138694 0)
(-0.0160551 0.172142 0)
(-0.0268982 0.211994 0)
(-0.040097 0.256113 0)
(-0.0537168 0.301218 0)
(-0.0650722 0.343265 0)
(-0.0719718 0.377866 0)
(-0.0740869 0.401777 0)
(-0.0708153 0.412967 0)
(-0.0632187 0.413214 0)
(-0.0522587 0.40238 0)
(-0.0387547 0.382518 0)
(-0.0248944 0.356406 0)
(-0.0122378 0.327334 0)
(-0.00186519 0.298001 0)
(0.00565943 0.270282 0)
(0.0103411 0.245281 0)
(0.0128486 0.223543 0)
(0.0133885 0.204507 0)
(0.0124309 0.187382 0)
(0.0105398 0.168592 0)
(0.0060249 0.152819 0)
(0.00639679 0.0894234 0)
(0.0010767 0.106307 0)
(-0.0286608 0.128437 0)
(-0.0355862 0.155995 0)
(-0.0512851 0.191216 0)
(-0.0683289 0.232354 0)
(-0.0848818 0.275607 0)
(-0.0993254 0.316079 0)
(-0.109644 0.348845 0)
(-0.114394 0.37293 0)
(-0.112539 0.389542 0)
(-0.106726 0.396395 0)
(-0.0956736 0.390251 0)
(-0.0817114 0.375472 0)
(-0.0662433 0.354294 0)
(-0.0511157 0.329339 0)
(-0.0374242 0.30305 0)
(-0.0255941 0.27728 0)
(-0.0155936 0.253338 0)
(-0.00730229 0.232 0)
(-0.000500836 0.213668 0)
(0.00516597 0.198392 0)
(0.00880575 0.185744 0)
(0.0129697 0.172749 0)
(0.00920289 0.16025 0)
(0.00473947 0.113548 0)
(-0.00476887 0.130143 0)
(-0.0414259 0.154362 0)
(-0.0535424 0.183274 0)
(-0.0716247 0.219427 0)
(-0.0863838 0.259446 0)
(-0.0992417 0.298845 0)
(-0.108804 0.334253 0)
(-0.114751 0.362482 0)
(-0.11699 0.379601 0)
(-0.115258 0.384047 0)
(-0.110552 0.378113 0)
(-0.100428 0.366994 0)
(-0.0882271 0.348958 0)
(-0.0751394 0.327087 0)
(-0.0624197 0.303335 0)
(-0.0507211 0.279321 0)
(-0.0402456 0.256206 0)
(-0.0308463 0.234792 0)
(-0.0223674 0.215634 0)
(-0.0145712 0.199126 0)
(-0.00718474 0.185179 0)
(-0.000373099 0.174675 0)
(0.00671897 0.168741 0)
(0.00474108 0.163513 0)
(-3.76649e-05 0.142097 0)
(-0.00958687 0.158727 0)
(-0.0415095 0.18446 0)
(-0.0553613 0.213853 0)
(-0.0708107 0.249142 0)
(-0.0809323 0.285973 0)
(-0.0893936 0.320217 0)
(-0.0956852 0.348705 0)
(-0.099783 0.369687 0)
(-0.101219 0.378158 0)
(-0.100377 0.377196 0)
(-0.0949844 0.365653 0)
(-0.0879618 0.348814 0)
(-0.0794041 0.328603 0)
(-0.0704011 0.306364 0)
(-0.0615486 0.283506 0)
(-0.0532828 0.260966 0)
(-0.0456863 0.239371 0)
(-0.0385022 0.219233 0)
(-0.0313521 0.201083 0)
(-0.0240175 0.185514 0)
(-0.0162755 0.172962 0)
(-0.00983638 0.163666 0)
(-0.00372445 0.158265 0)
(-0.000568017 0.157615 0)
(-0.00334893 0.168042 0)
(-0.0101238 0.185171 0)
(-0.0298532 0.211609 0)
(-0.0402744 0.240881 0)
(-0.0508087 0.274321 0)
(-0.0566118 0.307862 0)
(-0.0611909 0.338153 0)
(-0.0644599 0.36163 0)
(-0.066979 0.374121 0)
(-0.0681824 0.376335 0)
(-0.0677357 0.36947 0)
(-0.065222 0.356625 0)
(-0.0622803 0.33796 0)
(-0.0582336 0.316429 0)
(-0.0538423 0.293949 0)
(-0.049611 0.271495 0)
(-0.0456484 0.249531 0)
(-0.0416735 0.228275 0)
(-0.0372248 0.208102 0)
(-0.0317874 0.189766 0)
(-0.0254888 0.174218 0)
(-0.0183337 0.162258 0)
(-0.0132635 0.154347 0)
(-0.010007 0.149555 0)
(-0.00482927 0.14515 0)
(-0.00394098 0.184533 0)
(-0.00775467 0.201588 0)
(-0.0159915 0.229134 0)
(-0.0214199 0.257694 0)
(-0.0265759 0.289031 0)
(-0.0285809 0.319749 0)
(-0.0294612 0.347148 0)
(-0.0291893 0.368165 0)
(-0.0292868 0.379049 0)
(-0.0296653 0.379791 0)
(-0.0299174 0.371101 0)
(-0.030197 0.355192 0)
(-0.0302105 0.334787 0)
(-0.0298982 0.312429 0)
(-0.029736 0.289735 0)
(-0.0297759 0.267295 0)
(-0.0298822 0.24516 0)
(-0.0295551 0.223359 0)
(-0.0280069 0.202358 0)
(-0.0249478 0.183213 0)
(-0.0209861 0.167161 0)
(-0.0160629 0.155169 0)
(-0.0124426 0.147383 0)
(-0.0137931 0.140915 0)
(-0.00764678 0.133113 0)
(-0.00556013 0.192783 0)
(-0.00487637 0.208506 0)
(-0.000774372 0.234686 0)
(-0.00263465 0.262961 0)
(-0.00331422 0.293012 0)
(-0.00204385 0.322095 0)
(0.000205875 0.347991 0)
(0.00313987 0.367694 0)
(0.00540458 0.378784 0)
(0.00667773 0.380103 0)
(0.0067616 0.371956 0)
(0.0053995 0.356452 0)
(0.0034352 0.336163 0)
(0.00104429 0.313971 0)
(-0.00176986 0.29141 0)
(-0.00466895 0.26895 0)
(-0.00752563 0.246532 0)
(-0.0100932 0.224073 0)
(-0.0117565 0.202148 0)
(-0.0122962 0.182091 0)
(-0.0119163 0.165321 0)
(-0.0103153 0.152906 0)
(-0.00747128 0.144872 0)
(-0.0115994 0.137962 0)
(-0.00678598 0.128183 0)
(-0.00812601 0.19223 0)
(-0.0044731 0.206126 0)
(0.0138308 0.229734 0)
(0.0162377 0.258396 0)
(0.019126 0.288335 0)
(0.0225876 0.317012 0)
(0.0268371 0.34262 0)
(0.0313288 0.362941 0)
(0.035211 0.375653 0)
(0.0377059 0.378757 0)
(0.0380252 0.372671 0)
(0.0363182 0.359082 0)
(0.0333383 0.340492 0)
(0.0295181 0.319155 0)
(0.0252869 0.297101 0)
(0.0208792 0.274877 0)
(0.0164736 0.252426 0)
(0.0120636 0.229668 0)
(0.00761701 0.207183 0)
(0.00362398 0.186301 0)
(0.00062673 0.168553 0)
(-0.00169757 0.155163 0)
(-0.000150209 0.146414 0)
(-0.00542385 0.138708 0)
(-0.00379421 0.12844 0)
(-0.0109309 0.181575 0)
(-0.00663293 0.193456 0)
(0.0227276 0.216016 0)
(0.0322914 0.245702 0)
(0.0390428 0.277004 0)
(0.0441343 0.306806 0)
(0.0492514 0.333361 0)
(0.0542238 0.354966 0)
(0.0584375 0.369606 0)
(0.0614251 0.377003 0)
(0.0623326 0.374157 0)
(0.0607596 0.362353 0)
(0.0570896 0.345888 0)
(0.0525438 0.326473 0)
(0.047603 0.305476 0)
(0.0424489 0.283877 0)
(0.037218 0.261809 0)
(0.0317846 0.239228 0)
(0.0257115 0.216609 0)
(0.0193935 0.19523 0)
(0.0138119 0.176668 0)
(0.00838383 0.162168 0)
(0.00742473 0.152527 0)
(0.000314035 0.143857 0)
(-0.000851934 0.132787 0)
(-0.00858506 0.168284 0)
(-0.00579241 0.17648 0)
(0.0249768 0.197039 0)
(0.0417232 0.227098 0)
(0.0536417 0.260704 0)
(0.0610701 0.293161 0)
(0.0667987 0.322132 0)
(0.0715375 0.346109 0)
(0.0753445 0.363694 0)
(0.0779774 0.37042 0)
(0.0786445 0.371514 0)
(0.0769645 0.366688 0)
(0.0731207 0.353665 0)
(0.0680987 0.335568 0)
(0.0628411 0.315774 0)
(0.0574478 0.295049 0)
(0.0518697 0.273706 0)
(0.0460234 0.251806 0)
(0.0394767 0.229686 0)
(0.0319813 0.208349 0)
(0.0243415 0.189299 0)
(0.0169427 0.173908 0)
(0.0134347 0.1635 0)
(0.00251131 0.155001 0)
(0.000108442 0.143592 0)
(-0.0028264 0.156952 0)
(-0.00171341 0.160456 0)
(0.0211809 0.177129 0)
(0.0401845 0.205643 0)
(0.0574774 0.240687 0)
(0.0691033 0.276478 0)
(0.0767643 0.309116 0)
(0.0817422 0.336564 0)
(0.0850974 0.356626 0)
(0.086727 0.370455 0)
(0.0860155 0.375174 0)
(0.0839812 0.371235 0)
(0.0800121 0.360589 0)
(0.075061 0.345423 0)
(0.0698288 0.327081 0)
(0.0645847 0.307402 0)
(0.0591564 0.286977 0)
(0.0533796 0.266003 0)
(0.0470456 0.244769 0)
(0.0397548 0.224 0)
(0.0315424 0.204987 0)
(0.0229338 0.189214 0)
(0.0174244 0.17829 0)
(0.00400968 0.169773 0)
(0.000786236 0.158914 0)
(0.000146204 0.145457 0)
(0.0012861 0.145478 0)
(0.0148154 0.158092 0)
(0.0293199 0.183681 0)
(0.0484774 0.218145 0)
(0.0642698 0.256516 0)
(0.0749095 0.293708 0)
(0.0812346 0.326189 0)
(0.0837133 0.351845 0)
(0.0845088 0.371252 0)
(0.0836195 0.380193 0)
(0.082037 0.378838 0)
(0.0784864 0.369135 0)
(0.0736829 0.355301 0)
(0.0687434 0.338454 0)
(0.0638983 0.319824 0)
(0.0590387 0.300369 0)
(0.0538322 0.28042 0)
(0.0480803 0.260246 0)
(0.0415225 0.240387 0)
(0.0341571 0.221871 0)
(0.0255477 0.206166 0)
(0.0189507 0.195105 0)
(0.00481872 0.186656 0)
(0.00112392 0.176486 0)
(0.00362331 0.132782 0)
(0.00525976 0.132882 0)
(0.00998741 0.142483 0)
(0.018602 0.164857 0)
(0.0335988 0.197064 0)
(0.0497232 0.235924 0)
(0.0623433 0.276719 0)
(0.0699944 0.314527 0)
(0.0736592 0.346421 0)
(0.0745015 0.367453 0)
(0.0737724 0.37873 0)
(0.0717808 0.381563 0)
(0.068634 0.37736 0)
(0.0645217 0.365383 0)
(0.0602199 0.349521 0)
(0.0561919 0.331696 0)
(0.0522749 0.313004 0)
(0.0481267 0.293913 0)
(0.0434832 0.2747 0)
(0.0380555 0.255779 0)
(0.0320669 0.237975 0)
(0.0246408 0.222641 0)
(0.0183033 0.211732 0)
(0.00511553 0.203258 0)
(0.00131985 0.19355 0)
(0.00903964 0.120669 0)
(0.010469 0.122975 0)
(0.00498134 0.13215 0)
(0.00996096 0.15163 0)
(0.0178908 0.181215 0)
(0.029652 0.218862 0)
(0.0410372 0.261022 0)
(0.0487608 0.302619 0)
(0.0526133 0.337833 0)
(0.0533014 0.363686 0)
(0.0526102 0.379603 0)
(0.050606 0.386192 0)
(0.0483487 0.383974 0)
(0.0458397 0.373837 0)
(0.0433028 0.358655 0)
(0.0410292 0.341375 0)
(0.0388447 0.323241 0)
(0.036435 0.304836 0)
(0.0335465 0.286444 0)
(0.0299192 0.268407 0)
(0.0257619 0.251437 0)
(0.0202672 0.236769 0)
(0.0150925 0.22628 0)
(0.00451564 0.218171 0)
(0.00131 0.208879 0)
(0.0107503 0.111192 0)
(0.0149511 0.118251 0)
(0.00215688 0.127219 0)
(0.00154921 0.144648 0)
(0.00368456 0.171914 0)
(0.00848341 0.20802 0)
(0.0152735 0.250202 0)
(0.020986 0.293835 0)
(0.0237416 0.332914 0)
(0.0236841 0.362586 0)
(0.022544 0.380964 0)
(0.0215056 0.388839 0)
(0.0208907 0.387407 0)
(0.0206479 0.378209 0)
(0.0206419 0.363658 0)
(0.0207494 0.346825 0)
(0.0208296 0.32916 0)
(0.0205842 0.31132 0)
(0.0198612 0.293606 0)
(0.0185061 0.276338 0)
(0.0168933 0.260206 0)
(0.0139758 0.246423 0)
(0.0104676 0.236499 0)
(0.00347715 0.227211 0)
(0.00120336 0.219343 0)
(0.00699036 0.109429 0)
(0.0128026 0.11841 0)
(-0.000968961 0.128253 0)
(-0.00607591 0.144274 0)
(-0.00862056 0.169817 0)
(-0.00982426 0.20454 0)
(-0.00966356 0.246046 0)
(-0.00928095 0.289999 0)
(-0.0098401 0.330403 0)
(-0.0107934 0.361622 0)
(-0.0115315 0.380881 0)
(-0.0112847 0.388747 0)
(-0.00996026 0.387115 0)
(-0.00781978 0.378022 0)
(-0.00512656 0.363927 0)
(-0.00247987 0.347349 0)
(-0.000127589 0.33 0)
(0.00183811 0.312555 0)
(0.00346698 0.295348 0)
(0.00479736 0.278774 0)
(0.00620251 0.263643 0)
(0.00616915 0.250968 0)
(0.0043992 0.241781 0)
(0.00230044 0.234901 0)
(0.00111162 0.226785 0)
(0.00395952 0.113667 0)
(0.00612635 0.122878 0)
(-0.00765415 0.13452 0)
(-0.0135077 0.150895 0)
(-0.0203729 0.175588 0)
(-0.0261475 0.209261 0)
(-0.0323609 0.249889 0)
(-0.0383259 0.292949 0)
(-0.0425653 0.332287 0)
(-0.0443657 0.361991 0)
(-0.0445909 0.379813 0)
(-0.0432276 0.386463 0)
(-0.0400136 0.383851 0)
(-0.0356243 0.373888 0)
(-0.0306921 0.359462 0)
(-0.0260916 0.342912 0)
(-0.0219012 0.325619 0)
(-0.0178394 0.308195 0)
(-0.0136229 0.291055 0)
(-0.00901768 0.274759 0)
(-0.00436581 0.260259 0)
(-0.00103766 0.248586 0)
(-1.4074e-05 0.240661 0)
(0.00608746 0.235666 0)
(0.0063395 0.228683 0)
(0.00204747 0.124202 0)
(0.000254464 0.135429 0)
(-0.0164072 0.147761 0)
(-0.021974 0.164619 0)
(-0.0320014 0.18927 0)
(-0.0422756 0.222252 0)
(-0.0536212 0.261406 0)
(-0.0635903 0.302112 0)
(-0.069646 0.337903 0)
(-0.0720782 0.364532 0)
(-0.071723 0.380294 0)
(-0.0691253 0.383884 0)
(-0.0645976 0.377821 0)
(-0.0591862 0.36662 0)
(-0.0535614 0.351743 0)
(-0.048361 0.334993 0)
(-0.0432425 0.317337 0)
(-0.0377614 0.299391 0)
(-0.0316065 0.281678 0)
(-0.0248988 0.264945 0)
(-0.0185315 0.250209 0)
(-0.0127341 0.238665 0)
(-0.00782301 0.231436 0)
(0.00501698 0.227164 0)
(0.00662755 0.225832 0)
(0.00149182 0.143916 0)
(-0.00235134 0.155032 0)
(-0.0232504 0.16786 0)
(-0.029809 0.184849 0)
(-0.0421809 0.209715 0)
(-0.056438 0.242118 0)
(-0.0710034 0.27938 0)
(-0.0820721 0.3164 0)
(-0.0882778 0.347644 0)
(-0.0907461 0.367669 0)
(-0.0902666 0.375267 0)
(-0.0871876 0.37606 0)
(-0.0825641 0.370368 0)
(-0.0771901 0.359645 0)
(-0.0718918 0.344036 0)
(-0.0669848 0.326405 0)
(-0.0618201 0.307963 0)
(-0.0559362 0.289033 0)
(-0.0493237 0.270315 0)
(-0.0423431 0.252659 0)
(-0.0354317 0.237058 0)
(-0.0279912 0.224486 0)
(-0.0198533 0.215776 0)
(-0.00254285 0.211265 0)
(0.00235103 0.213133 0)
(0.00105529 0.168599 0)
(-0.0039931 0.179038 0)
(-0.0278844 0.192111 0)
(-0.0359573 0.209589 0)
(-0.0506297 0.234676 0)
(-0.0672185 0.266173 0)
(-0.081656 0.300645 0)
(-0.0911032 0.332738 0)
(-0.0961542 0.357473 0)
(-0.0983402 0.372677 0)
(-0.0978794 0.378576 0)
(-0.0954049 0.375597 0)
(-0.0917783 0.366108 0)
(-0.0876584 0.350765 0)
(-0.083847 0.334657 0)
(-0.0798783 0.318057 0)
(-0.0752952 0.298305 0)
(-0.0696955 0.277876 0)
(-0.0631337 0.25755 0)
(-0.0556132 0.238352 0)
(-0.0469953 0.221448 0)
(-0.0365158 0.207983 0)
(-0.02537 0.199164 0)
(-0.00496671 0.195768 0)
(0.00058283 0.198377 0)
(0.000797973 0.196042 0)
(-0.00464072 0.205739 0)
(-0.0296379 0.218881 0)
(-0.0396334 0.236636 0)
(-0.0557957 0.261566 0)
(-0.0717749 0.291431 0)
(-0.0834909 0.32192 0)
(-0.0907062 0.3479 0)
(-0.094984 0.366736 0)
(-0.0964939 0.378929 0)
(-0.0953191 0.382207 0)
(-0.0930034 0.375868 0)
(-0.0905278 0.364603 0)
(-0.0884701 0.348495 0)
(-0.0870381 0.330727 0)
(-0.0851025 0.310157 0)
(-0.0814377 0.288495 0)
(-0.0765139 0.265725 0)
(-0.069678 0.243043 0)
(-0.0609269 0.221731 0)
(-0.050345 0.203078 0)
(-0.0381915 0.18828 0)
(-0.0271268 0.178466 0)
(-0.00793691 0.174797 0)
(-0.00161384 0.177747 0)
(0.000617983 0.223108 0)
(-0.00492061 0.232439 0)
(-0.0294381 0.245739 0)
(-0.0407855 0.263601 0)
(-0.0565556 0.28792 0)
(-0.0693671 0.315348 0)
(-0.077748 0.341408 0)
(-0.0832083 0.36257 0)
(-0.0865456 0.376611 0)
(-0.0875272 0.381357 0)
(-0.0866012 0.379483 0)
(-0.0847877 0.372416 0)
(-0.0838863 0.360655 0)
(-0.0831778 0.34705 0)
(-0.0824586 0.327713 0)
(-0.0809902 0.303287 0)
(-0.0785096 0.279074 0)
(-0.0738266 0.253618 0)
(-0.0666813 0.228384 0)
(-0.0574739 0.204915 0)
(-0.0472505 0.184582 0)
(-0.0368222 0.168416 0)
(-0.0275737 0.157125 0)
(-0.0116595 0.152251 0)
(-0.00445594 0.152869 0)
(0.000626261 0.248369 0)
(-0.00481921 0.257479 0)
(-0.0272774 0.270753 0)
(-0.0385179 0.288196 0)
(-0.051604 0.311144 0)
(-0.0601742 0.335392 0)
(-0.0654648 0.356915 0)
(-0.0688389 0.37353 0)
(-0.0703031 0.383477 0)
(-0.070197 0.385107 0)
(-0.0695926 0.379601 0)
(-0.0694488 0.370905 0)
(-0.0696064 0.357683 0)
(-0.0697374 0.340579 0)
(-0.0692766 0.320006 0)
(-0.0682108 0.296866 0)
(-0.0662602 0.270146 0)
(-0.0622904 0.242316 0)
(-0.0565841 0.215001 0)
(-0.0496199 0.189861 0)
(-0.0422842 0.16811 0)
(-0.0348152 0.150534 0)
(-0.0271482 0.137663 0)
(-0.0173491 0.130143 0)
(-0.00815031 0.126814 0)
(0.00120251 0.269143 0)
(-0.00423466 0.278485 0)
(-0.0244594 0.291866 0)
(-0.0335068 0.30825 0)
(-0.0422153 0.328979 0)
(-0.0467039 0.349647 0)
(-0.0493867 0.367366 0)
(-0.0504442 0.380242 0)
(-0.0502789 0.385732 0)
(-0.0493564 0.385495 0)
(-0.0488295 0.380558 0)
(-0.0487113 0.370395 0)
(-0.048728 0.356043 0)
(-0.0489309 0.337423 0)
(-0.0492055 0.31545 0)
(-0.0488899 0.290271 0)
(-0.0472987 0.262047 0)
(-0.0447073 0.232688 0)
(-0.0416083 0.204117 0)
(-0.0379033 0.177923 0)
(-0.0333163 0.155326 0)
(-0.0273971 0.13707 0)
(-0.0224685 0.123505 0)
(-0.0217149 0.113786 0)
(-0.0111179 0.107112 0)
(0.0019611 0.284857 0)
(-0.0026108 0.294161 0)
(-0.0200973 0.307366 0)
(-0.0270529 0.322284 0)
(-0.0309369 0.34027 0)
(-0.0318917 0.357539 0)
(-0.0320241 0.371942 0)
(-0.0308627 0.381859 0)
(-0.0293527 0.386035 0)
(-0.0279057 0.384707 0)
(-0.0267581 0.378429 0)
(-0.0260487 0.367691 0)
(-0.0259012 0.352795 0)
(-0.0261957 0.333799 0)
(-0.0265119 0.31077 0)
(-0.0261491 0.284045 0)
(-0.025107 0.254711 0)
(-0.023972 0.224526 0)
(-0.023044 0.195307 0)
(-0.0219474 0.168569 0)
(-0.0197098 0.145498 0)
(-0.0149918 0.126878 0)
(-0.0129449 0.112917 0)
(-0.0190284 0.101627 0)
(-0.0106074 0.092946 0)
(0.00174143 0.290412 0)
(3.16173e-05 0.299901 0)
(-0.0112469 0.315158 0)
(-0.0173927 0.329274 0)
(-0.0183284 0.344775 0)
(-0.0166675 0.359332 0)
(-0.0145086 0.371339 0)
(-0.011677 0.379439 0)
(-0.00899634 0.382773 0)
(-0.00671764 0.381072 0)
(-0.00498139 0.374722 0)
(-0.00403828 0.364093 0)
(-0.00392761 0.349163 0)
(-0.00437995 0.329855 0)
(-0.00464605 0.306229 0)
(-0.00433182 0.278834 0)
(-0.00395475 0.249019 0)
(-0.00406425 0.218556 0)
(-0.00489964 0.189035 0)
(-0.00611198 0.161806 0)
(-0.00668727 0.138079 0)
(-0.00502071 0.118842 0)
(-0.00335261 0.103991 0)
(-0.0115243 0.0912717 0)
(-0.00808131 0.0810112 0)
(-6.90889e-05 0.292315 0)
(0.00185819 0.302121 0)
(0.00186213 0.316405 0)
(-0.00209819 0.330411 0)
(-0.00357519 0.344268 0)
(-0.00084552 0.356871 0)
(0.00254209 0.367235 0)
(0.00628133 0.374228 0)
(0.00980558 0.377247 0)
(0.0127509 0.37588 0)
(0.0147178 0.370142 0)
(0.0157046 0.360186 0)
(0.0155969 0.345879 0)
(0.0147914 0.326874 0)
(0.0140542 0.303294 0)
(0.0134979 0.275863 0)
(0.0127137 0.246124 0)
(0.0113307 0.215815 0)
(0.0091523 0.186354 0)
(0.00625783 0.158895 0)
(0.00292451 0.13461 0)
(0.000443277 0.114659 0)
(0.00160961 0.0992458 0)
(-0.00555758 0.0853266 0)
(-0.00488045 0.0726833 0)
(-0.00105912 0.287471 0)
(0.00375076 0.297853 0)
(0.0157373 0.311583 0)
(0.0144768 0.326379 0)
(0.0117991 0.340189 0)
(0.0137535 0.351837 0)
(0.0174184 0.361177 0)
(0.0216337 0.367674 0)
(0.0256799 0.37075 0)
(0.0289676 0.370007 0)
(0.0311534 0.365345 0)
(0.0322989 0.356663 0)
(0.0321314 0.343643 0)
(0.0310023 0.325707 0)
(0.0294661 0.30293 0)
(0.0274969 0.276186 0)
(0.0251432 0.247095 0)
(0.0223724 0.217375 0)
(0.0191189 0.188375 0)
(0.0153091 0.161107 0)
(0.0105294 0.136626 0)
(0.00517292 0.116168 0)
(0.0042842 0.100726 0)
(-0.00373843 0.0865777 0)
(-0.00326886 0.0729555 0)
(-0.00225238 0.273627 0)
(0.00591353 0.283895 0)
(0.0253965 0.300614 0)
(0.0271704 0.317174 0)
(0.0264968 0.332071 0)
(0.0267388 0.344079 0)
(0.0293284 0.35334 0)
(0.0333993 0.359832 0)
(0.0376515 0.363308 0)
(0.0411315 0.363458 0)
(0.0435752 0.36014 0)
(0.0450012 0.353117 0)
(0.0451313 0.341912 0)
(0.0439921 0.325796 0)
(0.0418498 0.304638 0)
(0.0386848 0.279305 0)
(0.0347819 0.251353 0)
(0.0306317 0.222511 0)
(0.0264441 0.194171 0)
(0.0221529 0.167347 0)
(0.0171219 0.142993 0)
(0.0106905 0.122259 0)
(0.00783294 0.106385 0)
(-0.00285122 0.092208 0)
(-0.00266875 0.0778258 0)
(-0.00554145 0.257767 0)
(0.00304836 0.267717 0)
(0.0275457 0.284324 0)
(0.0337025 0.303084 0)
(0.0378178 0.319911 0)
(0.0391718 0.333392 0)
(0.0401858 0.343673 0)
(0.0426234 0.350958 0)
(0.046036 0.355345 0)
(0.0492341 0.356746 0)
(0.0515397 0.354766 0)
(0.0531697 0.349752 0)
(0.0540051 0.340977 0)
(0.0534838 0.326933 0)
(0.0513995 0.307731 0)
(0.0477774 0.28421 0)
(0.0427879 0.257733 0)
(0.0373791 0.229921 0)
(0.0322535 0.202262 0)
(0.0275483 0.175908 0)
(0.0227187 0.151834 0)
(0.0161762 0.131003 0)
(0.0129146 0.114532 0)
(-0.00217198 0.100109 0)
(-0.00351864 0.0856188 0)
(-0.00577806 0.23978 0)
(-0.000383873 0.249774 0)
(0.0237941 0.265462 0)
(0.0350305 0.285827 0)
(0.042755 0.304808 0)
(0.0473236 0.320367 0)
(0.0494301 0.332479 0)
(0.0506474 0.341265 0)
(0.0523593 0.347005 0)
(0.0545272 0.349787 0)
(0.0563238 0.349201 0)
(0.0574898 0.344248 0)
(0.0583822 0.336987 0)
(0.0584508 0.326001 0)
(0.0569316 0.310387 0)
(0.0537345 0.289639 0)
(0.0487665 0.264966 0)
(0.0427316 0.238346 0)
(0.0367315 0.21141 0)
(0.0314256 0.185533 0)
(0.0265963 0.161833 0)
(0.0199369 0.141155 0)
(0.0162704 0.124757 0)
(-0.00165358 0.110208 0)
(-0.00381016 0.0959918 0)
(-0.00180052 0.221718 0)
(0.00108538 0.231309 0)
(0.0200191 0.247253 0)
(0.0331012 0.268078 0)
(0.042021 0.288853 0)
(0.0480838 0.306463 0)
(0.0526927 0.320478 0)
(0.0550505 0.331037 0)
(0.056215 0.338363 0)
(0.0571916 0.342633 0)
(0.058271 0.345126 0)
(0.0587265 0.34403 0)
(0.0588611 0.337263 0)
(0.0586416 0.326971 0)
(0.0576021 0.312709 0)
(0.0553574 0.29407 0)
(0.0515386 0.271482 0)
(0.0460711 0.246437 0)