/*--------------------------------*- C++ -*----------------------------------*\
| =========                 |                                                 |
| \\      /  F ield         | OpenFOAM: The Open Source CFD Toolbox           |
|  \\    /   O peration     | Version:  2312                                  |
|   \\  /    A nd           | Website:  www.openfoam.com                      |
|    \\/     M anipulation  |                                                 |
\*---------------------------------------------------------------------------*/
FoamFile
{
    version     2.0;
    format      ascii;
    arch        "LSB;label=32;scalar=64";
    class       volScalarField;
    location    "0.155/water";
    object      alpha.gas_0;
}
// * * * * * * * * * * * * * * * * * * * * * * * * * * * * * * * * * * * * * //

dimensions      [0 0 0 0 0 0 0];

internalField   nonuniform List<scalar> 
1497
(
0.747605376065
0.720910292196
0.679647209951
0.625031075421
0.554232300416
0.470915634116
0.383542886042
0.300882156427
0.241709082259
0.236985452028
0.236149024533
0.236973439308
0.235548492842
0.815953272146
0.765495763839
0.763419469206
0.761292928873
0.763911005392
0.764763471911
0.757957006694
0.733937423415
0.685177333065
0.624390133697
0.560156956728
0.489615452247
0.414531050174
0.340076555343
0.270577526827
0.237001272371
0.236506192846
0.236985452028
0.235560456071
0.306423847091
0.812027590965
0.76912423331
0.773145057663
0.769861467493
0.769960057212
0.767315859182
0.753519990925
0.709825145306
0.633198554585
0.548104271585
0.468161878172
0.3961805694
0.337025419688
0.289996616732
0.244315622265
0.236800197342
0.237001272371
0.235712893722
0.267900629917
0.554540852392
0.816110085091
0.772967298906
0.774618363327
0.77438187626
0.774163713571
0.767880748233
0.743064755664
0.676367714514
0.574800753334
0.469329599595
0.381155078925
0.327535274237
0.302615932914
0.279845365071
0.241753066707
0.237061135539
0.236072685821
0.251985070585
0.503884927092
0.612026197584
0.811847249072
0.775118940382
0.774868678446
0.774618363327
0.774369339155
0.764845413291
0.724026896713
0.635140060818
0.518125332866
0.40713876958
0.341872289384
0.320878491243
0.308177057043
0.290138169324
0.247957219734
0.236475071647
0.244465380796
0.457817688027
0.611631282785
0.608734402515
0.815397705372
0.775375368052
0.775114587311
0.774853740485
0.772166493623
0.752466475114
0.694119581975
0.587491787631
0.464385012836
0.375306209372
0.342641824802
0.341363926548
0.345566657474
0.327822666301
0.263645702517
0.253044953479
0.399936883457
0.610693597559
0.608734402515
0.612423930137
0.811027603781
0.774170428295
0.774349530511
0.771114953986
0.760928192914
0.727619287152
0.652719702841
0.535108912966
0.415443003302
0.363577717194
0.364193511961
0.399536560835
0.398892592833
0.356095147125
0.290821598982
0.357044420848
0.595148649365
0.608734402515
0.612611694652
0.608734402515
0.815122310374
0.770784968844
0.76764878734
0.757720080473
0.737618891631
0.690844974846
0.601605716123
0.478809743037
0.375708858416
0.361389993752
0.397481424785
0.410592641602
0.40142535874
0.355917540351
0.350571354451
0.529343097615
0.608734402515
0.612793976093
0.608734402515
0.612119600269
0.810580579776
0.764556958055
0.752218030745
0.734625690566
0.704439774252
0.643303334033
0.541760133427
0.419300301901
0.345526264622
0.351983506097
0.397774845007
0.410155886892
0.388919840511
0.356279087474
0.434434705737
0.608734402515
0.612951042329
0.608734402515
0.612515451042
0.608734402515
0.814018032128
0.754278587512
0.731250304378
0.706839970751
0.664095334898
0.585057095851
0.472153048379
0.356827784832
0.316262717499
0.332597274734
0.380161386414
0.380026294832
0.347459085547
0.370648205356
0.557390179502
0.612849377843
0.608734402515
0.612843596439
0.608734402515
0.610553369283
0.809809471308
0.74281508492
0.710294720361
0.677229410944
0.615543433238
0.516183468998
0.396277512832
0.299466766868
0.282882161222
0.297675633845
0.31771871712
0.298984947083
0.300862920671
0.438938203065
0.611483282803
0.608734402515
0.612941489053
0.608734402515
0.611124295911
0.608734402515
0.812844465691
0.733752229389
0.690927907271
0.641453080251
0.556047225451
0.439077010314
0.324661652071
0.26694300763
0.261936592161
0.262385673282
0.261769094877
0.261825010952
0.302514206948
0.551867395993
0.608734402515
0.612893203297
0.608734402515
0.611575130943
0.608734402515
0.596268087626
0.808812442413
0.724353969898
0.666637828794
0.591464170497
0.481685047962
0.358337183318
0.275419875755
0.261745030927
0.261825010952
0.26099823384
0.261825010952
0.259973516153
0.371038366183
0.608612348192
0.612873227063
0.608734402515
0.611867064468
0.608734402515
0.609265434543
0.525477596512
0.812168119198
0.711574652529
0.63121674709
0.523568358766
0.395518749776
0.290828499379
0.26186986378
0.261825010952
0.260925619039
0.261825010952
0.258109680682
0.278037905198
0.543904924188
0.612574203968
0.608734402515
0.612203230012
0.608734402515
0.609392861445
0.575699505891
0.4136418801
0.8076581799
0.690141869414
0.574123158877
0.435185979335
0.311790351112
0.262990683062
0.261825010952
0.260986442425
0.261825010952
0.258229781956
0.261825010952
0.446998739401
0.611627564758
0.608734402515
0.612456580965
0.608734402515
0.610439834769
0.604694915624
0.497636006234
0.311933092139
0.811304790506
0.632068164719
0.479893266928
0.332141807061
0.265559743335
0.261825010952
0.260944056624
0.261825010952
0.258494572023
0.261825010952
0.375984207643
0.607502954743
0.608734402515
0.612554887538
0.608734402515
0.611368759856
0.608734402515
0.574731116215
0.41825800119
0.269233269174
0.807165635126
0.525411825992
0.354935452127
0.265483019234
0.261825010952
0.260788683721
0.261825010952
0.258513165328
0.261825010952
0.334151415763
0.590844760708
0.608734402515
0.612535208278
0.608734402515
0.611791836748
0.608734402515
0.609615511732
0.535740520484
0.368769976199
0.266984964374
0.79028864271
0.389201628974
0.267707062185
0.261825010952
0.260121603978
0.261825010952
0.258052496951
0.261825010952
0.304008332665
0.564666301812
0.608734402515
0.612321988384
0.608734402515
0.611908538395
0.608734402515
0.610241590694
0.608734402515
0.507365161354
0.348362054534
0.269339661549
0.667306891328
0.271669086256
0.261825010952
0.259589664818
0.261825010952
0.257246296657
0.261825010952
0.280130948128
0.520494629612
0.608734402515
0.611533839105
0.608734402515
0.611336907851
0.608734402515
0.610428671684
0.608734402515
0.600761010535
0.476564938027
0.336461394799
0.287610918108
0.474098794466
0.261825010952
0.258040543151
0.261825010952
0.256254962836
0.261825010952
0.263803826865
0.456027444843
0.595244026307
0.609996559092
0.608734402515
0.610041067394
0.608734402515
0.609748422129
0.608734402515
0.602730161273
0.552831260133
0.426044828533
0.322125314448
0.300794348179
0.366906437252
0.262715895201
0.263081561286
0.258996775191
0.261825010952
0.272785775317
0.388947927653
0.502706592868
0.570142124023
0.591236503982
0.598466045291
0.600497299704
0.601074938469
0.597906278703
0.585368893012
0.544334879761
0.455101440562
0.352505700168
0.304997115613
0.302425148866
0.421149932776
0.443751427865
0.390797525886
0.345275659833
0.327292082101
0.364760054512
0.420966267294
0.457728290059
0.484148765864
0.508795179462
0.52305414173
0.527936707391
0.52801503783
0.517683939657
0.48430501553
0.417136326691
0.331749957083
0.277590961534
0.288071269789
0.304989689646
0.649800038914
0.726615196889
0.651675593103
0.59862450464
0.542398283196
0.49324146239
0.454800610917
0.433382969896
0.40975567778
0.396489409826
0.390909822508
0.385041927296
0.376047329957
0.359003355187
0.324614173169
0.271589954317
0.229908173213
0.226273858477
0.273492565942
0.306871547691
0.835095085884
0.837773799756
0.812357805501
0.79400988471
0.760357876319
0.697125362878
0.605735087496
0.518217726493
0.446473204526
0.395308629851
0.356196056509
0.317091080813
0.274292781971
0.232521546394
0.204299248671
0.187014461443
0.179174262107
0.196774354865
0.25721225965
0.305637599305
0.861650090761
0.851693151649
0.848081017504
0.845093434467
0.837435900869
0.81583952462
0.769374694279
0.694428947671
0.59183264876
0.481434031502
0.39704815967
0.335393710159
0.278000941828
0.220341320254
0.177421722817
0.165139310314
0.164959771
0.178048751893
0.232308564556
0.299551198054
0.863927267293
0.854184999859
0.853864051459
0.852747812863
0.849780729075
0.840757718775
0.818633916525
0.775084412567
0.70219921726
0.596205921033
0.487178255366
0.396250794847
0.314604946384
0.235039463027
0.178317093557
0.160655658138
0.160749382133
0.16711805775
0.203106583008
0.281189053992
0.861701727035
0.854919080127
0.854838871946
0.853724077194
0.851018708263
0.843305221219
0.824307539434
0.786599097271
0.72486774586
0.636367510155
0.535511652667
0.439624365946
0.347084803292
0.253831767462
0.180765417428
0.159074289589
0.158955871704
0.161582924614
0.18118935348
0.249542642552
0.863835207001
0.854220389382
0.854504537169
0.851921696152
0.849123005556
0.842080714039
0.823860346233
0.786719599424
0.725829912233
0.641004127692
0.543931345116
0.447413821214
0.351434451216
0.25493203017
0.179126062705
0.158363280182
0.158284349115
0.159066567679
0.169602744815
0.216382388534
0.861701727035
0.850791021841
0.850380733869
0.844318065716
0.841594746652
0.835940408412
0.819106771043
0.782275352708
0.721107011426
0.637278455933
0.541052408819
0.443127708723
0.343254656217
0.24276407155
0.170197512633
0.158141818756
0.158117110339
0.158249164825
0.163347003174
0.192015310428
0.863141000663
0.842395509596
0.839115239671
0.830146790335
0.828230588509
0.823914944434
0.807904286416
0.770117699191
0.706934093087
0.622470001927
0.525899155809
0.424509623213
0.318510689064
0.216162761794
0.160448863305
0.157962092786
0.15792178787
0.158038859674
0.159511013481
0.177339438055
0.861650090761
0.824708717627
0.820047208204
0.811807109855
0.811394868957
0.807809108093
0.791169689623
0.751063209799
0.685203605422
0.59861875181
0.500181811898
0.395074803337
0.285098621629
0.187948607401
0.158120312949
0.15792178787
0.157800845732
0.157888277489
0.158302221368
0.168576660124
0.862004940289
0.791857451818
0.793224829456
0.790456284729
0.792137025908
0.788145293388
0.7687179167
0.72474767459
0.655945953798
0.567720246544
0.467620622076
0.359382743627
0.248168846921
0.167146801272
0.15792178787
0.157734083832
0.157882295751
0.157716444659
0.157994049187
0.161706570955
0.85398466699
0.743278985567
0.757693669013
0.764381415073
0.768960112401
0.762717737538
0.737368096822
0.687472109423
0.615218171274
0.526143978998
0.424943549816
0.314308122409
0.206448262888
0.15852020624
0.157753934635
0.157882295751
0.157702111085
0.157838371497
0.157732641936
0.153020917963
0.823899566613
0.686507992235
0.71311171461
0.730225653943
0.737554282245
0.726503919251
0.691816642802
0.634003992271
0.558428139704
0.468619846417
0.366119517513
0.255198086984
0.168831762291
0.157849965457
0.157918035737
0.157730995005
0.158220015946
0.164972572128
0.158180312938
0.137606749818
0.810638454862
0.608038509325
0.659594002938
0.683937661067
0.691154292343
0.672231377716
0.626058470773
0.560312056374
0.48169038191
0.390687642054
0.287222787434
0.188532270133
0.158035860356
0.157989730216
0.15780534834
0.157906471653
0.176889868974
0.174497323931
0.147823775114
0.120568883008
0.807163820669
0.533335804705
0.603491675546
0.622586927954
0.624510478459
0.595080763223
0.537318823379
0.464493904511
0.383102956019
0.291768167582
0.198771986521
0.158606727468
0.158035368197
0.15780534834
0.157984398726
0.184563751215
0.195325650389
0.169511439346
0.124629381934
0.111921394327
0.778020464896
0.517156943719
0.550277910313
0.553334300722
0.543901238903
0.500013442636
0.431171426487
0.351866183612
0.270439650108
0.193026673956
0.158665738081
0.158379236346
0.157844335197
0.158034503058
0.1831865818
0.230235811098
0.198314899141
0.144886716956
0.110217339168
0.109591268389
0.708855757063
0.515557534224
0.514601754782
0.505904913678
0.479810983241
0.416995760769
0.337877398334
0.259745966966
0.193496505855
0.158431777301
0.158480274881
0.158009727575
0.158379236346
0.198127900678
0.260210240944
0.245206447597
0.17749754599
0.120487577504
0.108689702207
0.108713308649
0.410186991797
0.608734402515
0.611606430607
0.608734402515
0.538927934858
0.357234691197
0.20158694097
0.111362185186
0.0593509049139
0.0298722914036
0.0143279782526
0.00614544866036
0.00228587540786
0.000846714068232
0.000288483788709
5.96257343787e-05
1.72604023136e-06
6.49325764517e-11
1.46101319831e-14
1.24949437403e-14
0.601148143996
0.612012380569
0.608734402515
0.60928652706
0.509046624208
0.327740025657
0.192133775166
0.111916963697
0.0610973395278
0.0303679926152
0.0144577105983
0.00660373055453
0.0027952574598
0.00117711460384
0.000437900913818
9.59791434372e-05
3.52816937467e-06
3.76685009162e-10
1.24804864143e-14
1.25216675649e-14
0.612176424996
0.608734402515
0.610933709008
0.608046092639
0.472859322662
0.299779786177
0.184273404297
0.11341404406
0.0632374032747
0.0306742334849
0.0143947640099
0.00669210616893
0.00306451634975
0.00137544521997
0.000522839153809
0.000110558390446
3.99084233973e-06
3.88129165528e-10
1.25216675649e-14
1.24798081753e-14
0.608734402515
0.611946834387
0.608734402515
0.582742563258
0.428350175954
0.27251500878
0.176767509392
0.113961331046
0.064592204026
0.030479118646
0.013863220301
0.00658831239988
0.00311916521984
0.00143032264513
0.000536648484298
0.000107276232254
3.36443832295e-06
1.45884419791e-10
1.24780206176e-14
1.25116121196e-14
0.612266135333
0.608734402515
0.609928091146
0.542289265167
0.379195902945
0.24627491595
0.16913427773
0.113345977751
0.0645564114515
0.0293560066275
0.012642765803
0.00611505578353
0.00302801541691
0.00139923404322
0.000500218655881
8.09866829643e-05
1.44599342312e-06
1.40749292445e-14
1.80491586332e-14
1.246562582e-14
0.608734402515
0.610861768744
0.608734402515
0.491572925992
0.328766866743
0.222968934249
0.161403944902
0.110462381853
0.0621522334521
0.0267952188506
0.0108954323113
0.00525443953034
0.00266261567898
0.00119456946886
0.000354657234904
3.34823419187e-05
1.5745444998e-07
1.40705960421e-14
1.80162719543e-14
1.25055313187e-14
0.611610834076
0.608734402515
0.579356285976
0.426033442663
0.282870583969
0.204876942913
0.153477564572
0.103595113756
0.0554599948918
0.0225022541527
0.00887363004676
0.00420774143479
0.00202283662445
0.000766247268772
0.000142836863189
4.51941321012e-06
1.03455867268e-09
1.40749292445e-14
1.8060306025e-14
1.24680639709e-14
0.608734402515
0.609273121692
0.517169254852
0.356586348538
0.249173482139
0.192979640389
0.14440544174
0.0917629909078
0.04466092649
0.0169787611393
0.00679530120346
0.00311638089241
0.00125706519831
0.000307850691251
2.18211154449e-05
9.01764044902e-08
8.35421850317e-15
1.41494803686e-14
1.80169338243e-14
1.25026492794e-14
0.610054122012
0.584512572721
0.439106417027
0.300890613995
0.231931842565
0.185550726913
0.132120744741
0.0749586951511
0.0317027959619
0.0114659335089
0.00482986452023
0.00202767317415
0.000568394675632
5.90784729872e-05
7.18569332403e-07
5.24461534603e-15
8.34961195686e-15
1.44154212797e-14
1.80433112561e-14
1.24652240176e-14
0.608734402515
0.510542327191
0.356565740602
0.269579570907
0.227475190536
0.178389995011
0.114531967206
0.0548062374894
0.0194991019628
0.00705969908546
0.0030650981541
0.00102456410558
0.000149498661102
3.76632181877e-06
1.04830968824e-09
5.24393587589e-15
8.4752695624e-15
1.45309048666e-14
1.80158517564e-14
1.25049328542e-14
0.566862126555
0.408018053139
0.29700988337
0.262961174949
0.227540115784
0.166657485587
0.0913860300095
0.0347445131068
0.0104853289444
0.00400463589215
0.00156852275329
0.000325402873278
1.65461671878e-05
4.40061585376e-08
5.24427680015e-15
5.24461534598e-15
8.72635218926e-15
1.47031896213e-14
1.79201058039e-14
1.24652274111e-14
0.464646316744
0.314759237242
0.281834854465
0.266689146144
0.226338437995
0.147793439848
0.0654386173996
0.0187966475777
0.00515785763185
0.0019764400045
0.000531955725483
4.72587662932e-05
5.55463340032e-07
5.12072591058e-09
9.23613961514e-11
5.24427679904e-15
9.37494384266e-15
1.49450576861e-14
1.73633583784e-14
1.25126910599e-14
0.343566551128
0.275939466109
0.284719217667
0.277332313142
0.222068029392
0.123527401277
0.0415025720401
0.00879930902022
0.00234005386921
0.000725881802112
9.16412939441e-05
2.64140081029e-06
9.79741057883e-08
7.90586523594e-09
2.0407715936e-10
1.62862581901e-14
9.80612207267e-15
1.52549603503e-14
1.68688585377e-14
1.24781585435e-14
0.266575987301
0.26982339281
0.299211498013
0.290669667846
0.21803388772
0.100688387212
0.0238057136037
0.00369683219783
0.000910811874854
0.000172552738307
9.74844636866e-06
6.23645154698e-07
9.96714353968e-08
9.50132723477e-09
1.92936989416e-10
5.12335192463e-15
1.02008122657e-14
1.55069986913e-14
1.65963266597e-14
1.25219882303e-14
0.254605355597
0.275348865916
0.311910678481
0.301268283015
0.218113989976
0.0865467035842
0.0145379184511
0.00174013125662
0.00036608644769
5.09326897183e-05
4.07188519563e-06
5.87479420967e-07
1.01122378367e-07
8.86204013169e-09
1.34822127379e-10
5.12222141528e-15
1.0685430008e-14
1.56621764295e-14
1.64616363904e-14
1.34780365538e-14
0.254580971654
0.291391942573
0.312522322083
0.308632420735
0.220787987367
0.0828803242915
0.0118067029586
0.001325599834
0.000269162890289
4.02590716098e-05
3.67325081085e-06
5.85305271939e-07
1.01633369861e-07
8.35020781198e-09
1.09551724506e-10
5.12302378442e-15
1.10875091538e-14
1.57281746619e-14
1.63805448772e-14
1.39353158269e-14
0.264789569366
0.307767974559
0.311910678481
0.312255263859
0.226012793348
0.0834320781384
0.0115729925938
0.00130492779033
0.000266834759504
4.0178542794e-05
3.63758149955e-06
6.08797404294e-07
1.09055018077e-07
8.94899498211e-09
1.20378213812e-10
5.12023731413e-15
1.13096975696e-14
1.57329755302e-14
1.63224060386e-14
1.40243430383e-14
0.286791452328
0.311910678481
0.312659191258
0.311910678481
0.228630660476
0.08546637233
0.0119256696777
0.00135591211619
0.000279756457677
4.30251709005e-05
3.85755568379e-06
7.02465577696e-07
1.33440014208e-07
1.15886956217e-08
1.78482801663e-10
5.12103525366e-15
1.13412978213e-14
1.57126964066e-14
1.62620091978e-14
1.43412639988e-14
0.300829826801
0.312869367407
0.311910678481
0.312050606987
0.227637737603
0.0852471358135
0.0126364636987
0.0015290918708
0.000324735270638
5.150828391e-05
4.62314083163e-06
8.74751820685e-07
1.75965840812e-07
1.67640894027e-08
2.99092618406e-10
5.11825782005e-15
1.12966520962e-14
1.56599854026e-14
1.61607163264e-14
1.49654915621e-14
0.306538259931
0.311910678481
0.312526283008
0.311423739415
0.221831496151
0.0819553309455
0.0127036348097
0.00182032951129
0.00041251099833
6.56656202326e-05
5.97589942962e-06
1.08436358144e-06
2.28673400908e-07
2.33582065952e-08
4.45452169e-10
5.1190469787e-15
1.116372635e-14
1.55780727906e-14
1.59731188905e-14
1.54128746378e-14
0.311910678481
0.31292836607
0.311910678481
0.306994891497
0.209369956593
0.0741831565788
0.0122376646025
0.00223484725566
0.00055370142101
8.52532121446e-05
7.95366681412e-06
1.28940011813e-06
2.79784756224e-07
2.91287980599e-08
5.50870573931e-10
5.11724723839e-15
1.10582174339e-14
1.54659716139e-14
1.56861373097e-14
1.55317760141e-14
0.312929815149
0.311910678481
0.31258180665
0.299991054389
0.193593907244
0.0645060740618
0.0116020817847
0.00277654657495
0.000744095657597
0.000109770075665
1.05578104506e-05
1.47993244531e-06
3.19434165455e-07
3.23129927492e-08
5.76265965194e-10
5.11802164531e-15
1.11408487165e-14
1.53225161824e-14
1.53374057893e-14
1.55083615906e-14
0.311910678481
0.312917429322
0.311910678481
0.292534812087
0.179506591249
0.0565104351615
0.0111909421231
0.00330738708924
0.000925906543968
0.000133408548756
1.32890194413e-05
1.67459478662e-06
3.45665917015e-07
3.33524884129e-08
5.49071560003e-10
5.11648568351e-15
1.12027195116e-14
1.51656048536e-14
1.4979999305e-14
1.54291669829e-14
0.312776790972
0.311910678481
0.312498990507
0.286215879975
0.170131663544
0.0518285259228
0.0110887882395
0.00361449571595
0.00103268874318
0.000149009058663
1.544342893e-05
1.90447736943e-06
3.66677204403e-07
3.39747771623e-08
5.23513772293e-10
5.11810698428e-15
1.1142206422e-14
1.50138288359e-14
1.46546426889e-14
1.5315735464e-14
0.311910678481
0.312701158663
0.311910678481
0.282669818331
0.168220297019
0.0511592489629
0.0111708467405
0.00370694665129
0.00106732360061
0.000154642351375
1.66733920052e-05
2.18195001622e-06
3.97046918396e-07
3.5216541723e-08
5.09375718994e-10
5.11572387721e-15
1.10123206062e-14
1.48829147018e-14
1.43868080906e-14
1.51731152034e-14
0.312262927406
0.311910678481
0.312335042757
0.28332985162
0.171246381492
0.0528515646537
0.0113436103365
0.00370233880592
0.00106507720396
0.000154129686999
1.70097342344e-05
2.50233364528e-06
4.45669206493e-07
3.7926959936e-08
5.1627713223e-10
5.61940662872e-15
1.08567812031e-14
1.47762125829e-14
1.41744042863e-14
1.49741398849e-14
0.309095796954
0.31239585045
0.311910678481
0.285524491206
0.178888327662
0.0573859872777
0.0115256537115
0.00355326959212
0.00100834232139
0.000145175433217
1.67153179217e-05
2.84372338834e-06
5.15838913274e-07
4.25575768544e-08
5.54201879081e-10
5.85106523571e-15
1.06831583273e-14
1.46982964138e-14
1.40066851975e-14
1.47100755628e-14
0.289492220121
0.311910678481
0.312136893305
0.288834663965
0.18921498807
0.0639056109401
0.0117583634746
0.00318742223453
0.000866256038308
0.000124642161184
1.5604178843e-05
3.20133940109e-06
6.06910233326e-07
4.94797807963e-08
6.34158384045e-10
5.79975626729e-15
1.05141829796e-14
1.46506291624e-14
1.39115583288e-14
1.44221160015e-14
0.256348785016
0.30345698223
0.311910678481
0.293678038887
0.201010883146
0.0705654963592
0.0119269359833
0.00277692345597
0.000713030830517
0.000105165711301
1.45745248231e-05
3.57829185452e-06
7.19026622167e-07
5.93616720308e-08
7.7302856246e-10
5.73418738039e-15
1.03845200798e-14
1.46464428055e-14
1.39097885002e-14
1.41610158445e-14
0.222137713644
0.27624811985
0.311617090495
0.302334376484
0.215024087434
0.0750745789012
0.0117365779294
0.00254394192766
0.000642189430582
9.98894096078e-05
1.44931594467e-05
3.95635141036e-06
8.48939069054e-07
7.20075084845e-08
9.57119848172e-10
5.68377114854e-15
1.0322711499e-14
1.46842727635e-14
1.39082063098e-14
1.3944432059e-14
0.193501111013
0.24075506414
0.31144898164
0.319993276413
0.230457902129
0.0757048309431
0.0110549004152
0.00252002342004
0.000642530523684
0.000101592082167
1.47494749518e-05
4.35987898085e-06
9.87884738735e-07
8.53540546782e-08
1.13511251749e-09
5.67046119725e-15
1.03244438534e-14
1.47408760822e-14
1.39065994276e-14
1.37576989148e-14
0.17163408823
0.214266362197
0.324218106473
0.350236072878
0.24242450341
0.0726674140541
0.0103944219406
0.00258695109003
0.000673300126229
0.000112431392206
1.62547142044e-05
4.91973438552e-06
1.13558289972e-06
9.81652039921e-08
1.27216568331e-09
5.67074839507e-15
1.03665134121e-14
1.47511706365e-14
1.40581329999e-14
1.35853129562e-14
0.153931039147
0.20895938194
0.3642693842
0.384682120005
0.246674652092
0.0672682815199
0.0103216750839
0.00290123538483
0.000794159562993
0.000144246320419
2.06370813234e-05
5.82683710266e-06
1.29382316498e-06
1.08339243344e-07
1.32454915816e-09
5.67044348399e-15
1.04064307762e-14
1.47514787657e-14
1.42991508146e-14
1.34235862044e-14
0.137914449939
0.216708067018
0.420756025367
0.407711941141
0.243296778348
0.0625902599297
0.0108782129354
0.0035578540391
0.00104154287267
0.000203222646132
2.93534912358e-05
7.18780824979e-06
1.48585349884e-06
1.10785712516e-07
1.18990236544e-09
5.67073289656e-15
1.04762142765e-14
1.47319004991e-14
1.45427669191e-14
1.32646068284e-14
0.130616237123
0.245976363977
0.45417557774
0.410775694841
0.233917809775
0.0580573297971
0.0118851113906
0.00439843480351
0.00138515466563
0.000287899363267
4.29026104975e-05
9.05721188233e-06
1.55244420067e-06
1.00085925889e-07
8.28834658191e-10
5.67042799672e-15
1.0734567405e-14
1.46993638967e-14
1.45708977752e-14
1.30867150509e-14
0.131524787318
0.29217966415
0.454527437574
0.408625385329
0.219910585606
0.0526003473452
0.0126617338895
0.00515920964408
0.00176251273501
0.000391764908915
6.03935413612e-05
1.14974855047e-05
1.5065966044e-06
7.48599539426e-08
4.25518898865e-10
5.6707174613e-15
1.12251397205e-14
1.46515244678e-14
1.45264355979e-14
1.28904492018e-14
0.136990451255
0.331994403548
0.455996354496
0.402568527056
0.201597418348
0.0464674871625
0.0125481773558
0.00568678070852
0.0021114923819
0.00050161208151
7.91469473569e-05
1.41892419644e-05
1.31381053332e-06
4.71476379769e-08
1.54408041755e-10
5.67041429115e-15
1.18423929339e-14
1.45743264618e-14
1.44300165252e-14
1.26953473433e-14
0.143314176637
0.360732951437
0.454527437574
0.390767737641
)
;

boundaryField
{
    emptyPatch
    {
        type            empty;
    }
    minY
    {
        type            fixedValue;
        value           nonuniform List<scalar> 0();
    }
    maxY
    {
        type            inletOutlet;
        phi             phi.gas;
        inletValue      nonuniform List<scalar> 0();
        value           nonuniform List<scalar> 0();
    }
    maxX
    {
        type            zeroGradient;
    }
    water_to_heater
    {
        type            zeroGradient;
    }
    procBoundary1to0
    {
        type            processor;
        value           nonuniform List<scalar> 
41
(
0.636858195477
0.519653929495
0.517545029603
0.506199723934
0.47101406148
0.395732649544
0.313080422454
0.242194039311
0.187208411226
0.159990668287
0.161873978149
0.181428642603
0.243359974145
0.322293427616
0.322763324151
0.24339257882
0.15472840545
0.111691769083
0.108554515902
0.108689702207
0.180180599386
0.0409507750582
0.0122809326033
0.00585764688842
0.00236002085909
0.000591715657704
9.34002628132e-05
1.46113494934e-05
1.00783039568e-06
2.52484641e-08
3.13646465968e-11
5.67070382653e-15
1.24710326459e-14
1.44718016457e-14
1.43517704302e-14
1.25159048949e-14
0.145569994209
0.382461527365
0.456240062155
0.180180599386
0.372201490934
)
;
    }
    procBoundary1to3
    {
        type            processor;
        value           nonuniform List<scalar> 
41
(
0.752904609559
0.737878102273
0.706831990267
0.654334518348
0.579953714913
0.490682248026
0.397690446491
0.31206534424
0.249491962912
0.236858576048
0.236973439308
0.235855558676
0.236918958636
0.812027590965
0.763512695247
0.75398935381
0.753927674511
0.758406904427
0.761396190545
0.758796961776
0.758796961776
0.24133033083
0.567447580819
0.608734402515
0.610573769793
0.567824242709
0.390615625911
0.215057785677
0.112202695919
0.058425575074
0.0294629597283
0.0138288922177
0.005198812745
0.00159614572826
0.00049323120551
0.000145029616253
2.40359182609e-05
3.20824321491e-07
1.41753959881e-14
1.8123797564e-14
1.25289305429e-14
)
;
    }
}


// ************************************************************************* //
