/*--------------------------------*- C++ -*----------------------------------*\
| =========                 |                                                 |
| \\      /  F ield         | OpenFOAM: The Open Source CFD Toolbox           |
|  \\    /   O peration     | Version:  2312                                  |
|   \\  /    A nd           | Website:  www.openfoam.com                      |
|    \\/     M anipulation  |                                                 |
\*---------------------------------------------------------------------------*/
FoamFile
{
    version     2.0;
    format      ascii;
    arch        "LSB;label=32;scalar=64";
    class       volScalarField;
    location    "0.765/water";
    object      T.gas;
}
// * * * * * * * * * * * * * * * * * * * * * * * * * * * * * * * * * * * * * //

dimensions      [0 0 0 1 0 0 0];

internalField   nonuniform List<scalar> 
1496
(
585.151247452
393.237247488
327.222049151
307.701188283
302.487303371
301.099113578
300.680149241
300.50922216
300.406110933
300.32796243
300.26384045
300.208788248
300.1593987
300.114335676
300.074869089
300.043139393
300.021092663
300.009414238
300.003738723
300.002062996
550.704273985
378.679978176
321.102044091
305.728202255
301.927430345
300.924782614
300.608094384
300.467199027
300.374610333
300.300894282
300.239022007
300.185140138
300.136810583
300.093104224
300.055195101
300.027387648
300.0117288
300.004395529
300.002321149
300.001922968
497.560702172
359.902915
314.605755143
303.934040385
301.445530536
300.774573135
300.545739962
300.431611526
300.349106283
300.279746279
300.219224266
300.165303292
300.116403845
300.073005985
300.039139686
300.017046799
300.006149456
300.002836057
300.002160344
300.002076308
450.698027847
343.504735209
309.790194538
302.743256932
301.109460184
300.662573863
300.497733877
300.403646453
300.329474249
300.263142035
300.20279809
300.147835626
300.098997904
300.058588301
300.028640535
300.01100495
300.004351527
300.002688576
300.002363689
300.002357882
419.219166432
332.845676269
307.357878989
302.127194171
300.914609154
300.586856495
300.462067562
300.383163458
300.314591553
300.250340366
300.190365574
300.136003901
300.088902978
300.050315782
300.023777169
300.010190519
300.004668392
300.003053459
300.002714997
300.002713124
398.597364571
330.805867197
308.073329242
302.303638613
300.879966506
300.55135171
300.442718615
300.37078299
300.30599531
300.244447984
300.18654077
300.133851782
300.088023589
300.051125545
300.026836745
300.012829789
300.006160097
300.003807243
300.003215408
300.003148007
387.391032488
333.757482165
310.594844713
303.093565321
300.992086665
300.578057693
300.454857484
300.378251444
300.313607779
300.25351896
300.196896995
300.144841859
300.098795981
300.061397964
300.035567548
300.018777378
300.009311094
300.005222889
300.003974474
300.003710181
389.360933468
338.682871525
314.760578631
305.14912112
301.800620413
300.849233694
300.564563723
300.433741046
300.351196237
300.285223556
300.225630996
300.17087086
300.122059795
300.080541141
300.050023636
300.028804703
300.015072364
300.007873064
300.005203738
300.004493866
408.909039349
350.295945435
321.607954971
308.978575472
303.706307327
301.723622756
300.947691212
300.597411437
300.435209094
300.344017856
300.275635582
300.214026598
300.158233488
300.110385313
300.071142895
300.043218783
300.024243582
300.012560802
300.00727065
300.005631832
441.482768715
360.688976724
327.121509047
312.262038874
305.626564469
302.740558065
301.477774836
300.886504377
300.593047186
300.428024498
300.335990483
300.268683172
300.20647286
300.149364656
300.101861936
300.063001605
300.036881697
300.019869969
300.010682976
300.007299302
470.317368102
369.1766742
330.831394617
313.978124858
306.796575571
303.388986882
301.812159302
301.075502704
300.7172918
300.527721776
300.400806103
300.320999697
300.256142936
300.195105185
300.138043423
300.090973524
300.053479608
300.029836255
300.015894891
300.009763676
488.905089754
375.100189895
332.129940717
313.775303872
306.506731883
303.314908836
301.832430508
301.12526375
300.773611814
300.582980105
300.464352382
300.371072508
300.299729202
300.2366404
300.177026532
300.121590258
300.076123589
300.042596471
300.022993302
300.013297803
504.745687489
379.814301579
330.703951828
311.852799488
305.379250477
302.831741246
301.651009248
301.074470175
300.774840711
300.604065973
300.492072243
300.405474243
300.334614475
300.270913836
300.210862247
300.153021952
300.100247903
300.058776613
300.03180404
300.018148496
512.980279196
378.713913473
326.322094315
308.995452899
303.972488315
302.243994004
301.410567413
300.982662636
300.748080341
300.604658072
300.504416949
300.426019495
300.358451201
300.29589169
300.235975701
300.178671781
300.123525763
300.076023392
300.042424044
300.024124913
513.412937763
366.225570994
318.851746169
305.819760088
302.646416689
301.681482125
301.172186368
300.883998783
300.710433879
300.594734714
300.507603996
300.437283416
300.373807066
300.313197068
300.254091455
300.196891371
300.141638226
300.090961382
300.053183047
300.030589759
506.917591521
350.304670741
311.948811966
303.535352625
301.758319423
301.271523178
300.987902838
300.800719943
300.673979324
300.580795928
300.505819508
300.442802419
300.383089054
300.324480459
300.266468951
300.209681097
300.154416424
300.102390748
300.062271601
300.036899301
498.34595279
340.66571738
308.762581969
302.489540914
301.298800706
301.02131334
300.8590311
300.737762042
300.643759075
300.567670521
300.502976381
300.444733599
300.387861006
300.331019136
300.274090686
300.217860112
300.162657589
300.110274842
300.069199762
300.042549862
493.895581387
339.663286575
308.122070099
302.162662338
301.095083276
300.882444726
300.778792648
300.694248488
300.621656399
300.557656838
300.499475781
300.444179371
300.38939945
300.333985581
300.277999483
300.222270405
300.166873
300.114988381
300.074126759
300.047402032
489.40874815
344.592662236
309.177054309
302.292389548
301.044999155
300.816643249
300.732411467
300.666838913
300.606395406
300.549589406
300.495444496
300.442437171
300.389072551
300.334590241
300.279218141
300.223634036
300.16765864
300.117121862
300.077477565
300.05163631
478.844462222
348.009609419
311.074621686
302.6956793
301.09132702
300.796562435
300.709742773
300.651572548
300.597167732
300.544282203
300.492394617
300.440570295
300.387795291
300.333596017
300.278293601
300.222001741
300.166069177
300.117443624
300.079746296
300.055458313
462.418344427
349.936802185
313.198088486
303.413226028
301.233535735
300.81121124
300.704686201
300.645679008
300.5931882
300.541758969
300.490531792
300.438784657
300.385756262
300.331162191
300.275147075
300.217648093
300.163166084
300.11671374
300.081410679
300.059136401
446.238541979
349.556295236
314.650937722
304.113508085
301.43374096
300.85214511
300.710909653
300.646065023
300.59291671
300.541215386
300.489361485
300.436706854
300.382691363
300.327031694
300.269519848
300.211898565
300.159406387
300.115418478
300.082935966
300.063038598
431.44608969
347.103836572
314.954234913
304.490600501
301.583833986
300.893143663
300.721330687
300.649682025
300.594619611
300.54150211
300.488035082
300.433734993
300.378159342
300.320768684
300.262034958
300.205591012
300.155203482
300.113932599
300.084777638
300.067679995
418.58193046
342.921405407
314.022708092
304.389043492
301.609986192
300.912073981
300.729917942
300.654144811
300.596843758
300.541532541
300.485771856
300.429330059
300.371639227
300.312402815
300.253737827
300.198916491
300.150839057
300.112798344
300.0875563
300.07382045
408.694984275
338.328716593
312.356898093
303.943504636
301.533550904
300.910006628
300.735842613
300.658577726
300.598762275
300.540652457
300.482163975
300.423109702
300.362848601
300.302751857
300.245090728
300.192071144
300.146710099
300.112824177
300.092074914
300.082315175
402.068250247
335.638454429
311.384473382
303.670649333
301.497298686
300.919635774
300.746027962
300.664369978
300.600580231
300.538923772
300.477142163
300.414668545
300.352513451
300.292670698
300.236329772
300.185496481
300.143635577
300.114924545
300.099304095
300.093925261
398.629837129
334.744425932
311.487998968
303.886701609
301.630789902
300.981703681
300.772118144
300.67484931
300.603414315
300.536689593
300.470034664
300.404295763
300.341784298
300.28280953
300.228063093
300.179893988
300.142815952
300.120015914
300.110022473
300.109620917
398.402500564
335.509663854
312.662491286
304.679918032
302.008802811
301.133827148
300.828905699
300.695250226
300.608861066
300.53319918
300.460972854
300.393808558
300.331425105
300.273569575
300.220996134
300.176230992
300.145198357
300.129012654
300.125194063
300.129488094
401.594302284
337.65847242
314.458665293
305.831750035
302.585869715
301.380461709
300.925165743
300.730136358
300.616686759
300.527831056
300.451662179
300.383650375
300.321997826
300.265844607
300.215908145
300.175824703
300.151668343
300.142572369
300.143932385
300.148268502
404.223480098
339.435196782
316.011911147
306.879772763
303.164978984
301.657392044
301.044697806
300.772486267
300.621702124
300.521403334
300.44214486
300.374318554
300.314380124
300.260498729
300.214203564
300.179736975
300.163122787
300.159317562
300.161774655
300.165264013
406.13623037
341.664545716
317.662818613
307.857350021
303.688179969
301.918334416
301.156324264
300.798980133
300.621068804
300.513110718
300.432947421
300.36694468
300.309466968
300.259003403
300.217020834
300.190485031
300.178490644
300.176093327
300.178556268
300.181313765
406.892878129
344.080514862
319.386581749
308.827535772
304.168038197
302.128599868
301.20622827
300.800939404
300.612872533
300.503643469
300.42572095
300.362515545
300.308995526
300.262422861
300.228052304
300.206314066
300.195525626
300.193301599
300.194977732
300.195979178
406.360643671
345.464309321
320.516918118
309.516775299
304.50350391
302.199090705
301.189983206
300.784439497
300.600752238
300.496449387
300.421934277
300.363344105
300.313998289
300.274754238
300.24577915
300.225777323
300.215224435
300.211653563
300.211222241
300.20971182
403.322398374
344.460949866
320.021313211
309.266538965
304.383966268
302.096166539
301.139896252
300.763703334
300.594589814
300.495664247
300.425957722
300.371131366
300.328634995
300.294901401
300.268703207
300.249948825
300.238118589
300.231833654
300.228362171
300.223595589
396.647781498
341.015129667
318.000126778
308.194627998
303.86567296
301.906668916
301.098957594
300.770767618
300.612705382
300.516645961
300.446842732
300.395259873
300.352540634
300.320845686
300.297380955
300.278766235
300.264856832
300.255206603
300.247900351
300.239265883
388.42702789
338.010664418
316.585959912
307.379827823
303.496345088
301.859491329
301.176009632
300.874400005
300.70809343
300.591997165
300.50079249
300.432272938
300.385886265
300.356464625
300.334179545
300.314920037
300.29793932
300.283670356
300.27162877
300.258782073
382.931683341
334.891459717
315.547902987
307.141016406
303.552712842
302.061569003
301.422119954
301.102583559
300.887694506
300.714702045
300.581872842
300.493900966
300.441321714
300.407826206
300.382287776
300.359619539
300.338549872
300.319277681
300.301485476
300.283919137
300.001708447
300.001779988
300.001858654
300.001934024
300.001995157
300.002028861
300.002047796
300.002132604
300.002375197
300.002886344
300.003587424
300.004159577
300.004674369
300.005077794
300.00526572
300.004507966
300.001773465
300.001738363
300.001784425
300.001856891
300.001940663
300.002028436
300.002113928
300.002192666
300.002259492
300.002310569
300.00236168
300.002477187
300.002765795
300.003373983
300.004018503
300.004578052
300.005097527
300.005540842
300.005740541
300.004915107
300.001876421
300.00193946
300.002045174
300.002162018
300.002273299
300.00237456
300.002465908
300.002548988
300.002623948
300.002692196
300.002771005
300.002914264
300.003251359
300.003950183
300.004500299
300.005034813
300.005560277
300.006031852
300.006239487
300.005356002
300.00212521
300.002242674
300.002395417
300.002551499
300.002691812
300.002809812
300.002908541
300.002996759
300.003081409
300.003168424
300.003279443
300.003471251
300.003901084
300.004530396
300.005027133
300.005538283
300.006085815
300.006557738
300.006744734
300.005823053
300.002455424
300.002618995
300.002815259
300.003013013
300.003188396
300.003329739
300.003438487
300.003530337
300.003622527
300.003727248
300.003872603
300.004115988
300.004655188
300.00515592
300.005608443
300.006103782
300.006670937
300.007104995
300.007249038
300.006325021
300.002838703
300.003042206
300.003281482
300.003524044
300.003742266
300.003917815
300.004045539
300.004145145
300.00424571
300.004369557
300.0045588
300.004884185
300.00539363
300.005818329
300.006243451
300.006769761
300.007297498
300.007662313
300.007758221
300.006938812
300.003275802
300.003507808
300.003784037
300.004064656
300.004318667
300.00452574
300.00468301
300.004807694
300.004932406
300.0050885
300.005321752
300.005692996
300.00614087
300.006522418
300.006973076
300.007506316
300.007953602
300.008217571
300.008281833
300.007907156
300.003794374
300.004044737
300.004357707
300.004673236
300.004952227
300.005171781
300.005335482
300.005474124
300.005627176
300.005826988
300.006114028
300.006511673
300.006918005
300.007326822
300.007820917
300.00827544
300.008635699
300.008786627
300.008812682
300.008805978
300.004446963
300.004696638
300.005054823
300.00541316
300.005711045
300.005914355
300.006038057
300.006151824
300.006319165
300.00656334
300.006909386
300.007340448
300.007768023
300.0082297
300.008677722
300.009094697
300.009358871
300.00940178
300.009370729
300.009364445
300.005291272
300.005502433
300.005916912
300.006328731
300.006634551
300.006783867
300.006800215
300.006829028
300.00698616
300.007264945
300.007662965
300.008149534
300.00860165
300.009076314
300.009546829
300.009974658
300.010119953
300.010128149
300.010095584
300.010019626
300.006409336
300.006481562
300.006949706
300.007433279
300.007728191
300.007763689
300.007602757
300.007484687
300.007595813
300.00788438
300.008301947
300.00880851
300.009289852
300.009825836
300.010385449
300.010824472
300.010934911
300.011114613
300.011150643
300.010329223
300.007889188
300.007679527
300.008164301
300.008720938
300.009016506
300.008867587
300.008447085
300.00812991
300.008151664
300.008418133
300.008824559
300.009317484
300.009806403
300.010406585
300.011062487
300.011583688
300.011828407
300.012344582
300.013298519
300.012543058
300.009904709
300.009164535
300.009573204
300.010207162
300.010505312
300.010168862
300.00942216
300.0088675
300.008753036
300.008948407
300.009310464
300.009743711
300.010195749
300.010779278
300.011527551
300.012243323
300.012772607
300.013788352
300.01624127
300.015905987
300.012683579
300.011092265
300.011236242
300.011871209
300.012204111
300.011748426
300.010699591
300.009877025
300.009588467
300.009665285
300.009930227
300.010251018
300.010587767
300.011023935
300.011839194
300.012905243
300.013937786
300.015685245
300.020251323
300.020074158
300.016234136
300.013538601
300.013244896
300.013772333
300.014136514
300.013682442
300.012445973
300.011357569
300.01087922
300.010810204
300.010922506
300.01106705
300.011170708
300.011361048
300.012115901
300.013698629
300.015626444
300.018445825
300.025752006
300.025641733
300.020338374
300.016495217
300.015655725
300.01598738
300.016332273
300.015999268
300.014769532
300.013497274
300.012838131
300.012606045
300.012489444
300.012349546
300.01213768
300.011994239
300.012490213
300.014691503
300.018079874
300.022910871
300.033429689
300.03274764
300.024736354
300.019874605
300.018478622
300.018555551
300.018846296
300.018709154
300.017711165
300.016419752
300.015605711
300.01517355
300.014736066
300.014128957
300.013475011
300.012905662
300.013004303
300.015866875
300.022148742
300.031107517
300.046844795
300.044657386
300.029219695
300.023585245
300.021711585
300.021533305
300.021785099
300.021921718
300.021333723
300.02014998
300.019208535
300.01846803
300.017550657
300.016307589
300.014996597
300.013925068
300.013600555
300.017363144
300.029535168
300.047376173
300.069710688
300.065245914
300.033672204
300.027573994
300.02537113
300.025013064
300.025368347
300.02584315
300.025779885
300.024597347
300.023504546
300.022267381
300.020634383
300.018611763
300.016586328
300.014944402
300.014116318
300.018395067
300.040297832
300.074382437
300.11135733
300.104555739
300.038094795
300.031867192
300.029535264
300.029187332
300.029895458
300.030745994
300.031200818
300.029855565
300.02825473
300.026195054
300.023617134
300.020782617
300.018054911
300.015879483
300.014612253
300.018289524
300.050806076
300.121762877
300.193040728
300.185373024
300.0425801
300.036582337
300.034420162
300.034477635
300.03561287
300.037196619
300.037449083
300.035719435
300.033084135
300.029777106
300.026147603
300.022485095
300.019166604
300.016556466
300.015264621
300.020548401
300.067391348
300.207020963
300.355373787
300.328571688
300.047338958
300.041994551
300.04046046
300.041227003
300.042971225
300.045463853
300.044714962
300.041799804
300.037445216
300.032542068
300.027850181
300.023424242
300.019699002
300.016867469
300.016815346
300.030771548
300.128250917
300.379447319
300.657828036
300.557859979
300.05278353
300.048602033
300.048268809
300.049936308
300.052929614
300.054752372
300.052491793
300.047253188
300.040644013
300.034147496
300.028457548
300.02350461
300.019682477
300.017317314
300.022429298
300.062515955
300.277637883
300.669521585
301.13565146
300.953506006
300.059495619
300.05718102
300.058307946
300.061214442
300.065302142
300.064960452
300.059626836
300.051132277
300.042251515
300.034426908
300.028071756
300.022948342
300.019369508
300.019663839
300.042528751
300.169744939
300.483417323
301.058265573
301.936868889
301.658691631
300.068363777
300.068320016
300.071141302
300.07616666
300.077570886
300.074992489
300.06490342
300.053056538
300.04233804
300.033766913
300.027205859
300.02230047
300.019980441
300.033324659
300.130466692
300.464783713
300.904840779
301.744058619
303.14787314
302.874631355
300.080122262
300.082540361
300.088078854
300.091191661
300.089614892
300.083242669
300.067807005
300.053278672
300.041526825
300.032788734
300.026338957
300.022174932
300.023503705
300.066178149
300.282514138
300.741816246
301.481208436
302.756838931
304.546005435
304.228833671
300.095306811
300.101255737
300.105362381
300.104564167
300.099998528
300.087993258
300.068387829
300.052264963
300.040186295
300.03145077
300.025297019
300.022776111
300.032345052
300.105625486
300.31511445
300.794926773
301.843813858
303.798060123
306.038041795
305.820802851
300.115241773
300.119802385
300.119845646
300.116031808
300.107448665
300.08858441
300.066649188
300.049816354
300.037630149
300.028989755
300.023696645
300.024260207
300.041935607
300.105638447
300.273474845
300.672762914
301.706159222
304.260630248
307.370472023
307.247920168
300.134225468
300.135409672
300.132434156
300.124607839
300.11151363
300.086299014
300.062776784
300.04532078
300.033454242
300.025720567
300.022329658
300.026593819
300.046651216
300.107033635
300.253440185
300.593524395
301.369853487
303.738235006
308.178561612
308.209143913
300.150836906
300.149538544
300.142990991
300.13106067
300.113136155
300.083576627
300.057468663
300.03908755
300.029479486
300.025017292
300.024961981
300.032548732
300.058224493
300.131860028
300.30197607
300.645163424
301.334559805
303.4550184
308.576672481
309.278097093
300.166332896
300.162203127
300.152544031
300.137374652
300.115311008
300.082332137
300.050812267
300.035363171
300.030870804
300.030399219
300.0366359
300.056661621
300.107331324
300.225078464
300.463481213
300.891143995
301.621148838
303.362808335
308.689112335
310.03554681
300.180313983
300.173602454
300.161668598
300.144151037
300.118556275
300.080576151
300.049021076
300.039459552
300.040579177
300.051175531
300.079585959
300.141308892
300.259375796
300.474148559
300.849029284
301.436099647
302.254589626
303.92719735
309.099035428
310.875636819
300.192582282
300.183128767
300.168152198
300.147158627
300.116623409
300.078453275
300.052566189
300.052468385
300.069008518
300.108247159
300.188500421
300.332328624
300.568017271
300.933351317
301.488187929
302.297795532
303.207165046
304.99257283
309.266956351
310.92239338
300.203156301
300.18950953
300.169083139
300.142291016
300.107659974
300.07268682
300.058988779
300.078329456
300.120057877
300.195453108
300.330653213
300.549995575
300.897135543
301.416157272
302.092915585
302.981242728
303.927694487
305.606581888
309.396514622
310.822444593
300.212903816
300.193455572
300.166050171
300.133403284
300.096912383
300.06627146
300.066737843
300.10057852
300.163817299
300.263345111
300.427079194
300.699685826
301.137475177
301.774205991
302.577323426
303.596121629
304.545234558
306.070614418
309.997892965
311.326051344
300.224257291
300.199413561
300.166449449
300.129487093
300.091993846
300.06478844
300.067851993
300.10834181
300.19112275
300.33229393
300.570050812
300.975468633
301.650686696
302.685265038
304.078151821
305.136456397
305.612150778
306.766566412
311.281673645
312.196088345
300.240538163
300.213093022
300.178146261
300.139370293
300.09976426
300.068945344
300.064133679
300.096688022
300.182171572
300.351952299
300.669024729
301.246750847
302.264569526
303.858289155
305.644296757
306.434343345
307.099583663
308.194263541
314.888567007
315.036174036
300.263585856
300.236295795
300.202516891
300.163159631
300.120446238
300.084314807
300.063807566
300.071117429
300.118832741
300.222810508
300.413227872
300.762749615
301.497319468
302.99890711
305.07376243
306.849689502
308.471934757
310.743149133
319.814921113
319.79315997
)
;

boundaryField
{
    emptyPatch
    {
        type            empty;
    }
    minY
    {
        type            fixedValue;
        value           nonuniform List<scalar> 0();
    }
    maxY
    {
        type            inletOutlet;
        inletValue      uniform 373;
        value           nonuniform List<scalar> 
40
(
382.931679426
334.891460917
315.547904551
307.141017689
303.552713954
302.061569997
301.42212077
301.102584157
300.887694897
300.714702288
300.581873004
300.493901097
300.441321849
300.407826364
300.382287961
300.359619747
300.338550086
300.319277886
300.301485663
300.283919299
300.263586002
300.236295931
300.202517009
300.163159705
300.120446282
300.084314835
300.063807555
300.071117354
300.118832572
300.222810189
300.413227317
300.762748872
301.497319082
302.998906914
305.073762414
306.849689538
308.471934878
310.743149444
319.814926662
373
)
;
    }
    maxX
    {
        type            fixedValue;
        value           uniform 300;
    }
    water_to_heater
    {
        type            copiedFixedValue;
        sourceFieldName T.liquid;
        value           nonuniform List<scalar> 
59
(
790.454918361
790.435617771
790.397426212
790.320793089
790.254984194
790.274876476
790.25004735
790.282634667
790.280809726
790.319320725
790.32431324
790.378480449
790.37543106
790.449930209
790.470630857
790.540140253
790.568907057
790.627771121
790.647034416
790.724332579
790.731333678
790.774889654
790.77557552
790.814084565
790.8113787
790.844947643
790.841100804
790.871330798
790.868991741
790.897783588
790.884618266
790.904180666
790.875242987
790.884870994
790.863442536
790.853738379
790.845732886
790.850351777
790.846473629
790.848600083
790.846989878
790.840692828
790.840084584
790.823754608
790.824424984
790.801915698
790.802508718
790.761935771
790.762335256
790.69802992
790.698134109
790.607926937
790.607789494
790.482937211
790.483625133
790.348747872
790.351744455
790.270211314
790.272182672
)
;
    }
    procBoundary0to1
    {
        type            processor;
        value           nonuniform List<scalar> 
41
(
593.660772088
399.597384421
331.240703122
309.297498086
302.971925709
301.255284809
300.747660015
300.552733498
300.441847161
300.360483688
300.294511828
300.237881862
300.186668636
300.139480789
300.096924975
300.061256781
300.035049538
300.017937549
300.008294817
300.003393547
300.001605629
300.00164392
300.001705581
300.001773399
300.001828407
300.001840204
300.001815563
300.001864453
300.002092739
300.002561304
300.003203139
300.003774771
300.004279046
300.004650805
300.004820776
300.004134945
300.001962065
300.0017044
300.001646876
300.001659806
300.001659806
)
;
    }
}


// ************************************************************************* //
