/*--------------------------------*- C++ -*----------------------------------*\
| =========                 |                                                 |
| \\      /  F ield         | OpenFOAM: The Open Source CFD Toolbox           |
|  \\    /   O peration     | Version:  2312                                  |
|   \\  /    A nd           | Website:  www.openfoam.com                      |
|    \\/     M anipulation  |                                                 |
\*---------------------------------------------------------------------------*/
FoamFile
{
    version     2.0;
    format      ascii;
    arch        "LSB;label=32;scalar=64";
    class       volScalarField;
    location    "11";
    object      alpha.water;
}
// * * * * * * * * * * * * * * * * * * * * * * * * * * * * * * * * * * * * * //

dimensions      [0 0 0 0 0 0 0];

internalField   nonuniform List<scalar> 
1875
(
0.879695
0.884297
0.879695
0.87952
0.874177
0.849912
0.851411
0.849127
0.827564
0.801426
0.798232
0.790884
0.766136
0.768486
0.819762
0.87982
0.755642
0.730455
0.765367
0.764739
0.788548
0.82141
0.85199
0.869424
0.870053
0.885803
0.879695
0.877627
0.848001
0.818656
0.811312
0.816033
0.816475
0.803377
0.791374
0.795895
0.769294
0.716698
0.743716
0.832298
0.895206
0.884437
0.841455
0.752303
0.667869
0.709086
0.755832
0.769077
0.78004
0.850776
0.879695
0.884771
0.770833
0.635644
0.59537
0.612584
0.661862
0.73125
0.777378
0.778055
0.756868
0.710342
0.68886
0.714877
0.808785
0.901291
0.915568
0.882331
0.764655
0.636004
0.623746
0.670439
0.62882
0.640218
0.802291
0.885284
0.861992
0.67192
0.575469
0.585732
0.566432
0.585732
0.584018
0.637786
0.671342
0.663653
0.66199
0.660123
0.691685
0.818337
0.920035
0.926799
0.892925
0.767655
0.633427
0.634817
0.622484
0.634787
0.627897
0.795208
0.875798
0.851905
0.699751
0.585732
0.564194
0.585732
0.564307
0.585732
0.567137
0.585732
0.578722
0.615923
0.659403
0.735089
0.875266
0.928366
0.932803
0.898999
0.776849
0.63962
0.628603
0.634817
0.623026
0.634817
0.800674
0.867998
0.865287
0.77926
0.581754
0.585732
0.566498
0.585732
0.570806
0.585732
0.578654
0.585732
0.645793
0.719113
0.830686
0.915091
0.937686
0.938132
0.908057
0.811987
0.678735
0.634876
0.628481
0.634817
0.674633
0.824499
0.865296
0.86934
0.844017
0.654237
0.580913
0.585732
0.582418
0.585732
0.609317
0.630774
0.682239
0.75729
0.840325
0.911122
0.937686
0.939391
0.937686
0.92016
0.861503
0.760856
0.677608
0.634876
0.641421
0.738427
0.831499
0.86867
0.865296
0.866875
0.742162
0.620151
0.600843
0.641428
0.678015
0.715636
0.758065
0.815103
0.872204
0.918315
0.937686
0.939393
0.937686
0.939479
0.933839
0.90552
0.847195
0.762383
0.652458
0.658875
0.791233
0.834652
0.865296
0.871034
0.865296
0.849803
0.649766
0.630002
0.730966
0.783096
0.821473
0.857672
0.893846
0.923854
0.937686
0.938775
0.937686
0.940778
0.937686
0.937731
0.926376
0.871183
0.754075
0.666653
0.712094
0.832595
0.831499
0.869179
0.865296
0.870336
0.865045
0.719324
0.650402
0.748693
0.838901
0.875732
0.909112
0.927421
0.936202
0.938013
0.937686
0.940241
0.937686
0.939908
0.937686
0.920547
0.829796
0.719906
0.698903
0.793432
0.831499
0.836935
0.865045
0.871239
0.865045
0.867152
0.792008
0.672792
0.727688
0.845897
0.893965
0.919968
0.932823
0.937391
0.937686
0.939383
0.937686
0.940914
0.937672
0.938172
0.916848
0.786418
0.720396
0.753787
0.831499
0.837741
0.831499
0.868549
0.865045
0.868114
0.86098
0.837753
0.699451
0.715905
0.83356
0.910981
0.927326
0.934807
0.937686
0.939019
0.937686
0.941112
0.937686
0.939741
0.937339
0.902916
0.763792
0.719733
0.786614
0.819386
0.831499
0.83811
0.865045
0.852916
0.833571
0.834088
0.825648
0.730042
0.715936
0.799104
0.907053
0.931202
0.937686
0.938939
0.937686
0.941112
0.937686
0.93543
0.917188
0.899186
0.838713
0.733653
0.70046
0.745634
0.71944
0.770316
0.831499
0.867261
0.826353
0.79178
0.777985
0.803424
0.771648
0.719157
0.746092
0.855909
0.921298
0.934162
0.933959
0.929248
0.929969
0.926976
0.897567
0.861493
0.825948
0.777404
0.707997
0.688093
0.697669
0.688202
0.698596
0.836953
0.858809
0.818668
0.767807
0.737992
0.787416
0.788619
0.743822
0.74409
0.770959
0.840738
0.891062
0.89394
0.908954
0.923023
0.915382
0.904568
0.883042
0.845473
0.782653
0.70691
0.697669
0.688544
0.697669
0.702878
0.831499
0.856956
0.818337
0.761236
0.724367
0.76149
0.788688
0.781981
0.758465
0.760795
0.779899
0.821375
0.843379
0.862978
0.894954
0.92584
0.926765
0.922933
0.890552
0.817107
0.73267
0.703792
0.697669
0.695878
0.755905
0.829968
0.856941
0.819154
0.764291
0.720904
0.723247
0.761504
0.779372
0.775831
0.768565
0.760891
0.771451
0.787918
0.802128
0.85021
0.917791
0.926091
0.926368
0.918681
0.88472
0.790669
0.733784
0.700828
0.712397
0.795475
0.827952
0.856988
0.818906
0.778563
0.720817
0.710837
0.714274
0.73956
0.75356
0.754633
0.740142
0.711319
0.714604
0.72637
0.785938
0.894883
0.926778
0.926091
0.919383
0.902644
0.820358
0.726061
0.711124
0.748328
0.819451
0.828992
0.856234
0.813567
0.795577
0.724228
0.708873
0.707297
0.709246
0.714265
0.715435
0.701727
0.699061
0.700242
0.699061
0.733773
0.85261
0.923617
0.918989
0.913053
0.882537
0.792716
0.725732
0.725785
0.770737
0.809648
0.828143
0.853907
0.80668
0.806544
0.731008
0.708387
0.707237
0.712208
0.717551
0.717628
0.708296
0.70236
0.699909
0.700242
0.707622
0.788425
0.879035
0.889812
0.902456
0.84803
0.762572
0.725798
0.737316
0.763402
0.794499
0.828539
0.853224
0.8019
0.809702
0.74019
0.708573
0.714736
0.728414
0.737211
0.740372
0.740289
0.725062
0.711946
0.703531
0.705041
0.738596
0.807373
0.847987
0.8851
0.823889
0.75066
0.727019
0.740547
0.752302
0.80735
0.828202
0.853097
0.799478
0.810379
0.76107
0.727688
0.753124
0.774064
0.778714
0.76548
0.751936
0.738593
0.728142
0.707843
0.709588
0.720379
0.752321
0.805076
0.86934
0.813308
0.744818
0.72887
0.743422
0.764873
0.825483
0.828415
0.852935
0.797131
0.814792
0.796876
0.784932
0.816819
0.82673
0.816246
0.775533
0.727281
0.703642
0.706173
0.706285
0.70786
0.718703
0.73469
0.780328
0.855728
0.800534
0.743494
0.734792
0.752438
0.795268
0.828482
0.828286
0.852854
0.793434
0.817364
0.83231
0.83794
0.855202
0.856427
0.827172
0.744767
0.704106
0.706173
0.703821
0.706173
0.708411
0.720448
0.737417
0.782339
0.836795
0.783766
0.740565
0.74253
0.768096
0.809364
0.826537
0.828922
0.852714
0.790696
0.801021
0.844074
0.855202
0.857745
0.852213
0.798859
0.744723
0.708881
0.70565
0.706173
0.705349
0.713851
0.726204
0.740086
0.785633
0.811444
0.76256
0.739831
0.75903
0.786257
0.808173
0.808092
0.828286
0.85173
0.789862
0.784093
0.829333
0.857542
0.855202
0.827072
0.783546
0.772828
0.741862
0.708186
0.706488
0.706187
0.710089
0.715614
0.739917
0.777838
0.784507
0.740021
0.716258
0.732697
0.782316
0.790109
0.795591
0.829067
0.847547
0.790031
0.783739
0.800212
0.855202
0.85716
0.817695
0.785326
0.776601
0.772392
0.745862
0.721935
0.712739
0.710618
0.713937
0.727861
0.749664
0.753722
0.71404
0.680838
0.679811
0.726869
0.764866
0.793564
0.828192
0.844531
0.789272
0.783745
0.79094
0.835059
0.855202
0.818487
0.786304
0.785736
0.787745
0.7827
0.759631
0.742658
0.732409
0.73119
0.73719
0.747942
0.738504
0.690707
0.679811
0.680885
0.679984
0.751336
0.797496
0.829182
0.844097
0.788816
0.786692
0.794715
0.811643
0.8566
0.827365
0.788557
0.781147
0.786357
0.811499
0.815337
0.810524
0.793197
0.785352
0.780793
0.768801
0.747072
0.707618
0.682472
0.679984
0.700654
0.76818
0.800477
0.826129
0.845448
0.79134
0.788115
0.793372
0.804912
0.830006
0.826403
0.800497
0.780997
0.771908
0.794743
0.814805
0.821287
0.842379
0.855103
0.854898
0.826946
0.774372
0.711227
0.687405
0.695364
0.740118
0.791378
0.79907
0.824631
0.847723
0.795809
0.788415
0.789317
0.792924
0.792079
0.809561
0.797238
0.779499
0.770143
0.778139
0.798094
0.812789
0.831544
0.855634
0.855501
0.821071
0.750624
0.703431
0.696541
0.735438
0.789794
0.798933
0.802191
0.826412
0.84911
0.802554
0.805055
0.795928
0.783996
0.783592
0.784867
0.787895
0.776081
0.770186
0.771761
0.786366
0.805363
0.835723
0.849515
0.828754
0.755932
0.711768
0.703079
0.721782
0.780397
0.804007
0.800462
0.809407
0.826325
0.849382
0.803089
0.816974
0.80424
0.785881
0.783661
0.784497
0.78545
0.778326
0.775747
0.780524
0.793518
0.808393
0.819586
0.80908
0.764341
0.73004
0.717637
0.716098
0.757538
0.799015
0.803978
0.797207
0.810354
0.825144
0.84911
0.78846
0.816507
0.815973
0.794161
0.789588
0.790707
0.790487
0.788823
0.788819
0.789356
0.791816
0.79527
0.791417
0.777996
0.7612
0.745772
0.742529
0.756755
0.792107
0.806712
0.803887
0.792112
0.804698
0.823061
0.849422
0.784725
0.817307
0.816507
0.811055
0.805086
0.803824
0.804536
0.80322
0.798521
0.794892
0.791392
0.788855
0.786501
0.782564
0.779078
0.78198
0.788639
0.802924
0.814006
0.809393
0.800997
0.792072
0.800915
0.823568
0.84911
0.784221
0.809643
0.817022
0.816507
0.816767
0.816507
0.815475
0.802299
0.793687
0.791576
0.794675
0.798787
0.802012
0.807154
0.814393
0.820348
0.824367
0.82536
0.824295
0.814263
0.803144
0.793595
0.801162
0.825456
0.84072
0.783911
0.759916
0.816507
0.81712
0.816507
0.817428
0.816507
0.806418
0.794002
0.789837
0.78942
0.794293
0.800616
0.807096
0.811923
0.815427
0.822717
0.825333
0.823131
0.816094
0.807616
0.796995
0.801104
0.827305
0.834304
0.789517
0.755538
0.79687
0.816507
0.817693
0.816507
0.816981
0.81355
0.801055
0.788311
0.772405
0.768853
0.768633
0.776565
0.803992
0.8144
0.818399
0.820924
0.819251
0.818825
0.820611
0.806463
0.804021
0.828049
0.832407
0.8033
0.755846
0.76294
0.795084
0.816484
0.818013
0.816507
0.816788
0.81261
0.800268
0.783181
0.771634
0.767773
0.767845
0.768355
0.779794
0.797059
0.815122
0.828882
0.837151
0.837147
0.822188
0.807072
0.827934
0.832805
0.816441
0.754969
0.746152
0.762104
0.796388
0.816507
0.818144
0.816507
0.816214
0.81237
0.802851
0.789265
0.777844
0.769885
0.768873
0.771723
0.787822
0.810931
0.819714
0.823505
0.835492
0.832066
0.812754
0.828272
0.834864
0.826446
0.756871
0.743822
0.752413
0.769357
0.794119
0.80933
0.816364
0.816288
0.816322
0.810581
0.798128
0.785106
0.769699
0.769238
0.773343
0.789597
0.805451
0.800229
0.79939
0.82106
0.829819
0.812454
0.827934
0.837607
0.837138
0.759953
0.743683
0.749938
0.760959
0.766799
0.78112
0.803189
0.814978
0.81222
0.803126
0.789917
0.778374
0.769352
0.769186
0.773498
0.789266
0.79253
0.783096
0.780606
0.803828
0.824165
0.810267
0.828884
0.838579
0.843118
0.776358
0.743899
0.745486
0.757117
0.762759
0.771345
0.792285
0.802828
0.793253
0.784475
0.777505
0.773434
0.769465
0.770263
0.776665
0.785877
0.782833
0.777812
0.778306
0.796824
0.817053
0.805513
0.827934
0.837605
0.843017
0.806996
0.748429
0.744454
0.757851
0.765678
0.770259
0.78075
0.781721
0.776904
0.777452
0.77755
0.77546
0.773376
0.776476
0.783582
0.783819
0.777545
0.776222
0.779717
0.8006
0.813354
0.79693
0.829148
0.830592
0.836203
0.819483
0.757514
0.74512
0.760558
0.770429
0.770161
0.770096
0.771315
0.775766
0.778891
0.780423
0.780538
0.781158
0.784421
0.784714
0.780566
0.771507
0.77158
0.779432
0.806969
0.814042
0.795171
0.827934
0.821826
0.803687
0.815178
0.76805
0.74469
0.76326
0.774294
0.770494
0.76985
0.77161
0.777366
0.781874
0.785264
0.787096
0.788913
0.788943
0.785263
0.775938
0.770819
0.77073
0.782081
0.81402
0.817907
0.795332
0.829364
0.817254
0.773592
0.810521
0.783031
0.74512
0.764988
0.775803
0.77215
0.769903
0.774232
0.781676
0.788479
0.79259
0.793821
0.793031
0.788531
0.781242
0.771786
0.770773
0.77197
0.78907
0.823066
0.825175
0.795656
0.827934
0.814673
0.767528
0.789922
0.791458
0.753805
0.766631
0.776369
0.775111
0.772867
0.78165
0.792124
0.799149
0.800625
0.800399
0.792324
0.783489
0.774471
0.770985
0.770941
0.776864
0.79937
0.828894
0.825541
0.7955
0.829935
0.815835
0.76751
0.763889
0.794657
0.780085
0.767126
0.775803
0.776203
0.775765
0.786436
0.79719
0.800128
0.800625
0.79673
0.789507
0.784132
0.779153
0.776402
0.7755
0.784098
0.808753
0.829091
0.811753
0.796219
0.827934
0.821224
0.772663
0.763386
0.794301
0.793509
0.773357
0.77638
0.775803
0.774432
0.783143
0.791344
0.791389
0.789265
0.790419
0.79475
0.797113
0.796528
0.791619
0.789225
0.797193
0.820772
0.828593
0.790892
0.800077
0.830226
0.823554
0.776514
0.764508
0.781668
0.77966
0.770099
0.765745
0.773799
0.770661
0.773239
0.777357
0.771665
0.752368
0.782148
0.805036
0.815623
0.820345
0.819103
0.812559
0.81451
0.825335
0.821417
0.789264
0.815377
0.827934
0.823548
0.772174
0.781825
0.774601
0.763685
0.754639
0.754753
0.763987
0.764705
0.765464
0.764873
0.751388
0.735034
0.742262
0.799683
0.813457
0.821244
0.830675
0.831937
0.830486
0.825214
0.806736
0.788948
0.825449
0.830592
0.823663
0.757039
0.792847
0.802808
0.790551
0.760624
0.756723
0.756675
0.755531
0.754866
0.752361
0.737298
0.73759
0.735034
0.751056
0.802501
0.822058
0.833137
0.83285
0.833148
0.822198
0.790102
0.787137
0.822323
0.827934
0.821512
0.756188
0.788578
0.818865
0.819023
0.787522
0.769096
0.760032
0.756004
0.750453
0.744173
0.73759
0.735973
0.73759
0.735034
0.769256
0.824037
0.83285
0.833919
0.83285
0.815645
0.770259
0.786816
0.815443
0.830589
0.813887
0.756612
0.778115
0.811884
0.818865
0.81641
0.793775
0.771885
0.761435
0.754107
0.746494
0.738352
0.73759
0.736635
0.73759
0.738991
0.798208
0.835358
0.83285
0.834883
0.808541
0.756956
0.790738
0.804663
0.827934
0.812321
0.7766
0.791497
0.802175
0.8035
0.791646
0.786072
0.781006
0.767012
0.754394
0.747205
0.740383
0.73909
0.737938
0.739421
0.746721
0.780195
0.832743
0.835838
0.83285
0.793284
0.753174
0.788788
0.788567
0.830591
0.816281
0.806962
0.821156
0.810839
0.783961
0.764242
0.764049
0.767943
0.756737
0.746881
0.745097
0.744093
0.745656
0.748338
0.751585
0.759395
0.781593
0.825571
0.83285
0.823486
0.75624
0.743954
0.767584
0.770451
0.827934
0.825386
0.825805
0.825278
0.803694
0.777074
0.76666
0.763779
0.758915
0.753526
0.750472
0.752278
0.756177
0.759507
0.760705
0.75808
0.765122
0.787325
0.816216
0.821944
0.78173
0.739682
0.739795
0.739622
0.759697
0.829532
0.825982
0.825488
0.825904
0.806845
0.781382
0.772309
0.766838
0.762518
0.760448
0.760653
0.761566
0.762127
0.761773
0.761515
0.763108
0.77199
0.78433
0.79255
0.781285
0.749313
0.739823
0.739682
0.739795
0.761863
0.827934
0.825488
0.827296
0.825488
0.812226
0.785894
0.777199
0.772935
0.769035
0.765596
0.763932
0.763277
0.762565
0.762316
0.764408
0.770042
0.777361
0.78367
0.785906
0.778186
0.758745
0.74633
0.739823
0.740852
0.765332
0.828867
0.827284
0.825488
0.827171
0.813105
0.788781
0.78056
0.778131
0.775624
0.770625
0.766565
0.765233
0.764998
0.768023
0.775078
0.783493
0.791861
0.800212
0.805475
0.801092
0.782794
0.756945
0.744035
0.750568
0.77291
0.827934
0.825488
0.815109
0.825488
0.80892
0.786704
0.777685
0.775472
0.775374
0.773112
0.769241
0.768123
0.768339
0.774411
0.783949
0.795584
0.80644
0.816642
0.819695
0.818914
0.795647
0.744162
0.744422
0.751695
0.781402
0.829565
0.825638
0.790412
0.827379
0.807371
0.783808
0.771563
0.761974
0.770326
0.772726
0.772299
0.77068
0.767203
0.76681
0.770825
0.772586
0.762661
0.788088
0.815272
0.819797
0.806411
0.753341
0.744701
0.755987
0.785769
0.827934
0.81917
0.7892
0.798133
0.781682
0.769133
0.759045
0.751287
0.751314
0.761757
0.76749
0.769051
0.767022
0.764073
0.754156
0.734892
0.734338
0.735757
0.812205
0.818914
0.820053
0.787191
0.748292
0.752053
0.773486
0.829565
0.814807
0.789488
0.774571
0.772033
0.771704
0.761398
0.751324
0.750884
0.751027
0.753344
0.758417
0.766479
0.76663
0.763777
0.750231
0.742206
0.746209
0.783772
0.821275
0.818914
0.819494
0.762072
0.753065
0.767331
0.827934
0.814499
0.793578
0.781117
0.779378
0.774219
0.760482
0.752913
0.752775
0.752852
0.755311
0.758205
0.763089
0.766632
0.766616
0.765765
0.760336
0.753924
0.760093
0.814805
0.821275
0.81242
0.764738
0.757085
0.773188
0.829598
0.758089
0.792347
0.775492
0.718019
0.74118
0.729342
0.725564
0.7221
0.718411
0.712988
0.709709
0.702474
0.698975
0.691217
0.680198
0.672019
0.670302
0.679528
0.727454
0.78465
0.736864
0.720468
0.718227
0.733096
0.7739
0.226203
0.379079
0.299717
0.158419
0.222291
0.286748
0.319841
0.313084
0.31001
0.289547
0.270723
0.245896
0.235638
0.241115
0.243357
0.246176
0.243999
0.255902
0.226418
0.215484
0.241147
0.277839
0.275884
0.250275
0.224377
0.00603621
0.00202466
0.00147539
0.0037754
0.00652914
0.00911034
0.0102577
0.0103918
0.0106794
0.0101094
0.010023
0.0104899
0.0117071
0.0135588
0.0146176
0.0150535
0.0137225
0.0124516
0.0101547
0.00848649
0.00892498
0.00986948
0.00988135
0.0102323
0.00854768
5.61428e-05
3.54318e-05
1.85254e-05
1.83338e-05
2.3666e-05
1.82058e-05
1.2476e-05
7.58969e-06
5.25653e-06
5.7096e-06
4.18246e-06
1.26788e-05
1.77121e-05
3.44636e-05
6.17907e-05
8.39945e-05
8.43693e-05
8.28912e-05
8.34541e-05
8.85021e-05
9.61818e-05
0.00010299
0.000120858
0.000198839
0.000154165
5.07389e-06
3.91277e-07
1.10247e-07
3.67251e-08
1.60867e-08
6.51832e-09
1.52497e-09
9.30107e-11
1.55431e-15
0
0
0
0
0
0
7.30527e-14
1.0141e-10
4.34038e-08
1.29243e-07
2.65097e-07
4.01376e-07
5.44044e-07
8.24089e-07
2.3148e-06
1.02871e-05
3.31805e-06
4.80612e-09
2.96273e-10
3.37039e-11
3.6593e-12
6.81233e-13
8.31557e-14
0
0
0
0
0
0
0
0
0
8.43769e-15
2.34063e-11
1.0348e-09
5.79029e-09
1.08394e-08
1.4756e-08
1.94955e-08
3.95163e-08
2.11924e-06
3.34621e-06
5.16575e-10
2.49345e-12
1.29308e-12
1.0103e-12
2.0639e-13
3.9968e-15
0
0
0
0
0
0
0
0
0
2.44249e-15
1.30467e-11
1.39691e-09
1.17668e-08
2.04165e-08
1.98787e-08
1.95177e-08
2.16895e-08
1.0918e-06
3.4589e-06
5.67667e-10
2.52098e-12
1.64546e-12
1.47271e-12
1.67422e-13
3.33067e-16
0
0
0
0
0
0
0
0
0
0
2.64233e-14
2.99653e-10
1.50764e-08
3.15608e-08
3.01487e-08
2.25624e-08
2.29686e-08
9.11759e-07
3.63871e-06
6.85119e-10
2.79454e-12
1.95033e-12
1.67988e-12
1.11022e-14
0
0
0
0
0
0
0
0
0
0
0
0
2.2997e-11
1.54232e-08
3.4513e-08
3.57806e-08
2.76905e-08
2.64546e-08
9.18442e-07
)
;

boundaryField
{
    inlet
    {
        type            calculated;
        value           uniform 0.5;
    }
    outlet
    {
        type            calculated;
        value           nonuniform List<scalar> 
25
(
3.63871e-06
6.85119e-10
2.79454e-12
1.95033e-12
1.67988e-12
0
0
0
0
0
0
0
0
0
0
0
0
0
0
1.54232e-08
3.4513e-08
3.57806e-08
2.76905e-08
2.64546e-08
9.18442e-07
)
;
    }
    walls
    {
        type            calculated;
        value           nonuniform List<scalar> 
150
(
0.879695
0.885803
0.879695
0.885284
0.875798
0.867998
0.865296
0.86867
0.865296
0.869179
0.865045
0.868549
0.865045
0.867261
0.858809
0.856956
0.856941
0.856988
0.856234
0.853907
0.853224
0.853097
0.852935
0.852854
0.852714
0.85173
0.847547
0.844531
0.844097
0.845448
0.847723
0.84911
0.849382
0.84911
0.849422
0.84911
0.84072
0.834304
0.832407
0.832805
0.834864
0.837607
0.838579
0.837605
0.830592
0.821826
0.817254
0.814673
0.815835
0.821224
0.823554
0.823548
0.823663
0.821512
0.813887
0.812321
0.816281
0.825386
0.825982
0.825488
0.827284
0.825488
0.825638
0.81917
0.814807
0.814499
0.758089
0.226203
0.00603621
5.61428e-05
5.07389e-06
3.31805e-06
3.34621e-06
3.4589e-06
3.63871e-06
0.870053
0.850776
0.802291
0.795208
0.800674
0.824499
0.831499
0.834652
0.831499
0.836935
0.831499
0.83811
0.831499
0.836953
0.831499
0.829968
0.827952
0.828992
0.828143
0.828539
0.828202
0.828415
0.828286
0.828922
0.828286
0.829067
0.828192
0.829182
0.826129
0.824631
0.826412
0.826325
0.825144
0.823061
0.823568
0.825456
0.827305
0.828049
0.827934
0.828272
0.827934
0.828884
0.827934
0.829148
0.827934
0.829364
0.827934
0.829935
0.827934
0.830226
0.827934
0.830592
0.827934
0.830589
0.827934
0.830591
0.827934
0.829532
0.827934
0.828867
0.827934
0.829565
0.827934
0.829565
0.827934
0.829598
0.7739
0.224377
0.00854768
0.000154165
1.02871e-05
2.11924e-06
1.0918e-06
9.11759e-07
9.18442e-07
)
;
    }
    defaultFaces
    {
        type            empty;
    }
}


// ************************************************************************* //
