/*--------------------------------*- C++ -*----------------------------------*\
| =========                 |                                                 |
| \\      /  F ield         | OpenFOAM: The Open Source CFD Toolbox           |
|  \\    /   O peration     | Version:  2312                                  |
|   \\  /    A nd           | Website:  www.openfoam.com                      |
|    \\/     M anipulation  |                                                 |
\*---------------------------------------------------------------------------*/
FoamFile
{
    version     2.0;
    format      ascii;
    arch        "LSB;label=32;scalar=64";
    class       volScalarField;
    location    "0.21/water";
    object      d.gas;
}
// * * * * * * * * * * * * * * * * * * * * * * * * * * * * * * * * * * * * * //

dimensions      [0 1 0 0 0 0 0];

internalField   nonuniform List<scalar> 
6000
(
0.00497224998728
0.00497231290806
0.00497233024738
0.00497234372705
0.00497235539431
0.00497236595709
0.00497237576433
0.00497238481543
0.00497239304319
0.0049724004777
0.00497240715188
0.00497241311674
0.00497241844679
0.00497242321283
0.00497242747278
0.00497243127279
0.00497243464837
0.00497243762449
0.00497244021552
0.00497244242705
0.00497256167198
0.00497259231675
0.00497259015832
0.00497259073232
0.00497259630471
0.00497260156108
0.00497260667651
0.00497261173008
0.00497261683749
0.00497262190023
0.00497262670559
0.0049726311715
0.00497263533088
0.00497263922054
0.00497264285105
0.00497264621529
0.00497264929846
0.004972652083
0.00497265454935
0.00497265667701
0.00497284222604
0.00497287322593
0.00497286058823
0.00497285127418
0.00497284933691
0.0049728481952
0.00497284774925
0.00497284815124
0.00497284931095
0.00497285109523
0.0049728532909
0.00497285564689
0.0049728580247
0.00497286039483
0.00497286275159
0.00497286507636
0.00497286733563
0.00497286948684
0.00497287148321
0.0049728732799
0.0049730788922
0.00497309984311
0.00497308625202
0.00497308014959
0.00497308066987
0.00497308060169
0.00497307989152
0.00497307925892
0.00497307902045
0.00497307925175
0.00497307993544
0.00497308094619
0.00497308213425
0.00497308342023
0.00497308478297
0.00497308621335
0.00497308769272
0.00497308918968
0.00497309066301
0.0049730920697
0.00497331552483
0.0049733288396
0.00497331051691
0.00497330365097
0.00497330442955
0.00497330515535
0.00497330489512
0.00497330425547
0.00497330377519
0.00497330362134
0.00497330382262
0.00497330433679
0.00497330505857
0.0049733058976
0.00497330681717
0.00497330780993
0.00497330887095
0.00497330998641
0.00497331113203
0.00497331227973
0.00497353491106
0.00497354848366
0.00497353045781
0.00497352300233
0.00497352295562
0.00497352413285
0.00497352478771
0.00497352475862
0.00497352455922
0.00497352456575
0.00497352486823
0.0049735254561
0.00497352624573
0.00497352714059
0.00497352808796
0.0049735290731
0.00497353009415
0.00497353114686
0.0049735322197
0.00497353329829
0.00497374722508
0.00497376538668
0.00497374976975
0.0049737421933
0.00497374056971
0.00497374077429
0.00497374151758
0.00497374208614
0.00497374243938
0.00497374294292
0.0049737437476
0.00497374482766
0.00497374609004
0.00497374742161
0.00497374875048
0.00497375005052
0.00497375131711
0.00497375254983
0.00497375374549
0.00497375490147
0.00497394864386
0.00497397351311
0.00497396404567
0.00497395837112
0.00497395702116
0.00497395648269
0.00497395665001
0.00497395739728
0.00497395843584
0.00497395980095
0.00497396154834
0.00497396354362
0.00497396563473
0.00497396769052
0.00497396963002
0.00497397142464
0.00497397307311
0.00497397458326
0.00497397596428
0.00497397722843
0.00497415468555
0.00497418397085
0.00497417482107
0.00497417141988
0.00497417181657
0.00497417183738
0.00497417208664
0.00497417306573
0.00497417485671
0.00497417735261
0.00497418042649
0.00497418368622
0.00497418680664
0.00497418965273
0.00497419218145
0.00497419439364
0.00497419631161
0.00497419796719
0.0049741993924
0.00497420061914
0.00497437008571
0.00497440691919
0.00497439929414
0.00497439620991
0.00497439657312
0.00497439630574
0.00497439607151
0.00497439683506
0.00497439872937
0.00497440156768
0.00497440521792
0.00497440916989
0.00497441277317
0.00497441582042
0.00497441834798
0.00497442041876
0.00497442209575
0.00497442344023
0.00497442450845
0.00497442535399
0.00497461391549
0.00497465919706
0.00497465103269
0.00497464546734
0.00497464344998
0.00497464123279
0.00497463938114
0.00497463853074
0.00497463863448
0.00497463965443
0.00497464160325
0.00497464419748
0.00497464657396
0.00497464832652
0.00497464955141
0.00497465038218
0.00497465090774
0.00497465119706
0.00497465131109
0.00497465130523
0.0049748943162
0.0049749410363
0.00497492799152
0.0049749183046
0.00497491308586
0.00497490842321
0.00497490424143
0.00497490038621
0.004974896776
0.00497489357299
0.00497489102684
0.00497488934856
0.00497488803214
0.00497488652334
0.00497488486497
0.00497488321807
0.004974881649
0.00497488017924
0.00497487882545
0.004974877605
0.00497519435788
0.00497522894909
0.00497520973247
0.00497519668607
0.00497518878583
0.00497518163535
0.00497517440827
0.00497516687235
0.0049751590535
0.00497515123239
0.00497514375489
0.00497513673829
0.00497513043176
0.00497512472493
0.00497511956877
0.00497511504818
0.00497511116382
0.00497510784538
0.00497510502663
0.00497510265818
0.00497544174201
0.00497545734695
0.00497543579066
0.00497542655103
0.00497542185586
0.00497541682104
0.00497541064539
0.0049754034536
0.00497539546132
0.0049753871814
0.00497537900004
0.00497537062275
0.00497536198141
0.004975353863
0.00497534669145
0.00497534055328
0.00497533540135
0.00497533112287
0.00497532760015
0.00497532473826
0.00497564141426
0.00497565116811
0.00497562713897
0.00497561811652
0.00497561467045
0.00497561124328
0.00497560707714
0.00497560248434
0.00497559765966
0.00497559257518
0.00497558742101
0.00497558204655
0.00497557557153
0.00497556846673
0.00497556196442
0.00497555646152
0.00497555189891
0.00497554817904
0.00497554520525
0.00497554288868
0.00497579131657
0.00497580465317
0.0049757874807
0.00497578297465
0.00497578345784
0.00497578380374
0.00497578356057
0.00497578311145
0.00497578229173
0.00497578099617
0.00497577916661
0.00497577688697
0.00497577393177
0.00497576999834
0.00497576623006
0.00497576327463
0.00497576102417
0.00497575933281
0.0049757581498
0.00497575742334
0.00497596764573
0.00497598647042
0.00497596814135
0.00497596123931
0.0049759605315
0.00497596060747
0.00497596068662
0.00497596139509
0.00497596321733
0.00497596517725
0.00497596549082
0.00497596448577
0.00497596351349
0.00497596292291
0.0049759629262
0.00497596381025
0.00497596513561
0.00497596659331
0.00497596815367
0.00497596981593
0.00497610820212
0.0049761370925
0.00497613075687
0.0049761282147
0.00497612999669
0.00497613200579
0.00497613422324
0.00497613795978
0.00497614369018
0.00497614871519
0.00497615096086
0.00497615073823
0.00497615066464
0.00497615278085
0.00497615682099
0.00497616227703
0.00497616793722
0.00497617318664
0.00497617799529
0.00497618242776
0.00497630265205
0.00497633369439
0.00497631780012
0.00497631174969
0.004976311999
0.00497631354858
0.00497631703792
0.00497632468776
0.00497633420071
0.00497634093975
0.0049763442576
0.00497634438406
0.00497634445822
0.00497634801532
0.00497635530095
0.00497636491226
0.00497637466825
0.00497638346673
0.00497639127686
0.00497639821661
0.00497648599679
0.00497652051037
0.00497650510106
0.00497650158759
0.0049765050982
0.00497651049955
0.00497651984155
0.00497653279354
0.00497654225883
0.00497654880939
0.0049765531947
0.00497655409069
0.00497655367301
0.00497655722147
0.00497656626198
0.00497657857245
0.00497659099487
0.00497660201887
0.00497661166981
0.00497662010097
0.00497670871196
0.00497674841517
0.00497672943761
0.0049767251855
0.00497673015065
0.00497673874263
0.00497675186352
0.00497676371189
0.00497677132301
0.0049767780716
0.0049767852561
0.00497678651382
0.00497678463807
0.00497678688926
0.00497679557058
0.00497680825595
0.00497682108442
0.00497683221322
0.0049768418077
0.00497685009907
0.004976941538
0.00497698528777
0.00497697075172
0.00497696973098
0.00497697825335
0.0049769897258
0.00497700303811
0.00497701383905
0.00497702348591
0.00497703803304
0.00497704707229
0.00497704461256
0.00497704127401
0.00497704127102
0.00497704648716
0.00497705607365
0.00497706637664
0.00497707509673
0.00497708239102
0.00497708862376
0.00497719046856
0.00497724302782
0.00497723802603
0.00497723990241
0.00497724908067
0.0049772605082
0.00497727411269
0.00497729008651
0.00497730983709
0.00497732346438
0.0049773226014
0.00497731930406
0.00497731715122
0.00497731547706
0.00497731583697
0.00497731914889
0.00497732423484
0.0049773284549
0.0049773315864
0.00497733410997
0.00497747705836
0.00497753211801
0.00497752756002
0.00497753095254
0.00497754168417
0.00497755561557
0.00497757393842
0.00497759325413
0.0049776034685
0.00497760251908
0.00497759984767
0.00497759879412
0.0049775973463
0.00497759569892
0.00497759340408
0.00497759033183
0.00497758877868
0.00497758747537
0.00497758553444
0.00497758343603
0.00497780877859
0.0049778733849
0.00497786846553
0.00497787083102
0.00497787814053
0.00497788618811
0.00497789450118
0.00497789666444
0.00497789162878
0.00497788542875
0.00497788080372
0.00497787738405
0.0049778746023
0.00497787171947
0.00497786749161
0.00497786152838
0.00497785396117
0.0049778470142
0.00497783989018
0.00497783298598
0.00497820926539
0.00497827345778
0.00497825765858
0.00497824809811
0.00497824078383
0.00497823105871
0.00497821989659
0.00497820551001
0.00497818990097
0.00497817568591
0.00497816403648
0.00497815500898
0.00497814761343
0.00497814025583
0.00497813340681
0.00497812607434
0.00497811504472
0.00497810286493
0.00497809081412
0.0049780793749
0.00497857380837
0.00497862145762
0.00497859684435
0.00497858205142
0.00497856963363
0.00497855230974
0.0049785307392
0.00497850678879
0.00497848256388
0.00497846010441
0.00497844146273
0.00497842597935
0.0049784125489
0.00497840019104
0.00497838848477
0.0049783783395
0.0049783665327
0.00497835080718
0.00497833466681
0.00497831941963
0.0049788448147
0.00497886934047
0.00497885011164
0.00497884001206
0.00497883203496
0.00497881879446
0.004978798378
0.00497877358293
0.00497874721831
0.00497872193666
0.00497869996517
0.00497867979887
0.00497866092737
0.00497864406311
0.00497862864192
0.0049786159435
0.00497860367071
0.00497858670159
0.00497856803674
0.00497855023746
0.00497906315026
0.00497906450234
0.00497904402029
0.00497903687541
0.00497903309538
0.00497902614261
0.00497901199478
0.00497899204032
0.00497896934044
0.004978946971
0.00497892648811
0.00497890584117
0.00497888547274
0.00497886690536
0.00497885080723
0.00497883676624
0.00497882377037
0.00497880749486
0.00497878833652
0.00497876969317
0.00497923504684
0.0049792259086
0.00497920480506
0.00497919857846
0.00497919665861
0.00497919335221
0.00497918428783
0.00497916967868
0.00497915234468
0.00497913547973
0.00497911931002
0.00497910173549
0.00497908408046
0.00497906774094
0.00497905368897
0.00497904037613
0.0049790273075
0.00497901260626
0.00497899471106
0.00497897691765
0.00497937975313
0.00497936841574
0.00497934762199
0.00497934125283
0.00497933966459
0.00497933765398
0.00497933140866
0.00497932072691
0.00497930803745
0.00497929699636
0.00497928620559
0.00497927315238
0.00497926030418
0.00497924877852
0.00497923876557
0.00497922826952
0.00497921597507
0.00497920290581
0.00497918749169
0.00497917202275
0.00497950285036
0.00497949260102
0.00497947451352
0.00497946845346
0.00497946681906
0.00497946542515
0.00497946095942
0.00497945284291
0.00497944426077
0.00497943928401
0.00497943336315
0.00497942560146
0.00497941833266
0.00497941265539
0.00497940870797
0.00497940250767
0.00497939104902
0.00497937946266
0.0049793675085
0.00497935570958
0.00497960298508
0.00497959576392
0.00497958324383
0.00497957889297
0.00497957798084
0.00497957750988
0.00497957463902
0.00497956949596
0.00497956673697
0.00497956853692
0.00497956849859
0.00497956524498
0.00497956342977
0.00497956437367
0.0049795673598
0.00497956450891
0.00497955342862
0.00497954360542
0.00497953610348
0.00497952942676
0.00497971305807
0.00497970357069
0.00497968654132
0.00497968189916
0.0049796814763
0.00497968203417
0.00497968130313
0.00497968062977
0.00497968534049
0.00497969378969
0.0049796967059
0.00497969933027
0.00497970271832
0.00497970887048
0.00497971848706
0.00497971675829
0.00497970675333
0.00497969944628
0.00497969676905
0.00497969621747
0.00497981938704
0.00497980984266
0.00497979011821
0.00497978627957
0.00497978768751
0.00497979051505
0.00497979298733
0.00497979777836
0.00497980999205
0.00497982174819
0.00497982993269
0.0049798350293
0.00497984228619
0.00497985514972
0.00497986767706
0.00497986747062
0.00497986017476
0.00497985487855
0.00497985597006
0.00497986136151
0.00497995208967
0.0049799415202
0.00497991598499
0.00497991052708
0.00497991216312
0.00497991572074
0.00497992005568
0.0049799298335
0.00497994711385
0.00497996180743
0.0049799701542
0.00497997950506
0.00497999021712
0.00498000540954
0.00498002368378
0.0049800242593
0.00498001934439
0.00498001586845
0.00498001982572
0.00498003032191
0.00498007236067
0.0049800650411
0.00498004178253
0.00498003829121
0.00498004277668
0.00498004935274
0.00498005831176
0.00498007604131
0.00498009750158
0.00498010990457
0.00498012228456
0.00498013333551
0.00498014637171
0.00498017098472
0.0049801882517
0.00498018916366
0.00498018734514
0.00498018628129
0.00498019260256
0.00498020715698
0.00498021325153
0.00498021212152
0.00498019122122
0.00498018759907
0.00498019272599
0.00498020090314
0.00498021504607
0.00498023908595
0.00498025687773
0.00498027237369
0.00498028508904
0.0049803000437
0.00498031837862
0.0049803451674
0.00498036282017
0.00498036515956
0.00498036739024
0.00498036964953
0.00498037779384
0.00498039491369
0.00498034765073
0.00498034931227
0.00498032533674
0.00498032701872
0.00498033882465
0.00498035483963
0.00498038035706
0.00498040557842
0.00498042597716
0.00498044153683
0.00498045938312
0.00498047832997
0.0049805035561
0.00498053831387
0.00498054921822
0.0049805565996
0.00498056461826
0.00498057053194
0.00498057868857
0.00498059598023
0.00498049391074
0.00498050653569
0.00498047718307
0.00498048140428
0.00498049931574
0.00498052511246
0.0049805558563
0.00498058268723
0.00498060251262
0.00498062454347
0.00498064691212
0.0049806716095
0.00498070844065
0.00498073460209
0.004980748896
0.00498076463946
0.00498077985058
0.00498078825958
0.00498079441517
0.00498081016585
0.00498062116618
0.00498064837154
0.00498062614108
0.0049806388158
0.00498066795736
0.00498070345349
0.00498073894681
0.0049807631493
0.00498078836233
0.00498081482093
0.00498084351241
0.00498087915178
0.00498091132117
0.0049809405923
0.00498096179439
0.0049809872165
0.00498100365192
0.00498101320363
0.00498101899018
0.00498103551331
0.00498075272623
0.00498080998941
0.00498079808895
0.0049808173226
0.00498085450802
0.00498089470975
0.0049809263066
0.00498095586599
0.00498099184606
0.00498102813098
0.00498106811564
0.00498110043677
0.00498113623652
0.00498116518261
0.00498119688208
0.00498122653628
0.00498124755881
0.00498125770167
0.00498126587684
0.00498128324788
0.00498088702856
0.00498097726434
0.00498098966986
0.00498101902825
0.00498106177379
0.0049811049844
0.00498115068053
0.00498119937579
0.0049812390932
0.00498127353379
0.00498130439479
0.00498134142733
0.00498138009626
0.00498142143914
0.00498146654916
0.00498150377654
0.00498152375853
0.00498153883966
0.00498155206939
0.00498156566277
0.00498103972543
0.00498116259024
0.00498120183039
0.00498124566684
0.00498130310309
0.00498136068616
0.00498141309309
0.0049814520867
0.00498148397132
0.00498151945284
0.00498156286051
0.00498161303422
0.00498166655962
0.0049817221761
0.00498177589427
0.00498181471574
0.00498184336371
0.00498186115008
0.00498187388918
0.0049818833989
0.00498128347952
0.00498145146433
0.00498151328061
0.00498156970661
0.00498162301371
0.00498166448374
0.00498170240976
0.00498174042583
0.00498178405827
0.00498183476795
0.00498189393185
0.0049819568736
0.00498201875277
0.004982078389
0.00498213334391
0.00498217604972
0.00498220305516
0.00498222178767
0.00498223060013
0.00498223673244
0.00498181108165
0.00498203268556
0.00498209874609
0.00498212337316
0.00498211973547
0.00498212854993
0.00498215493359
0.00498219200723
0.00498223748477
0.00498229202725
0.00498235057792
0.00498240734367
0.00498246009245
0.00498250880883
0.00498255381465
0.00498258837772
0.00498261298913
0.00498262431338
0.00498262878195
0.00498263684707
0.00498287248437
0.0049831029578
0.0049830770629
0.00498301401229
0.00498294926986
0.00498290402875
0.00498288785234
0.00498289255761
0.0049829103671
0.0049829347942
0.00498296049249
0.00498298434424
0.00498300559145
0.00498302424338
0.00498304223212
0.00498305675259
0.00498306642711
0.00498306753223
0.00498306481835
0.00498306697637
0.00498428923445
0.00498436461587
0.00498425194376
0.00498416377968
0.00498408293852
0.00498398893947
0.00498389424949
0.00498382382736
0.0049837728568
0.0049837309908
0.0049836938004
0.00498365887516
0.00498362561665
0.00498359570654
0.00498356996817
0.00498354861502
0.00498353286164
0.00498351385905
0.00498349726796
0.00498348508918
0.00498534416529
0.00498528801497
0.00498521798211
0.00498515272355
0.0049850947731
0.00498502027199
0.00498489682838
0.00498475480406
0.00498462650255
0.00498451294676
0.00498440995851
0.00498431592528
0.00498422772984
0.00498414828802
0.00498407881581
0.00498401948969
0.00498397349051
0.00498393885746
0.00498390658579
0.00498387792291
0.00498559332868
0.00498559361171
0.00498559377166
0.00498558816622
0.00498556891851
0.0049855385771
0.00498546964449
0.00498534843033
0.00498520643278
0.00498506720684
0.00498493808145
0.0049848187826
0.00498470767792
0.00498460288963
0.00498450997007
0.00498442980365
0.00498436731895
0.00498431760751
0.00498427576031
0.00498424121185
0.00498564708298
0.00498564746289
0.00498564814788
0.00498564936945
0.00498565033773
0.00498564581268
0.00498562486418
0.00498556188096
0.00498546477234
0.00498535450903
0.00498524434261
0.00498513882712
0.00498503576532
0.00498493520804
0.00498484114415
0.00498475869036
0.00498468981605
0.00498463943259
0.00498459484543
0.00498455425751
0.00498568789776
0.00498568814913
0.0049856884338
0.00498568866658
0.00498568895425
0.00498568839853
0.00498568484936
0.00498565350879
0.0049855905404
0.0049855112796
0.00498542723333
0.00498534331378
0.00498525965391
0.00498517389169
0.00498509095379
0.00498501723953
0.00498495499208
0.00498490253154
0.00498486007948
0.00498482298446
0.00498572345209
0.00498572368426
0.00498572400502
0.00498572443609
0.00498572502164
0.00498572569101
0.00498572751692
0.00498571371616
0.00498567359972
0.0049856165503
0.00498555323446
0.00498548891422
0.00498542151435
0.0049853528039
0.00498528363228
0.00498522053145
0.00498516441855
0.00498512165096
0.00498508119455
0.00498504399466
0.00498575344244
0.00498575365347
0.00498575394401
0.004985754312
0.00498575479142
0.00498575541386
0.00498575652078
0.00498575319856
0.00498572959153
0.00498568993085
0.00498564406704
0.00498559464242
0.00498554337221
0.00498548922847
0.00498543338994
0.00498538205961
0.00498534014843
0.00498529915161
0.00498526552644
0.00498523528713
0.00498577845786
0.00498577860463
0.00498577878131
0.00498577901457
0.00498577932019
0.00498577972977
0.00498578037442
0.00498578268596
0.00498577153578
0.00498574582693
0.00498571176064
0.00498567546635
0.0049856354229
0.00498559374722
0.0049855510669
0.00498551068032
0.00498547996664
0.00498545393771
0.00498542241705
0.00498539507336
0.00498579959552
0.00498579972411
0.00498579987855
0.00498580009465
0.00498580040555
0.00498580083556
0.00498580139769
0.00498580449924
0.00498580127185
0.00498578599808
0.0049857640581
0.00498573815538
0.00498570910073
0.00498567762923
0.00498564524214
0.00498561744498
0.00498560000593
0.0049855783205
0.00498555661087
0.00498553794056
0.00498581776049
0.00498581786122
0.0049858179636
0.00498581811501
0.00498581835493
0.00498581871393
0.00498581921845
0.0049858203323
0.00498582001406
0.00498581238999
0.00498579963727
0.00498578467484
0.00498576475266
0.00498574344146
0.00498572096028
0.00498570225007
0.00498570008436
0.00498569141243
0.00498567055737
0.00498565666141
0.00498583330505
0.00498583338201
0.00498583343273
0.00498583349023
0.00498583359086
0.00498583375023
0.00498583400042
0.00498583310019
0.00498583245327
0.00498582779899
0.00498582129366
0.00498581562198
0.00498580831778
0.00498579561165
0.00498578372835
0.00498577749855
0.00498578497738
0.00498577612215
0.00498576744693
0.00498576250379
0.00498584730712
0.00498584735465
0.00498584734434
0.00498584731328
0.00498584729955
0.00498584731226
0.00498584734754
0.00498584517794
0.00498584406187
0.00498584118136
0.00498583993145
0.00498584307012
0.00498584329907
0.00498583990465
0.00498583482661
0.00498583821356
0.00498585345897
0.00498585610245
0.00498584699335
0.00498584833702
0.00498586061042
0.00498586064309
0.00498586060135
0.00498586052952
0.00498586046746
0.00498586042415
0.00498585942404
0.00498585649692
0.00498585434823
0.00498585214195
0.00498585505246
0.00498586567703
0.00498587454312
0.00498587660139
0.00498588063111
0.00498589305838
0.00498591676947
0.0049859163098
0.00498591836519
0.00498592408647
0.00498587422378
0.00498587423
0.00498587413865
0.00498587400098
0.00498587385144
0.00498587328248
0.00498586961929
0.00498586500965
0.00498586085568
0.00498585929078
0.0049858701717
0.00498589043973
0.0049859034856
0.00498591312635
0.00498592259709
0.00498594195493
0.00498597185177
0.00498598619863
0.00498598261269
0.00498599256681
0.00498588895659
0.00498588896967
0.00498588888726
0.00498588878241
0.00498588765738
0.00498588493865
0.00498587956391
0.00498587299435
0.00498586831227
0.00498587552087
0.00498590150871
0.00498592601263
0.00498594161039
0.00498595519656
0.00498597139666
0.00498599811941
0.00498603841936
0.00498604851921
0.00498605623124
0.00498606698478
0.00498590561421
0.00498590550747
0.00498590543692
0.00498590223129
0.00498589843968
0.00498589365219
0.0049858877452
0.00498588257102
0.00498588894578
0.00498591911466
0.00498595253136
0.00498597380444
0.00498599148774
0.00498601239045
0.00498603385322
0.00498606564246
0.00498611256377
0.00498613667859
0.00498613601977
0.00498615102712
0.00498592681586
0.00498592995528
0.00498591852919
0.00498590874637
0.00498590370496
0.00498590042472
0.00498589809694
0.00498590716729
0.0049859428928
0.00498598435596
0.00498601224224
0.00498603516179
0.00498606093769
0.00498608730897
0.00498611588085
0.00498615920029
0.00498621193528
0.00498622773584
0.00498624101407
0.00498625553591
0.0049859474468
0.0049860043347
0.00498596447462
0.00498594387172
0.00498593581087
0.00498593352506
0.00498594496564
0.00498598462944
0.00498603111281
0.0049860644175
0.00498609252408
0.0049861234777
0.00498615541439
0.00498618977371
0.00498622759458
0.00498627682586
0.00498633089115
0.00498635765072
0.00498636485435
0.00498638443357
0.00498596792794
0.00498608220174
0.00498602831783
0.00498599921476
0.00498599560937
0.00498601409925
0.0049860590421
0.00498610540933
0.0049861406305
0.00498617123406
0.00498620640435
0.00498624350168
0.00498628254024
0.00498632493553
0.00498637079836
0.0049864314274
0.0049864847179
0.00498650758374
0.00498652831243
0.00498654626309
0.00498598810732
0.00498614824828
0.00498609796239
0.004986085114
0.00498611830232
0.00498617042667
0.00498620821381
0.00498624241033
0.00498627227756
0.00498631078932
0.00498635302248
0.00498639618225
0.00498644402341
0.00498649398197
0.00498655367872
0.0049866162991
0.00498667032189
0.00498670546681
0.00498672414873
0.00498674753646
0.00498600645555
0.00498621257748
0.00498621543399
0.00498623120244
0.00498628010321
0.00498630814917
0.00498634677382
0.0049863797106
0.00498642333963
0.0049864748043
0.00498652538352
0.00498658378981
0.00498664177228
0.00498670665641
0.00498677290176
0.00498683967082
0.00498690098054
0.00498694216517
0.00498697382702
0.00498699376171
0.00498602680937
0.00498627988544
0.00498630218671
0.00498632797561
0.00498636137389
0.00498641702571
0.00498647024435
0.00498652975047
0.00498660244431
0.00498667128586
0.00498675688502
0.00498683305817
0.00498691209019
0.00498698491526
0.00498705649653
0.00498712782171
0.0049871960427
0.00498724701023
0.00498728059024
0.00498730101766
0.00498614329179
0.00498643337124
0.00498646485293
0.0049864852523
0.00498655927989
0.00498665475877
0.00498674251673
0.00498685234944
0.00498694991933
0.00498706929895
0.00498716052287
0.0049872481596
0.00498732434544
0.00498739393632
0.00498745796769
0.00498751907457
0.00498757567562
0.00498762049855
0.00498765023969
0.00498766011259
0.00498780895169
0.00498814466467
0.00498804357679
0.0049879576319
0.00498793596072
0.00498790236691
0.00498788091536
0.00498784969173
0.00498785756568
0.00498787592464
0.00498790664258
0.00498793743541
0.00498796621249
0.00498799092513
0.00498801170544
0.00498802850539
0.00498804326582
0.00498805610889
0.0049880647806
0.00498806880561
0.00498986969277
0.00498998542541
0.00498991526564
0.00498984177344
0.00498975645949
0.00498964234009
0.00498948596164
0.00498930774396
0.00498913068561
0.00498898567023
0.00498887986028
0.00498879992215
0.0049887352956
0.00498868049341
0.0049886321092
0.00498859030142
0.00498855239884
0.00498851860654
0.00498850077449
0.00498849220821
0.00499008147586
0.00499008212867
0.00499008231556
0.00499008235715
0.00499008218758
0.00499008175794
0.00499006600683
0.00499001349901
0.00498991594719
0.00498977121288
0.00498961044843
0.00498946899785
0.00498935075801
0.00498924922794
0.00498916023204
0.0049890815552
0.00498901355531
0.00498895165009
0.00498890602069
0.00498888771999
0.00499009852062
0.00499009850934
0.004990098441
0.00499009840141
0.00499009839175
0.00499009840415
0.00499009837998
0.00499009187487
0.00499006791842
0.00499001618123
0.00498992888107
0.00498981864172
0.00498970902856
0.00498961037492
0.00498952130518
0.00498944043251
0.00498936831042
0.00498930611514
0.00498924902348
0.00498922128073
0.0049901143873
0.00499011441361
0.00499011445051
0.00499011450042
0.00499011456573
0.00499011464045
0.00499011470962
0.00499011363646
0.00499010422491
0.00499007743203
0.00499003122093
0.00498996756315
0.00498989241306
0.00498981809319
0.00498974824236
0.00498968178067
0.00498962144231
0.00498956652433
0.00498951867557
0.00498948814706
0.00499013083918
0.00499013085985
0.00499013091116
0.00499013101563
0.00499013117187
0.00499013136986
0.0049901316061
0.00499013249309
0.00499013127334
0.00499011705552
0.00499008756263
0.00499004603005
0.00498999659242
0.00498994577173
0.00498989470502
0.00498984536858
0.0049897968326
0.00498975310053
0.00498971699265
0.00498968118227
0.00499014687103
0.0049901468724
0.00499014692155
0.00499014706609
0.00499014729724
0.00499014758936
0.00499014792649
0.00499014914875
0.0049901517859
0.00499014521665
0.00499012537538
0.00499009581128
0.0049900631201
0.00499002793264
0.0049899915012
0.00498995328086
0.00498991629018
0.004989879527
0.00498984901613
0.00498982429419
0.00499016218645
0.00499016218501
0.00499016225932
0.00499016246379
0.0049901627734
0.00499016314768
0.00499016356542
0.00499016473936
0.00499016830697
0.00499016583403
0.00499015282331
0.00499013362089
0.0049901125509
0.00499008808468
0.00499005883797
0.00499002947994
0.0049899986868
0.00498996931837
0.0049899420754
0.00498992051523
0.00499017657494
0.00499017658219
0.00499017668553
0.00499017692018
0.00499017724987
0.00499017763439
0.0049901780667
0.00499017871085
0.00499018148821
0.00499018117726
0.0049901733738
0.00499016180294
0.00499014856108
0.00499012965266
0.00499010720167
0.00499008214267
0.00499005739559
0.0049900314893
0.00499000712196
0.00498999192589
0.00499018957105
0.0049901896072
0.00499018973685
0.00499018996856
0.00499019027316
0.00499019062355
0.00499019102554
0.00499019114202
0.00499019206117
0.00499019168671
0.00499018638609
0.00499017846285
0.00499017015987
0.00499015815932
0.00499013868792
0.00499011932383
0.00499009832833
0.00499007802082
0.0049900566555
0.00499004027823
0.00499020100417
0.00499020110042
0.00499020125015
0.00499020146198
0.00499020172413
0.00499020201954
0.00499020235556
0.00499020188361
0.00499020011459
0.00499019696775
0.00499019082498
0.00499018316374
0.00499017872177
0.00499017208059
0.00499016048647
0.00499014464006
0.00499013000844
0.00499011390744
0.00499009915586
0.00499008664399
0.00499021102465
0.00499021121048
0.00499021137567
0.00499021156614
0.00499021178714
0.0049902120291
0.00499021230257
0.00499021126318
0.00499020732587
0.00499020130414
0.0049901935179
0.0049901863276
0.00499018569263
0.00499018600442
0.00499017732527
0.00499016853705
0.0049901583353
0.004990149669
0.004990139483
0.00499013292606
0.00499022019954
0.00499022041369
0.00499022054793
0.00499022068666
0.00499022084033
0.00499022100234
0.00499022118036
0.00499021931225
0.00499021382542
0.00499020593957
0.00499019677455
0.00499019043116
0.00499019395092
0.00499019837936
0.00499019759458
0.0049901929399
0.00499019131758
0.00499018921142
0.00499018962917
0.00499019235261
0.00499022925188
0.00499022937268
0.00499022943801
0.00499022947191
0.00499022952507
0.00499022964487
0.004990229235
0.00499022508418
0.00499021656357
0.00499020585189
0.00499019530135
0.00499019205943
0.00499020385729
0.00499021763841
0.0049902201982
0.00499022557407
0.00499023057765
0.00499023819829
0.00499024553431
0.0049902585338
0.00499024155443
0.00499025217126
0.00499024650595
0.00499024283078
0.00499024173904
0.00499024068649
0.00499023727995
0.00499022880247
0.0049902162965
0.00499020265306
0.00499019371494
0.00499020430816
0.00499022987175
0.0049902453335
0.0049902584103
0.0049902706883
0.00499028633032
0.00499030224739
0.00499032068373
0.00499036005794
0.00499025135893
0.0049902801798
0.00499026232121
0.00499025314553
0.00499025028153
0.00499024766986
0.00499024134872
0.00499022961278
0.00499021510243
0.00499020488603
0.00499021548702
0.00499024953908
0.00499027906858
0.00499030008795
0.00499031923129
0.0049903413769
0.00499036669354
0.0049903927441
0.00499043311213
0.00499047234572
0.00499026134808
0.00499033116026