/*--------------------------------*- C++ -*----------------------------------*\
| =========                 |                                                 |
| \\      /  F ield         | OpenFOAM: The Open Source CFD Toolbox           |
|  \\    /   O peration     | Version:  2312                                  |
|   \\  /    A nd           | Website:  www.openfoam.com                      |
|    \\/     M anipulation  |                                                 |
\*---------------------------------------------------------------------------*/
FoamFile
{
    version     2.0;
    format      ascii;
    arch        "LSB;label=32;scalar=64";
    class       volScalarField;
    location    "20/fluidRegion";
    object      Kd.liquid.vapour;
}
// * * * * * * * * * * * * * * * * * * * * * * * * * * * * * * * * * * * * * //

dimensions      [1 -3 -1 0 0 0 0];

internalField   nonuniform List<scalar> 
477
(
1
1
1
1
1
1
1
1
1
1
1
1
1
1
1
1
1
1
1
1
1
1
1
1
1
1
1
1
1
1
1
1
1
1
1
1
1
1
1
1
1
1
1
1
1
1
1
1
1
1
1
1
1
1
1
1
1
1
1
1
1
1
1
1
1
1
1
1
1
1
1
2.90205
251.172
720.898
1340.55
1968.78
2625.06
3229.22
3804.48
4307.19
4751.12
5139.16
5474.23
5771.63
6022.29
6248.64
6435.38
6606.65
6745.7
6873.79
6975.73
7074.66
7189.69
1
1
1
1
1
1
1
1
1
1
1
1
1
1
1
1
1
1
1
1
1
1
1
1
3.12673
12.2693
112.052
467.885
918.637
1438.29
1930.07
2410.67
2836.26
3219.99
3549.22
3825.63
4064.24
4258.41
4430.34
4565.42
4688.56
4781.92
4869.02
4932.37
4991.38
5030.22
5063.2
5085.95
1
1
1
1
1
1
1
1
1
1
1
1
1
1
1
1
1
1
1
1
1
1
1
1
3.6852
13.8494
144.804
520.542
978.422
1497.22
1986.68
2461.65
2882.59
3259.98
3584.97
3858.44
4095.35
4288.33
4459.48
4594.39
4717.33
4811.14
4898.32
4962.18
5021.11
5060.03
5090.26
5090.45
1
1
1
1
1
1
1
1
1
1
1
1
1
1
1
1
1
1
1
1
1
1
1
1
3.12673
12.2693
112.052
467.885
918.637
1438.29
1930.07
2410.67
2836.26
3219.99
3549.22
3825.63
4064.24
4258.41
4430.34
4565.42
4688.56
4781.92
4869.02
4932.37
4991.38
5030.22
5063.2
5085.95
1
1
1
1
1
1
1
1
1
1
1
1
1
1
1
1
1
1
1
1
1
1
1
1
130.688
368.067
665.404
993.073
1288.93
1549.54
1761.49
1935.08
2077.69
2184.72
2273.42
2328.68
2374.07
2393.87
2412.14
2411.13
2413.19
2400.92
2393.03
2374.36
2359.31
2334.96
2309.48
2275.06
1
1
1
1
1
1
1
1
1
1
1
1
1
1
1
1
1
1
1
1
1
1
1
1
159.092
420.741
725.896
1048.63
1335.87
1584.57
1785.48
1946.58
2078.64
2174.87
2255.19
2303.29
2343.02
2357.75
2371.92
2367.35
2366.45
2351.7
2341.62
2321.07
2304.19
2278.05
2249.88
2206.07
1
1
1
1
1
1
1
1
1
1
1
1
1
1
1
1
1
1
1
1
1
1
1
1
3.6852
13.8494
144.804
520.542
978.422
1497.22
1986.68
2461.65
2882.59
3259.98
3584.97
3858.44
4095.35
4288.33
4459.48
4594.39
4717.33
4811.14
4898.32
4962.18
5021.11
5060.03
5090.26
5090.45
1
1
1
1
1
1
1
1
1
1
1
1
1
1
1
1
1
1
1
1
1
1
1
1
159.092
420.741
725.896
1048.63
1335.87
1584.57
1785.48
1946.58
2078.64
2174.87
2255.19
2303.29
2343.02
2357.75
2371.92
2367.35
2366.45
2351.7
2341.62
2321.07
2304.19
2278.05
2249.88
2206.07
1
1
1
1
1
1
1
1
1
1
1
1
1
1
1
1
1
1
1
1
1
1
1
6.60866
197.288
482.264
790.675
1104.04
1380
1615.77
1805.36
1954.89
2077.34
2164.6
2238.05
2280.6
2316.01
2327.14
2338.41
2331.49
2328.64
2312.38
2300.94
2279.25
2261.16
2233.63
2202.55
2153.07
)
;

boundaryField
{
    inlet
    {
        type            zeroGradient;
    }
    outlet
    {
        type            zeroGradient;
    }
    fixedWalls
    {
        type            zeroGradient;
    }
    frontAndright
    {
        type            symmetry;
    }
}


// ************************************************************************* //
