/*--------------------------------*- C++ -*----------------------------------*\
| =========                 |                                                 |
| \\      /  F ield         | OpenFOAM: The Open Source CFD Toolbox           |
|  \\    /   O peration     | Version:  2312                                  |
|   \\  /    A nd           | Website:  www.openfoam.com                      |
|    \\/     M anipulation  |                                                 |
\*---------------------------------------------------------------------------*/
FoamFile
{
    version     2.0;
    format      ascii;
    arch        "LSB;label=32;scalar=64";
    class       volScalarField;
    location    "20/fluidRegion";
    object      nut.vapour;
}
// * * * * * * * * * * * * * * * * * * * * * * * * * * * * * * * * * * * * * //

dimensions      [0 2 -1 0 0 0 0];

internalField   nonuniform List<scalar> 
477
(
0.0116352
0.0112778
0.0110161
0.0107772
0.0105819
0.0139294
0.0138833
0.0138462
0.0138117
0.013782
0.0140351
0.0140159
0.0140012
0.0139879
0.0139765
0.0139294
0.0138833
0.0138462
0.0138117
0.013782
0.0173233
0.0177239
0.0180256
0.0183077
0.0185439
0.0174999
0.0179386
0.0182764
0.0185927
0.0188596
0.0140351
0.0140159
0.0140012
0.0139879
0.0139765
0.0174999
0.0179386
0.0182764
0.0185927
0.0188596
0.0176835
0.018162
0.0185377
0.01889
0.0191895
0.0104751
0.0104307
0.0103901
0.010363
0.0103482
0.010346
0.0103572
0.0103815
0.01042
0.0104726
0.0105403
0.010623
0.0107213
0.0108352
0.0109654
0.0111123
0.0112754
0.011455
0.0116505
0.0118624
0.0120887
0.0123441
0.0157048
0.133599
0.255683
0.294543
0.311173
0.303021
0.314204
0.32826
0.347357
0.364765
0.384489
0.401946
0.421327
0.437798
0.454561
0.468291
0.48221
0.493479
0.504899
0.51407
0.523247
0.530555
0.537727
0.543234
0.54797
0.550539
0.0137916
0.0138366
0.0138855
0.01394
0.0140027
0.0140739
0.0141554
0.0142474
0.0143521
0.0144699
0.0146025
0.0147503
0.0149144
0.0150953
0.0152943
0.0155122
0.0157484
0.0160037
0.0162773
0.0165701
0.0168803
0.0172774
0.0284573
0.198984
0.25574
0.294715
0.311587
0.310011
0.321386
0.334941
0.353625
0.370912
0.390625
0.408166
0.427649
0.444226
0.461106
0.474942
0.488977
0.500337
0.51186
0.521104
0.530366
0.537732
0.544973
0.550526
0.555327
0.558021
0.0139992
0.0140547
0.0141144
0.0141788
0.0142511
0.0143313
0.0144215
0.014522
0.0146349
0.0147606
0.014901
0.0150566
0.0152284
0.0154172
0.0156241
0.0158502
0.0160949
0.0163591
0.0166421
0.0169447
0.0172654
0.0177404
0.0366353
0.207738
0.255729
0.294744
0.311499
0.311124
0.322717
0.336282
0.354919
0.372202
0.391921
0.409486
0.428993
0.445593
0.4625
0.476357
0.490416
0.501794
0.513337
0.522595
0.531873
0.539251
0.546504
0.552065
0.556875
0.559589
0.0137916
0.0138366
0.0138855
0.01394
0.0140027
0.0140739
0.0141554
0.0142474
0.0143521
0.0144699
0.0146025
0.0147503
0.0149144
0.0150953
0.0152943
0.0155122
0.0157484
0.0160037
0.0162773
0.0165701
0.0168803
0.0172774
0.0284573
0.198984
0.25574
0.294715
0.311587
0.310011
0.321386
0.334941
0.353625
0.370912
0.390625
0.408166
0.427649
0.444226
0.461106
0.474942
0.488977
0.500337
0.51186
0.521104
0.530366
0.537732
0.544973
0.550526
0.555327
0.558021
0.0187436
0.0189369
0.0191371
0.0193321
0.0195302
0.0197312
0.0199384
0.0201528
0.0203776
0.020614
0.0208644
0.0211301
0.0214127
0.0217134
0.0220338
0.0223748
0.0227356
0.0231173
0.0235195
0.0239432
0.0243877
0.0251909
0.0622914
0.253919
0.255554
0.294595
0.31413
0.316111
0.327483
0.340698
0.358955
0.376009
0.395551
0.412992
0.432387
0.448878
0.465699
0.479457
0.49344
0.504721
0.51619
0.525351
0.534555
0.541837
0.549012
0.55447
0.559174
0.561742
0.0190819
0.0192933
0.0195124
0.0197253
0.0199407
0.0201585
0.0203821
0.0206124
0.0208529
0.0211045
0.0213702
0.0216509
0.0219486
0.0222644
0.0226
0.0229565
0.0233332
0.0237314
0.0241505
0.0245916
0.0250556
0.0263305
0.0957848
0.25338
0.255554
0.294633
0.314508
0.317134
0.328608
0.34183
0.360042
0.377078
0.396602
0.414037
0.433424
0.449907
0.466722
0.480472
0.49445
0.505719
0.517182
0.526331
0.535526
0.542793
0.549956
0.555396
0.560077
0.562603
0.0139992
0.0140547
0.0141144
0.0141788
0.0142511
0.0143313
0.0144215
0.014522
0.0146349
0.0147606
0.014901
0.0150566
0.0152284
0.0154172
0.0156241
0.0158502
0.0160949
0.0163591
0.0166421
0.0169447
0.0172654
0.0177404
0.0366353
0.207738
0.255729
0.294744
0.311499
0.311124
0.322717
0.336282
0.354919
0.372202
0.391921
0.409486
0.428993
0.445593
0.4625
0.476357
0.490416
0.501794
0.513337
0.522595
0.531873
0.539251
0.546504
0.552065
0.556875
0.559589
0.0190819
0.0192933
0.0195124
0.0197253
0.0199407
0.0201585
0.0203821
0.0206124
0.0208529
0.0211045
0.0213702
0.0216509
0.0219486
0.0222644
0.0226
0.0229565
0.0233332
0.0237314
0.0241505
0.0245916
0.0250556
0.0263305
0.0957848
0.25338
0.255554
0.294633
0.314508
0.317134
0.328608
0.34183
0.360042
0.377078
0.396602
0.414037
0.433424
0.449907
0.466722
0.480472
0.49445
0.505719
0.517182
0.526331
0.535526
0.542793
0.549956
0.555396
0.560077
0.562603
0.0194357
0.0196667
0.0199059
0.0201378
0.0203719
0.0206078
0.020849
0.0210966
0.0213539
0.0216222
0.0219043
0.0222014
0.0225154
0.0228475
0.0231997
0.023573
0.0239671
0.0243831
0.0248205
0.0252806
0.0257687
0.0289084
0.195513
0.253032
0.255605
0.294678
0.314953
0.318146
0.329692
0.342916
0.361083
0.378097
0.397599
0.415022
0.434394
0.450864
0.467668
0.481404
0.49537
0.506624
0.518075
0.527206
0.536388
0.543636
0.550783
0.5562
0.56085
0.563323
)
;

boundaryField
{
    inlet
    {
        type            zeroGradient;
    }
    outlet
    {
        type            zeroGradient;
    }
    fixedWalls
    {
        type            zeroGradient;
    }
    frontAndright
    {
        type            symmetry;
    }
}


// ************************************************************************* //
