/*--------------------------------*- C++ -*----------------------------------*\
| =========                 |                                                 |
| \\      /  F ield         | OpenFOAM: The Open Source CFD Toolbox           |
|  \\    /   O peration     | Version:  2312                                  |
|   \\  /    A nd           | Website:  www.openfoam.com                      |
|    \\/     M anipulation  |                                                 |
\*---------------------------------------------------------------------------*/
FoamFile
{
    version     2.0;
    format      ascii;
    arch        "LSB;label=32;scalar=64";
    class       volScalarField;
    location    "3.5/water";
    object      alphat.gas;
}
// * * * * * * * * * * * * * * * * * * * * * * * * * * * * * * * * * * * * * //

dimensions      [1 -1 -1 0 0 0 0];

internalField   nonuniform List<scalar> 
23300
(
8.94324370059e-05
8.79830048006e-05
8.62166776114e-05
8.4046589679e-05
8.1547411402e-05
7.87873125632e-05
7.58243383319e-05
7.27107662154e-05
6.94943136825e-05
6.6220501547e-05
6.29317599009e-05
5.96682716766e-05
5.64663043318e-05
5.33585172275e-05
5.03724764536e-05
4.75310699581e-05
4.48516380224e-05
4.23467470295e-05
4.00239297399e-05
3.78867490769e-05
3.5934913757e-05
3.4165423529e-05
3.25727988845e-05
3.11501222656e-05
2.98892075919e-05
2.8781444462e-05
2.78178390345e-05
2.69896529807e-05
2.62883198301e-05
2.57059172459e-05
2.52349935121e-05
2.48689238091e-05
2.46016841646e-05
2.44281351565e-05
2.43437717736e-05
2.43449659148e-05
2.44287109013e-05
2.45928449902e-05
2.48358041589e-05
2.51568466569e-05
2.55558337071e-05
2.60333081774e-05
2.65899049103e-05
2.72271150193e-05
2.79469847711e-05
2.87522952571e-05
2.96463170742e-05
3.06330103798e-05
3.1716784354e-05
3.29026918753e-05
3.41961721666e-05
3.56032217853e-05
3.71300972412e-05
3.87834378855e-05
4.05698953649e-05
4.24961725483e-05
4.45685322251e-05
4.67927017337e-05
4.91731961199e-05
5.17130214088e-05
5.44127249349e-05
5.72697998883e-05
6.02773189921e-05
6.34228397303e-05
6.66862810128e-05
7.00377749633e-05
7.3433815552e-05
7.68124041348e-05
8.0084590265e-05
8.31220166189e-05
8.57360267348e-05
8.76484643584e-05
8.84724230807e-05
8.79070877044e-05
8.61923663768e-05
8.36859719332e-05
8.0658969052e-05
7.73047332087e-05
7.37621174605e-05
7.01331293062e-05
6.64935990885e-05
6.2900565614e-05
5.93964656428e-05
5.60125573499e-05
5.27708757998e-05
4.96862536972e-05
4.6767495874e-05
4.40187982172e-05
4.14405522601e-05
3.90303897442e-05
3.6783732775e-05
3.46945499034e-05
3.27557073635e-05
3.0959496405e-05
2.92978316241e-05
2.77626035067e-05
2.63457665851e-05
2.50395660583e-05
2.38365535031e-05
2.27297284369e-05
2.17125118991e-05
2.077883471e-05
1.99230916045e-05
1.91402013311e-05
1.84255617178e-05
1.77751116014e-05
1.71853322478e-05
1.66534137866e-05
1.61765197666e-05
1.57522184485e-05
1.53786516869e-05
1.50545419932e-05
1.47791697704e-05
1.45524339236e-05
1.43748810466e-05
1.42478124625e-05
1.417336981e-05
1.41547007984e-05
1.41961149418e-05
1.43033207959e-05
1.44836548113e-05
1.47463743533e-05
1.51029078815e-05
1.55670956284e-05
1.61552685494e-05
1.68861322823e-05
1.77802380113e-05
1.88589448558e-05
2.01426446263e-05
2.16482269417e-05
2.33857865147e-05
2.53549632609e-05
2.75415059054e-05
2.99150234476e-05
3.24287164753e-05
3.50211916491e-05
3.76183120494e-05
4.01287638641e-05
4.24184346381e-05
4.42351318427e-05
7.71495450863e-05
7.65134960132e-05
7.54238998534e-05
7.39570873748e-05
7.21786676317e-05
7.01460596232e-05
6.79104229991e-05
6.55183705401e-05
6.30130378181e-05
6.04347782358e-05
5.78212573462e-05
5.52073848279e-05
5.26249185045e-05
5.01021561781e-05
4.76635454979e-05
4.53295311227e-05
4.31164439446e-05
4.10366521874e-05
3.90987598513e-05
3.73080068525e-05
3.56666590508e-05
3.41745156176e-05
3.28293441466e-05
3.1627367593e-05
3.05636422816e-05
2.96324542702e-05
2.88275981681e-05
2.81426660479e-05
2.75712276234e-05
2.71070250505e-05
2.67440738689e-05
2.64767865758e-05
2.63000166471e-05
2.62091324411e-05
2.62000231726e-05
2.62691404244e-05
2.64134807841e-05
2.66306083792e-05
2.69186254205e-05
2.7276185698e-05
2.77024602319e-05
2.81970843895e-05
2.8759831605e-05
2.93910119042e-05
3.0091403656e-05
3.08622339072e-05
3.17051177602e-05
3.26220412854e-05
3.36152973925e-05
3.46874581104e-05
3.58412931591e-05
3.70797168048e-05
3.84056725611e-05
3.98220355782e-05
4.13314414499e-05
4.2936118796e-05
4.46376333199e-05
4.64366184176e-05
4.83323990385e-05
5.03225818062e-05
5.24025153559e-05
5.45646879782e-05
5.67979533083e-05
5.908662836e-05
6.14093137978e-05
6.37374257132e-05
6.60332167073e-05
6.82472252088e-05
7.03149742524e-05
7.21532616963e-05
7.36572567984e-05
7.47026830236e-05
7.51635478604e-05
7.49635343229e-05
7.413610745e-05
7.27800147209e-05
7.10081293773e-05
6.89251022569e-05
6.66204875607e-05
6.41683385746e-05
6.16288835723e-05
5.90506468691e-05
5.64723488087e-05
5.39245429131e-05
5.14309399669e-05
4.90095475025e-05
4.66736068235e-05
4.44324236654e-05
4.2292058068e-05
4.02559434809e-05
3.83253974388e-05
3.65000802874e-05
3.47783665459e-05
3.31576763532e-05
3.16347356342e-05
3.02058059465e-05
2.88668573679e-05
2.7613720175e-05
2.64421928599e-05
2.53481373945e-05
2.43275426423e-05
2.3376582335e-05
2.24916514629e-05
2.16694039922e-05
2.09067790688e-05
2.02010367993e-05
1.95497938408e-05
1.89510722491e-05
1.84031221326e-05
1.79042794051e-05
1.74532913515e-05
1.70493372148e-05
1.66920510098e-05
1.63815599447e-05
1.61185328687e-05
1.59042481984e-05
1.57406750677e-05
1.56305744017e-05
1.55776110828e-05
1.55864774763e-05
1.56630105821e-05
1.58142883046e-05
1.60486676613e-05
1.63757247283e-05
1.68060307902e-05
1.73506972455e-05
1.80206084325e-05
1.88252853183e-05
1.97713564566e-05
2.08607047331e-05
2.20884806301e-05
2.34413568748e-05
2.48965875782e-05
2.64226086734e-05
2.79819946136e-05
2.95376489889e-05
3.10635375325e-05
3.25633766358e-05
3.41079685989e-05
3.59184185932e-05
6.80244998226e-05
6.76809643551e-05
6.69904405516e-05
6.59952690626e-05
6.47364631159e-05
6.32533701263e-05
6.15837945169e-05
5.97641363996e-05
5.78294396773e-05
5.58133192491e-05
5.37477367413e-05
5.16626835355e-05
4.95858029403e-05
4.75420366854e-05
4.55533270255e-05
4.36384322156e-05
4.18128538551e-05
4.00888938234e-05
3.84758095436e-05
3.69800605142e-05
3.56056042617e-05
3.43542303707e-05
3.32258963515e-05
3.22190614483e-05
3.1330993589e-05
3.05580546521e-05
2.9895948838e-05
2.93399448763e-05
2.88850621842e-05
2.85262333858e-05
2.82584354098e-05
2.80768011488e-05
2.7976704647e-05
2.79538309111e-05
2.80042238326e-05
2.81243225765e-05
2.8310980345e-05
2.85614750765e-05
2.88735059326e-05
2.92451838805e-05
2.96750103207e-05
3.01619418168e-05
3.07050937284e-05
3.1303949782e-05
3.19583297943e-05
3.26683545928e-05
3.34344031256e-05
3.42570684788e-05
3.51371053063e-05
3.60753733936e-05
3.7072768741e-05
3.81301458389e-05
3.92482218617e-05
4.04274656256e-05
4.16679615439e-05
4.29692508341e-05
4.43301401426e-05
4.5748479963e-05
4.72209039382e-05
4.87425327207e-05
5.03066352873e-05
5.19042526322e-05
5.35237766119e-05
5.51504862108e-05
5.67660293504e-05
5.83478500617e-05
5.98685599858e-05
6.12953016433e-05
6.25892270811e-05
6.37054058871e-05
6.45937767426e-05
6.52022557206e-05
6.54839085066e-05
6.54095022308e-05
6.49797248049e-05
6.42213611477e-05
6.31760295946e-05
6.18910668295e-05
6.04137192781e-05
5.87880404982e-05
5.70535039959e-05
5.52445815445e-05
5.33908150232e-05
5.15171291619e-05
4.96442454136e-05
4.77891319692e-05
4.59654494527e-05
4.41839776302e-05
4.24530105422e-05
4.07787201266e-05
3.9165484584e-05
3.7616185141e-05
3.6132469557e-05
3.47149861345e-05
3.33635873568e-05
3.20775069493e-05
3.08555105303e-05
2.96960238763e-05
2.85972398559e-05
2.7557208008e-05
2.65739082703e-05
2.56453124704e-05
2.47694352404e-05
2.39443774569e-05
2.31683636889e-05
2.24397754946e-05
2.17571795688e-05
2.11193465541e-05
2.05254000955e-05
1.99745306259e-05
1.94661966026e-05
1.90001632598e-05
1.85765399739e-05
1.81958203655e-05
1.78589275964e-05
1.75672657066e-05
1.73227762934e-05
1.71279976135e-05
1.69861203852e-05
1.69010303509e-05
1.68773222581e-05
1.69202629298e-05
1.70356733638e-05
1.7229692274e-05
1.75083785832e-05
1.78771115402e-05
1.83397589211e-05
1.88976117195e-05
1.95481323739e-05
2.02836364514e-05
2.10901233143e-05
2.19465829509e-05
2.28252137808e-05
2.36930534517e-05
2.45154945992e-05
2.52619839845e-05
2.59139105654e-05
2.64745026698e-05
2.69834677198e-05
2.7484919441e-05
6.22481440703e-05
6.19791981491e-05
6.14480654186e-05
6.06740837171e-05
5.96823459233e-05
5.85007798641e-05
5.71585366795e-05
5.56850375636e-05
5.41093402809e-05
5.24596566232e-05
5.07629391716e-05
4.90445108106e-05
4.73277359997e-05
4.56337490672e-05
4.39812534456e-05
4.23864041112e-05
4.08627745859e-05
3.94214046999e-05
3.80709161105e-05
3.68176814699e-05
3.56660294219e-05
3.4618471149e-05
3.36759343649e-05
3.28379959599e-05
3.21031055925e-05
3.14687969445e-05
3.09318836392e-05
3.04886394025e-05
3.01349614756e-05
2.98665174198e-05
2.96788748034e-05
2.9567613699e-05
2.95284218407e-05
2.95571724421e-05
2.9649985278e-05
2.98032714449e-05
3.00137632417e-05
3.02785298566e-05
3.05949806932e-05
3.09608565761e-05
3.13742097958e-05
3.18335511335e-05
3.2337613152e-05
3.2885393259e-05
3.3476137025e-05
3.41093075658e-05
3.4784547975e-05
3.55016378472e-05
3.62604455723e-05
3.70608745924e-05
3.79028038497e-05
3.87860196208e-05
3.97101384486e-05
4.06745178973e-05
4.16781546591e-05
4.27195665899e-05
4.37966584097e-05
4.49065680726e-05
4.60454945513e-05
4.72085055456e-05
4.83893280831e-05
4.9580123231e-05
5.07712510496e-05
5.1951030608e-05
5.31055062371e-05
5.42182342503e-05
5.52701210862e-05
5.62393670855e-05
5.71016188341e-05
5.78304968716e-05
5.8398745298e-05
5.87802897973e-05
5.89533973082e-05
5.89045655294e-05
5.86317129653e-05
5.81444403123e-05
5.74607801548e-05
5.66038812711e-05
5.55991620298e-05
5.44722329514e-05
5.32475576069e-05
5.19476855508e-05
5.05928838655e-05
4.92010251727e-05
4.77876317579e-05
4.63660062934e-05
4.49474065778e-05
4.35412368855e-05
4.21552422755e-05
4.07956971401e-05
3.9467585323e-05
3.8174768918e-05
3.69201457421e-05
3.57057937979e-05
3.45331033163e-05
3.34028952878e-05
3.23155276537e-05
3.12709887277e-05
3.02689795595e-05
2.93089852964e-05
2.83903375306e-05
2.75122678911e-05
2.66739548402e-05
2.58745637761e-05
2.51132818504e-05
2.43893465723e-05
2.37020676079e-05
2.30508377089e-05
2.24354185662e-05
2.18557163944e-05
2.13118174753e-05
2.08040271811e-05
2.03329077951e-05
1.98993155318e-05
1.950443767e-05
1.9149828289e-05
1.88374406061e-05
1.85696505789e-05
1.83492645471e-05
1.81794989056e-05
1.80639162012e-05
1.80062961936e-05
1.80104166951e-05
1.80797154939e-05
1.82168066637e-05
1.84228319702e-05
1.86966466756e-05
1.90338689969e-05
1.94258672449e-05
1.9858815103e-05
2.03130111622e-05
2.07627238886e-05
2.11768737023e-05
2.1520868252e-05
2.17598082739e-05
2.1862990203e-05
2.18090747748e-05
2.15907230612e-05
2.12238724034e-05
2.07161024417e-05
5.76868597665e-05
5.74724396064e-05
5.70497454787e-05
5.64312588262e-05
5.5634154993e-05
5.4678859675e-05
5.35878069809e-05
5.23844616364e-05
5.10925525003e-05
4.97354612896e-05
4.83357270148e-05
4.69146433023e-05
4.5491938653e-05
4.40855361293e-05
4.27113906902e-05
4.13834008187e-05
4.01133878342e-05
3.891113346e-05
3.77844639533e-05
3.67393687939e-05
3.57801425221e-05
3.49095403286e-05
3.41289402084e-05
3.34385067895e-05
3.28373539211e-05
3.23237041125e-05
3.18950438969e-05
3.1548273707e-05
3.12798513239e-05
3.1085926692e-05
3.0962466746e-05
3.09053675565e-05
3.09105528209e-05
3.0974056489e-05
3.10920897897e-05
3.12610915263e-05
3.14777633731e-05
3.17390900766e-05
3.20423474853e-05
3.23850990002e-05
3.27651841911e-05
3.31807304863e-05
3.36304256239e-05
3.41130144431e-05
3.46274446661e-05
3.51728327255e-05
3.57484279724e-05
3.63535730322e-05
3.69876620879e-05
3.76500949174e-05
3.83402280791e-05
3.90573205385e-05
3.98004748671e-05
4.05685710545e-05
4.13601940733e-05
4.2173552268e-05
4.30063880375e-05
4.38558783652e-05
4.47185276066e-05
4.55900514461e-05
4.6465256483e-05
4.73379170787e-05
4.82006574989e-05
4.90448454587e-05
4.98605109263e-05
5.0636304374e-05
5.13595203535e-05
5.20162187071e-05
5.25914943971e-05
5.3069956895e-05
5.34364881827e-05
5.36773170604e-05
5.3781362394e-05
5.37416118685e-05
5.35560888282e-05
5.32284633105e-05
5.2766975054e-05
5.21830793883e-05
5.14902187911e-05
5.07027449956e-05
4.98350897415e-05
4.89011856792e-05
4.79141005059e-05
4.688583193e-05
4.58272170727e-05
4.4747915801e-05
4.36564411031e-05
4.25602158134e-05
4.14656451286e-05
4.03781962102e-05
3.93024819618e-05
3.82423448732e-05
3.72009403821e-05
3.61808170257e-05
3.51839935551e-05
3.42120309729e-05
3.3266100154e-05
3.23470436056e-05
3.14554324185e-05
3.05916174179e-05
2.97557757812e-05
2.89479523769e-05
2.81680970686e-05
2.74160971761e-05
2.66918059043e-05
2.59950652769e-05
2.53257231961e-05
2.46836416645e-05
2.40690280004e-05
2.34823067212e-05
2.29240325623e-05
2.23949229632e-05
2.18958898161e-05
2.14280689007e-05
2.09928461723e-05
2.05918777588e-05
2.02271002201e-05
1.99007244243e-05
1.96152048804e-05
1.93731721701e-05
1.91773136831e-05
1.90301837071e-05
1.89339227369e-05
1.88898654777e-05
1.88980225915e-05
1.89564317854e-05
1.90603941464e-05
1.92016401368e-05
1.93675083223e-05
1.95402640946e-05
1.96967330383e-05
1.9808466527e-05
1.9842688738e-05
1.97642771138e-05
1.95389673547e-05
1.9137777636e-05
1.85422266239e-05
1.77493496296e-05
1.67775350256e-05
1.56538639464e-05
5.40281278147e-05
5.38546097674e-05
5.3512288531e-05
5.3010326011e-05
5.23615058411e-05
5.15814539829e-05
5.0687795407e-05
4.96993719915e-05
4.86355546406e-05
4.75156566491e-05
4.63584470736e-05
4.51817593776e-05
4.40021905971e-05
4.28348848538e-05
4.16933936692e-05
4.05896033511e-05
3.95337182542e-05
3.8534287929e-05
3.75982666124e-05
3.67310949101e-05
3.59367957743e-05
3.52180792242e-05
3.45764527847e-05
3.40123360791e-05
3.35251794879e-05
3.31135864699e-05
3.27754394999e-05
3.25080279251e-05
3.23081762287e-05
3.21723692221e-05
3.20968716985e-05
3.20778384637e-05
3.21114128206e-05
3.21938102832e-05
3.23213872786e-05
3.24906931738e-05
3.26985072726e-05
3.29418605322e-05
3.32180450677e-05
3.35246118939e-05
3.38593602168e-05
3.42203176139e-05
3.46061470817e-05
3.501556681e-05
3.54474552932e-05
3.59008233559e-05
3.63747839121e-05
3.68685183309e-05
3.73812418761e-05
3.79121664701e-05
3.84604626511e-05
3.90252184103e-05
3.96053965378e-05
4.01997879885e-05
4.08069629667e-05
4.1425217336e-05
4.20525163872e-05
4.26864339989e-05
4.3324089985e-05
4.39620846936e-05
4.45964351849e-05
4.52225140613e-05
4.58349979118e-05
4.64278296529e-05
4.69942055529e-05
4.75265956592e-05
4.8016813457e-05
4.84561489766e-05
4.88355860162e-05
4.91461190895e-05
4.93791824671e-05
4.95271795835e-05
4.95840684476e-05
4.95459048413e-05
4.9411210755e-05
4.91811504361e-05
4.88596243967e-05
4.84523365372e-05
4.79663268416e-05
4.74094580178e-05
4.6789975184e-05
4.61161583277e-05
4.53960697755e-05
4.46373821957e-05
4.38472716054e-05
4.30323568845e-05
4.21986734133e-05
4.13516688202e-05
4.0496215028e-05
3.96366301696e-05
3.87767084438e-05
3.79197541525e-05
3.70686195125e-05
3.62257435544e-05
3.5393192297e-05
3.45726980874e-05
3.3765698641e-05
3.29733741089e-05
3.21966829428e-05
3.14363952047e-05
3.06931242174e-05
2.99673553893e-05
2.92594730773e-05
2.8569784302e-05
2.78985398628e-05
2.7245951272e-05
2.66122032909e-05
2.59974596029e-05
2.54022010037e-05
2.4827169834e-05
2.42732113535e-05
2.37412985235e-05
2.32325557274e-05
2.27482789313e-05
2.22899504112e-05
2.18592438704e-05
2.145801558e-05
2.10882742155e-05
2.07521209764e-05
2.04516480574e-05
2.01887821293e-05
1.99650567564e-05
1.97812982903e-05
1.96372114154e-05
1.95308580141e-05
1.94580348073e-05
1.94115753912e-05
1.93806285026e-05
1.93499981262e-05
1.92996679993e-05
1.92046722801e-05
1.90355111584e-05
1.87593443571e-05
1.83422205556e-05
1.77525988384e-05
1.69663293913e-05
1.59729561055e-05
1.47825320274e-05
1.34319872656e-05
1.19814356057e-05
5.10760065317e-05
5.09340231131e-05
5.06537480314e-05
5.02423295425e-05
4.97097928037e-05
4.90685373286e-05
4.83327295047e-05
4.75176901417e-05
4.66393192021e-05
4.57135830266e-05
4.47560794162e-05
4.37816867636e-05
4.28042977983e-05
4.18366324825e-05
4.0890120944e-05
3.9974844296e-05
3.90995203893e-05
3.82715218314e-05
3.74969155724e-05
3.67805157868e-05
3.61259450005e-05
3.55357008942e-05
3.50112288037e-05
3.45530007178e-05
3.41606025554e-05
3.38328301979e-05
3.35677946055e-05
3.33630338859e-05
3.3215630207e-05
3.31223270645e-05
3.30796436183e-05
3.30839810955e-05
3.31317187799e-05
3.32192958197e-05
3.33432784131e-05
3.35004104973e-05
3.36876496233e-05
3.39021877256e-05
3.41414599799e-05
3.44031422314e-05
3.46851405542e-05
3.4985572764e-05
3.53031013881e-05
3.56365749734e-05
3.59849679071e-05
3.63473584552e-05
3.6722904608e-05
3.71108167948e-05
3.75103303564e-05
3.7920676381e-05
3.83410530929e-05
3.87705957261e-05
3.92083467553e-05
3.96532242269e-05
4.01039901178e-05
4.05592165622e-05
4.1017252151e-05
4.14761864732e-05
4.19338156543e-05
4.23876077505e-05
4.28346717417e-05
4.32717302212e-05
4.36951010865e-05
4.4100690128e-05
4.44840017692e-05
4.48401717616e-05
4.51640306283e-05
4.54502024358e-05
4.56932468465e-05
4.58878454413e-05
4.60290319259e-05
4.61124522825e-05
4.61346320637e-05
4.60932108268e-05
4.59871020373e-05
4.58165448864e-05
4.5583169421e-05
4.52899049662e-05
4.49404076938e-05
4.45389213713e-05
4.40900564138e-05
4.3598601367e-05
4.30693716326e-05
4.25070938776e-05
4.19163228824e-05
4.13013833211e-05
4.06663322817e-05
4.00149362483e-05
3.93506603281e-05
3.86766654835e-05
3.79958130989e-05
3.73106739107e-05
3.66235414076e-05
3.59364474022e-05
3.52511802427e-05
3.45693037692e-05
3.38921776736e-05
3.32209776465e-05
3.25567160726e-05
3.19002618628e-05
3.12523602143e-05
3.06136510122e-05
2.99846866047e-05
2.93659476491e-05
2.87578575045e-05
2.81607935828e-05
2.75750955396e-05
2.70010680281e-05
2.64393074589e-05
2.58906940897e-05
2.53561965386e-05
2.48368894649e-05
2.43339694046e-05
2.38487658346e-05
2.33827450649e-05
2.29375022408e-05
2.25147366607e-05
2.21162028935e-05
2.17436295143e-05
2.13985943853e-05
2.10823448634e-05
2.0795549692e-05
2.05379712152e-05
2.03080494652e-05
2.01023981482e-05
1.99152246533e-05
1.97377055864e-05
1.95573733982e-05
1.93576000601e-05
1.91172967756e-05
1.88109851025e-05
1.84094327184e-05
1.78810897643e-05
1.71946093839e-05
1.63227808774e-05
1.52481953338e-05
1.39707507405e-05
1.25163729738e-05
1.09450446996e-05
9.35077308644e-06
4.86836881425e-05
4.85667252943e-05
4.83357878854e-05
4.79966663324e-05
4.75574884514e-05
4.70283509019e-05
4.6420847913e-05
4.57475782164e-05
4.50216675779e-05
4.42563342395e-05
4.34645172562e-05
4.26585777039e-05
4.18500753597e-05
4.10496156523e-05
4.02667571009e-05
3.9509966175e-05
3.8786606364e-05
3.81029492436e-05
3.74641983293e-05
3.68745194717e-05
3.63370753143e-05
3.5854063663e-05
3.54267621078e-05
3.50555813096e-05
3.47401299181e-05
3.44792919653e-05
3.42713170929e-05
3.41139209462e-05
3.40043930734e-05
3.39397070577e-05
3.39166290659e-05
3.39318192486e-05
3.39819232878e-05
3.40636500876e-05
3.41738352129e-05
3.43094881653e-05
3.44678253328e-05
3.46462883384e-05
3.48425511335e-05
3.50545163595e-05
3.52803047308e-05
3.5518237411e-05
3.57670046836e-05
3.60256854672e-05
3.62934579086e-05
3.65695809108e-05
3.68533747499e-05
3.71441992152e-05
3.74414320756e-05
3.77444465902e-05
3.80525904171e-05
3.83651639634e-05
3.8681400144e-05
3.90004433686e-05
3.93213297463e-05
3.96429663998e-05
3.99641120928e-05
4.02833572987e-05
4.05991062825e-05
4.09095597546e-05
4.12127012509e-05
4.15062864862e-05
4.17878396486e-05
4.20546567599e-05
4.23038209104e-05
4.25322301626e-05
4.27366431741e-05
4.29137429318e-05
4.30602221433e-05
4.3172887768e-05
4.32487833353e-05
4.32853196287e-05
4.32804038114e-05
4.32325495585e-05
4.31409543211e-05
4.30055305928e-05
4.28268927838e-05
4.26063977867e-05
4.23460263462e-05
4.20480486791e-05
4.17150106669e-05
4.13496338647e-05
4.09547305104e-05
4.05331324981e-05
4.00876364331e-05
3.96209607261e-05
3.91357142025e-05
3.86343728686e-05
3.81192646747e-05
3.75925594875e-05
3.7056264543e-05
3.65122230941e-05
3.59621168251e-05
3.54074701266e-05
3.48496569804e-05
3.42899088094e-05
3.3729324122e-05
3.31688784791e-05
3.26094356294e-05
3.20517584632e-05
3.14965206013e-05
3.09443173463e-05
3.03956767251e-05
2.98510693242e-05
2.93109174035e-05
2.87756017356e-05
2.82454661105e-05
2.77208173146e-05
2.72022260073e-05
2.66905596632e-05
2.61867662556e-05
2.56918858777e-05
2.52070596472e-05
2.47335327482e-05
2.42726489674e-05
2.38258318046e-05
2.33945472787e-05
2.29802410788e-05
2.25842424204e-05
2.2207624628e-05
2.18510126245e-05
2.1514326723e-05
2.11964548894e-05
2.08948493341e-05
2.06050522063e-05
2.03201670939e-05
2.0030311394e-05
1.9722106773e-05
1.93782927811e-05
1.89775792862e-05
1.84948887193e-05
1.79021790743e-05
1.71700890789e-05
1.62707121435e-05
1.51818855002e-05
1.38934376151e-05
1.24157217708e-05
1.07900640137e-05
9.09881634328e-06
7.46718891294e-06
4.67364488031e-05
4.66398264896e-05
4.6449060263e-05
4.61689550074e-05
4.58062419575e-05
4.53692835924e-05
4.48676858811e-05
4.43118878827e-05
4.37127611582e-05
4.30812444417e-05
4.24280332851e-05
4.17633345755e-05
4.10966882213e-05
4.04368498403e-05
3.97917238739e-05
3.91683335451e-05
3.85728147826e-05
3.80104228888e-05
3.74855445324e-05
3.70017108819e-05
3.65616117299e-05
3.61671124689e-05
3.58192780362e-05
3.55184073428e-05
3.52640818652e-05
3.50552292966e-05
3.48902024698e-05
3.47668703458e-05
3.4682717964e-05
3.46349495144e-05
3.46205904374e-05
3.46365826879e-05
3.46798704652e-05
3.47474723646e-05
3.48365397263e-05
3.494439933e-05
3.5068582449e-05
3.52068400156e-05
3.53571473728e-05
3.55176991875e-05
3.56868985945e-05
3.58633411277e-05
3.6045791623e-05
3.62335739312e-05
3.64261347596e-05
3.66229810867e-05
3.68236629642e-05
3.70277560427e-05
3.72348450215e-05
3.74445064885e-05
3.76562935708e-05
3.78697204986e-05
3.80842490929e-05
3.82992750009e-05
3.851411566e-05
3.87279978609e-05
3.89400470491e-05
3.91492764087e-05
3.93545781134e-05
3.95547150542e-05
3.97483157646e-05
3.99338712208e-05
4.01097366426e-05
4.02741373759e-05
4.04251823036e-05
4.05608840585e-05
4.06791893725e-05
4.07780183613e-05
4.08553149936e-05
4.09091058407e-05
4.0937566812e-05
4.09390918574e-05
4.09123598838e-05
4.08563911755e-05
4.07705886955e-05
4.06547581665e-05
4.05091078763e-05
4.03342316047e-05
4.01311144254e-05
3.99010578667e-05
3.96454651898e-05
3.93658793808e-05
3.90639295906e-05
3.87412888409e-05
3.83996401212e-05
3.80406480667e-05
3.76659365884e-05
3.72770706467e-05
3.68755430613e-05
3.64627643594e-05
3.60400564842e-05
3.56086485233e-05
3.51696753167e-05
3.4724177297e-05
3.42731024925e-05
3.38173092248e-05
3.33575704609e-05
3.28945784723e-05
3.24289507352e-05
3.19612358047e-05
3.14919200393e-05
3.10214339566e-05
3.05501589922e-05
3.0078433407e-05
2.96065578689e-05
2.91347991952e-05
2.8663392233e-05
2.81925377152e-05
2.77226606945e-05
2.72544975571e-05
2.67888598418e-05
2.63266409896e-05
2.58688195841e-05
2.54164558075e-05
2.49706783983e-05
2.45326571954e-05
2.41035565418e-05
2.36844625762e-05
2.3276277503e-05
2.28795720556e-05
2.24943880996e-05
2.211998317e-05
2.1754512115e-05
2.13946451555e-05
2.1035130668e-05
2.06683224729e-05
2.0283708617e-05
1.98674989703e-05
1.94023545685e-05
1.88673701913e-05
1.82384560596e-05
1.74893060023e-05
1.65931958983e-05
1.55259356814e-05
1.42704091168e-05
1.28232574749e-05
1.12042669396e-05
9.46843378875e-06
7.71832252645e-06
6.10728645166e-06
4.51423024837e-05
4.50625810756e-05
4.49052253296e-05
4.46742817596e-05
4.43753964921e-05
4.40155639245e-05
4.36027934612e-05
4.31457580423e-05
4.26534535963e-05
4.21348923074e-05
4.15988477966e-05
4.1053660345e-05
4.05071026533e-05
3.99662982126e-05
3.94376805077e-05
3.89269789426e-05
3.84392191198e-05
3.7978727418e-05
3.75491343157e-05
3.71533742739e-05
3.67936841322e-05
3.6471603571e-05
3.61879831629e-05
3.59430042846e-05
3.57362150036e-05
3.55665827343e-05
3.54325636782e-05
3.53321853749e-05
3.52631389555e-05
3.52228748879e-05
3.52086980227e-05
3.52178559673e-05
3.52476182179e-05
3.52953420634e-05
3.53585252462e-05
3.54348435904e-05
3.55221757393e-05
3.56186146893e-05
3.5722469563e-05
3.58322580624e-05
3.59466937437e-05
3.60646686485e-05
3.61852347985e-05
3.63077466919e-05
3.64319789375e-05
3.65577281325e-05
3.66848074675e-05
3.68130366685e-05
3.69422309628e-05
3.70721886537e-05
3.72026802985e-05
3.73334378474e-05
3.74641458648e-05
3.7594432669e-05
3.77238633494e-05
3.7851932492e-05
3.79780586925e-05
3.81015788233e-05
3.82217443079e-05
3.83377175479e-05
3.84485709549e-05
3.85532869426e-05
3.86507615361e-05
3.87398101448e-05
3.88191782717e-05
3.88875557451e-05
3.89435970832e-05
3.89859462437e-05
3.90132676892e-05
3.90242810823e-05
3.90178001968e-05
3.89927718714e-05
3.89483140059e-05
3.888374738e-05
3.87986200885e-05
3.86927206951e-05
3.85660817152e-05
3.84189731826e-05
3.82518925903e-05
3.80655414435e-05
3.78607744584e-05
3.76384844609e-05
3.73996343944e-05
3.71452226028e-05
3.68762654131e-05
3.65937792771e-05
3.62987644501e-05
3.59921914376e-05
3.56749907292e-05
3.53480442415e-05
3.50121795766e-05
3.46681655147e-05
3.43167097701e-05
3.39584574998e-05
3.3593991581e-05
3.32238332847e-05
3.28484443706e-05
3.24682293395e-05
3.20835388319e-05
3.16946729749e-05
3.13018855963e-05
3.09053881473e-05
3.05053541451e-05
3.01019229373e-05
2.96952033541e-05
2.92852757748e-05
2.88721925804e-05
2.84559747809e-05
2.80368081466e-05
2.76152127539e-05
2.71917777045e-05
2.67671643676e-05
2.63421053782e-05
2.59173960529e-05
2.54938755749e-05
2.50723932e-05
2.46537550485e-05
2.42386450184e-05
2.3827513721e-05
2.34204278627e-05
2.30168736802e-05
2.26155083582e-05
2.22138571283e-05
2.18079580788e-05
2.13919655544e-05
2.09577338288e-05
2.04944186835e-05
1.99881530322e-05
1.9421876187e-05
1.87754229153e-05
1.80260117263e-05
1.71493142704e-05
1.61213493309e-05
1.49215380844e-05
1.35374004863e-05
1.19715663298e-05
1.02519192735e-05
8.44527855779e-06
6.67232786454e-06
5.11194890882e-06
4.38259951446e-05
4.37606332138e-05
4.36316803745e-05
4.34425694373e-05
4.31980624691e-05
4.29040267113e-05
4.25671390256e-05
4.21945783656e-05
4.17937333343e-05
4.13719456503e-05
4.09363054832e-05
4.04935042595e-05
4.00497429799e-05
3.96106856692e-05
3.91814446911e-05
3.87665831746e-05
3.83701227067e-05
3.79955474513e-05
3.76458009975e-05
3.73232756479e-05
3.70297980226e-05
3.67666159867e-05
3.65343935797e-05
3.63332187723e-05
3.61626284574e-05
3.60216513261e-05
3.59088684747e-05
3.58224877116e-05
3.57604279796e-05
3.57204074632e-05
3.57000312175e-05
3.56968723307e-05
3.57085442339e-05
3.57327602497e-05
3.57673805677e-05
3.58104448989e-05
3.58601930737e-05
3.59150732228e-05
3.59737410204e-05
3.60350503461e-05
3.60980395177e-05
3.61619132679e-05
3.62260225613e-05
3.62897347871e-05
3.63531431775e-05
3.64163332854e-05
3.64793830342e-05
3.65423560339e-05
3.66052940014e-05
3.66682078759e-05
3.67310705151e-05
3.67938093211e-05
3.6856300963e-05
3.69183660243e-05
3.69797655164e-05
3.70401970508e-05
3.70992927049e-05
3.71566164968e-05
3.7211663647e-05
3.72638596764e-05
3.73125616506e-05
3.73570597551e-05
3.73965816192e-05
3.74302976789e-05
3.74573300315e-05
3.74767630705e-05
3.74876582089e-05
3.74890707617e-05
3.74800708533e-05
3.74597658818e-05
3.74273256228e-05
3.73820067129e-05
3.73231767452e-05
3.72503342326e-05
3.71631245913e-05
3.70613491847e-05
3.69449689469e-05
3.6814101675e-05
3.66690161611e-05
3.65101226511e-05
3.63379608253e-05
3.61531016042e-05
3.59561557282e-05
3.57477459688e-05
3.55285120881e-05
3.5299099328e-05
3.50601422367e-05
3.48122543831e-05
3.45560203023e-05
3.42919881925e-05
3.40206647159e-05
3.37425105735e-05
3.34579380049e-05
3.31673087927e-05
3.28709338168e-05
3.25690728366e-05
3.22619355497e-05
3.19496827084e-05
3.16324283112e-05
3.13102417156e-05
3.09831506199e-05
3.06511437997e-05
3.03141744484e-05
2.99721629786e-05
2.96249999111e-05
2.92725474412e-05
2.89146396497e-05
2.85510789594e-05
2.81817477803e-05
2.78068962481e-05
2.74268339822e-05
2.70419315957e-05
2.66526168535e-05
2.6259362461e-05
2.58626631238e-05
2.54629974189e-05
2.50607704118e-05
2.46562311048e-05
2.42493594336e-05
2.38397163906e-05
2.34262523967e-05
2.30070697035e-05
2.25791386051e-05
2.21379715892e-05
2.16772680677e-05
2.11885523387e-05
2.06608420563e-05
2.00804011821e-05
1.94306527834e-05
1.8692351679e-05
1.78441491647e-05
1.68637254666e-05
1.57297324418e-05
1.44248967062e-05
1.29408111969e-05
1.12852148039e-05
9.49286083607e-06
7.64086589154e-06
5.86638811496e-06
4.37153969201e-06
4.27246145177e-05
4.26717639006e-05
4.25675657994e-05
4.24149318017e-05
4.22178692048e-05
4.19812745065e-05
4.17106654124e-05
4.1411908004e-05
4.1090964933e-05
4.07536835234e-05
4.04056376579e-05
4.00520261247e-05
3.9697622408e-05
3.93467627691e-05
3.90033575783e-05
3.8670910418e-05
3.83525336618e-05
3.80509529174e-05
3.77684984892e-05
3.75070853926e-05
3.7268187582e-05
3.7052812707e-05
3.6861485079e-05
3.66942421319e-05
3.65506490305e-05
3.6429831963e-05
3.63305298636e-05
3.62511602837e-05
3.6189895756e-05
3.61447440953e-05
3.61136285564e-05
3.6094461874e-05
3.60852119769e-05
3.60839555143e-05
3.60889195455e-05
3.60985096436e-05
3.61113267643e-05
3.61261724413e-05
3.61420457976e-05
3.61581326549e-05
3.61737911315e-05
3.6188534692e-05
3.62020168888e-05
3.62136552677e-05
3.62237673979e-05
3.62327107972e-05
3.62408165805e-05
3.62483775315e-05
3.62556424362e-05
3.62628105133e-05
3.62700273955e-05
3.62773808226e-05
3.62848983096e-05
3.62925446505e-05
3.63002212105e-05
3.63077647627e-05
3.63149478852e-05
3.63214787953e-05
3.63270027663e-05
3.63311031236e-05
3.63333040612e-05
3.63330733759e-05
3.63298274184e-05
3.63229364272e-05
3.63117325413e-05
3.62955186467e-05
3.62735802255e-05
3.62451982117e-05
3.62096647062e-05
3.61662992151e-05
3.61144667538e-05
3.60535950165e-05
3.59831914311e-05
3.59028570487e-05
3.58122980306e-05
3.57113321706e-05
3.55998919963e-05
3.54780230727e-05
3.53458800748e-05
3.5203720539e-05
3.50518993322e-05
3.48908736135e-05
3.47210759443e-05
3.45429285706e-05
3.43568605309e-05