/*--------------------------------*- C++ -*----------------------------------*\
| =========                 |                                                 |
| \\      /  F ield         | OpenFOAM: The Open Source CFD Toolbox           |
|  \\    /   O peration     | Version:  2312                                  |
|   \\  /    A nd           | Website:  www.openfoam.com                      |
|    \\/     M anipulation  |                                                 |
\*---------------------------------------------------------------------------*/
FoamFile
{
    version     2.0;
    format      ascii;
    arch        "LSB;label=32;scalar=64";
    class       volScalarField;
    location    "0.02/water";
    object      alpha.gas_0;
}
// * * * * * * * * * * * * * * * * * * * * * * * * * * * * * * * * * * * * * //

dimensions      [0 0 0 0 0 0 0];

internalField   nonuniform List<scalar> 
1497
(
0.143544390608
0.0659251077796
0.0423761771694
0.0368516624974
0.0337480840412
0.030501176615
0.0269460602443
0.0233637306898
0.0198570313217
0.0164481467569
0.0132503066201
0.0102423266343
0.00731980084629
0.620511971779
0.399599571377
0.380895481027
0.380417422526
0.379642251739
0.348516729988
0.263134188577
0.146090630344
0.0662652783989
0.0418829812521
0.0363855772748
0.0333888634396
0.0302486074047
0.0267787259874
0.0232567991147
0.0197913618458
0.0164098855637
0.0132300545421
0.0102364508421
0.00732174169806
0.622161401599
0.396524036858
0.371490579816
0.373026260255
0.378203501907
0.350944070606
0.268937821251
0.150868963666
0.0674708212678
0.0416228975819
0.0359547308614
0.0329976978297
0.0299323277611
0.026537618272
0.0230829195075
0.019676040762
0.0163440664072
0.0132010264372
0.0102307913247
0.00732628216256
0.623783215252
0.39369984714
0.365240060791
0.366869401284
0.3781988545
0.354932325545
0.27693612207
0.157912121509
0.0697731892587
0.0416184561296
0.0356271832576
0.0326976743079
0.0296986865757
0.0263509694498
0.0229290445069
0.0195625076754
0.0162752556131
0.0131692982058
0.0102242519834
0.0073328772585
0.625378100541
0.391098056221
0.365298559109
0.36688533587
0.380568015971
0.360079056614
0.284388259751
0.164463897968
0.0722172783259
0.0415823315487
0.0353476753662
0.032478817219
0.0295605619431
0.0262633712954
0.0228680878607
0.0195173033065
0.016245799363
0.013153392756
0.0102208747866
0.00734133542466
0.628322514525
0.388021665382
0.366001654069
0.36846107858
0.385461484882
0.365396497818
0.288688763612
0.166770239313
0.0722999681406
0.041293765779
0.0350423207305
0.0322623333673
0.0294357757418
0.0262011237339
0.0228377934083
0.0195051538686
0.016241761616
0.0131523971726
0.0102245078397
0.00735520617339
0.641270315127
0.393436921467
0.367750247615
0.372272001065
0.391903365662
0.370340174101
0.29033363529
0.166045538254
0.0716245214885
0.040806546823
0.0346874370555
0.0319960888291
0.029261238374
0.0261098005166
0.0228000714974
0.01949616452
0.016247547851
0.0131650295626
0.0102441377703
0.00738058655797
0.645017273402
0.413967214269
0.371975660061
0.377463963421
0.396160712218
0.372767048887
0.290949812503
0.165656484035
0.0711415784153
0.0404310811863
0.03439593352
0.0317421426422
0.0290644778467
0.0259875123772
0.0227416860012
0.0194840038306
0.0162632074074
0.013195942687
0.0102833783258
0.00742071482887
0.645065036665
0.442419712208
0.38378938049
0.384195604458
0.397530792978
0.373371235232
0.291992224482
0.16689294359
0.0717085282932
0.0404531135858
0.0342680647057
0.0316380374942
0.0290129844339
0.0259663017305
0.0227331771556
0.0194865032477
0.0162859952818
0.0132352975957
0.0103322025164
0.00746991408022
0.644924022806
0.459574876823
0.397243044378
0.390748801275
0.397533960081
0.373452323052
0.29269582022
0.169237681949
0.0731821672228
0.0405948980053
0.034202883891
0.031608381867
0.029029494566
0.0259947456331
0.0227575282318
0.0195122119838
0.0163221980387
0.013278591689
0.0103794409371
0.00751838946537
0.645469742157
0.464498060286
0.403616134793
0.393203393822
0.397249023874
0.372183566025
0.291938657724
0.169729563318
0.073943813156
0.0406127780275
0.0341012731717
0.0315635622011
0.0290415693913
0.0260507348838
0.0228200140372
0.0195712367021
0.0163755650822
0.0133259856701
0.0104234180735
0.0075625061111
0.649329620622
0.465040055193
0.402759391409
0.392277683804
0.394320369454
0.368377120496
0.288803443927
0.168594557473
0.0737339105769
0.0403919026207
0.0338887843923
0.0314405334576
0.0290060830815
0.0260572313594
0.0228564110694
0.0196234458797
0.0164306208128
0.0133736058841
0.0104661439113
0.00760436541522
0.656255109639
0.464450447248
0.398112430536
0.388230488258
0.388670062306
0.362781801391
0.284659199602
0.166841676881
0.07331057389
0.0400248880915
0.033579264746
0.0312099102574
0.0288704639766
0.0260064378986
0.0228452064326
0.0196301275748
0.0164530930615
0.0134082826378
0.0105052726956
0.00764430683153
0.659436501337
0.461927487108
0.395015980331
0.382307435519
0.381883697224
0.356689092843
0.28112866079
0.166229617125
0.0734572379267
0.0398030030977
0.0332866455254
0.0309543168215
0.0286751398446
0.0258830937151
0.022783182998
0.0196076344678
0.0164490402571
0.013416310325
0.0105315517888
0.00767651185147
0.66041558433
0.458025553379
0.393002359754
0.376725429147
0.375144513046
0.350471189994
0.277493281057
0.165474514403
0.073542755809
0.0396191703751
0.0330442629516
0.0307517472337
0.0285209727626
0.025767252859
0.0226960477504
0.0195502745624
0.0164225886732
0.0134102577489
0.0105355257365
0.00769549031107
0.665559166816
0.45351094846
0.389784208524
0.371747828594
0.369094683678
0.344583881047
0.273454895869
0.16393365118
0.0732272317731
0.0393102624514
0.0327868830176
0.0305681168848
0.0283993325237
0.025684231418
0.0226288370545
0.0194927784522
0.0163812103325
0.0133895389766
0.0105298679014
0.00769808972257
0.680438930274
0.449833634043
0.383647949271
0.366148501303
0.363674898292
0.340049745815
0.27096581199
0.163253918293
0.0727205192897
0.03884026534
0.0324554891026
0.0303390089406
0.0282503039568
0.0255906311664
0.022564442535
0.0194431650714
0.0163419317831
0.0133605222801
0.0105142191912
0.00769548322943
0.681182626113
0.447054421704
0.373736624657
0.358555207799
0.357906813511
0.33641202305
0.270361381356
0.163692117989
0.0728520380556
0.0383862294751
0.0320695769868
0.0300399320432
0.0280336425706
0.0254454806691
0.0224690996358
0.019379115417
0.0162976874308
0.0133289673745
0.0104949927348
0.00769079757078
0.680086581808
0.44591702715
0.366980707766
0.350853216977
0.352369004681
0.333525092692
0.27095362559
0.165933105955
0.0739532848083
0.0383827079676
0.0317411591368
0.0297304720977
0.0277810165216
0.0252533656969
0.0223289022085
0.0192814028492
0.0162337497436
0.0132897507704
0.0104747075473
0.00768521661669
0.679292573687
0.444770403718
0.362528366687
0.344739004408
0.348006162659
0.33197722563
0.273387379539
0.170474739047
0.0764398966879
0.0385885146814
0.0315054505323
0.0294848071612
0.0275747939487
0.0250807204682
0.0221801142923
0.0191615053893
0.0161488815364
0.0132376215068
0.0104481608127
0.00767562855604
0.678194359393
0.442695190864
0.357519562788
0.339719592406
0.344821072064
0.331651173192
0.277355111356
0.176402930915
0.0797271923651
0.0389766955563
0.0313091466454
0.0292857730141
0.0274212998996
0.0249566008164
0.0220643998732
0.0190562652486
0.0160646352342
0.013178323406
0.0104109784371
0.00765700700248
0.677460112708
0.439675946175
0.349817288187
0.334050840284
0.341759666369
0.331809068704
0.282369805967
0.183050713798
0.0832440243644
0.0393602947115
0.031077915491
0.0290667753025
0.0272596872109
0.0248376239961
0.0219653976076
0.0189710753036
0.0159947017104
0.0131231864966
0.0103697970616
0.00763298937681
0.677729763772
0.436350243985
0.337993711955
0.325893666232
0.337727588334
0.332252126388
0.288602324189
0.19080237665
0.0871986234396
0.0398232235452
0.0307959782233
0.0287762352504
0.0270279393014
0.0246675251275
0.0218402280383
0.0188780307939
0.0159253287113
0.0130707068601
0.0103338366093
0.00761488328676
0.675949022834
0.434192308251
0.329349820012
0.317117822009
0.333643406446
0.33389772429
0.296433958394
0.200342472945
0.0922822604269
0.0406207399028
0.0305383345111
0.0284386983376
0.0267259900075
0.0244303264689
0.0216655156509
0.0187539397702
0.0158404569149
0.0130172502672
0.0103062850147
0.00760473444033
0.673011716774
0.433154100886
0.326403181673
0.3134331443
0.332780833777
0.33852069987
0.305098585416
0.211137561922
0.0988301802817
0.0419872594237
0.0304342486772
0.0281624196286
0.0264641204735
0.0242257088997
0.0215102135731
0.0186371721351
0.0157610201461
0.0129728334837
0.0102866103739
0.00759987947813
0.670607854967
0.432406811
0.326189622861
0.313679777423
0.333922239085
0.344856716826
0.313121492392
0.220435405363
0.105199871202
0.04360962224
0.0303996325568
0.027987377978
0.0263111034596
0.0241205179531
0.0214360745658
0.0185778323151
0.0157170238552
0.0129456375387
0.0102738544656
0.00759955675477
0.667969773162
0.432200793941
0.325262165215
0.314837650497
0.337434501019
0.351489249512
0.319219545319
0.225054895843
0.107600705986
0.043898418149
0.0302972370951
0.0278546501395
0.0262087395038
0.0240562798421
0.021396741001
0.0185518808042
0.0156991766622
0.0129338235095
0.0102690881766
0.00760506792611
0.663418914329
0.435813637623
0.323891400073
0.316714993752
0.342249301503
0.356507767575
0.32282601111
0.226217489487
0.10727337157
0.0436556073969
0.0301040186595
0.0277010704991
0.0260937485802
0.0239832037792
0.0213561059381
0.0185321788395
0.0156923049395
0.0129329576687
0.0102728341816
0.00761956344449
0.653748742847
0.446754641314
0.329040654545
0.320362446838
0.346127953361
0.358115249375
0.323501609171
0.226316077593
0.106956381798
0.0433436144447
0.0298764271561
0.0275152831244
0.0259432261603
0.0238795504525
0.0212992890061
0.0185090177952
0.0156900031695
0.0129414359868
0.010289720641
0.00764500454826
0.641022076142
0.463162480274
0.340575939924
0.325813726185
0.348768368053
0.358271226093
0.32323535455
0.225732529243
0.106466047446
0.0430793305465
0.0296847806714
0.0273483940168
0.0258038351683
0.0237779543832
0.0212395713204
0.0184826194032
0.0156869606683
0.0129544741369
0.0103141927227
0.00767816145528
0.624637015735
0.479816767127
0.352673924906
0.331819696515
0.351249499877
0.358143754662
0.322047474658
0.223837996904
0.105210995723
0.0426700049716
0.0295120776871
0.0272279816916
0.025717933177
0.0237238133731
0.0212069274867
0.0184654575958
0.0156845072238
0.012964298733
0.0103356067539
0.00770959914437
0.600971181745
0.497981013274
0.36113489936
0.336261523096
0.353393491975
0.356712423344
0.318795767
0.219407517455
0.102307155496
0.0418190006844
0.0292925883857
0.0271213775146
0.0256575131408
0.0236925883662
0.021192668067
0.0184627018259
0.0156883410828
0.0129734473752
0.0103506173707
0.00773384903525
0.570578493783
0.522811651626
0.366327486499
0.336640817232
0.353371637552
0.353020340959
0.312670256532
0.21175192604
0.0971691809251
0.0403251874385
0.0289743437535
0.0269852554395
0.0255832850088
0.0236552466317
0.0211778957955
0.0184597093303
0.0156959043209
0.0129853339671
0.0103626843362
0.00775370957669
0.537470767738
0.561248494529
0.38280032771
0.336524228404
0.351408025326
0.347548327389
0.304880074792
0.20378187366
0.0920919869304
0.0388070320617
0.0285940416209
0.0267914813555
0.0254625888131
0.0235879596256
0.0211486987753
0.0184498176576
0.0156924581907
0.0129847880961
0.0103738530058
0.00777316258008
0.525276855235
0.564896232595
0.405207608426
0.336489043666
0.346599586343
0.340772920353
0.297779122803
0.198910061703
0.0900929474528
0.0381101471267
0.0282528245895
0.0265565122495
0.0252914477519
0.0234766305253
0.0210873051194
0.0184196810563
0.0156780720415
0.0129788340426
0.010373247677
0.00779001123959
0.514056348876
0.570031379836
0.421563086825
0.336133444405
0.34058622305
0.333766920712
0.291803045055
0.195831340947
0.0893200094724
0.0378158086832
0.02797932171
0.026333996801
0.0251158215182
0.0233461212066
0.0209943976015
0.0183573236564
0.0156400579185
0.0129592693934
0.0103674639603
0.00779164195246
0.508509013042
0.564896232595
0.428243900327
0.334120476797
0.334729432763
0.327651761322
0.287306809475
0.194264631202
0.0891189455141
0.037572585065
0.027733399664
0.0261416539944
0.024967388195
0.0232310938782
0.0208980132842
0.0182759452538
0.0155787516257
0.0129210289428
0.0103498366287
0.00778735053406
0.498537034545
0.569783142877
0.426304330138
0.329166575065
0.328577044209
0.322415479243
0.28492790077
0.194344812538
0.0893514370885
0.0372907695239
0.0274721213433
0.0259480952465
0.0248226458365
0.0231228251936
0.0208090800666
0.0181982336779
0.0155143435265
0.0128729348204
0.0103190932993
0.00777378230377
0.00512950371089
0.00451340851042
0.00451408287006
0.0044451532051
0.00383914586168
0.00212742259702
0.000346354771794
4.90570148568e-06
2.78066276095e-15
1.15340529582e-14
1.30481786908e-14
1.30303264863e-14
1.29870384089e-14
1.29599043968e-14
1.29336977771e-14
1.28597871144e-14
1.26496211668e-14
1.23805618275e-14
1.26960530308e-14
1.31479378013e-14
0.0051210055463
0.00449388404376
0.00449492261466
0.00443146972858
0.00384480333138
0.00215313324512
0.000359977186763
5.35124785889e-06
2.78066274819e-15
1.14108528259e-14
1.29561881875e-14
1.29401241383e-14
1.2901011986e-14
1.2877270774e-14
1.28557537185e-14
1.27973125776e-14
1.26120623935e-14
1.23553264346e-14
1.26684650472e-14
1.30989661007e-14
0.00511727367857
0.00447683365963
0.00447794682047
0.00441956756044
0.00385099842708
0.00217521129384
0.000373121278858
5.80995058501e-06
2.78066276182e-15
1.1305127833e-14
1.28618254471e-14
1.28500824398e-14
1.28212443185e-14
1.27993932925e-14
1.27791454062e-14
1.27348637681e-14
1.25626908102e-14
1.23001859247e-14
1.25825095358e-14
1.29826148523e-14
0.00511819814664
0.00446258205449
0.00446262199002
0.00440781547684
0.00385199137021
0.0021917318488
0.000386613843624
6.32560078334e-06
2.78066274633e-15
1.11827057907e-14
1.27576740988e-14
1.2750569291e-14
1.27291171717e-14
1.27034122839e-14
1.26818600052e-14
1.26482681741e-14
1.2479592693e-14
1.21933032701e-14
1.24456629419e-14
1.2837955967e-14
0.00512166255266
0.00444832761668
0.00444633158251
0.00439419359956
0.00385077542085
0.00220956887853
0.000402831419114
6.98940640211e-06
2.78066276015e-15
1.10095570383e-14
1.26451924762e-14
1.26415554696e-14
1.26209131579e-14
1.25905252914e-14
1.25718911892e-14
1.25478020955e-14
1.23834528708e-14
1.20846887339e-14
1.23539865169e-14
1.27485977709e-14
0.0051274537169
0.00443181286236
0.00442749945451
0.00437879216442
0.00385153616618
0.00223615557341
0.000423743774863
7.88705940144e-06
2.78066274188e-15
1.07681098765e-14
1.25296057991e-14
1.25309112878e-14
1.25091873281e-14
1.24805374076e-14
1.24701661445e-14
1.24535136147e-14
1.22966797982e-14
1.20014259878e-14
1.22925500268e-14
1.26659885003e-14
0.00513676865322
0.0044141407438
0.00440789950172
0.00436430211538
0.00385826901166
0.00227328295015
0.000448709031473
9.02550033989e-06
2.78066276033e-15
1.04697352336e-14
1.24122403544e-14
1.24220252165e-14
1.24003298844e-14
1.23751497847e-14
1.23660100483e-14
1.23471847653e-14
1.21902779404e-14
1.18908368468e-14
1.21754146687e-14
1.25156229947e-14
0.00515262793714
0.00439949684255
0.00439109936457
0.00435261513829
0.00386978670054
0.00231276427426
0.000474497953313
1.03404714483e-05
2.78066274113e-15
1.01899583155e-14
1.22954977997e-14
1.23147226027e-14
1.22926269691e-14
1.22654347704e-14
1.22457300765e-14
1.22145544221e-14
1.20437092285e-14
1.1728097799e-14
1.19912740712e-14
1.23380248226e-14
0.00517607957296
0.00438961942825
0.00437758770157
0.00434247726753
0.00387866481438
0.00234607111372
0.000499644323751
1.18389879215e-05
2.78066276397e-15
9.97648776079e-15
1.21858272432e-14
1.22138664394e-14
1.21912098466e-14
1.21607638434e-14
1.21313462619e-14
1.20951337847e-14
1.19188604967e-14
1.15998751664e-14
1.18848440223e-14
1.22516349319e-14
0.00520340311978
0.0043817298362
0.00436453596534
0.00433121786901
0.00388169856954
0.00237525184956
0.000526246838498
1.36510164096e-05
8.97541072829e-11
8.6221343555e-15
1.20797959447e-14
1.21203864987e-14
1.20984288022e-14
1.20698370142e-14
1.2041453785e-14
1.20105885402e-14
1.18401775026e-14
1.15272699458e-14
1.18312993368e-14
1.2195486126e-14
0.00522901035175
0.00437216073062
0.00434901061483
0.00431705996917
0.00388258213491
0.00240723749598
0.000556910806403
1.5921791278e-05
3.46194113602e-10
3.14861884758e-15
1.19585793839e-14
1.20248509119e-14
1.20037291937e-14
1.1978885374e-14
1.19543599281e-14
1.19268266543e-14
1.17573192053e-14
1.14440935049e-14
1.17482738326e-14
1.21072238581e-14
0.00525059628258
0.00435914157547
0.00433043837328
0.0043007718549
0.00388456822951
0.00244490290236
0.000591282193661
1.86265589083e-05
8.57175757074e-10
3.14897500888e-15
1.18208842299e-14
1.19206987687e-14
1.18994104888e-14
1.18746334704e-14
1.18517055186e-14
1.18231144442e-14
1.16432407679e-14
1.13194026504e-14
1.16240904221e-14
1.19978237177e-14
0.00526873365969
0.00434460722641
0.00431147662434
0.00428491396935
0.00388977707345
0.00248276868141
0.000624881614343
2.14658122374e-05
1.62440798746e-09
3.14861884729e-15
1.16818959013e-14
1.18154789263e-14
1.17949892826e-14
1.17681597186e-14
1.17485664917e-14
1.17225186055e-14
1.1533266814e-14
1.12003457303e-14
1.15227699224e-14
1.19018541536e-14
0.00528388137489
0.00433185852699
0.00429465104851
0.00427044324136
0.00388880188028
0.00250890456398
0.000654075091953
2.41654424087e-05
2.5819051532e-09
3.14897500877e-15
1.15526800042e-14
1.17154690094e-14
1.16974717438e-14
1.16703098375e-14
1.1656028549e-14
1.16323270163e-14
1.14378659143e-14
1.11002540659e-14
1.14248469329e-14
1.17835087649e-14
0.00529490706606
0.00432069454049
0.00427900915545
0.00425572303568
0.00388404305287
0.00252510849659
0.00068025294773
2.67207050524e-05
3.67773123097e-09
3.14861884555e-15
1.14274230406e-14
1.16118745478e-14
1.15951484208e-14
1.15675139886e-14
1.15524531086e-14
1.15191738713e-14
1.1314315931e-14
1.09755426062e-14
1.12800290034e-14
1.16150558711e-14
0.00529926603168
0.00430824984185
0.00426165939147
0.00423847339648
0.00387458974825
0.00253822241091
0.000706708251295
2.93114405942e-05
4.92870220878e-09
3.14897500832e-15
1.12974596809e-14
1.14965647818e-14
1.14782888893e-14
1.14482405308e-14
1.14237044227e-14
1.13702195086e-14
1.11582693841e-14
1.0841488086e-14
1.11462003194e-14
1.14767593251e-14
0.00529909206809
0.00429199221567
0.00424063274531
0.00421798380914
0.003863207215
0.00255366089181
0.000734532989798
3.20474312377e-05
6.37459120326e-09
3.14861884545e-15
1.11674515961e-14
1.13762941294e-14
1.13564760073e-14
1.13253268021e-14
1.12935709779e-14
1.12331705618e-14
1.10367999017e-14
1.07561032032e-14
1.10728353132e-14
1.13882822408e-14
0.00529587983865
0.0042719207017
0.00421702105331
0.00419614734925
0.00385334254894
0.0025719946838
0.000761104021255
3.47468424826e-05
7.93665576292e-09
3.14897500749e-15
1.10416083917e-14
1.12610725353e-14
1.12425163375e-14
1.12141904966e-14
1.11845659085e-14
1.11338245912e-14
1.0957483983e-14
1.06902602243e-14
1.09989163471e-14
1.12764809107e-14
0.00528935883783
0.00425125633996
0.00419401950474
0.00417534884382
0.00384415422668
0.00258688511575
0.000782568440439
3.71265657155e-05
9.47272418152e-09
3.14861884529e-15
1.09183621861e-14
1.11498036118e-14
1.11346216695e-14
1.11116727789e-14
1.10884110423e-14
1.10489971087e-14
1.08789722344e-14
1.05962938704e-14
1.0873903328e-14
1.11074685138e-14
0.00528111457029
0.00423237373297
0.00417275599794
0.00415544802983
0.00383278900252
0.00259410610359
0.000799604873465
3.9254036108e-05
1.10162296884e-08
3.14897500633e-15
1.0794242795e-14
1.10352817331e-14
1.10238849047e-14
1.100681057e-14
1.09886179832e-14
1.09559612517e-14
1.07760865458e-14
1.04552395269e-14
1.07038488892e-14
1.09373219865e-14
0.00527062496703
0.00421404017122
0.00415122339201
0.00413431946799
0.00381753688215
0.00259786427741
0.000816812241583
4.1506986886e-05
1.27907857315e-08
3.14861884496e-15
1.06600324801e-14
1.09076997212e-14
1.08969061204e-14
1.08804798867e-14
1.08603934059e-14
1.08262660109e-14
1.06223067549e-14
1.02785274073e-14
1.05097131175e-14
1.08004833356e-14
0.00525863312227
0.00419371178555
0.00412707399336
0.00411059536453
0.0038003617943
0.0026041884799
0.000838472395502
4.42854037451e-05
1.50852744779e-08
3.14897500624e-15
1.0510672339e-14
1.07629008617e-14
1.07461411654e-14
1.07192594653e-14
1.06854776704e-14
1.06383428305e-14
1.04168938743e-14
1.01123722844e-14
1.03752784442e-14
1.06987146117e-14
0.00524583592994
0.00417051111911
0.00410062918012
0.00408572993653
0.00378589216735
0.00261747079324
0.000865910767157
4.77374474827e-05
1.85316030913e-08
3.14861884485e-15
1.0366115318e-14
1.06212486815e-14
1.05992179358e-14
1.05650035373e-14
1.05255075514e-14
1.04759017855e-14
1.02774202202e-14
1.00250881464e-14
1.03445050144e-14
1.06444176476e-14
0.00523787330215
0.00414821040371
0.00407530411317
0.00406279811289
0.00377564641083
0.0026363164055
0.00089633174149
5.16444694938e-05
2.29971831617e-08
3.1489750062e-15
1.0245980597e-14
1.05106469145e-14
1.04941478857e-14
1.04711382192e-14
1.04455815712e-14
1.0409294746e-14
1.02343837983e-14
9.98649841148e-15
1.03292257101e-14
1.06042722754e-14
0.00523599564687
0.00413044633755
0.00405339352939
0.00404259998922
0.00376663898957
0.00265425391144
0.000926531653987
5.58101222887e-05
2.83634006284e-08
3.14861884482e-15
1.0140751974e-14
1.04207006313e-14
1.04143831636e-14
1.04068808567e-14
1.03964783053e-14
1.03707042877e-14
1.02031570459e-14
9.93812066479e-15
1.02767978611e-14
1.05216275535e-14
0.00523789493911
0.00411674989768
0.00403327515177
0.00402287504244
0.00375577959118
0.00266919332604
0.000957740664991
6.04912523693e-05
3.51024327186e-08
3.14897500551e-15
1.00250586183e-14
1.03181440541e-14
1.03184177306e-14
1.03203303976e-14
1.031985186e-14
1.03005380173e-14
1.01304937739e-14
9.8279245366e-15
1.01217303397e-14
1.03530814706e-14
0.00524615027222
0.00410433349951
0.00401168215388
0.00400090509595
0.00374208395652
0.00268517201314
0.000994187515516
6.62716638728e-05
4.44027531101e-08
3.14861884418e-15
9.87684784523e-15
1.0176130915e-14
1.01734572112e-14
1.0171049351e-14
1.01696262102e-14
1.01512608776e-14
9.9734741493e-15
9.64343526736e-15
9.90260530054e-15
1.01634750392e-14
0.00526050434631
0.00409087953709
0.00398684436518
0.00397604743341
0.00372789640101
0.00270718469108
0.00103835715557
7.35595825871e-05
5.75356100906e-08
3.14897500488e-15
9.69824724555e-15
9.99750562898e-15
9.98348143325e-15
9.96478826543e-15
9.95083948301e-15
9.92800575644e-15
9.75436559136e-15
9.4520925172e-15
9.73071235894e-15
1.00206639279e-14
0.00527991164528
0.00407675818268
0.00396035130506
0.00395051986017
0.00371645188303
0.0027361187933
0.00108744916614
8.21042057173e-05
7.49980050331e-08
3.14861884403e-15
9.51761959515e-15
9.81792306089e-15
9.79562161423e-15
9.76650253536e-15
9.74433749592e-15
9.71607375281e-15
9.55832252278e-15
9.31259335407e-15
9.6207785211e-15
9.90984261483e-15
0.00530319963446
0.00406476434138
0.0039353658353
0.00392666235872
0.00370656554244
0.00276544932148
0.00113527013444
9.12506380999e-05
9.69548972877e-08
3.14897500464e-15
9.36140312734e-15
9.67098785523e-15
9.65172243901e-15
9.62935047697e-15
9.61426459113e-15
9.58856307812e-15
9.44283431657e-15
9.22360749875e-15
9.54281390435e-15
9.81328274952e-15
0.0053273976369
0.00405600107098
0.00391240715546
0.00390389626874
0.00369525288222
0.00278901396254
0.00117939953712
0.000100821480933
1.25117195402e-07
3.14861884361e-15
9.23064963241e-15
9.55512622601e-15
9.54489590443e-15
9.53590716165e-15
9.53321240985e-15
9.51465605133e-15
9.37181768134e-15
9.14953935145e-15
9.46068832922e-15
9.69701155545e-15
0.00534991128507
0.00404830775795
0.00388892351153
0.00387963455927
0.00368038951745
0.00280775552272
0.0012229084754
0.000111357061582
1.63821923247e-07
3.14897500395e-15
9.10767392518e-15
9.446755211e-15
9.44358749059e-15
9.44384888281e-15
9.44886227591e-15
9.43520051686e-15
9.28859138069e-15
9.0473429579e-15
9.33428146591e-15
9.53706107605e-15
0.00537013070725
0.00403880760137
0.00386224249402
0.0038521276058
0.00366259902683
0.00282648607949
0.00126921843756
0.000123426410178
2.19162893012e-07
3.14861884202e-15
8.97738967742e-15
9.3263929558e-15
9.32430521152e-15
9.32466322171e-15
9.32867611806e-15
9.31364458733e-15
9.15945552667e-15
8.90210909785e-15
9.17268457726e-15
9.37837104022e-15
0.00538765567652
0.00402587009998
0.00383246829012
0.0038225412268
0.00364465338123
0.00284750335397
0.00131693764605
0.000136780401134
2.96434379188e-07
3.14897500348e-15
8.83883972118e-15
9.19307823814e-15
9.18802822489e-15
9.18258782241e-15
9.17924432395e-15
9.1593424512e-15
9.00530667294e-15
8.75591224062e-15
9.03264245536e-15
9.25581540243e-15
0.00540104376673
0.004010744087
0.00380283958265
0.00379391527696
0.00362789764458
0.00286732361602
0.00136042511654
0.000150471493463
3.99903637552e-07
3.14861884145e-15
8.6998911461e-15
9.05929811735e-15
9.05288391689e-15
9.04458633973e-15
9.03774253307e-15
9.01661323073e-15
8.8714029545e-15
8.64051439428e-15
8.92096884537e-15
9.1420382433e-15
0.00540624099812
0.00399610893661
0.00377583409248
0.00376736623324
0.0036109290274
0.00288035601231
0.00139685226964
0.000164205583336
5.40505978504e-07
3.14897500342e-15
8.56403831101e-15
8.93255194503e-15
8.92850607037e-15
8.92290956376e-15
8.918445027e-15
8.89949789688e-15
8.76128479813e-15
8.53763071065e-15
8.80768404656e-15
9.0035174832e-15
0.00540610643179
0.00398283394171
0.00375015030855
0.00374086110779
0.00359123734665
0.00288590112734
0.00142971584571
0.000179033166683
7.45475188206e-07
3.14861884156e-15
8.42821185189e-15
8.80850423082e-15
8.80861383252e-15
8.80779711612e-15
8.80779971921e-15
8.79182225376e-15
8.65585317799e-15
8.42709776953e-15
8.67409784578e-15
8.83547561636e-15
0.00540432202848
0.00396944684477
0.00372244676934
0.00371152142254
)
;

boundaryField
{
    emptyPatch
    {
        type            empty;
    }
    minY
    {
        type            fixedValue;
        value           nonuniform List<scalar> 0();
    }
    maxY
    {
        type            inletOutlet;
        phi             phi.gas;
        inletValue      nonuniform List<scalar> 0();
        value           nonuniform List<scalar> 0();
    }
    maxX
    {
        type            zeroGradient;
    }
    water_to_heater
    {
        type            zeroGradient;
    }
    procBoundary1to0
    {
        type            processor;
        value           nonuniform List<scalar> 
41
(
0.489943273505
0.564896232595
0.43313119512
0.324249272275
0.32242881662
0.318080321634
0.284297743202
0.19560254051
0.090422146167
0.0373872148109
0.0272151593158
0.0257238463498
0.0246436698473
0.0229884919727
0.0207082504331
0.0181205348749
0.0154540926626
0.0128254289123
0.0102834455515
0.00775511921945
0.0035675470438
0.00288851600202
0.00146448067388
0.000196578164134
1.06424354257e-06
3.14897500296e-15
8.28247381866e-15
8.67801300608e-15
8.68199528179e-15
8.68537105803e-15
8.68899905294e-15
8.675810502e-15
8.54012216672e-15
8.2999688173e-15
8.51702101744e-15
8.67127420634e-15
0.00540106904354
0.00395370279732
0.00369056009115
0.0035675470438
0.00367835781703
)
;
    }
    procBoundary1to3
    {
        type            processor;
        value           nonuniform List<scalar> 
41
(
0.141880067918
0.0658699316188
0.0428468080333
0.0372233007334
0.0339876660102
0.0306429180802
0.0270346304857
0.0234248194728
0.0199002079992
0.0164788136557
0.0132712683205
0.0102512958807
0.00731894696684
0.617757928339
0.401758818599
0.386659068207
0.385090195045
0.381366438512
0.347237063844
0.25976090777
0.25976090777
0.00513320938609
0.0045311118764
0.00453261564806
0.00445977775316
0.00383758858512
0.00210559154419
0.0003336707358
4.49601064026e-06
2.78066274999e-15
1.1675877065e-14
1.31454421962e-14
1.31275305689e-14
1.30908367217e-14
1.30663404069e-14
1.30406602991e-14
1.29655619405e-14
1.27200542608e-14
1.24164163883e-14
1.27140147826e-14
1.31805205452e-14
)
;
    }
}


// ************************************************************************* //
