/*--------------------------------*- C++ -*----------------------------------*\
| =========                 |                                                 |
| \\      /  F ield         | OpenFOAM: The Open Source CFD Toolbox           |
|  \\    /   O peration     | Version:  2312                                  |
|   \\  /    A nd           | Website:  www.openfoam.com                      |
|    \\/     M anipulation  |                                                 |
\*---------------------------------------------------------------------------*/
FoamFile
{
    version     2.0;
    format      ascii;
    arch        "LSB;label=32;scalar=64";
    class       surfaceScalarField;
    location    "0.015/water";
    object      phi;
}
// * * * * * * * * * * * * * * * * * * * * * * * * * * * * * * * * * * * * * //

dimensions      [0 3 -1 0 0 0 0];

oriented        oriented;

internalField   nonuniform List<scalar> 
2914
(
1.6237917541e-07
2.78186964732e-07
1.49215798883e-07
2.55380746103e-07
1.41404362366e-07
2.79212923335e-07
1.34800309918e-07
3.14227067427e-07
1.26408738805e-07
3.55222109077e-07
1.17579800185e-07
3.89011004733e-07
1.10360816699e-07
4.20134229404e-07
1.05975037496e-07
4.41361155331e-07
1.02640191528e-07
4.62561813358e-07
9.92979317641e-08
4.85034018182e-07
9.58333399195e-08
5.08469867713e-07
9.22405669268e-08
5.33106384624e-07
8.85249238611e-08
5.59022385185e-07
8.46891241955e-08
5.86260343384e-07
8.07315009107e-08
6.14873920014e-07
7.66482608975e-08
6.44927068032e-07
7.24338890408e-08
6.76473557235e-07
6.80821306282e-08
7.09612567626e-07
6.35911472641e-08
7.44562977241e-07
7.81472591677e-07
5.89552135257e-08
1.62506203552e-07
2.79193450284e-07
1.49043819258e-07
2.56355921722e-07
1.41095558551e-07
2.80127060891e-07
1.34384524226e-07
3.14783343788e-07
1.26064633247e-07
3.56327360954e-07
1.17356881567e-07
3.90830200351e-07
1.10222976965e-07
4.22617872879e-07
1.05884622627e-07
4.43860984373e-07
1.02619463146e-07
4.65031966369e-07
9.9339509146e-08
4.87636891534e-07
9.59245737788e-08
5.11219404175e-07
9.23704802571e-08
5.36008364744e-07
8.86838846721e-08
5.62084848498e-07
8.48690086497e-08
5.89491476999e-07
8.09255440759e-08
6.18282144629e-07
7.68509280934e-08
6.48521431054e-07
7.26406004946e-08
6.80263974312e-07
6.82891616757e-08
7.1360736907e-07
6.3795196592e-08
7.48768576076e-07
7.85900479626e-07
5.91534258797e-08
1.62251386262e-07
2.80729658852e-07
1.48543101661e-07
2.57430589617e-07
1.40649416245e-07
2.80920570197e-07
1.34013297635e-07
3.15321704974e-07
1.25831934778e-07
3.5734192371e-07
1.17265073044e-07
3.92480181683e-07
1.10200898534e-07
4.24910133469e-07
1.05894136101e-07
4.46251650245e-07
1.02694801257e-07
4.6743280604e-07
9.94749323496e-08
4.90187813416e-07
9.61092789777e-08
5.13927754486e-07
9.259545846e-08
5.38877151394e-07
8.89404976112e-08
5.65121680734e-07
8.51490299115e-08
5.92704359131e-07
8.12213791806e-08
6.21679042286e-07
7.71555558639e-08
6.52110891934e-07
7.29477021738e-08
6.84055297659e-07
6.85932025888e-08
7.17608183609e-07
6.40912108606e-08
7.52984373038e-07
7.90342153764e-07
5.9437026138e-08
1.62965413004e-07
2.82074741918e-07
1.48991564666e-07
2.58451723165e-07
1.41156226464e-07
2.81570091256e-07
1.34708122042e-07
3.15722148523e-07
1.26744139424e-07
3.58195636022e-07
1.18267354014e-07
3.94013967843e-07
1.11028012381e-07
4.2723729258e-07
1.06507831631e-07
4.4875687405e-07
1.03241399491e-07
4.69892041307e-07
9.99923565523e-08
4.92777646516e-07
9.66086640353e-08
5.16664868903e-07
9.30838987634e-08
5.41766706195e-07
8.94212853461e-08
5.68174476829e-07
8.56226830437e-08
5.95931193551e-07
8.16867016077e-08
6.25089843566e-07
7.76102678331e-08
6.55715535458e-07
7.3388901636e-08
6.87863900954e-07
6.90174607591e-08
7.21628981721e-07
6.44951785404e-08
7.57222772907e-07
7.94809014869e-07
5.98172571762e-08
1.63743727894e-07
2.83104377283e-07
1.49992858022e-07
2.59327874962e-07
1.4231445409e-07
2.82177057714e-07
1.36088481027e-07
3.1603987821e-07
1.28430448021e-07
3.58855427255e-07
1.20081378232e-07
3.95407173012e-07
1.12588068471e-07
4.29625998099e-07
1.07725112592e-07
4.51445711604e-07
1.04309348487e-07
4.72476360424e-07
1.00970496981e-07
4.95465243087e-07
9.75116833478e-08
5.19488032305e-07
9.39222389014e-08
5.44731617576e-07
9.02034497185e-08
5.71293032644e-07
8.63554926744e-08
5.99215688742e-07
8.23751140562e-08
6.28552042332e-07
7.82574187425e-08
6.59367145719e-07
7.39963432609e-08
6.91716733624e-07
6.95857085257e-08
7.25692477875e-07
6.50238615759e-08
7.61503221331e-07
7.99317844554e-07
6.03054679955e-08
1.64683636803e-07
2.83301829962e-07
1.51028405671e-07
2.6004206692e-07
1.43249624073e-07
2.82941563802e-07
1.37000627839e-07
3.16521516877e-07
1.29561593928e-07
3.59437389789e-07
1.21469548313e-07
3.96556497304e-07
1.14052182444e-07
4.31744423513e-07
1.09076957979e-07
4.54060864477e-07
1.0556879637e-07
4.75118694811e-07
1.02162359586e-07
4.98226985386e-07
9.86385485988e-08
5.22385689509e-07
9.49839388831e-08
5.47770854369e-07
9.12003767723e-08
5.74484779437e-07
8.72892328164e-08
6.02571254777e-07
8.32479284283e-08
6.32082443472e-07
7.90715579822e-08
6.63083809833e-07
7.47536808013e-08
6.95631598831e-07
7.02875180823e-08
7.29815559823e-07
6.56705519525e-08
7.65841574547e-07
8.03883162648e-07
6.08973672963e-08
1.65153411876e-07
2.83151964215e-07
1.51418322786e-07
2.60660532596e-07
1.43576443725e-07
2.83731065243e-07
1.37160969764e-07
3.17242332783e-07
1.29744832311e-07
3.60109502442e-07
1.2189575623e-07
3.97520870001e-07
1.14856922539e-07
4.33433482378e-07
1.10093463432e-07
4.5639391442e-07
1.06638541637e-07
4.77698773681e-07
1.03249596315e-07
5.00979910291e-07
9.97242031381e-08
5.25294478854e-07
9.60525228326e-08
5.50836109151e-07
9.22397074013e-08
5.77713886489e-07
8.8289903889e-08
6.0597290203e-07
8.42028232314e-08
6.35665456483e-07
7.99752994882e-08
6.66857703077e-07
7.56024249313e-08
6.99606747238e-07
7.1078712638e-08
7.34000659571e-07
6.64022018986e-08
7.70242768007e-07
8.08511442978e-07
6.15681394352e-08
1.65607948129e-07
2.82807349305e-07
1.51906018298e-07
2.61126241554e-07
1.44138291804e-07
2.84414580328e-07
1.37691296595e-07
3.18029179058e-07
1.30290336911e-07
3.60852780318e-07
1.22589615386e-07
3.98419125669e-07
1.15767347257e-07
4.3495126985e-07
1.11128999824e-07
4.58612353021e-07
1.07706660119e-07
4.80256491372e-07
1.04329063015e-07
5.03733357732e-07
1.00803916262e-07
5.28214402086e-07
9.71226240087e-08
5.53921399811e-07
9.32907550119e-08
5.80971319398e-07
8.93131821354e-08
6.09410600578e-07
8.51904289875e-08
6.39291577667e-07
8.09202388926e-08
6.70680887322e-07
7.64986803898e-08
7.03636339894e-07
7.19213106916e-08
7.38244315947e-07
6.71868877524e-08
7.74705653732e-07
8.13203564601e-07
6.22914077083e-08
1.66449829911e-07
2.82311924809e-07
1.53044235573e-07
2.61382428405e-07
1.45433780531e-07
2.84984670814e-07
1.39139457261e-07
3.18729756387e-07
1.31898932053e-07
3.61540030366e-07
1.24274571678e-07
3.993479385e-07
1.17419416313e-07
4.36558190637e-07
1.12656089159e-07
4.60969009835e-07
1.09132801985e-07
4.82926280389e-07
1.0567688211e-07
5.06579737905e-07
1.02084525719e-07
5.31215563736e-07
9.83434357057e-08
5.57079373691e-07
9.44558947592e-08
5.84295720158e-07
9.04243900603e-08
6.12911979267e-07
8.62479005513e-08
6.42979927897e-07
8.19230366388e-08
6.74566138486e-07
7.74450690139e-08
7.07728700216e-07
7.28089490232e-08
7.42552074411e-07
6.80130221131e-08
7.79234167976e-07
8.17962822546e-07
6.30530270494e-08
1.67257697964e-07
2.8230097504e-07
1.54331412462e-07
2.61709292033e-07
1.46949276656e-07
2.85625747394e-07
1.40847400366e-07
3.19426089474e-07
1.33845344792e-07
3.62169345785e-07
1.26298463446e-07
4.00338482692e-07
1.19407718825e-07
4.38262202064e-07
1.14493323439e-07
4.63475092367e-07
1.10828485364e-07
4.8574476818e-07
1.07254744297e-07
5.09558797666e-07
1.03558283196e-07
5.34336134756e-07
9.97232835759e-08
5.60345947772e-07
9.57500557354e-08
5.87719153249e-07
9.16391808306e-08
6.16504357834e-07
8.73878756006e-08
6.46753039455e-07
8.29914263843e-08
6.78531461367e-07
7.84441680433e-08
7.11897564041e-07
7.37398669049e-08
7.46933975974e-07
6.88752023306e-08
7.83835823935e-07
8.22794982964e-07
6.38450945911e-08
1.6862541415e-07
2.81736544458e-07
1.55828329644e-07
2.62182452347e-07
1.4833828349e-07
2.86593727101e-07
1.42190342989e-07
3.20371934992e-07
1.35260767756e-07
3.62951681978e-07
1.27790995843e-07
4.01436708108e-07
1.20949400758e-07
4.40029264195e-07
1.16040772189e-07
4.66004910294e-07
1.12333099096e-07
4.88618750175e-07
1.08710914825e-07
5.12600919857e-07
1.04960465973e-07
5.37525471218e-07
1.01065999851e-07
5.63686483298e-07
9.70296285377e-08
5.91219545129e-07
9.28535586756e-08
6.20174670242e-07
8.85359725609e-08
6.50603762379e-07
8.40725536553e-08
6.82573487537e-07
7.94577929047e-08
7.1614210363e-07
7.46855164483e-08
7.51390587574e-07
6.97516363338e-08
7.8851174126e-07
8.27701133573e-07
6.46508933326e-08
1.69420187117e-07
2.80914385355e-07
1.56617609805e-07
2.62767658186e-07
1.49113327844e-07
2.87690653941e-07
1.42901355498e-07
3.21537226495e-07
1.35960177043e-07
3.63957661549e-07
1.28574423213e-07
4.02656887548e-07
1.21884851614e-07
4.41794597864e-07
1.17124427692e-07
4.68455551163e-07
1.13468723442e-07
4.91464058e-07
1.09868105647e-07
5.15637433402e-07
1.06124065509e-07
5.40723308919e-07
1.02222106659e-07
5.67048856624e-07
9.81661242557e-08
5.94753232217e-07
9.39603275677e-08
6.23887616374e-07
8.96048600797e-08
6.54504320415e-07
8.50970225769e-08
6.86670634609e-07
8.04322600189e-08
7.20445794107e-07
7.56048863476e-08
7.55909803291e-07
7.06115141208e-08
7.93253045175e-07
8.32674605262e-07
6.54475606001e-08
1.69958159481e-07
2.80244478993e-07
1.57191100059e-07
2.63444482914e-07
1.49818087145e-07
2.88764305984e-07
1.43641524469e-07
3.22799669863e-07
1.36668674579e-07
3.65186475208e-07
1.29262560331e-07
4.04114705235e-07
1.22658468014e-07
4.43676636094e-07
1.18001986314e-07
4.70920403899e-07
1.14410667206e-07
4.94282687808e-07
1.10844420898e-07
5.18658198827e-07
1.07120523725e-07
5.43917338517e-07
1.03227973245e-07
5.70417262092e-07
9.91715462644e-08
5.9830187949e-07
9.49560027877e-08
6.27623804194e-07
9.05821707554e-08
6.58435684405e-07
8.60480626629e-08
6.90805317263e-07
8.13496514412e-08
7.247930038e-07
7.64815107848e-08
7.60478060673e-07
7.1440616994e-08
7.98048416976e-07
8.37706224567e-07
6.62231619769e-08
1.70937111724e-07
2.79686522978e-07
1.58258912938e-07
2.64215043333e-07
1.51062498907e-07
2.89810238035e-07
1.45028009233e-07
3.2406858949e-07
1.38131960021e-07
3.66541814256e-07
1.30664622743e-07
4.05850225254e-07
1.23955096526e-07
4.45841277368e-07
1.19183942428e-07
4.7358486145e-07
1.15533159536e-07
4.97195454946e-07
1.11925989916e-07
5.21740721512e-07
1.08169760831e-07
5.47162314604e-07
1.04250989342e-07
5.73829422822e-07
1.00171229109e-07
6.01890123497e-07
9.59326057304e-08
6.31397902985e-07
9.15340774123e-08
6.62405157649e-07
8.69722166639e-08
6.94979734416e-07
8.22417874182e-08
7.29182711278e-07
7.73364417085e-08
7.65092429639e-07
7.22524906386e-08
8.02893925928e-07
8.42792009282e-07
6.69858838777e-08
1.71883086789e-07
2.79822285373e-07
1.59526531118e-07
2.65221328356e-07
1.52484514926e-07
2.91044047414e-07
1.46599311509e-07
3.25429209823e-07
1.39884089957e-07
3.67979031524e-07
1.32405086785e-07
4.07830208109e-07
1.25576680492e-07
4.48266212401e-07
1.20621111256e-07
4.76479356113e-07
1.16858318083e-07
5.00238589819e-07
1.13172716195e-07
5.24922076302e-07
1.09350669612e-07
5.50493406755e-07
1.05376478346e-07
5.7731668486e-07
1.0124887575e-07
6.05544622259e-07
9.69673197168e-08
6.35231643271e-07
9.25285109123e-08
6.66429804162e-07
8.79270833135e-08
6.99206799289e-07
8.31560556274e-08
7.33624291791e-07
7.82075097264e-08
7.69759470253e-07
7.30765079962e-08
8.07793990673e-07
8.47934847554e-07
6.77582032648e-08
1.72857222831e-07
2.79604523634e-07
1.6059318489e-07
2.66393632157e-07
1.53516273015e-07
2.92544650952e-07
1.47669670178e-07
3.2698443054e-07
1.411684887e-07
3.69496740602e-07
1.33799260684e-07
4.09943529067e-07
1.26991641525e-07
4.50798413693e-07
1.21935582951e-07
4.79486027936e-07
1.18123745836e-07
5.03339315717e-07
1.14406936712e-07
5.281534347e-07
1.10551881879e-07
5.53877669862e-07
1.06542156383e-07
5.80859626706e-07
1.02376995226e-07
6.09256080003e-07
9.80562523864e-08
6.39122639857e-07
9.35766397704e-08
6.70511581135e-07
8.8932455923e-08
7.03490970429e-07
8.41160551827e-08
7.38123482465e-07
7.9118728246e-08
7.74485386054e-07
7.39349447528e-08
8.12754760779e-07
8.53140344608e-07
6.85597327183e-08
1.73325639196e-07
2.79420860938e-07
1.60986018896e-07
2.67679408661e-07
1.53991490823e-07
2.94082739085e-07
1.48219029151e-07
3.28643699215e-07
1.41902637411e-07
3.7110583267e-07
1.34717659074e-07
4.12105468667e-07
1.28034763068e-07
4.53325401325e-07
1.23018201816e-07
4.82455627428e-07
1.19241982086e-07
5.06410890228e-07
1.15552369465e-07
5.31376306543e-07
1.11708857937e-07
5.57270055305e-07
1.07697065856e-07
5.84424191284e-07
1.03518339321e-07
6.13000086487e-07
9.91745734349e-08
6.43054713593e-07
9.46641788287e-08
6.74640888632e-07
8.99825875505e-08
7.07827579937e-07
8.5122587647e-08
7.42679202189e-07
8.00755804744e-08
7.79271651345e-07
7.48363864383e-08
8.17779369854e-07
8.58412380702e-07
6.94008473427e-08
1.73861778959e-07
2.79282671068e-07
1.61470893986e-07
2.69029356261e-07
1.54639585264e-07
2.95546636279e-07
1.489928304e-07
3.30321725653e-07
1.42793342674e-07
3.72839329306e-07
1.357113223e-07
4.14377796434e-07
1.29127747424e-07
4.55880366114e-07
1.24160793338e-07
4.85398707708e-07
1.20413455507e-07
5.09467906499e-07
1.16743228467e-07
5.34599912089e-07
1.12907508096e-07
5.60674842365e-07
1.0889376807e-07
5.88010469647e-07
1.04703880152e-07
6.16774186785e-07
1.00340046895e-07
6.47024678546e-07
9.58011635384e-08
6.7881520801e-07
9.10831001593e-08
7.12215594435e-07
8.61789620066e-08
7.47292090037e-07
8.10806428452e-08
7.84120256373e-07
7.57837578213e-08
8.2287064664e-07
8.6375420196e-07
7.0285123185e-08
1.74983380441e-07
2.78955491259e-07
1.62564437274e-07
2.70467593396e-07
1.55908841821e-07
2.96956123889e-07
1.50418989879e-07
3.31990354485e-07
1.44363714158e-07
3.74659236298e-07
1.37342909645e-07
4.1679213634e-07
1.30775863593e-07
4.58547838085e-07
1.25720579924e-07
4.88458580873e-07
1.21899290411e-07
5.12613857843e-07
1.18178162804e-07
5.37895800781e-07
1.14297745413e-07
5.64145813119e-07
1.10243442848e-07
5.91658240451e-07
1.06014161065e-07
6.2060748665e-07
1.01609588475e-07
6.51053726175e-07
9.70268792885e-08
6.83050092891e-07
9.22605421291e-08
7.16666835099e-07
8.73027414081e-08
7.51971674641e-07
8.21453151853e-08
7.89039203215e-07
7.67843369668e-08
8.28035390181e-07
8.69172063842e-07
7.12165678504e-08
1.75946102323e-07
2.79205829554e-07
1.63851330858e-07
2.72022237603e-07
1.5727161857e-07
2.98598297471e-07
1.52002863893e-07
3.33658855672e-07
1.46221473149e-07
3.76465376845e-07
1.39354866639e-07
4.19267390454e-07
1.32823024015e-07
4.61304272576e-07
1.27611174863e-07
4.91684313333e-07
1.23665142705e-07
5.15890135468e-07
1.19863614663e-07
5.4129284033e-07
1.15909717331e-07
5.67712684766e-07
1.1178617431e-07
5.95397410797e-07
1.0749035534e-07
6.24528330056e-07
1.03020391754e-07
6.55167511209e-07
9.83720361791e-08
6.8736808844e-07
9.35384931169e-08
7.21200689521e-07
8.85110154925e-08
7.56734274765e-07
8.32812002953e-08
7.940420237e-07
7.78448247328e-08
8.33285041529e-07
8.74676101947e-07
7.21977769017e-08
1.77343526279e-07
2.79008293682e-07
1.6539016413e-07
2.735776549e-07
1.58744474762e-07
3.00490954159e-07
1.53514266419e-07
3.35501160341e-07
1.47977332482e-07
3.7830048083e-07
1.41351499455e-07
4.21731094968e-07
1.34914745553e-07
4.64091142989e-07
1.29618490182e-07
4.9498350851e-07
1.25566439118e-07
5.19265735306e-07
1.21687044476e-07
5.44786697953e-07
1.17659122666e-07
5.71375555517e-07
1.13460985478e-07
5.99233272679e-07
1.09089309495e-07
6.28546346658e-07
1.04542329819e-07
6.59378259599e-07
9.98156399629e-08
6.91782546336e-07
9.4902031707e-08
7.25830598552e-07
8.9792683014e-08
7.61592586345e-07
8.44793591581e-08
7.991402012e-07
7.89571907212e-08
8.38630087293e-07
8.80276035098e-07
7.32211138288e-08
1.78158446875e-07
2.78563209382e-07
1.6614567337e-07
2.75167039332e-07
1.59669442342e-07
3.02308367267e-07
1.54510122422e-07
3.37449705599e-07
1.49134206749e-07
3.80229934907e-07
1.42773822838e-07
4.24167580301e-07
1.36533712256e-07
4.66842534824e-07
1.31366765935e-07
4.98189240274e-07
1.27328447846e-07
5.22636710355e-07
1.23429088545e-07
5.48320601812e-07
1.19367885475e-07
5.75093050031e-07
1.15123698171e-07
6.0313648412e-07
1.10695227618e-07
6.32641869496e-07
1.06082785775e-07
6.63674103836e-07
1.01283734913e-07
6.96287488205e-07
9.62923761333e-08
7.30554548892e-07
9.1101284407e-08
7.66546958668e-07
8.57029230488e-08
8.04335634403e-07
8.00918572616e-08
8.44073726508e-07
8.85976203415e-07
7.4262419269e-08
1.79072734306e-07
2.77938252615e-07
1.66988730077e-07
2.76761332205e-07
1.60631987115e-07
3.04095827897e-07
1.55580193934e-07
3.39416878792e-07
1.5029845206e-07
3.82289627939e-07
1.44093862681e-07
4.26688101072e-07
1.38008777232e-07
4.69638274062e-07
1.32978668191e-07
5.01354437048e-07
1.28974861031e-07
5.26006160988e-07
1.25069871769e-07
5.51882414004e-07
1.20988048296e-07
5.78852736488e-07
1.16711319518e-07
6.07093519986e-07
1.12239743715e-07
6.3680109267e-07
1.07574440219e-07
6.68042237539e-07
1.02713747695e-07
7.00872023487e-07
9.76534483761e-08
7.35363774165e-07
9.23875833097e-08
7.7159062986e-07
8.69089670389e-08
8.09623687948e-07
8.12120114354e-08
8.49613112913e-07
8.91774638809e-07
7.52914769544e-08
1.8058217275e-07
2.77214996386e-07
1.68650698965e-07
2.78273631446e-07
1.6225535749e-07
3.06019448016e-07
1.5733071592e-07
3.41424038506e-07
1.52157881656e-07
3.84457223325e-07
1.46027045631e-07
4.29376806342e-07
1.39975174051e-07
4.72609876291e-07
1.3489274104e-07
5.04679923316e-07
1.30798480755e-07
5.29502423399e-07
1.26811081367e-07
5.55550092698e-07
1.22654146469e-07
5.82709891704e-07
1.18308014317e-07
6.11141909331e-07
1.13769679554e-07
6.41048192666e-07
1.09037451072e-07
6.72497072409e-07
1.04107839877e-07
7.0554365266e-07
9.89758912842e-08
7.4026113673e-07
9.36351555952e-08
7.76723767369e-07
8.80772854045e-08
8.1500335195e-07
8.22958339457e-08
8.55246937551e-07
8.97669383866e-07
7.6286475471e-08
1.81461842457e-07
2.77619663632e-07
1.70083107666e-07
2.79892362616e-07
1.63868421248e-07
3.08084154642e-07
1.59033733712e-07
3.43545279237e-07
1.54089976969e-07
3.8664105198e-07
1.48126089992e-07
4.3215427039e-07
1.42136614452e-07
4.75731156221e-07
1.36953848723e-07
5.08207425336e-07
1.32729447122e-07
5.3316132942e-07
1.2863477695e-07
5.5934853317e-07
1.24378565271e-07
5.86689435653e-07
1.19939631375e-07
6.15305926619e-07
1.1531347947e-07
6.45405038058e-07
1.10496404163e-07
6.77057170774e-07
1.05483496716e-07
7.10317241355e-07
1.00269068295e-07
7.45257820967e-07
9.48456972456e-08
7.81954331321e-07
8.92035407522e-08
8.20479803209e-07
8.33350681248e-08
8.6097793634e-07
9.03661149933e-07
7.72364366046e-08
1.82461820547e-07
2.77728674361e-07
1.71175973205e-07
2.81648407917e-07
1.65116753579e-07
3.10181763207e-07
1.60367739283e-07
3.45806399148e-07
1.55643859727e-07
3.88862260858e-07
1.49955040172e-07
4.34921610122e-07
1.44136254806e-07
4.7889175877e-07
1.38943326499e-07
5.11833979479e-07
1.34624015443e-07
5.36940507165e-07
1.30431148943e-07
5.63267475507e-07
1.2608041416e-07
5.907865254e-07
1.21549197133e-07
6.19585242029e-07
1.16832186733e-07
6.49875068603e-07
1.1192510704e-07
6.81728234487e-07
1.06822831845e-07
7.15199437623e-07
1.01519658021e-07
7.50360566192e-07
9.60076716685e-08
7.87288595763e-07
9.02763726364e-08
8.26058116362e-07
8.43180896148e-08
8.66809189265e-07
9.09751497522e-07
7.81288058211e-08
1.82984610416e-07
2.77848784542e-07
1.7167824787e-07
2.83434041864e-07
1.65853020724e-07
3.1217800933e-07
1.61200881403e-07
3.48104947924e-07
1.56530644639e-07
3.91258471122e-07
1.51104508574e-07
4.37687736757e-07
1.45537227703e-07
4.82025238501e-07
1.40519243517e-07
5.15398613137e-07
1.36229985187e-07
5.40725632775e-07
1.32007411845e-07
5.67239257827e-07
1.27609234304e-07
5.9495356982e-07
1.2301784525e-07
6.23947168163e-07
1.1823132174e-07
6.54436565538e-07
1.13248191594e-07
6.86496286408e-07
1.08065602628e-07
7.20181433372e-07
1.02679247772e-07
7.55564090291e-07
9.70818362722e-08
7.92723587456e-07
9.12635442795e-08
8.31736360029e-07
8.5217461574e-08
8.72738926942e-07
9.15938092038e-07
7.89401517274e-08
1.83538220041e-07
2.77976244602e-07
1.72264922759e-07
2.85195063882e-07
1.66575957785e-07
3.14107544981e-07
1.62128640634e-07
3.50350009293e-07
1.57497865189e-07
3.93806348911e-07
1.52230426872e-07
4.40543250653e-07
1.46825885437e-07
4.85225954377e-07
1.41940799991e-07
5.18967751182e-07
1.37668648028e-07
5.44541577784e-07
1.33408742218e-07
5.71272612531e-07
1.28961632103e-07
5.99191959123e-07
1.24314289363e-07
6.28387195054e-07
1.19465711585e-07
6.59081744462e-07
1.14415211822e-07
6.91352371299e-07
1.09160761433e-07
7.25254583722e-07
1.03698626107e-07
7.60860870244e-07
9.80224423697e-08
7.98252681726e-07
9.21238925115e-08
8.37508003736e-07
8.59971366214e-08
8.78760282416e-07
9.22213975044e-07
7.96389803682e-08
1.84346036598e-07
2.7793137722e-07
1.73183232967e-07
2.86889901981e-07
1.67549228043e-07
3.16096624059e-07
1.63261341166e-07
3.52545236443e-07
1.5878205503e-07
3.96385082873e-07
1.53647364151e-07
4.43506724768e-07
1.48326446208e-07
4.88574113599e-07
1.43459997266e-07
5.22662291315e-07
1.39117729302e-07
5.48479794639e-07
1.34757631043e-07
5.75431382536e-07
1.30215490315e-07
6.03548035598e-07
1.25480545384e-07
6.32937107e-07
1.20550024464e-07
6.63830565591e-07
1.15421160292e-07
6.96307455159e-07
1.10090003331e-07
7.30423600205e-07
1.0455137559e-07
7.66251489575e-07
9.87987561947e-08
8.03873546726e-07
9.28249506605e-08
8.43368207862e-07
8.66248398909e-08
8.84866184489e-07
9.28570564976e-07
8.01946024818e-08
1.8363439428e-07
2.79336070366e-07
1.73155605753e-07
2.88395674775e-07
1.67862672667e-07
3.17982255414e-07
1.63887258704e-07
3.5463770009e-07
1.59624597452e-07
3.98947146903e-07
1.54740221265e-07
4.46462809146e-07
1.49591538859e-07
4.91981709865e-07
1.44805642065e-07
5.2642338191e-07
1.40413426484e-07
5.52521874855e-07
1.35956003591e-07
5.79712973786e-07
1.31314363556e-07
6.08026525862e-07
1.26483774187e-07
6.37605232761e-07
1.21462700268e-07
6.68691908193e-07
1.16248051753e-07
7.01369140313e-07
1.1083489453e-07
7.35693854321e-07
1.0521721603e-07
7.71738555967e-07
9.93885627349e-08
8.095858555e-07
9.33427280159e-08
8.49313823748e-07
8.70749143085e-08
8.91051012251e-07
9.35000021709e-07
8.05804456013e-08
1.83214059453e-07
2.8169427732e-07
1.73167237749e-07
2.89820090814e-07
1.68197980157e-07
3.19755112345e-07
1.6435503959e-07
3.56749604892e-07
1.60107923755e-07
4.01686305746e-07
1.55444368215e-07
4.49439899359e-07
1.5049002823e-07
4.95427161245e-07
1.45847852745e-07
5.30189319584e-07
1.41436072126e-07
5.56637190415e-07
1.36896374714e-07
5.84101907056e-07
1.32165988776e-07
6.12616529642e-07
1.27246934494e-07
6.42384392979e-07
1.2213989913e-07
6.73661281024e-07
1.16842647257e-07
7.06534380486e-07
1.11350350626e-07
7.41062609896e-07
1.05657056665e-07
7.7731875388e-07
9.97569974289e-08
8.15385088995e-07
9.36450142883e-08
8.55338980111e-07
8.73166840712e-08
8.97307454945e-07
9.41493254459e-07
8.07669869671e-08
1.8283111671e-07
2.84616166144e-07
1.72970899904e-07
2.91258409028e-07
1.68285975975e-07
3.21353087329e-07
1.64512928951e-07
3.58951359281e-07
1.60030656391e-07
4.0483545349e-07
1.55548917523e-07
4.52472234944e-07
1.50830444893e-07
4.98871287293e-07
1.46454503103e-07
5.33843139819e-07
1.42082173787e-07
5.60768261391e-07
1.37482898629e-07
5.88575151354e-07
1.32678948903e-07
6.17302396248e-07
1.27683192912e-07
6.47262397937e-07
1.22500074206e-07
6.78728473102e-07
1.17129315282e-07
7.11793873254e-07
1.11567279423e-07
7.46520404644e-07
1.05808725561e-07
7.82981776983e-07
9.98484526088e-08
8.21260125818e-07
9.36819975105e-08
8.6143198739e-07
8.73054874246e-08
9.03623070314e-07
9.48036944965e-07
8.07138429933e-08
1.82832666249e-07
2.87699106081e-07
1.73182165218e-07
2.92669161077e-07
1.68454622971e-07
3.23110902024e-07
1.64565183626e-07
3.61385871379e-07
1.59656704607e-07
4.08567738305e-07
1.55236136096e-07
4.55680144515e-07
1.50757890674e-07
5.02315330832e-07
1.46693908127e-07
5.37346558488e-07
1.42349380824e-07
5.64928685345e-07
1.37675252073e-07
5.9314782581e-07
1.32789409553e-07
6.22092118066e-07
1.27716343209e-07
6.52239477239e-07
1.22462778261e-07
6.83887473099e-07
1.17028577291e-07
7.17137230911e-07
1.11410033269e-07
7.52053780476e-07
1.0560174865e-07
7.88711984477e-07
9.95982204355e-08
8.27193962459e-07
9.33949641222e-08
8.67575130035e-07
8.6988706494e-08
9.09979394128e-07
9.54612190753e-07
8.03740171196e-08
1.83350134342e-07
2.90574498435e-07
1.73821396949e-07
2.94243181137e-07
1.68712643619e-07
3.25382388775e-07
1.64531886647e-07
3.64267119387e-07
1.59165716286e-07
4.1292530468e-07
1.54744611521e-07
4.5912925731e-07
1.50510658891e-07
5.05757459493e-07
1.46633385702e-07
5.40822167109e-07
1.42211819908e-07
5.69220226811e-07
1.37417632052e-07
5.97864584141e-07
1.32426871687e-07
6.27008525047e-07
1.27270326638e-07
6.57321621283e-07
1.21952133731e-07
6.8913227888e-07
1.16468172705e-07
7.22550596736e-07
1.10811514549e-07
7.57644181259e-07
1.0497431417e-07
7.94488415892e-07
9.89493842898e-08
8.33164635328e-07
9.27315009133e-08
8.73746152056e-07
8.63172372619e-08
9.16354654161e-07
9.61196615732e-07
7.97019315751e-08
1.82957209951e-07
2.94325683986e-07
1.73411639037e-07
2.9657745685e-07
1.67877465674e-07
3.28389861383e-07
1.63190219145e-07
3.67884080338e-07
1.57788141993e-07
4.17519780185e-07
1.53382345209e-07
4.62813777249e-07
1.49575268403e-07
5.09008164917e-07
1.45811937589e-07
5.44322783297e-07
1.41321286341e-07
5.73625793053e-07
1.36460044751e-07
6.02671330077e-07
1.31416648111e-07
6.31999070758e-07
1.26224308975e-07
6.62460975113e-07
1.20883550014e-07
6.94420685952e-07
1.15386396387e-07
7.27997287517e-07
1.09723312132e-07
7.63259824737e-07
1.03884950022e-07
8.00283228403e-07
9.78634121205e-08
8.39147266158e-07
9.16536199753e-08
8.79922298188e-07
8.5252544512e-08
9.22727641179e-07
9.67768837957e-07
7.86580653192e-08
1.81472446284e-07
2.99755462304e-07
1.7072400124e-07
3.00269423897e-07
1.6471012244e-07
3.32105106504e-07
1.59562992141e-07
3.7218229297e-07
1.5480437121e-07
4.21691434894e-07
1.50818971404e-07
4.66323092613e-07
1.47717972282e-07
5.11770861687e-07
1.44106599313e-07
5.4778398886e-07
1.3955461096e-07
5.78128789138e-07
1.34687610076e-07
6.07505573571e-07
1.29678282758e-07
6.36976540784e-07
1.24531265603e-07
6.6757604505e-07
1.19233507947e-07
6.9968684581e-07
1.13772163115e-07
7.33428123174e-07
1.08137785151e-07
7.68865475727e-07
1.02323634683e-07
8.06070983146e-07
9.63249937665e-08
8.45122300855e-07
9.01388244251e-08
8.86087997508e-07
8.37646211147e-08
9.29084696416e-07
9.743154794e-07
7.72044218464e-08
1.60965549563e-07
1.5321009359e-07
1.49538909528e-07
1.4662895056e-07
1.44566710581e-07
1.4268460021e-07
1.4089842269e-07
1.38407168055e-07
1.35076535763e-07
1.31196854833e-07
1.26838073667e-07
1.22084192549e-07
1.17009219185e-07
1.11665389244e-07
1.06088996222e-07
1.003042925e-07
9.43258324577e-08
8.8161427151e-08
8.18158936245e-08
7.52889236788e-08
3.79291989086e-08
6.40533208409e-07
3.43690820257e-08
6.10384257559e-07
3.10038628105e-08
5.8177161026e-07
2.7795547931e-08
5.54474577111e-07
2.4735740485e-08
5.2840978001e-07
2.18179400575e-08
5.03571887448e-07
1.90357950835e-08
4.79903782372e-07
1.63832026436e-08
4.57350745709e-07
1.38542555909e-08
4.35860555871e-07
1.14433002178e-08
4.15383475627e-07
9.14485952138e-09
3.95871908304e-07
6.9538212249e-09
3.77274237282e-07
4.86829503991e-09
3.5933946214e-07
2.95574603479e-09
3.36961519995e-07
1.38619180378e-09
2.84798180755e-07
2.21542586598e-07
5.43647991378e-08
7.81613905918e-07
4.99897263321e-08
7.44802381411e-07
4.58054136276e-08
7.09544848953e-07
4.18144895048e-08
6.75962866565e-07
3.80325332666e-08
6.44226278705e-07
3.44650807227e-08
6.13911090673e-07
3.10926213017e-08
5.85138096666e-07
2.78773285045e-08
5.57689818999e-07
2.48103048259e-08
5.31476799619e-07
2.18851801107e-08
5.06497010105e-07
1.90956899375e-08
4.82693268492e-07
1.64358268409e-08
4.60010606106e-07
1.38997716941e-08
4.38396606955e-07
1.14819569618e-08
4.17801287106e-07
9.17702030018e-09
3.9817684083e-07
6.97993441521e-09
3.79471319616e-07
4.88889109929e-09
3.61430502063e-07
2.97185324856e-09
3.38878554372e-07
1.39232127584e-09
2.86377709254e-07
2.22934907702e-07
5.45550222247e-08
7.86061060323e-07
5.01713673265e-08
7.49058758686e-07
4.59776293963e-08
7.13617571644e-07
4.19765479208e-08
6.79851063831e-07
3.81836284839e-08
6.47930892284e-07
3.46043087635e-08
6.17448969757e-07
3.12200404139e-08
5.88515868151e-07
2.79932933208e-08
5.60916493733e-07
2.49149948551e-08
5.34555092035e-07
2.19788819187e-08
5.09433119208e-07
1.91787451114e-08
4.85493399232e-07
1.65086023033e-08
4.62680744424e-07
1.39626576253e-08
4.4094254532e-07
1.15353407164e-08
4.20228599059e-07
9.22128851728e-09
4.00490886638e-07
7.0154177282e-09
3.81677185325e-07
4.91594564705e-09
3.63529968954e-07
2.99157852928e-09
3.40802916479e-07
1.40266885909e-09
2.87966613797e-07
2.24337576446e-07
5.48235833095e-08
7.90524487971e-07
5.04245918641e-08
7.53332492182e-07
4.62151845871e-08
7.17708051218e-07
4.21979482063e-08
6.83757255128e-07
3.83880494792e-08
6.51653135069e-07
3.47911840996e-08
6.21003449315e-07
3.13898140275e-08
5.91910131452e-07
2.81469366407e-08
5.64159273662e-07
2.50530660303e-08
5.37648958809e-07
2.2101963901e-08
5.12384219639e-07
1.92874272804e-08
4.88307932034e-07
1.66034703403e-08
4.65364699128e-07
1.40442903023e-08
4.43501721495e-07
1.16043049673e-08
4.22668581653e-07
9.27812733345e-09
4.02817060382e-07
7.06066747493e-09
3.83894642034e-07
4.95015823016e-09
3.65640474978e-07
3.01558957553e-09
3.42737481863e-07
1.41484477633e-09
2.89567355135e-07
2.25752421116e-07
5.51789336261e-08
7.95014300594e-07
5.0756099064e-08
7.57632370064e-07
4.65234859426e-08
7.21824033686e-07
4.24832188977e-08
6.87688425463e-07
3.86498615294e-08
6.55399419936e-07
3.50288753898e-08
6.24580966555e-07
3.16042668742e-08
5.95326979561e-07
2.83402486367e-08
5.67423161406e-07