/*--------------------------------*- C++ -*----------------------------------*\
| =========                 |                                                 |
| \\      /  F ield         | OpenFOAM: The Open Source CFD Toolbox           |
|  \\    /   O peration     | Version:  2312                                  |
|   \\  /    A nd           | Website:  www.openfoam.com                      |
|    \\/     M anipulation  |                                                 |
\*---------------------------------------------------------------------------*/
FoamFile
{
    version     2.0;
    format      ascii;
    arch        "LSB;label=32;scalar=64";
    class       volScalarField;
    location    "0.68/water";
    object      Tf.gasAndLiquid;
}
// * * * * * * * * * * * * * * * * * * * * * * * * * * * * * * * * * * * * * //

dimensions      [0 0 0 1 0 0 0];

internalField   nonuniform List<scalar> 
1496
(
319.504802545
308.73806376
303.519930174
301.695513065
301.107679082
300.874732638
300.740649622
300.637549119
300.546752672
300.464215843
300.390888268
300.325940094
300.270589006
300.224672552
300.186385001
300.154348546
300.124483207
300.097245227
300.073768314
300.054125426
316.418058454
307.830970335
303.476512152
301.721850316
301.107740067
300.868014306
300.733489282
300.629638343
300.537530609
300.456470903
300.387135196
300.32750548
300.27668061
300.231603113
300.192245182
300.157889717
300.125445932
300.096333095
300.071250038
300.050374456
315.195027921
307.665472114
303.825136519
302.022389106
301.252023686
300.925990873
300.76074738
300.648182301
300.551435904
300.469241429
300.402145477
300.344285518
300.292023165
300.243330929
300.199208072
300.160407787
300.126055438
300.095611246
300.069971731
300.047859497
317.697805792
309.842483605
305.401713521
302.892339629
301.63854401
301.082881826
300.838519386
300.709324653
300.602779353
300.510738107
300.435316823
300.369923937
300.310324069
300.254830208
300.205459616
300.163238567
300.127348816
300.097292146
300.073095385
300.052244016
329.638746888
314.231528004
306.950210065
303.485869383
301.911548624
301.243469797
300.961517301
300.817923563
300.698551275
300.57900285
300.475357923
300.395187019
300.326653337
300.264670108
300.211173669
300.167002474
300.130841204
300.102215505
300.080445047
300.059815642
343.870332627
316.283076553
307.186205251
303.515056433
301.966592093
301.326154747
301.051786101
300.903356862
300.778284113
300.643613038
300.511201638
300.414273125
300.337870879
300.271571343
300.215962911
300.171429764
300.136037817
300.109096525
300.088645683
300.068195633
347.670101846
316.881190057
307.05142557
303.390954476
301.929817964
301.335866332
301.075453149
300.927536373
300.803858864
300.673110242
300.53440281
300.426609655
300.344093351
300.275251137
300.219267713
300.175620087
300.141664513
300.116230543
300.096562949
300.076651217
348.352485612
316.884892183
306.877315099
303.289488528
301.897001303
301.328419827
301.073276093
300.92547291
300.804158574
300.678953139
300.544454172
300.432991941
300.346888562
300.276644655
300.221299083
300.179230064
300.146981164
300.122901867
300.103753287
300.084481838
348.327489905
316.636588414
306.701030874
303.223896353
301.885364882
301.32173766
301.063304708
300.914031177
300.794860727
300.674356588
300.545623836
300.434960074
300.347731276
300.277056034
300.222887181
300.182572459
300.151928314
300.128928039
300.109987624
300.091457975
348.180612321
316.133567581
306.437152779
303.138235401
301.873528309
301.314929503
301.050526614
300.898700255
300.781796031
300.665849302
300.543065407
300.435278132
300.348346479
300.277990618
300.22518168
300.18634472
300.156838206
300.134368287
300.115262584
300.097244959
347.884031891
315.413848979
306.015645865
302.967055078
301.823293709
301.296711986
301.033287426
300.88169117
300.767518151
300.656708432
300.541317861
300.437243611
300.350989538
300.281156747
300.229434988
300.191416055
300.162225746
300.139485758
300.119690955
300.101864273
347.502854156
314.537066294
305.40429932
302.677742673
301.711504829
301.254038636
301.00875475
300.863765578
300.753466041
300.648815991
300.542853321
300.443287787
300.35768532
300.28813694
300.236818062
300.198705973
300.168780155
300.144876287
300.123670069
300.105416771
346.881179951
313.509019466
304.669373596
302.329234839
301.5636731
301.193788122
300.980249359
300.845289565
300.740596287
300.643385645
300.54717023
300.45427184
300.369423256
300.299890895
300.248166381
300.209010514
300.177263595
300.151201454
300.127914009
300.108568091
346.009946461
312.541664089
304.061240787
302.028624363
301.423514073
301.131166246
300.949758765
300.826836794
300.729686833
300.641082352
300.554109116
300.468560769
300.385966535
300.316514664
300.263773701
300.222744059
300.188239591
300.159072019
300.132941086
300.111761198
343.428407608
312.30065581
303.725997269
301.82432307
301.31498711
301.076913982
300.921310162
300.809393856
300.720053233
300.640809181
300.56267241
300.482538051
300.405530642
300.337195801
300.283190186
300.239751925
300.201875876
300.168751129
300.139022403
300.115118627
337.046872006
312.487353569
304.077709097
301.848936985
301.271888476
301.044488818
300.902279317
300.797661008
300.714312574
300.642411538
300.570657243
300.496178004
300.423996326
300.358980898
300.304775789
300.259003957
300.217620318
300.179986654
300.145869662
300.118345612
330.290488245
311.874324027
304.750365328
302.23738804
301.386942378
301.065263178
300.90185692
300.794196394
300.712302146
300.643478797
300.5766093
300.50807064
300.440697443
300.378715186
300.324786089
300.277320022
300.233042839
300.191531373
300.152590607
300.12046026
325.976180827
311.332210602
305.202545774
302.68841469
301.60788864
301.144415369
300.924085954
300.798452794
300.712346869
300.643731677
300.579652175
300.516032603
300.453331652
300.39435454
300.3408949
300.291747756
300.244558685
300.19967015
300.156688274
300.1199649
324.203525218
310.869483974
305.18896572
302.732756989
301.716255767
301.209099883
300.948652705
300.803252688
300.710344744
300.640773456
300.578445549
300.51823435
300.459538525
300.403317453
300.350366598
300.299557007
300.249732418
300.201545236
300.154364293
300.115014976
324.005667497
310.000705012
304.637308028
302.509219496
301.62392206
301.196002703
300.946106276
300.796227657
300.699953046
300.630099089
300.569534031
300.512545088
300.457137306
300.403175109
300.350547197
300.298230724
300.245961706
300.194087249
300.143713743
300.105365867
323.702223767
309.240538284
304.013790315
302.150537969
301.452666938
301.119489028
300.909352846
300.770193848
300.67623479
300.607981113
300.549946031
300.496187737
300.443919167
300.392001025
300.339665336
300.285957251
300.230852623
300.175208781
300.126625669
300.093103812
322.857991104
308.629117889
303.539580999
301.832235506
301.262188402
301.011104152
300.845648098
300.72581506
300.639470568
300.574109979
300.519371282
300.468865029
300.41958775
300.369447235
300.317076651
300.262083916
300.204334848
300.150366305
300.110224141
300.080815943
321.222164006
307.972832382
303.200087369
301.611135078
301.102748059
300.902703757
300.77012906
300.668843996
300.592365881
300.532653279
300.480864151
300.432999159
300.385907818
300.336673974
300.284368513
300.229756344
300.175817755
300.130399487
300.096132649
300.070129247
319.196120231
307.177173193
302.880378383
301.45276409
300.987833579
300.812919643
300.700980024
300.61249411
300.543460679
300.487891246
300.439476522
300.393649829
300.347538803
300.299415642
300.250317059
300.202113505
300.156172387
300.115572222
300.085389387
300.061845073
317.265603652
306.354418928
302.569844488
301.320985152
300.913072893
300.752062908
300.650718871
300.569453115
300.504641044
300.451273979
300.40403687
300.359385731
300.315127865
300.270806668
300.227071609
300.184790165
300.143665823
300.105793139
300.07761123
300.055349788
315.62438985
305.855826587
302.383997236
301.254693557
300.878956542
300.727975516
300.628420526
300.548737182
300.484126145
300.430401546
300.382966612
300.33881682
300.296360892
300.255025779
300.214813362
300.175489599
300.136168719
300.099308924
300.071496027
300.04991341
314.547450338
305.72129015
302.395929215
301.253637414
300.883356631
300.733856598
300.635383316
300.552601838
300.48457378
300.427757786
300.37804415
300.332686335
300.290088865
300.249316557
300.209654602
300.170394662
300.130732592
300.094111288
300.066191205
300.045317809
314.032279284
305.937154792
302.559551461
301.311366055
300.903758514
300.757878208
300.660397201
300.575840606
300.50301419
300.440898023
300.386242609
300.336912037
300.291362412
300.248380215
300.206897081
300.166077519
300.12524077
300.089048636
300.061329762
300.041546716
315.293815308
307.184706806
302.994075319
301.373108211
300.924669357
300.785676126
300.693506368
300.608612798
300.532438963
300.463546024
300.4017347
300.345863525
300.295060171
300.248087483
300.203545488
300.160405673
300.118655477
300.083347431
300.056326291
300.03808996
323.063743779
309.069389231
302.86763283
301.2953333
300.933179381
300.812092275
300.723621251
300.639525622
300.55977442
300.485023077
300.416131024
300.353176458
300.296421564
300.244962887
300.197119728
300.151839993
300.110528504
300.076087116
300.050499362
300.034467135
334.334407746
309.427489852
302.859634678
301.296203292
300.943340119
300.820309333
300.730818455
300.646733483
300.566520125
300.490451598
300.418827574
300.351887013
300.291199431
300.236622087
300.186772899
300.141033886
300.100411587
300.067292239
300.044217754
300.031081573
337.14749569
309.764668227
302.905038535
301.296580462
300.933019833
300.806293747
300.716676175
300.633936735
300.555380436
300.481071257
300.409451783
300.342047796
300.280458144
300.224742958
300.174285802
300.128585593
300.088884857
300.058158311
300.038507271
300.028504526
337.024468216
309.882312095
302.926489501
301.286045981
300.914860783
300.78671061
300.697790747
300.616695803
300.540947229
300.468008115
300.397065847
300.330124868
300.268481909
300.212239326
300.161241454
300.115644423
300.077406897
300.049894615
300.033915696
300.027436739
336.339148778
309.888203812
302.93628921
301.274758797
300.897845645
300.769167854
300.680998363
300.601711156
300.527142483
300.455203227
300.385678015
300.319807829
300.25768199
300.200391356
300.14858438
300.103117141
300.066894034
300.043070108
300.030891734
300.028346588
335.540331177
309.832070124
302.940843879
301.265584004
300.883552098
300.754449063
300.666465282
300.58831043
300.513868579
300.443209313
300.376102403
300.310929562
300.248059245
300.189439943
300.136642626
300.091520084
300.057918616
300.037754764
300.029979929
300.031317535
334.349799136
309.981977131
303.034637841
301.272720763
300.872872752
300.741286873
300.653507387
300.574661452
300.500565334
300.432383362
300.36739036
300.302953314
300.23944295
300.179508322
300.125794505
300.081438072
300.050550082
300.034519823
300.03120691
300.036201996
332.444755261
310.297123118
303.258510285
301.335196783
300.873129617
300.729418948
300.640467062
300.561114642
300.488416692
300.422422033
300.359196558
300.295535172
300.231671292
300.170801303
300.116599138
300.07307325
300.044730552
300.03355114
300.034577071
300.042159552
300.016821925
300.01311618
300.00997653
300.007084634
300.005404734
300.004843353
300.004081611
300.003293133
300.002986954
300.003324084
300.003994228
300.004428154
300.004660665
300.004746818
300.004744322
300.004640563
300.040654791
300.03045634
300.023057514
300.017835613
300.014130023
300.011457419
300.009543895
300.007954154
300.006977925
300.006091701
300.004913617
300.003760673
300.003191879
300.003419607
300.004121829
300.00458423
300.004799788
300.004857976
300.004830636
300.004716486
300.035779776
300.025526044
300.0194197
300.015681869
300.013500876
300.012312767
300.011551911
300.010370675
300.008916609
300.007400835
300.005831051
300.004335196
300.003486194
300.003564396
300.00420737
300.004735625
300.004932052
300.004971098
300.004917163
300.004792005
300.032618298
300.024685498
300.019993835
300.017298499
300.016016289
300.01571449
300.01506176
300.012934523
300.010666232
300.00871417
300.006812669
300.005019758
300.003922194
300.003802263
300.004350563
300.00488863
300.005065243
300.005089403
300.00501065
300.00485518
300.035661978
300.027991481
300.023703089
300.02131272
300.020557966
300.020618562
300.018752387
300.015571534
300.012691334
300.010305599
300.0079958
300.005888821
300.004543968
300.004118864
300.0045595
300.005050107
300.005206522
300.005216541
300.005123189
300.004942486
300.041695188
300.033691626
300.029257247
300.026934035
300.026209284
300.02561387
300.022435216
300.018643585
300.015162232
300.012216641
300.009455318
300.007031814
300.005134119
300.004529472
300.00482254
300.005226808
300.00536228
300.005363584
300.005264504
300.005073287
300.049570265
300.040757092
300.036127822
300.033397301
300.032334588
300.030240734
300.026404683
300.022117742
300.017960006
300.014362669
300.011144467
300.008423938
300.0058848
300.005013247
300.005128313
300.005426162
300.005536343
300.005536629
300.005444468
300.00525174
300.0583048
300.048820761
300.043475461
300.040234111
300.038127749
300.034716469
300.030377445
300.025585612
300.020728785
300.016482846
300.012807036
300.009706927
300.006739009
300.005529491
300.005459672
300.005649606
300.005735805
300.0057442
300.005674669
300.00548788
300.067330434
300.057033737
300.05074938
300.046532208
300.043164517
300.038811612
300.034058001
300.028748626
300.023212236
300.018361617
300.014261816
300.010814839
300.007589987
300.006037134
300.005799251
300.005893332
300.005965854
300.005996233
300.005967837
300.005793187
300.075550539
300.064835448
300.057023288
300.051726559
300.047091996
300.042168611
300.037078032
300.031321291
300.025223064
300.019881556
300.015425008
300.011697616
300.008336856
300.006514284
300.006133709
300.006155091
300.006229506
300.006301044
300.006335665
300.006178271
300.082398473
300.071203143
300.062010119
300.055405822
300.049827792
300.044474949
300.039065008
300.033052613
300.026622075
300.020961312
300.01624558
300.012329799
300.008898337
300.006951693
300.006469177
300.006442395
300.006532361
300.006671611
300.00679117
300.006655198
300.087443566
300.075759669
300.065607619
300.057614069
300.051446372
300.045731402
300.040098741
300.033922626
300.027370002
300.02156646
300.016689759
300.012689081
300.009245359
300.007342026
300.006813519
300.00676414
300.006874789
300.007125863
300.007361047
300.007247978
300.090861709
300.078563236
300.067872352
300.05875674
300.052099385
300.046152157
300.040349893
300.034048507
300.027537971
300.021715062
300.016752492
300.012767615
300.009363087
300.007688654
300.007180533
300.007134162
300.007266295
300.00770961
300.008089593
300.008002908
300.093237153
300.080184521
300.068949056
300.059302355
300.052042935
300.045912724
300.03995019
300.033648099
300.027270817
300.021453646
300.016462243
300.012596195
300.009345634
300.008015015
300.007600798
300.007566942
300.007740107
300.008535873
300.009059833
300.009026147
300.095183326
300.081198147
300.069312818
300.059284555
300.051528461
300.045193223
300.039134306
300.032913685
300.026666056
300.0208356
300.015865149
300.011979967
300.009340257
300.008360241
300.0081002
300.008064573
300.008451733
300.009669412
300.010528386
300.010612005
300.096835795
300.081744379
300.069127911
300.058687015
300.05063655
300.044082576
300.037985069
300.031893589
300.025755642
300.019908955
300.014951086
300.011345885
300.009425466
300.008805974
300.008735458
300.008746852
300.009564554
300.011388109
300.013080449
300.013394892
300.097977147
300.081654426
300.068251261
300.05743704
300.049269665
300.042560879
300.03648984
300.030570544
300.024560418
300.018721309
300.013998328
300.011027447
300.009703778
300.009534928
300.009609965
300.009889694
300.011328896
300.01441971
300.018162039
300.019602524
300.097781469
300.080232563
300.066178512
300.055343322
300.047124216
300.04042314
300.034547352
300.0289032
300.023090775
300.017557315
300.013360607
300.010996149
300.01034349
300.010789384
300.01142745
300.011944335
300.014498901
300.020356148
300.030483357
300.035761347
300.095106209
300.076735747
300.062461589
300.051691875
300.043647806
300.037304714
300.031901356
300.026797082
300.021539185
300.016570311
300.013005783
300.011368707
300.011994073
300.013622574
300.01539492
300.016352627
300.020945705
300.032499319
300.065000799
300.079811449
300.089325602
300.07078149
300.056654431
300.046201639
300.03869043
300.033112561
300.028571163
300.02429789
300.019805295
300.015584644
300.012957055
300.012724199
300.01627407
300.021743394
300.025597577
300.027639119
300.035602562
300.059768162
300.158198289
300.196920778
300.080478862
300.062561571
300.049183007
300.039506001
300.032787337
300.028165353
300.024708527
300.021406638
300.017831205
300.014777428
300.014091528
300.01768658
300.027910581
300.043226527
300.051606532
300.057138897
300.070656446
300.126137836
300.37402658
300.46044608
300.07002134
300.053417291
300.041317381
300.032812411
300.027094357
300.023339496
300.020761671
300.018435355
300.015995606
300.015194635
300.019032056
300.031534351
300.055683637
300.087950222
300.106279829
300.11904594
300.141772563
300.292354231
300.811517064
300.955495701
300.059777698
300.044899361
300.034417913
300.027260748
300.022524268
300.019481517
300.017497182
300.015893634
300.015326282
300.019719082
300.033998986
300.064910882
300.114337863
300.172190585
300.210731272
300.228953998
300.257117683
300.566119519
301.488685081
301.712476935
300.05122814
300.038097053
300.029123803
300.023167095
300.019284451
300.016842801
300.015272468
300.014765003
300.019840057
300.038641382
300.078037871
300.146664374
300.240301841
300.33643022
300.403240699
300.416947003
300.424547435
300.940773295
302.340587776
302.751340882
300.044630871
300.032948366
300.025253275
300.020319207
300.017219699
300.015316191
300.014390774
300.020202877
300.048554016
300.110641556
300.214066637
300.359619746
300.5265683
300.678891051
300.744196155
300.702001367
300.633498854
301.295829651
303.197189467
303.930106251
300.039392088
300.029000648
300.022475368
300.018506471
300.016177193
300.014796959
300.020414552
300.06087975
300.165124315
300.326597325
300.548400518
300.817778509
301.120154777
301.286229544
301.191507003
301.027047643
300.879523802
301.501777343
303.961523065
305.234043349
300.035139229
300.026048251
300.020690525
300.017740655
300.016118715
300.01684125
300.061818202
300.194587667
300.407280494
300.670429905
301.002011389
301.466146986
301.921264842
302.182711008
302.084876191
301.780433472
301.588534989
302.429792941
305.028396776
306.65035788
300.031878173
300.024150305
300.020013781
300.017974945
300.016957723
300.032034394
300.148953143
300.34179174
300.580466776
300.874380426
301.274455061
301.80430701
302.407951575
302.958479055
303.313353895
303.385103925
303.294011468
304.36375475
307.430467834
308.555463856
300.029619167
300.023269534
300.020239607
300.018935333
300.018375473
300.053064718
300.183640737
300.318205135
300.500663414
300.815815629
301.272985745
301.854329858
302.553701
303.363044175
304.199678353
304.957790664
305.531759256
306.758878484
309.573586531
310.432527539
300.027886445
300.022958345
300.021007836
300.020389814
300.02020148
300.050573114
300.136050148
300.190604933
300.30922455
300.564242108
300.990925317
301.606560643
302.384765539
303.319382625
304.45468654
305.836499634
307.394786173
309.361811416
312.080050021
312.321518267
300.026321877
300.023084134
300.022422316
300.022765167
300.023433629
300.035736095
300.069710594
300.090382608
300.120959009
300.241204221
300.506548274
300.9930744
301.732625337
302.771641824
304.084880924
305.723468034
307.826920191
310.851591055
313.737295103
314.425231979
300.025381176
300.024324153
300.02561791
300.028293794
300.03092966
300.033356732
300.037874392
300.043502664
300.055225253
300.085013125
300.17897224
300.449059893
300.984726186
301.864345197
303.121695091
304.948491911
307.642022875
312.215345344
316.169017218
316.812171409
300.025863031
300.028146377
300.034057731
300.042171834
300.046537534
300.045555497
300.043834911
300.047247332
300.053806414
300.070519544
300.117135728
300.281521406
300.722156163
301.47120759
302.449986622
303.948869622
306.649251635
313.550926479
318.468638897
319.233982633
300.028282009
300.036239698
300.053174283
300.067866131
300.072537928
300.071093288
300.070737753
300.080963258
300.101937773
300.156449414
300.330842862
300.861702059
301.499542738
302.231659941
303.397927146
305.182254139
309.904720784
315.224360626
320.711168422
321.30416362
300.032974932
300.04658972
300.073611862
300.10164426
300.118669117
300.130389852
300.147825277
300.176798615
300.22622707
300.344960982
300.622899018
301.240932915
301.887718976
302.789067407
304.810566809
309.411748991
315.13487038
319.111787533
322.837055603
323.392199525
300.039558155
300.055500646
300.08278632
300.135546557
300.179153364
300.215037683
300.264061989
300.331213699
300.423689949
300.562704958
300.817167071
301.313316641
301.894123443
302.940305212
306.54397921
311.007367278
315.951350779
320.965181012
326.039143488
326.829004519
300.046332599
300.06186053
300.098596329
300.152484989
300.202308864
300.251264106
300.316035014
300.40119953
300.509180151
300.644986614
300.822823287
301.158852299
301.666831134
302.520874392
304.641762701
311.163934795
315.695796422
323.168363569
331.180425006
332.002195895
300.051972603
300.067499779
300.101997105
300.143417798
300.176841876
300.21920184
300.274992403
300.347009561
300.436713207
300.545490708
300.680161551
300.980312919
301.353223392
301.913337878
303.083872304
307.084479332
313.593521917
323.113165343
340.540945753
338.53971302
)
;

boundaryField
{
    emptyPatch
    {
        type            empty;
    }
    minY
    {
        type            calculated;
        value           nonuniform List<scalar> 0();
    }
    maxY
    {
        type            calculated;
        value           nonuniform List<scalar> 
40
(
332.444693851
310.29712221
303.258510321
301.335196911
300.873129529
300.729418753
300.64046684
300.561114403
300.488416434
300.422421769
300.359196259
300.295534781
300.231670765
300.170800639
300.116598389
300.073072548
300.044730135
300.033551029
300.034577124
300.042159584
300.051972588
300.067499719
300.101997034
300.143417769
300.176841851
300.21920181
300.274992367
300.34700952
300.436713167
300.545490678
300.680161539
300.980312923
301.35322349
301.913338131
303.083866649
307.084459129
313.593512988
323.113159354
340.540991409
373
)
;
    }
    water_to_cooler
    {
        type            calculated;
        value           nonuniform List<scalar> 
38
(
300.000954587
300.000949412
300.000939002
300.000925268
300.000911881
300.000902711
300.000901576
300.000912232
300.000937773
300.000980329
300.001041965
300.001127761
300.001239271
300.001386692
300.001598052
300.00194681
300.002631077
300.004147099
300.007701908
300.015812655
300.032426389
300.062519855
300.110018775
300.180713472
300.284402388
300.417659132
300.591536546
300.843100795
301.064472214
301.233123391
301.468269562
301.856982464
302.377698805
303.020207717
303.785936668
304.663886619
305.632902025
306.512286455
)
;
    }
    water_to_heater
    {
        type            calculated;
        value           nonuniform List<scalar> 
59
(
791.254767486
791.225001227
791.229043662
791.22249551
791.216914692
791.228284402
791.268154087
791.280587626
791.404550895
791.410480823
791.422875513
791.461532209
791.460410307
791.527409816
791.528992633
791.584807524
791.582976454
791.607532887
791.608081238
791.601203938
791.600059273
791.589357501
791.571737761
791.554785556
791.490313086
791.481929637
791.423121115
791.418889108
791.412006702
791.462212066
791.461172563
791.529866887
791.529365223
791.618368429
791.617286851
791.732054591
791.730308412
791.841641419
791.843268267
791.938299256
791.94224148
792.019330294
792.021866984
792.08229921
792.081158308
792.105692406
792.107469708
792.078827138
792.209049029
792.104208976
792.136152029
791.960843124
791.961200201
791.726897738
791.723020016
791.442557231
791.426176484
791.228765211
791.205606643
)
;
    }
    procBoundary0to1
    {
        type            processor;
        value           nonuniform List<scalar> 
41
(
322.870890186
309.287767249
303.504305559
301.72150613
301.147436073
300.905501935
300.763367309
300.657945861
300.566541924
300.482273822
300.405189112
300.3366298
300.277075264
300.226990641
300.185523334
300.152334611
300.123839573
300.097511591
300.074987896
300.056712816
300.019358692
300.015241542
300.011431456
300.007655905
300.004812467
300.003948124
300.003440479
300.002958327
300.00280665
300.003162493
300.003805829
300.004256573
300.004509132
300.004627179
300.004652135
300.004562703
300.043708754
300.03430838
300.027008721
300.021327957
300.021327957
)
;
    }
}


// ************************************************************************* //
