/*--------------------------------*- C++ -*----------------------------------*\
| =========                 |                                                 |
| \\      /  F ield         | OpenFOAM: The Open Source CFD Toolbox           |
|  \\    /   O peration     | Version:  2312                                  |
|   \\  /    A nd           | Website:  www.openfoam.com                      |
|    \\/     M anipulation  |                                                 |
\*---------------------------------------------------------------------------*/
FoamFile
{
    version     2.0;
    format      ascii;
    arch        "LSB;label=32;scalar=64";
    class       surfaceScalarField;
    location    "0.79/water";
    object      phi;
}
// * * * * * * * * * * * * * * * * * * * * * * * * * * * * * * * * * * * * * //

dimensions      [0 3 -1 0 0 0 0];

oriented        oriented;

internalField   nonuniform List<scalar> 
2916
(
3.14852206378e-08
7.01197654022e-07
1.77752457894e-08
7.04055946009e-07
8.71858262169e-09
7.02569388696e-07
3.87475905362e-09
7.00576172193e-07
2.40755488461e-09
7.00180709745e-07
3.56015764836e-09
7.00313106938e-07
6.62036064506e-09
6.99847512667e-07
1.15006715881e-08
6.97226271217e-07
1.84366288783e-08
6.9165346642e-07
2.73445655437e-08
6.83464107432e-07
3.76205638565e-08
6.7230317179e-07
4.87589414746e-08
6.57893480338e-07
6.39892896115e-07
6.05657327093e-08
1.82370856377e-07
7.87029681877e-07
1.24242609314e-07
6.58024857607e-07
7.52660051889e-08
6.4578995199e-07
2.93268164077e-08
6.58388174474e-07
-1.3205928224e-08
6.79853763506e-07
-5.05112487345e-08
7.04084222348e-07
-8.45948799592e-08
7.23047176965e-07
-1.10952964042e-07
7.27694447265e-07
-1.2585543398e-07
7.19111662599e-07
-1.28863626681e-07
7.05721461985e-07
-1.22738325507e-07
6.94605995525e-07
-1.10073418952e-07
6.87669379811e-07
-9.38418311759e-08
6.84235733083e-07
-7.6111827786e-08
6.82272099588e-07
-5.8551863745e-08
6.79824488231e-07
-4.12295153942e-08
6.74494381458e-07
-2.38136935228e-08
6.6621511902e-07
-6.74476564997e-09
6.55403135059e-07
9.44072991142e-09
6.418785293e-07
6.24566893339e-07
2.49417330467e-08
1.88882438319e-07
7.61036933277e-07
1.25750852158e-07
7.09776823081e-07
6.82472240707e-08
6.9947102326e-07
1.01629015443e-08
7.15465316304e-07
-4.9239004046e-08
7.39268165814e-07
-1.09639328891e-07
7.64759751375e-07
-1.69512468873e-07
7.83200778983e-07
-2.16959535394e-07
7.75355546989e-07
-2.4018215442e-07
7.42521393175e-07
-2.38314486394e-07
7.04030616224e-07
-2.19773755172e-07
6.76228393212e-07
-1.92264944821e-07
6.60312766748e-07
-1.61733668494e-07
6.5384934969e-07
-1.32013863929e-07
6.52696433656e-07
-1.04414898653e-07
6.52372641823e-07
-7.92470425557e-08
6.49478521037e-07
-5.59390839288e-08
6.43064212065e-07
-3.45882487138e-08
6.34214151727e-07
-1.55227472906e-08
6.22979163983e-07
6.0797598582e-07
1.23903268525e-09
2.40539219711e-07
6.9088208364e-07
2.16680998146e-07
7.0650774629e-07
1.73595848265e-07
7.26935670769e-07
1.24373911731e-07
7.58059541514e-07
6.26535972399e-08
7.99032709645e-07
-9.67490058044e-09
8.36972518154e-07
-9.06738205104e-08
8.64566349152e-07
-1.64483151399e-07
8.49561202496e-07
-2.1038292376e-07
7.88746255484e-07
-2.21182718678e-07
7.15082404014e-07
-2.10406305857e-07
6.65654275892e-07
-1.88107523954e-07
6.38183062084e-07
-1.59734804633e-07
6.25625856866e-07
-1.30073402235e-07
6.2317694985e-07
-1.02517024843e-07
6.24958327233e-07
-7.80812755225e-08
6.25189426505e-07
-5.60667078386e-08
6.2120185866e-07
-3.63096148812e-08
6.14615611513e-07
-1.91871441224e-08
6.06021043519e-07
5.94021320577e-07
-5.0620416531e-09
2.83434219033e-07
5.18793822041e-07
2.75920613364e-07
6.79276028497e-07
2.51677511752e-07
7.33790518911e-07
2.20274943872e-07
7.81521328106e-07
1.86012715969e-07
8.30196946056e-07
1.4551580324e-07
8.76577277376e-07
9.51659842794e-08
9.14885440768e-07
2.03180046739e-08
9.24661600047e-07
-6.47391725143e-08
8.74111769389e-07
-9.53501529932e-08
7.45992166493e-07
-1.05312696181e-07
6.75869455716e-07
-1.01815874106e-07
6.34891316779e-07
-8.99808726587e-08
6.13957038974e-07
-7.25589305829e-08
6.05897965043e-07
-5.4342927179e-08
6.06880941572e-07
-3.83741811727e-08
6.09364309599e-07
-2.43381156244e-08
6.07315231995e-07
-1.17796993118e-08
6.02213336097e-07
-1.00999363941e-09
5.95415107634e-07
5.85940930342e-07
7.24175190922e-09
1.62619299309e-07
4.5373459142e-07
1.81642318863e-07
6.32692908163e-07
1.89010220959e-07
7.11583196093e-07
1.91815042125e-07
7.71450389185e-07
1.9311731422e-07
8.25727447596e-07
1.90389877986e-07
8.78133358426e-07
1.79605701965e-07
9.25413897796e-07
1.49745120032e-07
9.54649096264e-07
9.51522923842e-08
9.2897270233e-07
5.43562187708e-08
7.87084543754e-07
3.10039547271e-08
6.99500823909e-07
1.81897958814e-08
6.47947607396e-07
1.30422461149e-08
6.19301221264e-07
1.40903110278e-08
6.05003951875e-07
1.89792599088e-08
6.02126813072e-07
2.36549874134e-08
6.04828470295e-07
2.75137023364e-08
6.03603201663e-07
3.09700158944e-08
5.98911512282e-07
3.39511371615e-08
5.92596782368e-07
5.847057593e-07
3.53579429611e-08
1.34079971058e-07
4.21677215598e-07
1.41624943956e-07
6.00697859408e-07
1.52901579771e-07
6.86703239354e-07
1.64997055299e-07
7.52486496709e-07
1.76640420545e-07
8.10944527373e-07
1.87856471448e-07
8.65679668841e-07
1.9785665061e-07
9.15055966907e-07
2.02908101139e-07
9.49646814053e-07
2.01923667477e-07
9.30177397418e-07
1.62168673049e-07
8.27118381724e-07
1.42426168584e-07
7.1952156097e-07
1.25379589317e-07
6.65248190512e-07
1.11861551753e-07
6.33033871856e-07
1.02035719206e-07
6.14998066162e-07
9.56901510585e-08
6.08607674883e-07
9.06593208103e-08
6.09995797254e-07
8.59237270235e-08
6.08483855503e-07
8.16089504642e-08
6.03379173228e-07
7.77377840203e-08
5.96629249107e-07
5.89839808605e-07
7.27756129939e-08
1.13455098855e-07
4.13176690365e-07
1.08698936433e-07
5.84052131165e-07
1.15950673705e-07
6.68524576188e-07
1.28492668846e-07
7.34714745242e-07
1.38766525312e-07
7.98326105271e-07
1.49795272556e-07
8.53725391857e-07
1.63629050653e-07
9.00975614492e-07
1.84676540324e-07
9.2867679923e-07
2.07101082636e-07
9.07972584582e-07
2.30613043501e-07
8.03870683562e-07
2.19790318516e-07
7.30612513037e-07
2.0412460626e-07
6.81163161718e-07
1.88383900711e-07
6.48987927427e-07
1.74054553576e-07
6.29495728424e-07
1.61437514798e-07
6.21357200836e-07
1.50189646895e-07
6.21376672738e-07
1.39949957993e-07
6.18864538683e-07
1.30655144257e-07
6.12824462181e-07
1.22262826998e-07
6.05180850538e-07
5.99672156891e-07
1.12607358198e-07
9.00738824215e-08
4.32740879372e-07
6.30425657229e-08
5.97132564511e-07
5.55079247832e-08
6.71777502927e-07
6.00123774675e-08
7.28298030351e-07
6.88987608682e-08
7.88509381791e-07
8.44644847933e-08
8.37837291484e-07
1.13348150731e-07
8.72096337438e-07
1.64274430612e-07
8.77914900419e-07
2.46251327608e-07
8.26224387712e-07
2.71094323363e-07
7.79284063613e-07
2.69520806618e-07
7.32445096236e-07
2.57770772202e-07
6.93154413161e-07
2.42807897104e-07
6.64157145372e-07
2.27240045642e-07
6.45225776017e-07
2.1156719521e-07
6.37158134933e-07
1.97002410065e-07
6.36069348962e-07
1.84044933302e-07
6.31960694926e-07
1.72591712551e-07
6.24424616537e-07
1.62098904197e-07
6.15828030475e-07
6.09693972279e-07
1.52256784163e-07
5.61355809183e-08
4.9173292799e-07
7.83791398801e-09
6.45479417995e-07
-2.38647520634e-08
7.05006208888e-07
-3.52419590788e-08
7.40300810576e-07
-1.82126958516e-08
7.71564557681e-07
3.43979996063e-08
7.85322919963e-07
1.19290634996e-07
7.87316540855e-07
2.09367353373e-07
7.88018235555e-07
2.5877159898e-07
7.7704579503e-07
2.83719081852e-07
7.54581881775e-07
2.90313162393e-07
7.26094752146e-07
2.85426722843e-07
6.98264639592e-07
2.7458743848e-07
6.7518433953e-07
2.60055303109e-07
6.59902679192e-07
2.43091792768e-07
6.5424075973e-07
2.27854793561e-07
6.51433495314e-07
2.1477922745e-07
6.45168586963e-07
2.03832691918e-07
6.3551107766e-07
1.93460060814e-07
6.26355928882e-07
6.15778029213e-07
1.8755610748e-07
2.47414256798e-08
5.85958533699e-07
-1.70528125221e-08
6.95190218821e-07
-4.32700225798e-08
7.35672433071e-07
-1.42312337977e-08
7.12753145257e-07
5.07066463222e-08
7.06898322154e-07
1.16509959971e-07
7.19620049736e-07
1.68905073465e-07
7.35069028188e-07
2.14589241878e-07
7.42523214056e-07
2.51561018063e-07
7.40288453293e-07
2.75935177852e-07
7.30428594779e-07
2.87450365744e-07
7.14790126965e-07
2.88609850974e-07
6.97291160972e-07
2.81676383805e-07
6.82267762511e-07
2.67995965946e-07
6.73699532076e-07
2.52536460807e-07
6.69814866632e-07
2.39576300056e-07
6.64511787686e-07
2.29185826797e-07
6.55684772873e-07
2.2085510747e-07
6.43977978096e-07
2.15095375425e-07
6.32270130199e-07
6.16245683334e-07
2.14797436974e-07
5.88395456185e-08
6.58983268113e-07
5.35700907278e-08
6.93967283952e-07
7.60918206083e-08
7.10591921699e-07
9.54492785878e-08
6.92516846383e-07
1.17160500347e-07
6.85032991617e-07
1.46729328935e-07
6.90117538548e-07
1.81116172679e-07
7.0082344387e-07
2.14085055711e-07
7.09726778355e-07
2.41246854641e-07
7.13307887287e-07
2.60867715457e-07
7.10983369595e-07
2.71383518582e-07
7.04432162121e-07
2.72112384205e-07
6.96693276729e-07
2.63841625446e-07
6.90642866503e-07
2.51188269992e-07
6.86454029411e-07
2.39742326556e-07
6.81363558059e-07
2.31173942165e-07
6.73189224423e-07
2.24745966008e-07
6.62231353604e-07
2.21119507268e-07
6.4773148976e-07
2.23326894972e-07
6.30211447203e-07
6.08452270974e-07
2.31275054503e-07
1.13695827217e-07
6.92715978277e-07
1.24155702638e-07
6.65689139368e-07
1.36431704526e-07
6.90793089747e-07
1.42987795129e-07
6.83252884682e-07
1.52497875707e-07
6.7480080224e-07
1.68335503329e-07
6.74195075095e-07
1.88027942375e-07
6.81216584364e-07
2.07886857591e-07
6.899952072e-07
2.25068498858e-07
6.9625570943e-07
2.36051637491e-07
7.00116671058e-07
2.38362880458e-07
7.02217802997e-07
2.32869951518e-07
7.0226928938e-07
2.22893378122e-07
7.0070649826e-07
2.13368363904e-07
6.96064839749e-07
2.06455131886e-07
6.88367214264e-07
2.01537449935e-07
6.78207630424e-07
2.00395905307e-07
6.63482492912e-07
2.04030733334e-07
6.44221064573e-07
2.14646577414e-07
6.19727397278e-07
5.91098114162e-07
2.32136682693e-07
1.52174391047e-07
6.94101430424e-07
1.61217876599e-07
6.35967128247e-07
1.66355141555e-07
6.76404288167e-07
1.65155816791e-07
6.80951692693e-07
1.64689373404e-07
6.74235647605e-07
1.69468073512e-07
6.6922325084e-07
1.77903421256e-07
6.7281035444e-07
1.86640118215e-07
6.81332982278e-07
1.90924969165e-07
6.92043378211e-07
1.88749691236e-07
7.02356573938e-07
1.8155428238e-07
7.09472133917e-07
1.71629927772e-07
7.12263826984e-07
1.63009818078e-07
7.09391145375e-07
1.56396183873e-07
7.02748181935e-07
1.51719810958e-07
6.93128183637e-07
1.51169333216e-07
6.78849792421e-07
1.56543326166e-07
6.58206763846e-07
1.68200848102e-07
6.32664703699e-07
1.86431724871e-07
6.0160291568e-07
5.66376897241e-07
2.11261503912e-07
1.68665482507e-07
6.81042738622e-07
1.55787977773e-07
6.29870797811e-07
1.52061666075e-07
6.71483532163e-07
1.42340232695e-07
6.87381639451e-07
1.35600109922e-07
6.79998899077e-07
1.33968071237e-07
6.70650178557e-07
1.33864682435e-07
6.72904601336e-07
1.31307799223e-07
6.83918054215e-07
1.2336129708e-07
7.00026798597e-07
1.12448684273e-07
7.13303457036e-07
1.01399844095e-07
7.205684382e-07
9.20732681721e-08
7.21637070173e-07
8.31195104948e-08
7.18391807418e-07
7.58435277846e-08
7.10090454301e-07
7.51452271079e-08
6.93892145223e-07
8.23350539378e-08
6.71733279769e-07
9.56388152986e-08
6.44975756754e-07
1.14356053977e-07
6.14022891022e-07
1.37707876882e-07
5.78329266555e-07
5.38373434594e-07
1.65793674226e-07
1.69463033769e-07
6.66804377174e-07
1.28319062465e-07
6.55240159175e-07
1.03757186371e-07
6.88873204956e-07
7.90762591211e-08
7.09352881917e-07
6.52106133705e-08
6.9314276504e-07
5.66259680777e-08
6.79104572491e-07
4.77404684651e-08
6.81781365901e-07
3.66712978605e-08
6.95002192588e-07
2.4256301688e-08
7.12459725991e-07
1.25437199818e-08
7.25040658477e-07
2.67538862583e-10
7.32874261986e-07
-1.32914202181e-08
7.35216155099e-07
-2.53412529976e-08
7.30477913438e-07
-2.67399307846e-08
7.11524255103e-07
-1.65527590439e-08
6.83746212067e-07
5.13263898686e-10
6.54709204006e-07
2.12999239178e-08
6.24232266417e-07
4.45881636974e-08
5.90780650288e-07
7.03719154646e-08
5.52597714545e-07
5.09858365143e-07
9.89464825384e-08
1.39250875937e-07
6.81926802058e-07
7.31762177238e-08
7.07186241292e-07
1.76342098829e-08
7.38324513494e-07
-2.0330083392e-08
7.45668255857e-07
-4.15082107634e-08
7.14060727013e-07
-5.82575806757e-08
6.95844110498e-07
-7.46542359286e-08
6.98195955728e-07
-9.03932398481e-08
7.1075901375e-07
-1.04115364376e-07
7.2619426032e-07
-1.19548391578e-07
7.40486522944e-07
-1.36997255173e-07
7.50326276407e-07
-1.5233845562e-07
7.50566224796e-07
-1.52255379303e-07
7.30398226941e-07
-1.35456524524e-07
6.9473196745e-07
-1.11658540609e-07
6.59955179409e-07
-8.56222146602e-08
6.28683585044e-07
-5.99547701261e-08
5.98580431735e-07
-3.41887058708e-08
5.65037168604e-07
-7.7704261213e-09
5.26210095818e-07
4.82869083565e-07
1.92581042914e-08
8.9309029478e-08
7.55289346679e-07
-6.0179589598e-08
8.43159290154e-07
-1.46893161899e-07
8.22448079151e-07
-1.81288954287e-07
7.7977172796e-07
-2.01093861861e-07
7.33941667891e-07
-2.2137045272e-07
7.16176208947e-07
-2.42949743632e-07
7.19808561342e-07
-2.64287604325e-07
7.32121178505e-07
-2.82905164354e-07
7.44830891827e-07
-2.98822732867e-07
7.56414191263e-07
-3.05662462591e-07
7.57171203895e-07
-2.94065165093e-07
7.38959748391e-07
-2.65193191147e-07
7.01510954201e-07
-2.31063507038e-07
6.60583717958e-07
-1.97093782416e-07
6.25971657425e-07
-1.6619585791e-07
5.97778361133e-07
-1.38333227666e-07
5.70717463529e-07
-1.12031227292e-07
5.38742629821e-07
-8.77570911056e-08
5.01951835899e-07
4.60865191035e-07
-6.57279011726e-08
4.47438317575e-08
8.97200527061e-07
-2.83398783154e-07
1.17520775265e-06
-3.82051190131e-07
9.29021013337e-07
-4.1894738955e-07
8.18598123922e-07
-4.42529224941e-07
7.58070921578e-07
-4.62865030393e-07
7.36742956953e-07
-4.79744871621e-07
7.36840496729e-07
-4.89828114859e-07
7.42325069565e-07
-4.87900574259e-07
7.42998515717e-07
-4.68536588995e-07
7.37119762455e-07
-4.31211628242e-07
7.1988525972e-07
-3.82790181606e-07
6.9055227009e-07
-3.34811349934e-07
6.53527362585e-07
-2.91441991144e-07
6.17203423307e-07
-2.54638160879e-07
5.89159191379e-07
-2.24223836078e-07
5.67360171124e-07
-1.98128129756e-07
5.44623236424e-07
-1.76047052116e-07
5.16669229841e-07
-1.5896984856e-07
4.84889555826e-07
4.49140747787e-07
-1.47222115076e-07
-7.37785078659e-08
1.13674040899e-06
-2.49867359773e-07
1.37440291267e-06
-5.14603413417e-07
1.20402289012e-06
-6.47379716006e-07
9.55438348665e-07
-6.95016016505e-07
8.06811650315e-07
-6.98192638625e-07
7.40418530454e-07
-6.70717349876e-07
7.09728559013e-07
-6.26867844346e-07
6.98766621767e-07
-5.72084685623e-07
6.88444271101e-07
-5.09794596865e-07
6.75002757186e-07
-4.46373074278e-07
6.56584541284e-07
-3.88158005355e-07
6.32414962244e-07
-3.38347130244e-07
6.03762111582e-07
-2.98890468271e-07
5.77773732635e-07
-2.68926935875e-07
5.59215513714e-07
-2.46103154446e-07
5.44555269347e-07
-2.28207079908e-07
5.26747540161e-07
-2.15785285498e-07
5.04270660208e-07
-2.09829695348e-07
4.7896149238e-07
4.52772431413e-07
-2.13427087632e-07
-2.8739164473e-10
1.20526176899e-06
-5.57115737496e-08
1.45319597804e-06
-1.66181437151e-07
1.32328358681e-06
-3.9723255101e-07
1.18926334116e-06
-6.56791369336e-07
1.06741270236e-06
-6.8783688221e-07
7.72006366275e-07
-6.32704974823e-07
6.55000996393e-07
-5.63501239957e-07
6.29900172606e-07
-4.93475971149e-07
6.1869647292e-07
-4.28288209748e-07
6.10036653097e-07
-3.70567911644e-07
5.99035346354e-07
-3.22020567272e-07
5.83993865199e-07
-2.85121782573e-07
5.66951485816e-07
-2.59856408014e-07
5.5257001627e-07
-2.44112753758e-07
5.43521318292e-07
-2.34143200589e-07
5.34631822671e-07
-2.28838385526e-07
5.21487818978e-07
-2.29202116238e-07
5.04679621905e-07
-2.36397948151e-07
4.86204092998e-07
4.73831759915e-07
-2.57401766817e-07
3.47776216131e-08
1.20586682862e-06
3.23862156603e-08
1.47269570026e-06
-3.4063921654e-08
1.39782806902e-06
-1.33621235101e-07
1.29157641564e-06
-2.58777846345e-07
1.19345145207e-06
-4.91400818214e-07
1.00509558304e-06
-4.59127604425e-07
6.23088650286e-07
-4.06019824844e-07
5.7709796334e-07
-3.4981998268e-07
5.62754738511e-07
-2.99333600318e-07
5.59765744931e-07
-2.57665139071e-07
5.57541435127e-07
-2.26582623564e-07
5.53046527903e-07
-2.07205385977e-07
5.47673966332e-07
-1.99119944237e-07
5.44561431447e-07
-1.9797581099e-07
5.42446439242e-07
-2.0063620081e-07
5.37359449448e-07
-2.07361190829e-07
5.28278773506e-07
-2.19339823568e-07
5.16723438628e-07
-2.38027889075e-07
5.04957666091e-07
5.03969708334e-07
-2.68081903154e-07
4.14510654268e-08
1.18993009468e-06
5.16771320679e-08
1.47390858735e-06
3.38112053189e-08
1.42407726276e-06
-1.72425007939e-08
1.34603937913e-06
-1.12847160708e-07
1.29022317311e-06
-2.48022136215e-07
1.140810523e-06
-2.64703358486e-07
6.40098922851e-07
-2.3979260161e-07
5.52452313582e-07
-2.06368584339e-07
5.2954767029e-07
-1.74212383227e-07
5.27791176603e-07
-1.50211369652e-07
5.33688632147e-07
-1.36144851598e-07
5.39095589709e-07
-1.32891248066e-07
5.44512027336e-07
-1.37286951815e-07
5.49040059503e-07
-1.45407665714e-07
5.50648566162e-07
-1.56338219104e-07
5.48371071979e-07
-1.70808355603e-07
5.4282964767e-07
-1.89870690422e-07
5.3586606462e-07
-2.14628151195e-07
5.29796286027e-07
5.34131494826e-07
-2.44684811915e-07
5.55703754208e-08
1.15334583083e-06
8.71301790683e-08
1.44513338815e-06
1.04148027167e-07
1.41205296482e-06
1.01934704196e-07
1.35114572359e-06
7.55109967883e-08
1.31792831835e-06
-1.47995440009e-08
1.23171718634e-06
-9.85651649605e-08
7.24183742288e-07
-1.04878516022e-07
5.59012075326e-07
-9.33727227863e-08
5.18225401247e-07
-7.95160610831e-08
5.14072554047e-07
-6.92483406055e-08
5.23530947153e-07
-6.73839987353e-08
5.37324339239e-07
-7.24045498104e-08
5.49620572998e-07
-8.13235980948e-08
5.58046904326e-07
-9.27988762142e-08
5.6221235258e-07
-1.06965507725e-07
5.62627295785e-07
-1.24427478429e-07
5.60382063626e-07
-1.45857414993e-07
5.57387114765e-07
-1.71391093541e-07
5.5542241054e-07
5.6044912343e-07
-1.97593603281e-07
7.15984985108e-08
1.09663189052e-06
1.22337077585e-07
1.38294012338e-06
1.75669035746e-07
1.35466053863e-06
2.20009521778e-07
1.30588565095e-06
2.55332103914e-07
1.28263753641e-06
2.7539725986e-07
1.21188186903e-06
3.22209211125e-08
9.67622481496e-07
-4.61641086179e-10
5.9192463254e-07
-7.14004371257e-09
5.25079100213e-07
-7.7740327671e-09
5.14834349259e-07
-7.71067055967e-09
5.2356179007e-07
-1.14235610943e-08
5.41126994222e-07
-1.83353830173e-08
5.5662272349e-07
-2.7840400435e-08
5.67643273564e-07
-3.97892210879e-08
5.7425413025e-07
-5.43817047663e-08
5.7731493593e-07
-7.19874394565e-08
5.78084890252e-07
-9.28580414143e-08
5.78356233538e-07
-1.16717516024e-07
5.79381659812e-07
5.82896256167e-07
-1.39050796896e-07
2.88156704144e-08
1.08699082371e-06
6.35492051984e-08
1.33634392505e-06
1.06875298313e-07
1.30588160781e-06
1.36521535344e-07
1.274454116e-06
1.46315954048e-07
1.27261856276e-06
1.29743210792e-07
1.22865822393e-06
1.10220548939e-07
9.87406778101e-07
7.99735108227e-08
6.22397481464e-07
6.43741845849e-08
5.40854577763e-07
5.56401406522e-08
5.23695523506e-07
4.94029482159e-08
5.29891387072e-07
4.33119885311e-08
5.47306629211e-07
3.55771457059e-08
5.64448601807e-07
2.59061715637e-08
5.77407774481e-07
1.4083368456e-08
5.86172629083e-07
-1.45043478987e-10
5.91641927088e-07
-1.69538277655e-08
5.94994915075e-07
-3.6171195924e-08
5.9767700849e-07
-5.73768814395e-08
6.00692319974e-07
6.0346439052e-07
-7.78358404313e-08
-1.9697421855e-08
1.12761188308e-06
-9.72541325723e-09
1.31764937775e-06
7.76234953373e-09
1.28476728623e-06
1.2891204056e-08
1.26820552419e-06
1.12017721089e-08
1.27430869116e-06
-4.50819291393e-09
1.24463576584e-06
1.43043258381e-07
8.40112212854e-07
1.36786042396e-07
6.28869089783e-07
1.23087120058e-07
5.54732339018e-07
1.11579157822e-07
5.35338144038e-07
1.02522151116e-07
5.39044326309e-07
9.5138447686e-08
5.54777311553e-07
8.68455771936e-08
5.72831709447e-07
7.70777285016e-08
5.87269026189e-07
6.55478182317e-08
5.97798892859e-07
5.2079905666e-08
6.05209718028e-07
3.66996308547e-08
6.10478229528e-07
1.97662063932e-08
6.14716005365e-07
1.80657691628e-09
6.18758964699e-07
6.22288114241e-07
-1.69092073908e-08
-3.34416264027e-08
1.1859062361e-06
-5.20244879768e-08
1.32995409442e-06
-7.0297027636e-08
1.30336868109e-06
-9.47162220518e-08
1.29380611942e-06
-1.15793336988e-07
1.29617287368e-06
8.25898950312e-08
1.04668915295e-06
1.65847691589e-07
7.57081159407e-07
1.75246609063e-07
6.19675087023e-07
1.68285866447e-07
5.61867255832e-07
1.58654778798e-07
5.45106664479e-07
1.4933255102e-07
5.48467897481e-07
1.41155253488e-07
5.63040693089e-07
1.32537510483e-07
5.81537938047e-07
1.22744092593e-07
5.97154492796e-07
1.11486213734e-07
6.09152285626e-07
9.88093437886e-08
6.17986067565e-07
8.50345637064e-08
6.24355854974e-07
7.07650076394e-08
6.29091128188e-07
5.64620206085e-08
6.33169143987e-07
6.37644145611e-07
4.12143951184e-08
-9.85333698561e-09
1.23767510125e-06
-6.48067732137e-08
1.37553534345e-06
-1.20544726564e-07
1.36212866971e-06
-1.74087511925e-07
1.34980591939e-06
-3.87569887739e-08
1.16190218283e-06
1.24584719459e-07
8.83678254525e-07
1.82653664329e-07
6.99223468853e-07
2.00408209171e-07
6.02107201496e-07
2.01002015836e-07
5.61436224787e-07
1.95360231748e-07
5.50880656773e-07
1.87692144819e-07
5.56235986223e-07
1.79575470832e-07
5.7124160467e-07
1.70890124466e-07
5.90309357639e-07
1.61167620296e-07
6.06967021932e-07
1.50280400353e-07
6.20133526222e-07
1.38501325335e-07
6.29862994142e-07
1.26406428153e-07
6.36551847825e-07
1.14658230527e-07
6.40943132656e-07
1.03336625979e-07
6.44596576472e-07
6.50422696083e-07
9.06667601738e-08
2.8117115881e-08
1.29839222775e-06
-6.14622861151e-08
1.46922381891e-06
-9.38808850459e-08
1.40233383678e-06
-3.20979602963e-08
1.29126442178e-06
9.64940141463e-08
1.03407959102e-06
1.64653581597e-07
8.15816177708e-07
2.01667069532e-07
6.62387628869e-07
2.19822360209e-07
5.8410538063e-07
2.26259852808e-07
5.55137971576e-07
2.25084742114e-07
5.52174539592e-07
2.19432452093e-07
5.61981975579e-07
2.11497133159e-07
5.79258074897e-07
2.0265111525e-07
5.99238832381e-07
1.92881472463e-07
6.1682421999e-07
1.8231220765e-07
6.30794140965e-07
1.71470610883e-07
6.40799549463e-07
1.61109150507e-07
6.47011301837e-07
1.51721695871e-07
6.50431317865e-07
1.42663045804e-07
6.53758668065e-07
6.63269991394e-07
1.29923474e-07
7.37196429131e-08
1.33288024986e-06
-1.40550941706e-08
1.55355598374e-06
3.20131928416e-08
1.35980696588e-06
1.25552027193e-07
1.19912992102e-06
1.79357857513e-07
9.80628821248e-07
2.12581601533e-07
7.8267159575e-07
2.3152642198e-07
6.43506067862e-07
2.43719831357e-07
5.72004108059e-07
2.50530691056e-07
5.48427955247e-07
2.51386517274e-07
5.51411703762e-07
2.46661330904e-07
5.66787299182e-07
2.38621928826e-07
5.87373862218e-07
2.29541918416e-07
6.08398941549e-07
2.196584241e-07
6.26791943545e-07
2.09356789779e-07
6.4118367614e-07
1.99405957621e-07
6.50841554623e-07
1.90594017319e-07
6.55917202422e-07
1.8310150473e-07
6.5802032659e-07
1.7522150454e-07
6.6173937224e-07
6.82749324758e-07
1.55851981781e-07
1.6786048898e-07
1.28640855371e-06
1.6167331398e-07
1.53912123011e-06
1.79131810879e-07
1.33799321672e-06
2.21737694538e-07
1.15506841547e-06
2.49671007507e-07
9.51860134997e-07
2.63642831124e-07
7.68257246854e-07
2.70618137681e-07
6.36375877534e-07
2.75635792637e-07
5.66988274569e-07
2.78664194032e-07
5.45455372351e-07
2.77410516159e-07
5.52730513247e-07
2.71606523638e-07
5.72658131838e-07
2.63480548556e-07
5.95571621062e-07
2.5435935798e-07
6.17596834968e-07
2.4448451096e-07
6.36747926189e-07
2.34422067909e-07
6.51331104662e-07
2.25015112674e-07
6.60336402834e-07
2.16833844695e-07
6.64189457012e-07
2.09435657857e-07
6.65511977917e-07
1.97220745009e-07
6.74054556425e-07
7.25334261089e-07
1.5476533562e-07
1.82030577851e-07
1.25623281734e-06
2.07514456024e-07
1.49375355735e-06
2.33760030971e-07
1.30356556473e-06
2.73306004202e-07
1.11166213876e-06
2.97801861479e-07
9.25300322988e-07
3.08409608962e-07
7.56613166038e-07
3.11466012361e-07
6.32900980929e-07
3.12135546531e-07
5.66211321883e-07
3.10931847592e-07
5.46667410278e-07
3.06388019167e-07
5.57317475294e-07
2.99335973998e-07
5.79768011416e-07
2.91175070532e-07
6.03798905007e-07
2.82104628503e-07
6.26739560431e-07
2.72335281847e-07
6.46595986796e-07
2.62408868005e-07
6.6133850715e-07
2.52919187594e-07
6.6991194908e-07
2.44133582615e-07
6.73058006836e-07
2.33175130842e-07
6.76558205091e-07
2.02706046233e-07
7.0463061144e-07
7.91435053651e-07
1.36796799182e-07
1.74049180946e-07
1.24289213942e-06
2.43767402903e-07
1.4109524796e-06
2.79216617236e-07
1.25752047658e-06
3.17199410214e-07
1.06774626935e-06
3.42705257356e-07
8.96573935975e-07
3.54753056508e-07
7.42942884511e-07
3.57499988667e-07
6.29461073651e-07
3.55889105063e-07
5.67596179913e-07
3.51441146405e-07
5.5107548541e-07
3.44491080866e-07
5.64289730556e-07
3.36644743652e-07
5.87660186596e-07
3.28243053045e-07
6.12257400526e-07
3.19213729857e-07
6.35836039905e-07
3.09645431314e-07
6.56234698897e-07
2.99738978536e-07
6.71322024217e-07
2.89495750153e-07
6.80227517904e-07
2.771369125e-07
6.8549355373e-07
2.49267409111e-07
7.04528010924e-07
1.88792971063e-07
7.65253685663e-07
8.49323576746e-07
1.31123249056e-07
1.50523116253e-07
1.18077354177e-06
2.36676771104e-07
1.31420877282e-06
3.0270535773e-07
1.17831940887e-06
3.51103540269e-07
1.01146929918e-06
3.85211601348e-07
8.58135306845e-07
4.03569173023e-07
7.223807732e-07
4.09363601154e-07
6.22690523712e-07
4.07905335824e-07
5.68701915741e-07
4.02117096042e-07
5.5677129806e-07
3.94196692187e-07
5.72207894624e-07
3.86114095408e-07
5.95774272011e-07
3.77994387322e-07
6.2042540904e-07
3.6979363874e-07
6.44092003389e-07
3.61298703134e-07
6.64803368517e-07
3.52191416564e-07
6.80500153105e-07
3.39689847868e-07
6.9280646452e-07
3.09840197006e-07
7.15443401514e-07
2.53485105148e-07
7.61001001236e-07
1.90583586955e-07
8.283260732e-07
8.94985410946e-07
1.45116878758e-07
1.44471590261e-07
1.09068573497e-06
2.18608747973e-07
1.2229714847e-06
3.10104548699e-07
1.07076243554e-06
3.7602575378e-07
9.35893568187e-07
4.24431234373e-07
8.04363687088e-07
4.5291516699e-07
6.91126757335e-07
4.64626664688e-07
6.09721346217e-07
4.65445257786e-07
5.67403401079e-07
4.59692323964e-07
5.62376069454e-07
4.51937164488e-07
5.79933431346e-07
4.44985303811e-07
6.02746760793e-07
4.38826051812e-07
6.26618725034e-07
4.33311334842e-07
6.49660143294e-07
4.28046411556e-07
6.70130961327e-07
4.18040853139e-07
6.90593722478e-07
3.88802801004e-07
7.22151254865e-07
3.37849823743e-07
7.66492590024e-07
2.78704783754e-07
8.2029804563e-07
2.403365743e-07
8.66863632089e-07
9.33834207486e-07
2.01683230307e-07
1.34317683198e-07
9.96131224538e-07
2.08171291302e-07
1.12266201903e-06
3.08763051747e-07
9.53025179149e-07
3.9512723759e-07
8.38814094918e-07
4.58693438988e-07
7.34600758356e-07
4.97571862359e-07
6.4900634567e-07
5.15643380041e-07
5.90166885348e-07
5.1883138591e-07
5.63634518433e-07
5.13089755711e-07
5.67910855176e-07
5.07064685205e-07
5.85894284415e-07
5.03073712194e-07
6.06734326185e-07
5.01034432777e-07
6.28687201513e-07
5.00370546728e-07
6.50367507609e-07
4.92516397851e-07
6.78058246436e-07
4.68269704527e-07
7.1493321602e-07
4.32159791234e-07
7.58354766964e-07
3.94993006082e-07
8.03806476396e-07
3.73639421115e-07
8.41820385356e-07
3.45206256982e-07
8.95487706702e-07
9.80545677641e-07
2.98685972507e-07
9.3884388922e-08
2.02590354914e-07
3.16827234471e-07
4.13417209588e-07
4.83586682988e-07
5.26898370781e-07
5.46739380595e-07
5.48343123164e-07
5.43756427369e-07
5.41640046575e-07
5.42518563733e-07
5.44511869019e-07
5.38546067075e-07
5.23635391267e-07
5.05497471227e-07
4.98033939822e-07
5.05133093351e-07
5.02370592407e-07
4.75113995146e-07
3.78193256642e-07
7.12381874355e-08
5.86873400823e-07
8.0117965338e-08
5.0806198464e-07
9.05336312838e-08
4.37002571491e-07
1.10807497417e-07
3.76965138824e-07
1.390780593e-07
3.34623619571e-07
1.64277688545e-07
3.04450713875e-07
1.76390503125e-07
2.733434439e-07
1.77601410171e-07
2.33190719594e-07
1.6994162701e-07
1.91259206376e-07
1.52268013927e-07
1.59027126062e-07
1.27199984527e-07
1.53106590898e-07
1.01403052954e-07
1.76090876063e-07
7.32329216399e-08
1.67700051352e-07
4.62161951881e-08
1.5336238667e-07
2.32436272066e-08
1.31674027669e-07
3.0191721297e-08
6.03403783956e-08
3.04615751693e-08
-5.00381663847e-08
1.89997868966e-08
-6.91386231596e-08
8.42355824852e-09
-7.42079647893e-08
-6.91916951316e-08
3.80819711991e-08
5.73906090207e-07
4.81306788285e-08
4.98176404639e-07
5.6230857122e-08
4.2905606878e-07
6.72803095586e-08
3.66062543813e-07
8.65346008325e-08
3.15534454544e-07
1.07526189673e-07
2.83666686681e-07
1.18638063683e-07
2.62473826867e-07
1.17896994588e-07
2.34182169143e-07
1.07536281213e-07
2.01868513764e-07
9.03939458386e-08
1.76421209468e-07
7.64866864131e-08
1.67283795464e-07
6.90849458842e-08
1.83782136619e-07
5.38664593381e-08
1.8319241375e-07
3.60309615447e-08
1.71461790488e-07
2.62873026732e-08
1.41667136423e-07
3.92091104304e-08
4.76523539367e-08
3.10364544347e-08
-4.18056772367e-08
1.92925980906e-08
-5.73941339036e-08
8.66761681555e-09
-6.35830164238e-08
-6.05240579161e-08
1.48683561617e-08
5.60445561924e-07
2.46599754246e-08
4.88544234294e-07
3.17262713391e-08
4.22141356034e-07
3.71288283398e-08
3.60802930183e-07
4.58775857491e-08
3.06927977047e-07
5.69364069255e-08
2.7278750582e-07
6.34740960246e-08
2.56164028243e-07
6.12832892877e-08
2.36622028036e-07
5.19284175311e-08
2.114774411e-07
3.90109589721e-08
1.89595979814e-07
3.07152693066e-08
1.7584281172e-07
4.02406579975e-08
1.7453009326e-07
4.41000857759e-08
1.79602931477e-07
3.20759033374e-08
1.83740526427e-07
2.70664232307e-08
1.469173487e-07
4.5523793531e-08
2.94203116919e-08
3.25341025761e-08
-2.87855233839e-08
2.02199932504e-08
-4.50798851968e-08
9.20564162646e-09
-5.25686719436e-08
-5.13183972114e-08
5.34818432229e-09
5.50203025082e-07
1.20404584719e-08
4.82010624301e-07
1.56270247375e-08
4.18704730772e-07
1.67058257708e-08