/*--------------------------------*- C++ -*----------------------------------*\
| =========                 |                                                 |
| \\      /  F ield         | OpenFOAM: The Open Source CFD Toolbox           |
|  \\    /   O peration     | Version:  2312                                  |
|   \\  /    A nd           | Website:  www.openfoam.com                      |
|    \\/     M anipulation  |                                                 |
\*---------------------------------------------------------------------------*/
FoamFile
{
    version     2.0;
    format      ascii;
    arch        "LSB;label=32;scalar=64";
    class       volScalarField;
    location    "0.945/water";
    object      nut.gas;
}
// * * * * * * * * * * * * * * * * * * * * * * * * * * * * * * * * * * * * * //

dimensions      [0 2 -1 0 0 0 0];

internalField   nonuniform List<scalar> 
1504
(
4.64404694626e-06
3.73786019843e-06
2.90321530313e-06
2.24484463751e-06
1.7482143476e-06
1.38062386431e-06
1.1305341467e-06
9.72852895556e-07
8.41582744206e-07
6.54626465409e-07
3.96518572033e-07
1.65619349075e-07
5.62993381413e-08
3.00207323721e-08
2.72964289748e-08
2.78493974653e-08
2.73178895506e-08
2.65306354022e-08
2.70411388455e-08
5.40453137866e-08
4.53168858965e-06
3.62185832826e-06
2.80888229182e-06
2.18544698256e-06
1.72091061611e-06
1.37012100684e-06
1.12587181984e-06
9.64875221556e-07
8.16007617393e-07
6.06426497377e-07
3.53917079269e-07
1.50509144406e-07
5.5274088555e-08
3.02580262782e-08
2.72875261974e-08
2.78100271232e-08
2.7371170577e-08
2.68332130926e-08
2.70214204471e-08
4.38612125433e-08
4.33877532452e-06
3.43738089119e-06
2.70047192871e-06
2.15654347796e-06
1.73298696728e-06
1.38610945071e-06
1.13235510132e-06
9.5655573771e-07
7.8124221832e-07
5.57304769752e-07
3.21260822535e-07
1.42896339326e-07
5.66018198181e-08
3.1125057337e-08
2.73406201663e-08
2.76180531414e-08
2.7296192354e-08
2.69668305911e-08
2.7344434048e-08
3.20524591953e-08
4.00524283965e-06
3.24497890061e-06
2.69429300444e-06
2.24616296392e-06
1.82220257976e-06
1.43631252517e-06
1.14902200389e-06
9.4285842836e-07
7.41375697441e-07
5.19045203698e-07
3.04900276852e-07
1.45022886163e-07
6.16033565874e-08
3.30551578203e-08
2.74787790387e-08
2.72941655483e-08
2.70986058314e-08
2.69152872941e-08
2.76846812044e-08
3.01181390774e-08
3.87458093686e-06
3.39215492271e-06
2.9771179235e-06
2.50196398024e-06
1.97381616935e-06
1.49934448572e-06
1.15973970942e-06
9.20662498297e-07
7.11989585696e-07
5.0547424673e-07
3.11069622596e-07
1.5946773758e-07
7.13336568564e-08
3.62860575829e-08
2.78036496883e-08
2.69029871374e-08
2.68317011411e-08
2.6774918811e-08
2.78239005947e-08
3.00204001605e-08
4.33070665335e-06
4.04649855979e-06
3.52634557742e-06
2.82126191358e-06
2.11256740545e-06
1.55296184538e-06
1.17134860663e-06
9.12513370655e-07
7.10397473761e-07
5.23483460657e-07
3.43307212762e-07
1.90053592417e-07
8.84767106904e-08
4.18242121774e-08
2.86547452992e-08
2.65955580245e-08
2.65489946532e-08
2.66427367358e-08
2.77563897502e-08
2.99512216297e-08
5.25680409947e-06
4.89539277272e-06
4.05492516248e-06
3.08581382589e-06
2.25854601763e-06
1.64869097271e-06
1.22588259123e-06
9.43799024699e-07
7.45063465294e-07
5.7586179569e-07
4.06742404086e-07
2.44741734011e-07
1.19216863346e-07
5.20763517887e-08
3.07082785855e-08
2.66663575684e-08
2.6366779225e-08
2.65875158861e-08
2.75791178264e-08
2.97510317301e-08
6.07106382673e-06
5.40442146611e-06
4.33242151719e-06
3.31418605743e-06
2.4732054417e-06
1.83046142615e-06
1.35829870755e-06
1.03281786857e-06
8.15654227131e-07
6.53921711035e-07
4.97644328683e-07
3.28913970721e-07
1.71871358974e-07
7.12551867238e-08
3.5141684387e-08
2.74740353977e-08
2.65111247799e-08
2.66565552968e-08
2.74196881708e-08
2.94422061787e-08
5.90823991801e-06
5.22328476962e-06
4.41195111432e-06
3.54474641788e-06
2.73353608845e-06
2.0662530822e-06
1.55215152548e-06
1.17128332162e-06
9.10247891169e-07
7.37083096696e-07
5.94282109145e-07
4.31676506593e-07
2.48541099033e-07
1.03593294445e-07
4.3342169284e-08
2.93586423128e-08
2.71116033428e-08
2.69195215336e-08
2.73999210582e-08
2.90884290096e-08
5.7174516671e-06
5.10943790194e-06
4.43763712728e-06
3.7093058811e-06
2.98153437898e-06
2.32492813365e-06
1.76279146233e-06
1.3217312295e-06
1.00726761794e-06
8.08094714231e-07
6.72254991011e-07
5.26626678188e-07
3.34739372024e-07
1.4784504508e-07
5.57319471652e-08
3.23163811981e-08
2.80487598994e-08
2.73619931257e-08
2.74941808803e-08
2.87533304447e-08
5.57482096629e-06
5.12312725872e-06
4.5090779034e-06
3.8197617273e-06
3.128257342e-06
2.50296437501e-06
1.94385931892e-06
1.44591647531e-06
1.08526531684e-06
8.59965763193e-07
7.24316462043e-07
5.96085582467e-07
4.09599283942e-07
1.95025797792e-07
7.1086199362e-08
3.59035520628e-08
2.90857896699e-08
2.78249253484e-08
2.76327763606e-08
2.84630157404e-08
5.41695966055e-06
5.07739401067e-06
4.52412738176e-06
3.8578372797e-06
3.18434149826e-06
2.58008519214e-06
2.02594083845e-06
1.51381605436e-06
1.13167081111e-06
8.93324256024e-07
7.566963247e-07
6.4040743559e-07
4.63259777132e-07
2.35813732565e-07
8.70878719773e-08
3.9815848527e-08
2.99543220867e-08
2.81504842035e-08
2.77672644262e-08
2.82615787463e-08
5.28678775291e-06
5.00738873618e-06
4.48902976285e-06
3.84096325199e-06
3.18300280383e-06
2.5939651713e-06
2.04884929116e-06
1.53372027125e-06
1.15107951495e-06
9.14279259067e-07
7.79526851818e-07
6.6834887834e-07
4.95959542907e-07
2.64341209274e-07
1.01058473919e-07
4.37594807558e-08
3.06916262864e-08
2.83177748172e-08
2.78910119739e-08
2.81406850959e-08
5.23049146129e-06
4.9516121094e-06
4.43550033389e-06
3.79472836797e-06
3.14824997806e-06
2.56430011995e-06
2.02257702191e-06
1.51801256887e-06
1.15372121568e-06
9.29623841165e-07
8.00234824676e-07
6.89443324085e-07
5.14409319647e-07
2.79294935375e-07
1.09647040187e-07
4.66308395441e-08
3.12069781516e-08
2.83482302976e-08
2.79901473758e-08
2.80221992739e-08
5.19469716063e-06
4.91492469992e-06
4.38645794816e-06
3.74336574169e-06
3.09846682028e-06
2.50678951391e-06
1.96111603036e-06
1.48507721885e-06
1.15049999385e-06
9.44119217988e-07
8.21186864486e-07
7.0643028719e-07
5.22471969178e-07
2.83263121642e-07
1.12804926221e-07
4.80173485219e-08
3.1398970011e-08
2.82492292265e-08
2.80023517265e-08
2.78197004307e-08
5.19534794973e-06
4.90125112253e-06
4.35709263744e-06
3.69919346047e-06
3.04301464498e-06
2.43757053048e-06
1.88811613093e-06
1.45213736225e-06
1.14887737396e-06
9.60190322073e-07
8.4216638246e-07
7.1875288492e-07
5.21635087559e-07
2.78687373328e-07
1.11573866502e-07
4.8037901106e-08
3.1264146404e-08
2.8029488616e-08
2.78666302141e-08
2.75270016609e-08
5.21713605485e-06
4.92547193382e-06
4.35029955812e-06
3.65823717279e-06
2.97905516427e-06
2.36305506235e-06
1.82551087527e-06
1.42423971618e-06
1.14987895715e-06
9.77294507738e-07
8.61184219428e-07
7.24911112361e-07
5.12612154434e-07
2.67536498277e-07
1.07139261473e-07
4.69904452075e-08
3.08450014378e-08
2.76882530965e-08
2.75757116574e-08
2.71279567475e-08
5.34971313146e-06
5.02851743687e-06
4.36556558805e-06
3.60558894486e-06
2.88832487786e-06
2.26247917493e-06
1.76378465669e-06
1.40037462764e-06
1.15199249197e-06
9.93972746088e-07
8.76250749138e-07
7.2370624095e-07
4.95823834038e-07
2.51487401006e-07
1.00628270168e-07
4.52337053136e-08
3.022069508e-08
2.72323906146e-08
2.71296494513e-08
2.66314177129e-08
5.64453893353e-06
5.18095339916e-06
4.3212510437e-06
3.49661031986e-06
2.77026431848e-06
2.16236645728e-06
1.70637412526e-06
1.37761109138e-06
1.15378168951e-06
1.00923025995e-06
8.85995048605e-07
7.14385600919e-07
4.7189829077e-07
2.32324976318e-07
9.31508616919e-08
4.31522557598e-08
2.94947418826e-08
2.66798945714e-08
2.6545578803e-08
2.60739905327e-08
5.9441479908e-06
5.19518895074e-06
4.14368287448e-06
3.32547047506e-06
2.62924068944e-06
2.06565023356e-06
1.64879309243e-06
1.35347456273e-06
1.15606840147e-06
1.02302911505e-06
8.89460821842e-07
6.96451158014e-07
4.42294393242e-07
2.12179697443e-07
8.57938355199e-08
4.11177255673e-08
2.87744551285e-08
2.60558505332e-08
2.58504741098e-08
2.54975280143e-08
6.05910450972e-06
5.04271181035e-06
3.90444597245e-06
3.09333088457e-06
2.45174148092e-06
1.95269090618e-06
1.58651555915e-06
1.32996712455e-06
1.16185439129e-06
1.03573246469e-06
8.86054710966e-07
6.7025870478e-07
4.09910513882e-07
1.93471564389e-07
7.95482429016e-08
3.94480172262e-08
2.81500190701e-08
2.53925954281e-08
2.5083787398e-08
2.49367832917e-08
6.18982764845e-06
4.94074883593e-06
3.69753566713e-06
2.85205388149e-06
2.27041545003e-06
1.84012904455e-06
1.52716095605e-06
1.31494323843e-06
1.17460815972e-06
1.04762746176e-06
8.7536646402e-07
6.37693233885e-07
3.78710653701e-07
1.78401805772e-07
7.51841278685e-08
3.83825734898e-08
2.76903453887e-08
2.47336107365e-08
2.42896977616e-08
2.44052558629e-08
6.26866105149e-06
4.91132420359e-06
3.61852677905e-06
2.72530227462e-06
2.14797627013e-06
1.75448890182e-06
1.4875950906e-06
1.31905684853e-06
1.19794636113e-06
1.05871826991e-06
8.56302954847e-07
6.02168180797e-07
3.52585399666e-07
1.68535339134e-07
7.32468457801e-08
3.81126414989e-08
2.74586282375e-08
2.41465953897e-08
2.35157544299e-08
2.39066762759e-08
6.1049134104e-06
4.759976312e-06
3.52176133169e-06
2.64371825039e-06
2.07511385385e-06
1.70945034962e-06
1.48613256846e-06
1.35253371748e-06
1.23453622198e-06
1.06574672946e-06
8.28211268756e-07
5.68634130025e-07
3.34818941763e-07
1.65023548706e-07
7.42529411409e-08
3.88702307629e-08
2.75524627663e-08
2.37350112909e-08
2.28189565388e-08
2.34798904464e-08
5.69297766009e-06
4.46158587453e-06
3.37217815992e-06
2.57475662835e-06
2.04629801282e-06
1.72020235569e-06
1.53893198544e-06
1.42248628945e-06
1.28097092999e-06
1.06167519331e-06
7.95162204979e-07
5.43744281812e-07
3.28467017121e-07
1.69078824078e-07
7.90710856904e-08
4.11598075709e-08
2.81894363419e-08
2.36389952197e-08
2.22668934583e-08
2.32120292388e-08
5.23413423726e-06
4.21374089747e-06
3.29916233883e-06
2.58728690414e-06
2.10106259317e-06
1.81401964059e-06
1.65741233417e-06
1.52401247345e-06
1.32366942034e-06
1.04754566745e-06
7.69982475918e-07
5.35375402479e-07
3.36624059287e-07
1.83502848296e-07
8.99066966446e-08
4.59647041833e-08
2.96924200363e-08
2.39801438029e-08
2.1997775067e-08
2.31707715102e-08
5.05340820294e-06
4.27662907035e-06
3.46283591601e-06
2.76354266623e-06
2.277132956e-06
1.99950695435e-06
1.82560853331e-06
1.63262694727e-06
1.35833668199e-06
1.04648645438e-06
7.72480172365e-07
5.51746253881e-07
3.65322099748e-07
2.13685597801e-07
1.09443328424e-07
5.42037941034e-08
3.23177552964e-08
2.48202735281e-08
2.22030526336e-08
2.33391059623e-08
5.35756331012e-06
4.67766809238e-06
3.8194117756e-06
3.04240230331e-06
2.51871125292e-06
2.21604123978e-06
1.99535948331e-06
1.74107210561e-06
1.42012198314e-06
1.08988449385e-06
8.12126801129e-07
5.96060646834e-07
4.2031295793e-07
2.65901328714e-07
1.42460679093e-07
6.81594501791e-08
3.67331449056e-08
2.62498338468e-08
2.29198679959e-08
2.36591845369e-08
5.87905081281e-06
5.09493753085e-06
4.09081067217e-06
3.260578389e-06
2.72828754407e-06
2.40875777034e-06
2.15510828988e-06
1.86739019567e-06
1.52397166607e-06
1.17916365434e-06
8.92418217097e-07
6.7563039371e-07
5.03945019718e-07
3.44208652086e-07
1.96267125359e-07
9.22768395143e-08
4.43299469896e-08
2.84981206863e-08
2.39639629476e-08
2.43367881114e-08
5.92838415629e-06
5.01459142833e-06
4.06807358905e-06
3.32413573813e-06
2.83528601884e-06
2.52503945963e-06
2.26937975177e-06
1.98211130549e-06
1.64496475246e-06
1.30387538458e-06
1.01357489989e-06
7.85980370115e-07
6.04245339314e-07
4.39763905529e-07
2.72940328549e-07
1.31899716443e-07
5.74114952591e-08
3.20954019312e-08
2.52299384287e-08
2.51203145106e-08
5.81409950587e-06
4.9511977287e-06
4.03993078769e-06
3.33847871436e-06
2.87064506947e-06
2.56002930136e-06
2.30814984605e-06
2.04499267155e-06
1.74670978011e-06
1.43531742571e-06
1.15012977537e-06
9.05799661035e-07
7.02997992131e-07
5.3111826056e-07
3.57941685779e-07
1.86740816868e-07
7.84674056376e-08
3.79564687324e-08
2.68787232834e-08
2.55631937951e-08
5.6716929809e-06
4.89361711276e-06
4.02366753407e-06
3.34643840713e-06
2.88315674946e-06
2.56087969176e-06
2.30177580926e-06
2.05609886023e-06
1.79904263157e-06
1.52829530164e-06
1.25961463585e-06
1.00706789978e-06
7.8611319428e-07
6.03466942219e-07
4.30144039757e-07
2.45757881133e-07
1.07439490506e-07
4.71937715111e-08
2.93270539467e-08
2.59615306193e-08
5.48090494592e-06
4.80942378406e-06
3.99475337617e-06
3.33930912634e-06
2.87167671582e-06
2.53114626991e-06
2.26072826514e-06
2.02679061764e-06
1.80190367958e-06
1.56690138857e-06
1.32010219778e-06
1.07208418749e-06
8.44813308171e-07
6.54705086454e-07
4.80755022959e-07
2.93385564054e-07
1.36373191618e-07
5.80860956812e-08
3.2418263512e-08
2.6623736036e-08
5.36210720426e-06
4.74550720433e-06
3.96483999163e-06
3.31716150579e-06
2.83261164022e-06
2.46506889538e-06
2.18263515476e-06
1.95941526909e-06
1.76029560835e-06
1.55530852534e-06
1.33259100582e-06
1.09884733409e-06
8.76854585015e-07
6.86478457544e-07
5.11940310475e-07
3.23604232113e-07
1.57583464553e-07
6.74911038761e-08
3.54394012148e-08
2.73260779659e-08
5.28752011298e-06
4.69951828801e-06
3.92408328502e-06
3.27414502658e-06
2.76821102862e-06
2.37393434786e-06
2.08396405379e-06
1.87094723312e-06
1.69095064065e-06
1.50858947361e-06
1.30754466859e-06
1.09246119618e-06
8.84114223649e-07
7.00399645477e-07
5.26487940711e-07
3.3687435919e-07
1.68112517944e-07
7.32079103514e-08
3.76319244461e-08
2.78764417059e-08
5.29472237656e-06
4.65942553306e-06
3.85631570061e-06
3.20110035499e-06
2.68120698648e-06
2.27499726525e-06
1.98676671992e-06
1.78268679314e-06
1.61473269242e-06
1.44636456205e-06
1.26111746866e-06
1.06421235368e-06
8.73229372985e-07
6.99861611327e-07
5.26644479361e-07
3.35020795659e-07
1.67936369954e-07
7.44017692951e-08
3.8495969514e-08
2.81083924813e-08
5.31937375402e-06
4.60766689832e-06
3.76106959221e-06
3.09480414475e-06
2.57460622621e-06
2.17709202421e-06
1.89942817105e-06
1.70431568857e-06
1.54495700344e-06
1.38487639198e-06
1.21017216065e-06
1.02859885319e-06
8.54133718329e-07
6.90000219569e-07
5.14756890794e-07
3.20181968976e-07
1.58667120974e-07
7.15185549041e-08
3.80105859659e-08
2.7974619079e-08
5.36284017036e-06
4.53851739666e-06
3.63762847084e-06
2.95792519313e-06
2.45576669665e-06
2.0829617105e-06
1.82174792111e-06
6.90338118933e-06
5.09865711789e-06
3.39160661536e-06
2.28281222981e-06
1.81936456213e-06
1.8692280792e-06
2.26998042232e-06
2.82501875047e-06
3.35498836697e-06
3.75734897777e-06
3.98685025007e-06
4.02728864823e-06
3.88166734589e-06
3.57692473969e-06
3.17703856594e-06
2.79765317123e-06
2.63304268439e-06
8.11796159689e-07
4.49228148407e-06
6.78679169822e-06
6.21826549258e-06
4.54133116363e-06
3.02907804427e-06
2.13066910711e-06
1.83655973474e-06
2.00514576149e-06
2.4695281278e-06
3.03471579102e-06
3.54364416617e-06
3.91305810674e-06
4.10673053574e-06
4.1121984787e-06
3.93435128747e-06
3.60279926784e-06
3.18661725407e-06
2.79965706923e-06
2.60432879865e-06
4.54333617035e-07
3.39285680596e-06
5.93783956277e-06
5.56970620406e-06
4.04652789235e-06
2.73763016249e-06
2.03656993317e-06
1.8941668333e-06
2.16555583833e-06
2.67820056532e-06
3.2441978901e-06
3.72906149073e-06
4.06537767998e-06
4.22405319712e-06
4.19551152361e-06
3.9860213287e-06
3.62760321159e-06
3.19555643312e-06
2.80640273748e-06
2.5887363385e-06
2.30366492734e-07
2.3834116597e-06
5.09083509696e-06
4.96880937264e-06
3.61994248174e-06
2.51397314553e-06
1.99405015512e-06
1.98694293131e-06
2.34580798896e-06
2.89292792949e-06
3.45252234046e-06
3.91133578508e-06
4.21477340375e-06
4.33938113373e-06
4.27777594585e-06
4.0371367427e-06
3.65149651305e-06
3.20315849679e-06
2.8164730052e-06
2.58777387707e-06
1.09056643044e-07
1.57927793179e-06
4.25971968074e-06
4.42283483331e-06
3.26242408983e-06
2.35221759959e-06
1.9967678078e-06
2.11005936532e-06
2.54176521235e-06
3.11145745457e-06
3.65923048318e-06
4.09076958454e-06
4.36178633974e-06
4.45328563056e-06
4.35951442429e-06
4.08812737043e-06
3.67463907803e-06
3.20868628414e-06
2.82803434352e-06
2.60312049207e-06
6.20777461365e-08
9.9967968838e-07
3.44904466179e-06
3.93437236521e-06
2.9715848572e-06
2.24573429294e-06
2.03910666169e-06
2.25912321425e-06
2.74988794172e-06
3.33223896387e-06
3.86422493806e-06
4.26782261599e-06
4.50702134214e-06
4.56635311211e-06
4.44123826338e-06
4.13941660475e-06
3.69724916926e-06
3.21148088353e-06
2.83864081214e-06
2.6356699149e-06
4.95437870876e-08
5.35984784266e-07
2.6557554479e-06
3.5016017584e-06
2.74297541519e-06
2.18818451391e-06
2.11638336882e-06
2.4303381798e-06
2.96748439576e-06
3.55449014923e-06
4.06783305378e-06
4.44318513911e-06
4.65120532518e-06
4.67922038878e-06
4.52345990145e-06
4.19141789371e-06
3.71961213381e-06
3.2110632196e-06
2.84536011886e-06
2.68473282228e-06
3.44426653812e-08
1.90485639532e-07
1.90322730762e-06
3.11904020771e-06
2.57082279137e-06
2.17414192843e-06
2.22504569119e-06
2.62084999382e-06
3.19301238687e-06
3.77830017107e-06
4.27088152431e-06
4.61782267039e-06
4.79519807835e-06
4.79255818389e-06
4.60665682358e-06
4.24448584366e-06
3.74204571982e-06
3.20722777729e-06
2.84506746775e-06
2.74701855164e-06
3.3345486779e-08
7.96734712537e-08
1.1927399853e-06
2.77573522925e-06
2.44905375413e-06
2.19965555399e-06
2.36287080828e-06
2.82900773056e-06
3.42615309793e-06
4.00454827901e-06
4.47460659338e-06
4.79288097795e-06
4.93989683869e-06
4.90698220877e-06
4.69119100919e-06
4.29883748089e-06
3.76483144619e-06
3.20010849483e-06
2.83495740168e-06
2.8156483065e-06
3.24707324425e-08
5.67309717982e-08
5.23673902189e-07
2.44340211698e-06
2.37255264787e-06
2.26264429985e-06
2.52897233476e-06
3.05431663622e-06
3.6675392691e-06
4.23457701601e-06
4.68037751529e-06
4.96946188084e-06
5.08606498512e-06
5.02293340548e-06
4.7772315917e-06
4.35449207363e-06
3.78813967676e-06
3.19017509866e-06
2.81316582128e-06
2.87981326592e-06
3.15994068128e-08
4.16543859535e-08
1.80027960542e-07
2.03274414114e-06
2.33796886841e-06
2.36284217076e-06
2.72340559601e-06
3.29696628352e-06
3.91814989038e-06
4.46966546248e-06
4.88929983627e-06
5.14834413764e-06
5.23415580897e-06
5.14058850691e-06
4.86473093314e-06
4.41127036041e-06
3.8119745724e-06
3.17810980411e-06
2.77923950213e-06
2.92592893284e-06
3.07874146707e-08
3.86135971213e-08
1.0898390206e-07
1.37592421842e-06
2.34105604133e-06
2.50102021082e-06
2.94627186263e-06
3.55698845481e-06
4.17853869114e-06
4.71048222531e-06
5.10187462853e-06
5.32980321707e-06
5.38425276725e-06
5.25988715895e-06
4.95350672909e-06
4.46888114156e-06
3.83615350473e-06
3.16461640207e-06
2.73445767176e-06
2.94090100152e-06
3.0064751163e-08
3.62526080841e-08
8.11202472545e-08
6.74749249376e-07
2.35825051078e-06
2.67766502934e-06
3.19676383975e-06
3.8335746802e-06
4.44839911676e-06
4.95691810445e-06
5.31801046631e-06
5.51372715057e-06
5.53623600274e-06
5.38071175581e-06
5.04340528377e-06
4.52703472547e-06
3.86037503034e-06
3.15051522714e-06
2.68147038434e-06
2.91628184999e-06
2.94877802436e-08
3.44222521106e-08
5.95074847804e-08
3.23890877083e-07
2.31667378943e-06
2.8920165489e-06
3.47308679969e-06
4.12527745194e-06
4.72692209419e-06
5.20852398557e-06
5.5374498666e-06
5.69998153868e-06
5.69006379026e-06
5.50307533969e-06
5.13439712274e-06
4.58551987676e-06
3.8844911383e-06
3.13647800184e-06
2.62353537793e-06
2.85107784205e-06
2.90206164085e-08
3.31335977266e-08
5.41033219126e-08
2.10137453927e-07
2.11448428557e-06
3.14125511263e-06
3.77331196874e-06
4.43082996546e-06
5.01348654397e-06
5.46504363993e-06
5.76013929789e-06
5.88863972948e-06
5.84589471763e-06
5.62717177559e-06
5.22659207216e-06
4.64426064511e-06
3.90841676938e-06
3.12291052741e-06
2.56399715226e-06
2.75191277571e-06
2.86082198986e-08
3.23407241068e-08
5.05937814217e-08
1.7342958747e-07
1.71337688986e-06
3.41589169026e-06
4.09558263929e-06
4.74928557083e-06
5.30770910591e-06
5.7264026481e-06
5.98618953205e-06
6.07994533371e-06
6.0040741839e-06
5.75335542214e-06
5.32014428026e-06
4.70364238981e-06
3.93231849246e-06
3.11009765393e-06
2.50588187623e-06
2.6305726388e-06
2.81899190549e-08
3.19232315652e-08
4.85900519376e-08
1.52729750656e-07
1.21867032005e-06
3.68968045821e-06
4.43759719746e-06
5.07988328707e-06
5.60943987905e-06
5.99278935809e-06
6.21602325564e-06
6.27450888127e-06
6.16532837548e-06
5.88226284377e-06
5.41601903475e-06
4.76468931806e-06
3.95684327228e-06
3.09844229072e-06
2.45153465615e-06
2.50032158113e-06
2.77143736368e-08
3.18204995547e-08
4.78119892379e-08
1.18643157848e-07
8.035982014e-07
3.90606973648e-06
4.79678229026e-06
5.42287437121e-06
5.9195257937e-06
6.26526000749e-06
6.45083453593e-06
6.47363845684e-06
6.33095564748e-06
6.01546022892e-06
5.51646899079e-06
4.82911998803e-06
3.98270922012e-06
3.08813823947e-06
2.4027995101e-06
2.37303383919e-06
2.72137176278e-08
3.19495562997e-08
4.81767227775e-08
1.07584494271e-07
5.48011325395e-07
3.95730535249e-06
5.16794670387e-06
5.77886641761e-06
6.23943758315e-06
6.54537613112e-06
6.69222539198e-06
6.67901709377e-06
6.50290683868e-06
6.15556309154e-06
5.62309576687e-06
4.89790636634e-06
4.01055118102e-06
3.07957263132e-06
2.36136032668e-06
2.25799146062e-06
2.67311960396e-08
3.23162428056e-08
4.96988754146e-08
1.06681380957e-07
4.20515157718e-07
3.67362547554e-06
5.53356503307e-06
6.14487523804e-06
6.56900817811e-06
6.83376497126e-06
6.94128257263e-06
6.89218960479e-06
6.68337987457e-06
6.30439161083e-06
5.73782201915e-06
4.97281347323e-06
4.04157126706e-06
3.07324997431e-06
2.32835562038e-06
2.16173268269e-06
2.63227289702e-08
3.29616258102e-08
5.22589594588e-08
1.07710456469e-07
3.62526935746e-07
2.93181092232e-06
5.84525885525e-06
6.51060137468e-06
6.90546195072e-06
7.13024705337e-06
7.19913771817e-06
7.11514474566e-06
6.87479245217e-06
6.46488194667e-06
5.86366878175e-06
5.0565235565e-06
4.07762093484e-06
3.06973064658e-06
2.30401252419e-06
2.08802349992e-06
2.60442186008e-08
3.37699112047e-08
5.56955063932e-08
1.11081482991e-07
3.29036294526e-07
1.90939499075e-06
5.97932739143e-06
6.8572983665e-06
7.24466384821e-06
7.43563515605e-06
7.46853658656e-06
7.35152518866e-06
7.08088516824e-06
6.6406622593e-06
6.00421298626e-06
5.15206503592e-06
4.12077165023e-06
3.06954696665e-06
2.28757977143e-06
2.03828167289e-06
2.59212822762e-08
3.4578619927e-08
5.99027446517e-08
1.17156403098e-07
2.57218991985e-07
1.05029245563e-06
5.57638387183e-06
7.14753941109e-06
7.57739746859e-06
7.74926097094e-06
7.7516144915e-06
7.60414286154e-06
7.30440975841e-06
6.83357520687e-06
6.15982938079e-06
5.2593691275e-06
4.17107671266e-06
3.07206574155e-06
2.27673379051e-06
2.01163197256e-06
2.5986337939e-08
3.5601855532e-08
6.45161973009e-08
1.2472540579e-07
2.2922876088e-07
6.49499363757e-07
4.01781765572e-06
7.2554756661e-06
7.88025614439e-06
8.06118796185e-06
8.04257648311e-06
7.86730694069e-06
7.53808024976e-06
7.03467920363e-06
6.3209778966e-06
5.36911223601e-06
4.22045015761e-06
3.07027121949e-06
2.26295435168e-06
2.00129418711e-06
2.63591878175e-08
3.72221064282e-08
6.88128215038e-08
1.33046729261e-07
2.3221211826e-07
5.42230063874e-07
1.93550924494e-06
6.637160597e-06
8.09389751424e-06
8.34330153775e-06
8.3174773064e-06
8.11546889187e-06
7.75255027296e-06
7.21151200812e-06
6.45541831779e-06
5.45426006777e-06
4.25013619875e-06
3.05127408245e-06
2.23352254659e-06
1.99702563705e-06
2.71003947995e-08
3.95595926529e-08
7.32222828999e-08
1.41103859908e-07
2.37443746414e-07
3.82294517237e-07
9.65673490544e-07
4.41526523158e-06
7.95236686994e-06
8.53824073415e-06
8.52301511617e-06
8.29232844705e-06
7.88706643054e-06
7.30107220963e-06
6.50372776009e-06
5.46737203909e-06
4.23240034023e-06
3.0083549951e-06
2.19243826921e-06
2.00435305671e-06
2.81209583679e-08
4.25897424005e-08
7.87076976935e-08
1.4833738435e-07
2.40924477612e-07
3.68452274943e-07
7.66652809278e-07
2.05724480681e-06
6.55468842217e-06
8.49692525315e-06
8.57081868491e-06
8.30402917996e-06
7.84459913494e-06
7.20901199636e-06
6.38391102019e-06
5.35212544432e-06
4.15189231326e-06
2.97709415612e-06
2.21485408938e-06
2.10540997949e-06
2.93354662299e-08
4.63520823189e-08
8.52481687866e-08
1.5419202458e-07
2.42126348496e-07
3.56715552469e-07
5.53793850884e-07
1.14257264281e-06
3.8745592159e-06
7.72846286042e-06
8.32397043674e-06
8.00275895491e-06
7.47040560527e-06
6.78927023754e-06
5.9794168688e-06
5.04841769898e-06
4.0362279389e-06
3.09824175167e-06
2.55713427859e-06
2.64473090552e-06
3.07762178527e-08
5.06862087464e-08
9.23593114923e-08
1.59373635185e-07
2.40985985563e-07
3.41394618201e-07
4.77978255835e-07
9.09377134531e-07
1.97244782501e-06
5.68533414006e-06
7.55704160958e-06
7.25333918047e-06
6.66032040545e-06
6.00802589885e-06
5.36238025701e-06
4.75936389765e-06
4.2325488474e-06
3.89424084464e-06
4.06909298687e-06
5.14260646093e-06
3.23157836244e-08
5.49672143987e-08
9.93418295625e-08
1.64307538078e-07
2.38189468418e-07
3.23004591189e-07
4.35936716051e-07
7.4810615059e-07
1.20549453038e-06
3.39135396101e-06
6.17363867475e-06
6.23528193761e-06
5.74576265123e-06
5.3600350285e-06
5.17695110395e-06
5.26104884944e-06
5.69147104821e-06
6.61931043142e-06
8.21793505899e-06
1.10751238896e-05
3.32872849613e-08
5.8367245724e-08
1.05579787224e-07
1.68513451341e-07
2.34469818383e-07
3.0327572663e-07
3.91693594077e-07
5.29705113025e-07
8.94131813204e-07
1.94337318823e-06
4.56215693452e-06
5.32578086628e-06
5.11807045714e-06
5.06629525478e-06
5.25526625221e-06
5.69475363189e-06
6.36225631763e-06
7.06570516162e-06
7.44546872919e-06
7.37842854251e-06
3.32132069613e-08
5.99634129857e-08
1.10195614152e-07
1.71416884352e-07
2.30163034698e-07
2.84359290538e-07
3.48897905848e-07
4.32647324171e-07
7.23513687622e-07
1.20164333521e-06
3.20350814605e-06
4.67211156556e-06
4.75284264481e-06
4.76962267871e-06
4.87364675859e-06
5.08448722337e-06
5.38083945748e-06
5.69416298669e-06
5.88785695872e-06
5.89355310298e-06
3.22301055845e-08
5.85607868105e-08
1.10616008513e-07
1.71371066865e-07
2.25237847946e-07
2.6822377865e-07
3.12160066099e-07
3.67529441484e-07
5.66863504287e-07
7.96955640171e-07
2.01989663372e-06
4.0138328113e-06
4.48764374416e-06
4.48240748137e-06
4.53367506758e-06
4.66540893032e-06
4.84731824335e-06
5.05249479222e-06
5.20892283101e-06
5.3659016697e-06
3.15025129486e-08
5.49934527303e-08
1.0471304318e-07
1.64081065893e-07
2.15486618574e-07
2.53031161166e-07
2.8345630311e-07
3.16405263911e-07
3.62356827738e-07
5.77014659134e-07
9.40349692658e-07
2.41661600059e-06
3.72633725684e-06
3.86037010261e-06
3.21877264998e-06
2.05957977801e-06
1.65408861858e-06
2.86640125428e-06
4.49547817572e-06
5.06536504785e-06
3.08701348182e-08
5.11428027551e-08
9.55993444356e-08
1.50605693453e-07
1.98640816925e-07
2.3299317562e-07
2.56053547346e-07
2.73437190651e-07
2.97430409203e-07
3.38975001207e-07
5.36790571167e-07
6.89659379267e-07
1.0785931752e-06
1.56185575308e-06
8.00396131825e-07
5.48634036356e-07
5.44290412083e-07
5.21132590529e-07
7.20445057921e-07
3.55559168781e-06
3.01644043255e-08
4.70226040169e-08
8.50946533222e-08
1.33990805839e-07
1.77517542718e-07
2.11076283933e-07
2.34381242337e-07
2.50631597404e-07
2.67782402788e-07
2.96354958594e-07
3.47135009801e-07
4.20705205783e-07
6.11122746506e-07
6.66773393666e-07
5.82143629881e-07
5.32137914296e-07
4.72037828598e-07
4.49048382306e-07
4.14079248494e-07
7.85774803335e-07
2.9410026519e-08
4.30392543415e-08
7.44521155705e-08
1.16702469541e-07
1.55509154954e-07
1.87069503481e-07
2.11342826656e-07
2.30119385482e-07
2.48128530005e-07
2.74063904408e-07
3.25214552448e-07
4.16184453179e-07
5.20646024519e-07
5.26596149975e-07
4.20178068259e-07
3.56731240132e-07
3.45875892767e-07
3.6032077116e-07
3.49246778716e-07
5.30561536007e-07
2.86408166862e-08
3.95096816298e-08
6.4775827602e-08
1.00544020291e-07
1.34729313073e-07
1.63049623491e-07
1.86493682983e-07
2.05740117269e-07
2.24918303911e-07
2.56414763924e-07
3.23394541893e-07
4.23531552629e-07
4.57641842415e-07
3.86133558903e-07
3.3355413342e-07
3.11994553002e-07
3.1239990768e-07
3.37784594787e-07
3.32769087749e-07
4.2859355652e-07
)
;

boundaryField
{
    emptyPatch
    {
        type            empty;
    }
    minY
    {
        type            calculated;
        value           nonuniform List<scalar> 0();
    }
    maxY
    {
        type            calculated;
        value           nonuniform List<scalar> 0();
    }
    water_to_cooler
    {
        type            nutkWallFunction;
        blending        stepwise;
        value           uniform 0;
    }
    water_to_heater
    {
        type            nutkWallFunction;
        blending        stepwise;
        value           uniform 0;
    }
    procBoundary3to1
    {
        type            processor;
        value           nonuniform List<scalar> 
41
(
1.6380881243e-06
1.48798438504e-06
1.33458432149e-06
1.16759705363e-06
9.97995832695e-07
8.35988347043e-07
6.75738229288e-07
4.93456570432e-07
2.95524679433e-07
1.43425131269e-07
6.60769513195e-08
3.66371756653e-08
2.75956462265e-08
5.40235979155e-06
4.46652234226e-06
3.51381141143e-06
2.81903946433e-06
2.34118614544e-06
1.99903857269e-06
1.6380881243e-06
1.75888337511e-06
2.79127630674e-08
3.6574239307e-08
5.6618696845e-08
8.61776116078e-08
1.16041136867e-07
1.41244298481e-07
1.62775753324e-07
1.82337802802e-07
2.06009953872e-07
2.50836244216e-07
3.31388980481e-07
4.0254488417e-07
3.82553106548e-07
3.34831071048e-07
3.1048016722e-07
2.98614148004e-07
3.11844810424e-07
3.50695257824e-07
3.46062535102e-07
4.83752995947e-07
)
;
    }
    procBoundary3to2
    {
        type            processor;
        value           nonuniform List<scalar> 
41
(
4.69856563601e-06
3.81996406911e-06
2.97941370769e-06
2.2998515398e-06
1.78261449009e-06
1.40150810779e-06
1.14064233391e-06
9.79212127569e-07
8.58160763449e-07
6.93661237678e-07
4.41328425394e-07
1.85879369946e-07
5.89592835226e-08
3.00885141893e-08
2.73541176469e-08
2.77783764434e-08
2.71869157685e-08
2.63514682948e-08
2.78319403037e-08
7.11514630136e-08
7.61134765661e-06
5.70750872102e-06
3.82384099358e-06
2.49828128492e-06
1.84799108071e-06
1.76280451715e-06
2.08353530516e-06
2.61675923702e-06
3.16336233037e-06
3.5979636853e-06
3.86392370297e-06
3.94025171991e-06
3.82750839564e-06
3.54977136264e-06