/*--------------------------------*- C++ -*----------------------------------*\
| =========                 |                                                 |
| \\      /  F ield         | OpenFOAM: The Open Source CFD Toolbox           |
|  \\    /   O peration     | Version:  2312                                  |
|   \\  /    A nd           | Website:  www.openfoam.com                      |
|    \\/     M anipulation  |                                                 |
\*---------------------------------------------------------------------------*/
FoamFile
{
    version     2.0;
    format      ascii;
    arch        "LSB;label=32;scalar=64";
    class       volVectorField;
    location    "0.905/water";
    object      U.gas;
}
// * * * * * * * * * * * * * * * * * * * * * * * * * * * * * * * * * * * * * //

dimensions      [0 1 -1 0 0 0 0];

internalField   nonuniform List<vector> 
1496
(
(0.036142621697 1.5424792753 0)
(0.0804073994743 1.46053839623 0)
(0.0901179947882 1.35334982593 0)
(0.0944652403238 1.24155991514 0)
(0.101694537839 1.14804117099 0)
(0.112232258444 1.09056800593 0)
(0.123454350861 1.07288377489 0)
(0.129800913203 1.08256500927 0)
(0.126021315071 1.11391236768 0)
(0.113120638385 1.18115195748 0)
(0.104604969989 1.31480702944 0)
(0.10804377291 1.36946997866 0)
(0.118992495738 1.35525648894 0)
(0.13588045439 1.28353232564 0)
(0.155311068362 1.1756885831 0)
(0.176808842029 1.07319278686 0)
(0.205269161671 0.981237993353 0)
(0.237982695008 0.908258828872 0)
(0.2648268922 0.851838235027 0)
(0.265046791127 0.803414800352 0)
(0.0412994716166 1.57975126413 0)
(0.0912181628884 1.43958009127 0)
(0.0963745716072 1.34629984413 0)
(0.0914200241776 1.24644471557 0)
(0.0893977204951 1.15217848755 0)
(0.0884176507011 1.09142382365 0)
(0.0864940339097 1.07633027337 0)
(0.0819021076369 1.08908543215 0)
(0.0747218396297 1.12411750468 0)
(0.0697847251612 1.19956664694 0)
(0.0761115569671 1.31067604443 0)
(0.0942458000113 1.35932494904 0)
(0.116821257149 1.34471914047 0)
(0.140239577696 1.28098801526 0)
(0.164910263368 1.19303613652 0)
(0.192874996737 1.10216023841 0)
(0.223707770415 1.02134939573 0)
(0.251641530386 0.959606263166 0)
(0.259963407132 0.904853030936 0)
(0.219940864999 0.841102413359 0)
(0.04507042076 1.60452497278 0)
(0.0974722442964 1.45251072388 0)
(0.0970459886258 1.37579264929 0)
(0.083991562019 1.29037283124 0)
(0.0747185683967 1.19106825708 0)
(0.0662139554871 1.12396555306 0)
(0.057150933483 1.11130274525 0)
(0.0488613191139 1.12592103296 0)
(0.0428756036141 1.1583136285 0)
(0.0445855519226 1.22352711156 0)
(0.0598696374771 1.30658344706 0)
(0.0852851252732 1.34801966436 0)
(0.113721659827 1.33916935461 0)
(0.142399241673 1.2887907949 0)
(0.170696111315 1.21510874898 0)
(0.197699094986 1.13737978285 0)
(0.220631750669 1.06990862864 0)
(0.226131440939 1.01567217943 0)
(0.190026261651 0.950464733916 0)
(0.128164674299 0.86578757696 0)
(0.0468881407322 1.63924200611 0)
(0.0974933426665 1.49911878394 0)
(0.0895651184663 1.44301401015 0)
(0.0686471735492 1.3705209737 0)
(0.0534004209236 1.25584250808 0)
(0.0416955995029 1.17531401951 0)
(0.0323915588499 1.1594813971 0)
(0.0274357782066 1.17219861607 0)
(0.0266746294336 1.19890740786 0)
(0.0332285399387 1.24808182845 0)
(0.0509896957032 1.30636124009 0)
(0.0766503300886 1.34004583413 0)
(0.104020204454 1.33205065883 0)
(0.130403872034 1.28913075119 0)
(0.154115120964 1.22912165292 0)
(0.170782891569 1.16738997365 0)
(0.166739714511 1.11490918872 0)
(0.126372114363 1.06536835386 0)
(0.0707825019823 0.982791839033 0)
(0.037565803741 0.876394821333 0)
(0.050594857014 1.68416564615 0)
(0.0949889734309 1.56570345711 0)
(0.0730672060072 1.53729924274 0)
(0.0450879964029 1.47043057416 0)
(0.024743270766 1.33301060451 0)
(0.0105509600458 1.23295467452 0)
(0.00309350423246 1.20298803859 0)
(0.00409917350302 1.2079481905 0)
(0.0109302852545 1.22933312327 0)
(0.0216549675581 1.26828840193 0)
(0.0359253021496 1.31041100988 0)
(0.0521432210142 1.33479614342 0)
(0.0683878454664 1.3210639619 0)
(0.0836428850063 1.27913040923 0)
(0.0917448009427 1.23100976983 0)
(0.0795906266779 1.18753095198 0)
(0.042210561975 1.15093122879 0)
(-0.00185957577281 1.10358410143 0)
(-0.0250025288197 0.994145534845 0)
(-0.0273477474675 0.865270049442 0)
(0.0589152399943 1.65816923171 0)
(0.102465871339 1.59388054993 0)
(0.0737321713694 1.59801320379 0)
(0.0501151801573 1.53426143314 0)
(0.0305578989932 1.38737511028 0)
(0.0132116498081 1.27511666571 0)
(0.00145546572549 1.22775256751 0)
(-0.0021551214615 1.22194500081 0)
(-0.000387244966301 1.24001357275 0)
(0.00211240883735 1.27819692836 0)
(0.00158421608814 1.31657396405 0)
(-0.00206774907103 1.33503203454 0)
(-0.00749768038225 1.31695690077 0)
(-0.0162670367974 1.27507688694 0)
(-0.0320774100992 1.23421276867 0)
(-0.0548035952327 1.20199368127 0)
(-0.0748446744299 1.17017909373 0)
(-0.0823545695246 1.11194630058 0)
(-0.0773400210166 0.974089176386 0)
(-0.0666815330751 0.835347256402 0)
(0.0728308314903 1.40988309502 0)
(0.133694310873 1.54070040799 0)
(0.119382846013 1.56965628199 0)
(0.113286253921 1.52785958737 0)
(0.10088297948 1.40550721007 0)
(0.0811995109866 1.29892230916 0)
(0.0591763688892 1.24067376994 0)
(0.0371274202938 1.22468606818 0)
(0.014428733773 1.23849722324 0)
(-0.00972680844487 1.27632911883 0)
(-0.0355836503529 1.31448278051 0)
(-0.062971335781 1.33379086533 0)
(-0.0933522347541 1.32122714976 0)
(-0.125424799687 1.28438366784 0)
(-0.149329711171 1.24124208127 0)
(-0.155108047101 1.19568584784 0)
(-0.142986768391 1.14787076013 0)
(-0.120674762637 1.07116406093 0)
(-0.097188637764 0.92673955307 0)
(-0.077849183527 0.793857624667 0)
(0.044443310336 1.08118012706 0)
(0.096877944802 1.40020407312 0)
(0.116277248846 1.44968649461 0)
(0.137416206268 1.44072794647 0)
(0.148330843037 1.38035108924 0)
(0.14184909268 1.31686752063 0)
(0.119912154168 1.27497500131 0)
(0.0871986868449 1.26111685082 0)
(0.0486531495631 1.27178473836 0)
(0.00938594667122 1.30229645061 0)
(-0.0272982920599 1.33393549512 0)
(-0.0624437807358 1.35179086592 0)
(-0.100893060622 1.34747400284 0)
(-0.14662329542 1.31696689662 0)
(-0.179409845794 1.23325424093 0)
(-0.178618831167 1.14793105197 0)
(-0.153615897559 1.07890571591 0)
(-0.118172736357 0.993358262032 0)
(-0.0848418253427 0.862950144383 0)
(-0.0610450908198 0.748794384259 0)
(0.0262097928365 0.890888838172 0)
(0.0609404304025 1.23919612336 0)
(0.0800138330789 1.30555811649 0)
(0.099486525231 1.3233935308 0)
(0.112082771338 1.32786694451 0)
(0.113674450782 1.32533412184 0)
(0.104834322072 1.32125540357 0)
(0.0880156760656 1.32478693405 0)
(0.0665110219285 1.33883300765 0)
(0.0443942322035 1.3616211535 0)
(0.0241832526899 1.38357952912 0)
(0.00519118950129 1.39551573769 0)
(-0.0148176528507 1.39328407286 0)
(-0.0401639162265 1.36772855811 0)
(-0.0801209451437 1.26227798285 0)
(-0.106300083942 1.09125089311 0)
(-0.0969140067672 0.997740695456 0)
(-0.07133386502 0.911008699007 0)
(-0.0435746587839 0.801975048335 0)
(-0.0229566901165 0.711684378535 0)
(0.0206191578162 0.79640327879 0)
(0.0495477055207 1.11256819052 0)
(0.0706292259716 1.17275682322 0)
(0.0932301276261 1.22317706724 0)
(0.107576094673 1.27872623589 0)
(0.111344358807 1.32603142454 0)
(0.107165365305 1.35382257604 0)
(0.0986671440312 1.37437462752 0)
(0.0879858236044 1.39349343882 0)
(0.0768978520223 1.41218279002 0)
(0.0664843210352 1.42690378831 0)
(0.0569496207361 1.4335872309 0)
(0.0478438825617 1.42898438611 0)
(0.0382108057069 1.40603110779 0)
(0.0229253716499 1.3185679247 0)
(-0.00233553482501 1.09387526426 0)
(-0.0146946065048 0.941613694549 0)
(-0.00405243517348 0.85113503683 0)
(0.011679067642 0.760381759433 0)
(0.0240170898895 0.690951710879 0)
(0.0205690559125 0.728339624433 0)
(0.0525293125429 0.983668830518 0)
(0.0802059357044 1.01890550547 0)
(0.113957289371 1.0878005977 0)
(0.13404496331 1.23750239092 0)
(0.134337396241 1.33084488921 0)
(0.12757972232 1.38237908534 0)
(0.118027149462 1.41210289146 0)
(0.107809117485 1.43216911541 0)
(0.0980001200766 1.44685522274 0)
(0.0891101193165 1.45579298042 0)
(0.0811485259611 1.45730569667 0)
(0.0738538793165 1.44922152331 0)
(0.0669674334345 1.42494302872 0)
(0.0603446909686 1.34063618387 0)
(0.0557399185225 1.11678717587 0)
(0.0547811541574 0.917899129961 0)
(0.058896145637 0.821418521099 0)
(0.0666138865443 0.742694505457 0)
(0.0716294998848 0.687063034307 0)
(0.0101183428373 0.72509717528 0)
(0.0269790800367 0.895426858442 0)
(0.0399334611853 0.910298160127 0)
(0.0536458680904 0.974965945169 0)
(0.0790084932693 1.14358911498 0)
(0.102956557871 1.30946164784 0)
(0.109561255449 1.39216636823 0)
(0.108163894301 1.43327432391 0)
(0.10291587265 1.45703447182 0)
(0.0958579665294 1.47032245588 0)
(0.0881779304685 1.47607238183 0)
(0.0803255204227 1.47416366204 0)
(0.0727231736115 1.46237185636 0)
(0.067713595251 1.4306623165 0)
(0.072077744493 1.33237080021 0)
(0.0895822753933 1.08796750672 0)
(0.103874041475 0.91385867128 0)
(0.109772330398 0.816430858122 0)
(0.115259820189 0.7449510961 0)
(0.115170925183 0.697643461897 0)
(-0.00354191192238 0.878377540226 0)
(-0.00726989052627 0.89894467353 0)
(-0.00487986745607 0.875865258552 0)
(0.00307540483302 0.932076458632 0)
(0.0169062802363 1.04235700696 0)
(0.0454919204422 1.20834502566 0)
(0.0762137063104 1.34843367912 0)
(0.0891763760329 1.42682566883 0)
(0.0905636858562 1.46519215926 0)
(0.0865592375332 1.4847420178 0)
(0.0795419398747 1.49240407653 0)
(0.0712553225473 1.48939688189 0)
(0.0643872106299 1.4713592339 0)
(0.0666146610864 1.41801969998 0)
(0.0962322133407 1.26097461593 0)
(0.129727046348 1.05370431194 0)
(0.143738437813 0.920274511412 0)
(0.153159555841 0.828440840955 0)
(0.157391744729 0.762269973097 0)
(0.15053121369 0.720232231947 0)
(0.00334268391839 1.13486066112 0)
(-0.00444194311061 0.987440653737 0)
(-0.021087716327 0.886740049319 0)
(-0.026016922867 0.918882406604 0)
(-0.0189393780288 1.00940677452 0)
(-0.00215876931524 1.11585692809 0)
(0.0265021908717 1.25421788093 0)
(0.0601039961421 1.36744737973 0)
(0.0790034880334 1.45589907339 0)
(0.0817408851859 1.49430900606 0)
(0.0780972226832 1.50854576917 0)
(0.0738141024246 1.50181986889 0)
(0.0773949859547 1.46318881049 0)
(0.105893106971 1.352833618 0)
(0.143446803294 1.18815371615 0)
(0.167413250875 1.04899836828 0)
(0.18353686992 0.937269134689 0)
(0.192258695752 0.852390637971 0)
(0.190121135386 0.789755659349 0)
(0.170594528129 0.750574367344 0)
(0.0184931060096 1.38986286938 0)
(0.0216563728129 1.13744061409 0)
(-0.00816606028732 0.962541935205 0)
(-0.0289705356669 0.94186143411 0)
(-0.0339044773078 1.0081169983 0)
(-0.0246816443907 1.09666954126 0)
(-0.00653832234509 1.19198527055 0)
(0.0147885624699 1.30319375758 0)
(0.0395651689335 1.41631918192 0)
(0.0632657107775 1.47957889862 0)
(0.0813596430333 1.50446551207 0)
(0.100903632439 1.48654498796 0)
(0.130457268767 1.41979723318 0)
(0.162264802429 1.29212543956 0)
(0.188031725818 1.17427371545 0)
(0.20817957335 1.06125404507 0)
(0.218941469311 0.962783352694 0)
(0.218488545089 0.882254527334 0)
(0.203239129521 0.821409034181 0)
(0.169914610436 0.784529033237 0)
(0.0403462328203 1.55493766744 0)
(0.0684733450678 1.29833694441 0)
(0.0363966113976 1.0955287877 0)
(0.00223683244043 1.01372852664 0)
(-0.0183451410936 1.04439303666 0)
(-0.0236613987604 1.11356770605 0)
(-0.0156950454425 1.19335533069 0)
(0.0026252988844 1.28628708164 0)
(0.0275352292277 1.37533753464 0)
(0.0567389051766 1.441614812 0)
(0.0899285229025 1.46763227932 0)
(0.125901529058 1.44399973997 0)
(0.161666909926 1.37533850824 0)
(0.193808771197 1.28175890509 0)
(0.217863304953 1.18130320509 0)
(0.229631563539 1.08135291638 0)
(0.228975540244 0.988988681839 0)
(0.216513661686 0.910646754682 0)
(0.191473569968 0.85146272947 0)
(0.157885650937 0.817579703985 0)
(0.0509448072766 1.63037690379 0)
(0.0932617788395 1.43313110431 0)
(0.0651385568407 1.2475782702 0)
(0.029755234155 1.12424018487 0)
(0.00425738091719 1.1109853177 0)
(-0.00903829824655 1.15895320896 0)
(-0.010848169807 1.21787197236 0)
(-0.000853784113025 1.2884938985 0)
(0.0208109380362 1.35718447104 0)
(0.0518184225687 1.40666625441 0)
(0.0889663026631 1.4230044575 0)
(0.128852041452 1.40168875455 0)
(0.166409600231 1.34945684059 0)
(0.194518700802 1.2737304602 0)
(0.208572421046 1.18627069435 0)
(0.209895318629 1.09380263665 0)
(0.202471485167 1.0046193657 0)
(0.188718675528 0.927653633863 0)
(0.171651416214 0.869469246798 0)
(0.155790331229 0.836593907578 0)
(0.0574036373097 1.69119541156 0)
(0.102426972551 1.5502827042 0)
(0.0700731499661 1.40037973064 0)
(0.0340956271341 1.24791526011 0)
(0.008827849083 1.18852403763 0)
(-0.00328197261053 1.20993625734 0)
(-0.00473638541155 1.24731624877 0)
(0.00244124015415 1.29449407892 0)
(0.0193285833845 1.34125314986 0)
(0.0455529549069 1.37385370521 0)
(0.0777378542705 1.3813627054 0)
(0.110774124373 1.36044695571 0)
(0.137322834351 1.31893665886 0)
(0.152646237949 1.25520349065 0)
(0.158279539513 1.17492556729 0)
(0.158680982555 1.08561937022 0)
(0.158129642654 0.996234588849 0)
(0.15994898886 0.917697242169 0)
(0.166717023249 0.858441844035 0)
(0.179356875058 0.826722085649 0)
(0.062689086272 1.73189385012 0)
(0.101879848146 1.66884753196 0)
(0.0548295527563 1.56123456612 0)
(0.0143685702616 1.37193812645 0)
(-0.0115538846975 1.2613044903 0)
(-0.0213916702181 1.24721571272 0)
(-0.0179016039846 1.26281863962 0)
(-0.00583255271411 1.29093657719 0)
(0.0120239981947 1.32132320318 0)
(0.0334294472603 1.34230117377 0)
(0.0555290606794 1.34509445131 0)
(0.0732554017391 1.32545016013 0)
(0.083501435795 1.28717314806 0)
(0.0892388569026 1.22494180359 0)
(0.0950790709552 1.14180161704 0)
(0.104657978181 1.04714643461 0)
(0.121047054461 0.952299528142 0)
(0.146272549395 0.869813042621 0)
(0.180529721396 0.812981388326 0)
(0.219372394096 0.78526713485 0)
(0.0619392451821 1.66076617429 0)
(0.0934318122041 1.75591340634 0)
(0.0464931534782 1.670202006 0)
(0.0177142301071 1.44979225433 0)
(-0.00281216342609 1.30111333682 0)
(-0.0141462750505 1.25541651839 0)
(-0.0154856565657 1.25204165906 0)
(-0.00885310036354 1.26783628837 0)
(0.00200805251914 1.29038624015 0)
(0.0130244811663 1.30906700647 0)
(0.0197624418115 1.31463578121 0)
(0.0199506207993 1.29773486132 0)
(0.0195405557128 1.25050175732 0)
(0.025904874178 1.17591288027 0)
(0.0418013522662 1.07679013975 0)
(0.0673840464081 0.971789472196 0)
(0.101721523914 0.872157594792 0)
(0.145379664093 0.790051269859 0)
(0.194993792068 0.739484719715 0)
(0.242044191522 0.717105182845 0)
(0.0578406960092 1.3830178333 0)
(0.112188778233 1.69492599515 0)
(0.107799482056 1.64613932526 0)
(0.0981260055722 1.46733168124 0)
(0.0772384892365 1.32379594256 0)
(0.0544641936231 1.25363199897 0)
(0.0342755295987 1.23363172156 0)
(0.0165052590396 1.23772755514 0)
(0.00128746598031 1.25243975904 0)
(-0.0117298760315 1.26742438805 0)
(-0.0228378528491 1.27359748227 0)
(-0.0307297138136 1.25802232912 0)
(-0.0284709131864 1.18959279102 0)
(-0.010556710765 1.08967411102 0)
(0.0199658020627 0.973739878812 0)
(0.0579121648531 0.865551608225 0)
(0.100985855743 0.76995920038 0)
(0.147994576655 0.695810899984 0)
(0.194165931999 0.652917002927 0)
(0.220972593985 0.649333382733 0)
(0.0212783533244 1.09546332146 0)
(0.0487387727993 1.53494168977 0)
(0.0600571325566 1.54297988017 0)
(0.0666926570205 1.43709249457 0)
(0.0635876288781 1.33643667215 0)
(0.0482717337134 1.27308933814 0)
(0.0238633391601 1.24782801111 0)
(-0.00416334454539 1.24060554275 0)
(-0.0310376570629 1.23974035722 0)
(-0.0519724256702 1.23628189838 0)
(-0.0625144265371 1.2222663542 0)
(-0.0589130423715 1.18881949124 0)
(-0.0381959621902 1.08891390333 0)
(-0.0037353361051 0.967862862346 0)
(0.0351244282667 0.853152976543 0)
(0.0740964077777 0.754241115598 0)
(0.114195091724 0.671767495998 0)
(0.153764026612 0.610842971633 0)
(0.181693914776 0.582664864257 0)
(0.160284119541 0.626546023753 0)
(0.00742584765239 0.984089408352 0)
(0.0167261100148 1.44058722857 0)
(0.0206797214373 1.47032844097 0)
(0.0231607344166 1.39884070171 0)
(0.020961423445 1.33928536332 0)
(0.0128718922791 1.30588649233 0)
(-0.000252092603699 1.28862197455 0)
(-0.0160633550026 1.27585054375 0)
(-0.0309710955841 1.25809889309 0)
(-0.0410085060986 1.22865767687 0)
(-0.0428562604925 1.18193794105 0)
(-0.0343510296981 1.1147755082 0)
(-0.00673561675633 0.959213146703 0)
(0.0321072128617 0.845119543275 0)
(0.0672546248586 0.74736400908 0)
(0.101048719217 0.664747189522 0)
(0.134353615785 0.599569408441 0)
(0.160713532165 0.55404730086 0)
(0.15387495466 0.553823168578 0)
(0.0776287555899 0.700698915443 0)
(0.0003808552086 0.985722670286 0)
(-0.00271701758638 1.4298398808 0)
(-0.00802721667433 1.45621105433 0)
(-0.0120961172847 1.40082471825 0)
(-0.0175917758196 1.36173193445 0)
(-0.0248216342083 1.34186828653 0)
(-0.0327843820506 1.32855415914 0)
(-0.0399644557004 1.30988758461 0)
(-0.0444863010913 1.27687197822 0)
(-0.0446816299801 1.22597941342 0)
(-0.0392350091826 1.15340051033 0)
(-0.0102855941656 1.00580855677 0)
(0.0317669787105 0.840106566851 0)
(0.0644068798215 0.749982033986 0)
(0.0943618637564 0.671308109918 0)
(0.123884008745 0.606175801144 0)
(0.149320523326 0.556690039298 0)
(0.153281258823 0.529279679552 0)
(0.107079558256 0.586711073308 0)
(0.0158476517164 0.857705152291 0)
(-0.00619286866946 1.06972854491 0)
(-0.0198353002232 1.48751284768 0)
(-0.0331238488766 1.49709370234 0)
(-0.0452657544008 1.4458852419 0)
(-0.0577984765394 1.41187092005 0)
(-0.0691155080152 1.3901703203 0)
(-0.0768752011949 1.36570530527 0)
(-0.0796848367306 1.33224804015 0)
(-0.0775797251928 1.28196386727 0)
(-0.0675982737368 1.20220507624 0)
(-0.0282329495931 1.03882044667 0)
(0.0243124901233 0.867304241596 0)
(0.0584658719616 0.757255996756 0)
(0.0848377518644 0.685405432718 0)
(0.112025612413 0.623306792001 0)
(0.136883752248 0.572981474667 0)
(0.147371844461 0.535627963943 0)
(0.121659902045 0.538909337874 0)
(0.0295963655778 0.734963366037 0)
(-0.0429098657282 0.96035773985 0)
(-0.0127235785305 1.2350519388 0)
(-0.036599288659 1.61387664274 0)
(-0.059508482916 1.60619022299 0)
(-0.0843379739855 1.55422573384 0)
(-0.10976030807 1.51268971919 0)
(-0.12947080345 1.46359230359 0)
(-0.140944572803 1.4158840339 0)
(-0.139864051124 1.33521022787 0)
(-0.104838269623 1.18272565226 0)
(-0.0383607869502 1.06560444972 0)
(0.0165494978335 0.88962445322 0)
(0.0475191741713 0.779278327833 0)
(0.072001818963 0.704805144617 0)
(0.096507179293 0.645529703053 0)
(0.120650675408 0.596000288404 0)
(0.135510185185 0.555620111173 0)
(0.12200707142 0.532830302903 0)
(0.0550992166414 0.627067094025 0)
(-0.0183984284308 0.893533388885 0)
(-0.0464453308215 0.983438729136 0)
(-0.0145862556023 1.46202024202 0)
(-0.043266014614 1.80602201361 0)
(-0.0758906726297 1.79591963424 0)
(-0.115938612635 1.74401333418 0)
(-0.155778568532 1.67301489312 0)
(-0.189199137833 1.58495232475 0)
(-0.172295727603 1.32830561683 0)
(-0.10115347514 1.1931880832 0)
(-0.0403923877944 1.02078041739 0)
(-0.0014371639544 0.905163935286 0)
(0.0298853797139 0.809417127601 0)
(0.0552248395578 0.731164150924 0)
(0.0778749338909 0.670785888999 0)
(0.100825174823 0.622673634004 0)
(0.118231428885 0.581681322208 0)
(0.113629656792 0.547228278355 0)
(0.0716267666794 0.564504521706 0)
(-0.00672067312787 0.790131393982 0)
(-0.0584414732441 0.949336768515 0)
(-0.0621582950548 0.984966344757 0)
(-0.00300386456125 1.67917650329 0)
(-0.0219287206243 2.03334967511 0)
(-0.0593517388629 2.04358651171 0)
(-0.106217699312 1.99630172242 0)
(-0.15380673424 1.8755484903 0)
(-0.140412328358 1.51553878443 0)
(-0.085493205638 1.13834289456 0)
(-0.049899508564 1.0071383913 0)
(-0.0176862055896 0.914625479669 0)
(0.0118545029675 0.829201020732 0)
(0.0365779152805 0.757834951343 0)
(0.0580505828921 0.698475348407 0)
(0.0793528155453 0.650882472851 0)
(0.0975921254755 0.611285673668 0)
(0.099140087911 0.575410900757 0)
(0.0723677379755 0.546887147488 0)
(0.000203905716976 0.687919886108 0)
(-0.0591814063189 0.896972381257 0)
(-0.0688472844205 0.95918091389 0)
(-0.0692896630023 0.970427626191 0)
(0.0208935789549 1.83309672925 0)
(0.0230967793926 2.25344248179 0)
(-0.0160522805122 2.29416315468 0)
(-0.054189957106 2.23124904488 0)
(-0.0871804563296 2.06382460654 0)
(-0.0830677250137 1.28665383953 0)
(-0.0512626597266 1.02278987472 0)
(-0.0267506532404 0.92223064253 0)
(-0.00319824758595 0.845479526855 0)
(0.0183209923011 0.779858440708 0)
(0.0379609187847 0.726584285808 0)
(0.05728723939 0.680735032263 0)
(0.0746817498008 0.642390103503 0)
(0.0807202254159 0.607621896904 0)
(0.0604474489309 0.577128123209 0)
(0.0184778754529 0.570798325724 0)
(-0.0258756062228 0.824334522055 0)
(-0.0550629698624 0.930443597772 0)
(-0.0657744517501 0.958774179274 0)
(-0.0695847451509 0.95832232496 0)
(0.0317803944214 1.93843803626 0)
(0.0269486924907 2.52210807318 0)
(-0.0407250125961 2.58303429662 0)
(-0.100522542878 2.48240789191 0)
(-0.0952668092612 1.99854620096 0)
(-0.0496293369121 1.15528329162 0)
(-0.0300093646655 0.952881253295 0)
(-0.0138359178872 0.867167940446 0)
(0.0026554434736 0.804318514529 0)
(0.0189832756662 0.753963905723 0)
(0.0353428881731 0.71230025606 0)
(0.0509976755726 0.675701470469 0)
(0.058779858611 0.642283536438 0)
(0.0455865350977 0.610710792495 0)
(0.0110498038648 0.593760593371 0)
(-0.0400333648359 0.658231298407 0)
(-0.0696234669937 0.863210691827 0)
(-0.0681368380104 0.9391691393 0)
(-0.0678579181854 0.953699356856 0)
(-0.0703389822481 0.950183726963 0)
(0.0392930398787 2.00027982868 0)
(0.0109136716602 2.99574584396 0)
(-0.079734339425 2.88872438195 0)
(-0.0930631879396 2.60609273292 0)
(-0.061674737797 1.76192849696 0)
(-0.0326859931098 1.08082745761 0)
(-0.0199874917407 0.915554971775 0)
(-0.00869886044758 0.838866232248 0)
(0.00315806004796 0.785206268348 0)
(0.0153683922042 0.745700917627 0)
(0.0272318892061 0.711910392976 0)
(0.0341217689018 0.679948617805 0)
(0.0259385782248 0.649402582743 0)
(-0.000750110597554 0.62427113286 0)
(-0.0347221633781 0.630578744953 0)
(-0.0571829750653 0.734975608037 0)
(-0.0621956357613 0.85927598161 0)
(-0.0597695356122 0.925011953365 0)
(-0.0599089458881 0.945008615053 0)
(-0.0652453264993 0.945450188049 0)
(0.0281690737965 2.10250753727 0)
(-0.025944788056 3.68197886862 0)
(-0.0992807499817 2.99868939193 0)
(-0.0737062334307 2.51128037375 0)
(-0.0422895230768 1.60770786063 0)
(-0.0235576194183 1.04663349829 0)
(-0.0160327423861 0.901606057996 0)
(-0.00848354484539 0.829614024372 0)
(-0.000748840242704 0.783356777839 0)
(0.00602117820585 0.75107338443 0)
(0.00958971263494 0.721621495357 0)
(0.00442772747623 0.692557797573 0)
(-0.0146303175412 0.665495687213 0)
(-0.0419079784759 0.652141943823 0)
(-0.0672441825446 0.677880004521 0)
(-0.0820955500903 0.755378050099 0)
(-0.0770074900317 0.840075984865 0)
(-0.0624683701473 0.905856221663 0)
(-0.0564488376903 0.93837365439 0)
(-0.0601227414991 0.946577863976 0)
(0.00421666379508 2.42793590161 0)
(-0.0218354777045 4.19111396054 0)
(-0.0520019812434 2.98248465396 0)
(-0.0429374631772 2.40885335212 0)
(-0.0268002840115 1.51479853311 0)
(-0.0185572665521 1.04031920068 0)
(-0.0156861388928 0.903657300773 0)
(-0.0119358047734 0.833439034948 0)
(-0.00906179382164 0.792757221136 0)
(-0.00898180844884 0.765058640493 0)
(-0.0133090159995 0.738914383143 0)
(-0.0254706720477 0.713358724109 0)
(-0.0457656161126 0.691264246981 0)
(-0.0676732035029 0.689535325004 0)
(-0.0862360905867 0.722372967775 0)
(-0.0968534250681 0.774250185433 0)
(-0.0971382325827 0.823266430723 0)
(-0.085388368483 0.877510339444 0)
(-0.0667667262955 0.918931350683 0)
(-0.0590923806844 0.953473281215 0)
(-0.0109341445225 2.9346213772 0)
(-0.00645135175694 4.22350529916 0)
(-0.00477819475262 3.06386843085 0)
(-0.0140197339523 2.3555732304 0)
(-0.00977217831276 1.48542986239 0)
(-0.0120952459412 1.0571649887 0)
(-0.0141204021018 0.917113931901 0)
(-0.0138139403649 0.846051960057 0)
(-0.0145444547203 0.808264323758 0)
(-0.0184030563422 0.78377970877 0)
(-0.0263525079325 0.761308545623 0)
(-0.0401885369516 0.739997590601 0)
(-0.0583117427336 0.722785479139 0)
(-0.0751872596592 0.72733268894 0)
(-0.0883666749343 0.758879409009 0)
(-0.0963839181052 0.79257516187 0)
(-0.0974013824758 0.826858388439 0)
(-0.0918566453282 0.86019240267 0)
(-0.0805962308868 0.89672957249 0)
(-0.0588989276823 0.936317325445 0)
(0.0287860667167 3.21000802598 0)
(0.0672969879354 4.04818984278 0)
(0.0484192609209 3.27696127684 0)
(0.0190107329641 2.34427636083 0)
(0.0125958304075 1.51127742382 0)
(0.00245130701948 1.09622195246 0)
(-0.00337491016421 0.941688873651 0)
(-0.00514987368168 0.866108273469 0)
(-0.00701962226135 0.8273887809 0)
(-0.0116191764002 0.804737805009 0)
(-0.0200354522434 0.785598966835 0)
(-0.0331405060388 0.768432206212 0)
(-0.0489369893265 0.754920018161 0)
(-0.0620847361573 0.759340279099 0)
(-0.071325795191 0.785786570907 0)
(-0.0780754823791 0.808601785386 0)
(-0.0806797180103 0.832171363089 0)
(-0.0764144434396 0.857212706732 0)
(-0.0645816586822 0.884713387568 0)
(-0.0468453858825 0.906409446572 0)
(0.0342961032332 3.20309932518 0)
(0.0763083726786 3.91589345304 0)
(0.073460028529 3.46511317319 0)
(0.0555872705068 2.38508253354 0)
(0.0400900061393 1.5705754251 0)
(0.0261842234912 1.14901318894 0)
(0.0185775118723 0.974571448191 0)
(0.0163471996507 0.890939969378 0)
(0.0154680368111 0.847863443966 0)
(0.0128175288233 0.825204830423 0)
(0.00652886243392 0.808511018261 0)
(-0.00410760682655 0.794952573635 0)
(-0.0176794502398 0.784760616851 0)
(-0.0292074745421 0.78633740794 0)
(-0.0365452238788 0.806298513422 0)
(-0.0424891363767 0.822642574792 0)
(-0.0468417600914 0.83837647555 0)
(-0.0461295431322 0.855830538545 0)
(-0.038698265093 0.877085253866 0)
(-0.0260728330462 0.897012864572 0)
(0.0354397873244 3.16558491012 0)
(0.0738651606887 3.82444554559 0)
(0.0759809356993 3.51222736164 0)
(0.0677403340398 2.45449199501 0)
(0.0535617294869 1.63453067062 0)
(0.0433900258944 1.19738738859 0)
(0.0399407071707 1.00607923483 0)
(0.0414174322022 0.915032814502 0)
(0.0448488442358 0.867920959625 0)
(0.0475694200697 0.84491827449 0)
(0.0468892600278 0.829394436884 0)
(0.0416399095167 0.817524906972 0)
(0.0323809242851 0.809032008057 0)
(0.0215527678941 0.807958767306 0)
(0.0126115471152 0.820696484554 0)
(0.00573589796908 0.832478629863 0)
(-0.000156993325009 0.842784235054 0)
(-0.00387780472856 0.855310867222 0)
(-0.0036083497478 0.873334005449 0)
(0.000267614317712 0.894622191593 0)
(0.0687049214938 0.800457162137 0)
(0.0582537557788 0.740629797419 0)
(0.049424676367 0.66687890827 0)
(0.045344096255 0.557071495923 0)
(0.0492588188861 0.4583553632 0)
(0.0606631960285 0.40805607535 0)
(0.0815670583006 0.365939967391 0)
(0.108816948045 0.315197873884 0)
(0.12826585394 0.259019890344 0)
(0.127909978866 0.210918627369 0)
(0.0932408812778 0.176851009957 0)
(0.030067083533 0.147772652484 0)
(-0.00308005185947 0.115620158297 0)
(-0.00314674437859 0.147563336537 0)
(-0.033823626377 0.0643957036313 0)
(-0.0317502034994 0.0483970465835 0)
(0.213036728014 0.757087245127 0)
(0.141554253629 0.745207978892 0)
(0.0972879610652 0.793108254278 0)
(0.0740151667231 0.8442707184 0)
(0.0587676386109 0.84895907702 0)
(0.0484240399642 0.774834201886 0)
(0.0424414206845 0.681137775675 0)
(0.0426904157323 0.548118574266 0)
(0.0487293747822 0.460466089375 0)
(0.0601120101761 0.416718394432 0)
(0.0815732794222 0.375960453129 0)
(0.10885514238 0.325363172842 0)
(0.127524513446 0.26781219034 0)
(0.128317650067 0.217700722616 0)
(0.100180640829 0.181508859926 0)
(0.0416268203304 0.152914626304 0)
(0.00494110515194 0.122158088438 0)
(0.000551071242329 0.151013072813 0)
(-0.030778083114 0.0651731563175 0)
(-0.029795588429 0.0485136556906 0)
(0.150476379334 0.787230170457 0)
(0.102074774286 0.782168249441 0)
(0.0754626832602 0.837844866426 0)
(0.0567183922308 0.884186052019 0)
(0.0444719005855 0.887432190696 0)
(0.0371853061418 0.799024637944 0)
(0.0355202196763 0.682996001798 0)
(0.0391131761736 0.53574039127 0)
(0.0456591223966 0.461366837003 0)
(0.0565461156626 0.42294656361 0)
(0.0789811015315 0.383569806321 0)
(0.106749228873 0.332879066413 0)
(0.124969660753 0.27477085877 0)
(0.12750535488 0.223212032006 0)
(0.105313738832 0.185124942622 0)
(0.0534905484106 0.155919336921 0)
(0.0153062882846 0.128381471486 0)
(0.0048306709806 0.152172608234 0)
(-0.027855277535 0.0652353998191 0)
(-0.0277912986245 0.0480954371459 0)
(0.0843366715969 0.808059044437 0)
(0.062429237387 0.804694313391 0)
(0.0461494958179 0.869379477422 0)
(0.0333680599641 0.910647371996 0)
(0.0266299381515 0.909454241997 0)
(0.0248219722853 0.808325394165 0)
(0.0283389685239 0.669750205101 0)
(0.0345879730371 0.522543366325 0)
(0.0405619522513 0.460738547021 0)
(0.0512459839332 0.426893794233 0)
(0.0750794714352 0.389005818707 0)
(0.103583431058 0.338336728094 0)
(0.121919217577 0.280108634317 0)
(0.126233888755 0.227627532527 0)
(0.109241472102 0.187986215799 0)
(0.0653765108338 0.157769758895 0)
(0.0271434328067 0.133404886489 0)
(0.00923293425605 0.152572564341 0)
(-0.0252894349433 0.0641718840892 0)
(-0.0257660803786 0.0464538499836 0)
(0.0255502083581 0.810402427349 0)
(0.0190554050288 0.807993948768 0)
(0.0135746042033 0.878872786599 0)
(0.00923956676842 0.919200318741 0)
(0.00902884139913 0.911085627071 0)
(0.0132627556929 0.800061834987 0)
(0.0215322446381 0.643446079738 0)
(0.0293428663191 0.510656616109 0)
(0.0341072873178 0.459370294324 0)
(0.0453349044767 0.429514737094 0)
(0.0709268410307 0.393166178704 0)
(0.100057589383 0.342571647983 0)
(0.11905325775 0.284434047011 0)
(0.124932244113 0.231462704237 0)
(0.111951163937 0.190597389726 0)
(0.0751881822917 0.15941287248 0)
(0.0380183647572 0.137496704737 0)
(0.0133581785389 0.15305066511 0)
(-0.0232633771551 0.0635612068476 0)
(-0.0240005960162 0.0438368667362 0)
(-0.024401672365 0.793460434612 0)
(-0.0197194572113 0.791121094329 0)
(-0.0132778565421 0.861326231792 0)
(-0.00835958141684 0.90968674175 0)
(-0.00313018545865 0.89294383943 0)
(0.00613729026043 0.775460357282 0)
(0.0168691009026 0.61087011605 0)
(0.023836902246 0.500528279191 0)