/*--------------------------------*- C++ -*----------------------------------*\
| =========                 |                                                 |
| \\      /  F ield         | OpenFOAM: The Open Source CFD Toolbox           |
|  \\    /   O peration     | Version:  2312                                  |
|   \\  /    A nd           | Website:  www.openfoam.com                      |
|    \\/     M anipulation  |                                                 |
\*---------------------------------------------------------------------------*/
FoamFile
{
    version     2.0;
    format      ascii;
    arch        "LSB;label=32;scalar=64";
    class       surfaceScalarField;
    location    "0.015/water";
    object      phi.gas;
}
// * * * * * * * * * * * * * * * * * * * * * * * * * * * * * * * * * * * * * //

dimensions      [0 3 -1 0 0 0 0];

oriented        oriented;

internalField   nonuniform List<scalar> 
11810
(
3.44995507149e-07
3.48699147416e-07
2.18375117081e-07
2.18243358746e-07
2.83780360197e-07
1.88261056234e-07
2.47263588678e-07
1.7458306618e-07
2.55824806715e-07
1.7694066862e-07
2.49986415877e-07
1.83251661968e-07
2.58386223987e-07
1.93211649356e-07
2.5224132696e-07
2.04525256349e-07
-3.66970841233e-08
2.16604352157e-07
-4.31422327949e-07
2.2729738373e-07
-3.9489355718e-07
2.49895905224e-07
-4.25195502494e-07
3.22838867751e-07
-4.30358639275e-07
4.03969515234e-07
-4.28260449008e-07
4.51423913396e-07
-4.24533768093e-07
4.77798586624e-07
-4.18878753765e-07
5.03639756896e-07
-4.10954754596e-07
5.29749924938e-07
-4.01117477517e-07
5.57561652373e-07
-3.89662158504e-07
5.87601722854e-07
6.19871735341e-07
-3.76734531483e-07
1.03654345714e-07
4.00913143163e-07
1.52318924756e-07
2.57745611866e-07
1.46347797009e-07
2.17480759484e-07
1.72177714303e-07
2.08350089807e-07
1.85479149157e-07
2.12169516742e-07
2.07197397028e-07
2.2335833073e-07
2.26507434623e-07
2.38416183021e-07
2.35603861282e-07
2.5546374313e-07
1.8643293961e-07
2.73067439897e-07
6.26770833902e-08
2.91386217028e-07
-8.23850638144e-08
3.11283579943e-07
-2.37149914124e-07
3.36900053255e-07
-3.13841657105e-07
3.70561745061e-07
-2.82666097421e-07
4.12337995182e-07
-2.69726046276e-07
4.37641509676e-07
-2.6105994529e-07
4.52719038776e-07
-2.50335574744e-07
4.73916714307e-07
-2.38088027369e-07
4.97768625588e-07
-2.24650462153e-07
5.22611121594e-07
5.48842861703e-07
-2.10214087831e-07
1.30478091272e-07
4.89910984826e-07
1.09189892223e-07
3.06796738668e-07
1.06412445651e-07
2.46759936149e-07
1.25013850093e-07
2.35474677221e-07
1.46921614616e-07
2.40604150641e-07
1.72756626542e-07
2.52039507627e-07
1.98386758517e-07
2.6692917002e-07
2.18496962631e-07
2.83806448714e-07
2.21380304853e-07
3.01749792135e-07
1.97728187394e-07
3.20327545271e-07
1.51145511483e-07
3.39712932335e-07
8.62024792116e-08
3.6153416465e-07
3.99281410347e-09
3.86394390904e-07
-1.12154330888e-07
4.15073801881e-07
-2.24596554733e-07
4.42111896016e-07
-2.62686860513e-07
4.6184497614e-07
-2.55018341303e-07
4.75152685812e-07
-2.43034250748e-07
4.95689033751e-07
-2.29571431888e-07
5.21925459872e-07
5.49383554139e-07
-2.15284961349e-07
2.04653512535e-07
5.18464129364e-07
1.60203970024e-07
3.45041589998e-07
1.41293053282e-07
2.69394256198e-07
1.44197608882e-07
2.53969227634e-07
1.57967158422e-07
2.5871182147e-07
1.7821259702e-07
2.70257867416e-07
1.99557429101e-07
2.84708544962e-07
2.19132862867e-07
3.00891628893e-07
2.33215437554e-07
3.18227178986e-07
2.38229717639e-07
3.36374092322e-07
2.32478724647e-07
3.55176876916e-07
2.14725055656e-07
3.75007943937e-07
1.81351470514e-07
3.96499778966e-07
1.26640119626e-07
4.20618935898e-07
5.00454868336e-08
4.46013211269e-07
-6.96218390516e-08
4.70857422939e-07
-2.04653504705e-07
4.91393893087e-07
-2.26869774514e-07
4.99648377726e-07
-2.15259201641e-07
5.1421356889e-07
5.40576601025e-07
-2.01097032034e-07
2.31841492936e-07
5.25047037166e-07
1.98869727823e-07
3.67418957793e-07
1.75006348042e-07
2.87543998205e-07
1.69887771476e-07
2.67475796032e-07
1.76133811885e-07
2.71718726373e-07
1.91364832307e-07
2.83400762487e-07
2.08931639232e-07
2.97589316866e-07
2.25997804436e-07
3.13078390053e-07
2.4086822469e-07
3.29603455741e-07
2.52272666695e-07
3.47008872008e-07
2.58995063311e-07
3.65185563556e-07
2.59582359007e-07
3.84262666857e-07
2.51586776128e-07
4.04555931315e-07
2.31222697102e-07
4.26576979268e-07
1.93895400043e-07
4.50260233859e-07
1.34022099898e-07
4.75063906819e-07
4.48603987564e-08
4.9945892219e-07
-1.1764990328e-07
5.2043154273e-07
-2.04722721821e-07
5.25681242514e-07
5.3544403192e-07
-1.93856850589e-07
2.43962406633e-07
5.20842490018e-07
2.20477753342e-07
3.78514405529e-07
2.00339517058e-07
2.99644979408e-07
1.9376281359e-07
2.76336999242e-07
1.9562288797e-07
2.80061702244e-07
2.06240179686e-07
2.91988627322e-07
2.20114657228e-07
3.06265524171e-07
2.34178418101e-07
3.21485257326e-07
2.47070311365e-07
3.37522127274e-07
2.58260000561e-07
3.54399072075e-07
2.67227732656e-07
3.7211347339e-07
2.73171917578e-07
3.90734084632e-07
2.74704454362e-07
4.10436903982e-07
2.69573641626e-07
4.31504394164e-07
2.54677768177e-07
4.54097177405e-07
2.26600686519e-07
4.78216945026e-07
1.79092952772e-07
5.03205285755e-07
1.03658143104e-07
5.27319163634e-07
-6.12644904315e-08
5.47573123719e-07
5.49882278695e-07
-1.85913870209e-07
2.44488915728e-07
5.14678365804e-07
2.27220363848e-07
3.82166285226e-07
2.14783835169e-07
3.06390484388e-07
2.11411715764e-07
2.82259965883e-07
2.13544566595e-07
2.85795181336e-07
2.21929990274e-07
2.97854130372e-07
2.32873790093e-07
3.12230028772e-07
2.43945647389e-07
3.27360758386e-07
2.5411192199e-07
3.43153080225e-07
2.63195719465e-07
3.59721825088e-07
2.71069629415e-07
3.77141978922e-07
2.77378104384e-07
3.95486410909e-07
2.81371956635e-07
4.14859872708e-07
2.81780715011e-07
4.35420804915e-07
2.76819697278e-07
4.57351418107e-07
2.64157621466e-07
4.80813651027e-07
2.4056319678e-07
5.05607739107e-07
1.98868627192e-07
5.30943975481e-07
1.27515607071e-07
5.54885309068e-07
5.74009928515e-07
-4.11417838146e-08
2.38863374023e-07
5.1117691829e-07
2.23813431438e-07
3.82919739194e-07
2.1897791639e-07
3.09840434354e-07
2.19799114396e-07
2.86130717181e-07
2.25010546862e-07
2.89872123772e-07
2.34255292602e-07
3.02102404347e-07
2.44483314565e-07
3.16556503359e-07
2.5388094554e-07
3.31648961103e-07
2.61961541572e-07
3.4731581903e-07
2.6894812705e-07
3.6371562126e-07
2.75007027002e-07
3.80958099475e-07
2.80060780445e-07
3.99117530075e-07
2.83762709468e-07
4.1826764805e-07
2.85473776029e-07
4.38518718286e-07
2.84218342934e-07
4.60041187168e-07
2.78597870621e-07
4.83029782891e-07
2.66512144189e-07
5.07471319872e-07
2.44701466898e-07
5.329640925e-07
2.05132369227e-07
5.58622896282e-07
5.82264230937e-07
1.30673963329e-07
2.43480883932e-07
5.0271800357e-07
2.3495924152e-07
3.82037060588e-07
2.26839851711e-07
3.12744570947e-07
2.28597827703e-07
2.89487881148e-07
2.34443747689e-07
2.93519030477e-07
2.44376109638e-07
3.05922142593e-07
2.54470401072e-07
3.20393542827e-07
2.6306809934e-07
3.35385366404e-07
2.69847875512e-07
3.50885491371e-07
2.75242201515e-07
3.6708789662e-07
2.79581998933e-07
3.84123805482e-07
2.83012114106e-07
4.0207593212e-07
2.85540248977e-07
4.21016020786e-07
2.87003174542e-07
4.41042672569e-07
2.86926543484e-07
4.62305749142e-07
2.84402150334e-07
4.84970761877e-07
2.78075356872e-07
5.09070252492e-07
2.65960052868e-07
5.34408021987e-07
2.44210822291e-07
5.60481667707e-07
5.86284933347e-07
2.00997889842e-07
2.44444575551e-07
4.94362713983e-07
2.41184737817e-07
3.8012728957e-07
2.32733623584e-07
3.1433276006e-07
2.34622051951e-07
2.92173429837e-07
2.40528039043e-07
2.96737245889e-07
2.50642492202e-07
3.09388542523e-07
2.60793212266e-07
3.23891696464e-07
2.69149254355e-07
3.38777467261e-07
2.75359535383e-07
3.54096350553e-07
2.79864109174e-07
3.70076842538e-07
2.83065772095e-07
3.86873311203e-07
2.8530434378e-07
4.04591507235e-07
2.86893513094e-07
4.23324018801e-07
2.87986468757e-07
4.43172728898e-07
2.88353537137e-07
4.64257035363e-07
2.8733452112e-07
4.86689751201e-07
2.8399395293e-07
5.10502354571e-07
2.77095636863e-07
5.35581103979e-07
2.64202362577e-07
5.61613752097e-07
5.87994588201e-07
2.38408483053e-07
2.38756884296e-07
4.9429161214e-07
2.36684920541e-07
3.78293498442e-07
2.30602584024e-07
3.13715365324e-07
2.33836377716e-07
2.93310982237e-07
2.40717453826e-07
2.98807275533e-07
2.51426003345e-07
3.11843232615e-07
2.62000910821e-07
3.26451377072e-07
2.70615084576e-07
3.41310218115e-07
2.76865097002e-07
3.56535018721e-07
2.81173857935e-07
3.72381856288e-07
2.84028023407e-07
3.89026521222e-07
2.85934166344e-07
4.06597403873e-07
2.87364343174e-07
4.25203861096e-07
2.88556641872e-07
4.4494455451e-07
2.89345766609e-07
4.65908600709e-07
2.89256815014e-07
4.88171584325e-07
2.87707020243e-07
5.11764035114e-07
2.83879581975e-07
5.36598214062e-07
2.76083884511e-07
5.62407847905e-07
5.88829143709e-07
2.59364767151e-07
2.25648289589e-07
5.08065425225e-07
2.20166177765e-07
3.76242763799e-07
2.18957448071e-07
3.09999492696e-07
2.24962311873e-07
2.91958251508e-07
2.3433311686e-07
2.98792895534e-07
2.46893226673e-07
3.12443218055e-07
2.58836333744e-07
3.27329513085e-07
2.68373351524e-07
3.42330657912e-07
2.75220893536e-07
3.57644535973e-07
2.7992402705e-07
3.73555208876e-07
2.83109228278e-07
3.90248449802e-07
2.8538710063e-07
4.07860840116e-07
2.87241283558e-07
4.26502412737e-07
2.88867918452e-07
4.46259792112e-07
2.90139295377e-07
4.67201514141e-07
2.9077976833e-07
4.8938850525e-07
2.9046487298e-07
5.12852874126e-07
2.88640605717e-07
5.3750794296e-07
2.84044981769e-07
5.63113265446e-07
5.89422088148e-07
2.72603703149e-07
2.13442488871e-07
5.29426709495e-07
2.00191119756e-07
3.74668618126e-07
2.03340135898e-07
3.04635986437e-07
2.12631687917e-07
2.88417729087e-07
2.2557642787e-07
2.96706609369e-07
2.40983812561e-07
3.11214080401e-07
2.54919801197e-07
3.26608827259e-07
2.65815150208e-07
3.41961810447e-07
2.73575345473e-07
3.57555047993e-07
2.7891442438e-07
3.73704635102e-07
2.82630850658e-07
3.90616860103e-07
2.85406234746e-07
4.08432778766e-07
2.87693819963e-07
4.2725367316e-07
2.89663175241e-07
4.47152676913e-07
2.91271797042e-07
4.68186236822e-07
2.92413813078e-07
4.90408327199e-07
2.92893610867e-07
5.13846761219e-07
2.92356577029e-07
5.38420828207e-07
2.89952613492e-07
5.63933078647e-07
5.90167507878e-07
2.81860607858e-07
2.23379457464e-07
5.35720996821e-07
2.08057671622e-07
3.75003239355e-07
2.05077711161e-07
3.01818156055e-07
2.13288448788e-07
2.85921108275e-07
2.26018780501e-07
2.95081750914e-07
2.42066708274e-07
3.10225633891e-07
2.56538485773e-07
3.26001130844e-07
2.67743992204e-07
3.41606705349e-07
2.75613488274e-07
3.57405024259e-07
2.81035013529e-07
3.73748188819e-07
2.84839599945e-07
3.90849503398e-07
2.87664540964e-07
4.08851503687e-07
2.89928805327e-07
4.27851518892e-07
2.91821773506e-07
4.47912952093e-07
2.93402998314e-07
4.69080695929e-07
2.94670436471e-07
4.9139751774e-07
2.95490060885e-07
5.14881218053e-07
2.95703526232e-07
5.39464185545e-07
2.94776484328e-07
5.64986007852e-07
5.9119673707e-07
2.88884496073e-07
2.3319479453e-07
5.26913482239e-07
2.18900947133e-07
3.75340888235e-07
2.13451273403e-07
3.00618658972e-07
2.20049899351e-07
2.84650691208e-07
2.31705343696e-07
2.943217001e-07
2.47316752195e-07
3.09931070256e-07
2.6159911954e-07
3.25994942495e-07
2.72629177233e-07
3.41773249502e-07
2.8032840182e-07
3.5769379853e-07
2.85577632869e-07
3.74145067509e-07
2.89202363251e-07
3.91357370256e-07
2.91808767431e-07
4.0947527353e-07
2.93772745303e-07
4.28595565768e-07
2.95311838087e-07
4.48776798551e-07
2.96585776106e-07
4.700610496e-07
2.97670527012e-07
4.92482105936e-07
2.98496249257e-07
5.16046871442e-07
2.99060949315e-07
5.40698139564e-07
2.98985983399e-07
5.66291307344e-07
5.92534597001e-07
2.94429547808e-07
2.38674649748e-07
5.10266982443e-07
2.26066173481e-07
3.74130080365e-07
2.21318360664e-07
2.99902235405e-07
2.27649388778e-07
2.84136379659e-07
2.38878419743e-07
2.94258017049e-07
2.5403787123e-07
3.1024786703e-07
2.67929697788e-07
3.26532048037e-07
2.78606753471e-07
3.42430767496e-07
2.86037097841e-07
3.58430219422e-07
2.91090700004e-07
3.74946335121e-07
2.94528601967e-07
3.92220110439e-07
2.96872603464e-07
4.10401780815e-07
2.98465151304e-07
4.2958830007e-07
2.99587712139e-07
4.49844542102e-07
3.00474838369e-07
4.71213491012e-07
3.01254971772e-07
4.9372605803e-07
3.01914474442e-07
5.17383391397e-07
3.02548816698e-07
5.42134513369e-07
3.02855233107e-07
5.67839483795e-07
5.94171606807e-07
2.99011080708e-07
2.37649594964e-07
4.87643795828e-07
2.27774404753e-07
3.69916963646e-07
2.26149783117e-07
2.98635308404e-07
2.33583763727e-07
2.83984325555e-07
2.45452381503e-07
2.94733616628e-07
2.60599938659e-07
3.11080247714e-07
2.74294941134e-07
3.27527012751e-07
2.84761918255e-07
3.43497962956e-07
2.91994036292e-07
3.59535546264e-07
2.96871897279e-07
3.76081638383e-07
3.00119080907e-07
3.93385953711e-07
3.02201546155e-07
4.11600868056e-07
3.03458970803e-07
4.30827719399e-07
3.04206639395e-07
4.51134860289e-07
3.04746805694e-07
4.72570957679e-07
3.05230332609e-07
4.95164481644e-07
3.05668137484e-07
5.18914269551e-07
3.06207256423e-07
5.43775581788e-07
3.06598376393e-07
5.69613672289e-07
5.96074095465e-07
3.03046077689e-07
2.26837747486e-07
4.68503325124e-07
2.19899495223e-07
3.63861825207e-07
2.22488819383e-07
2.96242206991e-07
2.32512948008e-07
2.83092138219e-07
2.46722461732e-07
2.94748323861e-07
2.63461318538e-07
3.11619593406e-07
2.78172801382e-07
3.28335019398e-07
2.89250285699e-07
3.4445381525e-07
2.9687929565e-07
3.60593740268e-07
3.01993207612e-07
3.77222906755e-07
3.05311592961e-07
3.94598437857e-07
3.07311524441e-07
4.12878598323e-07
3.08380889611e-07
4.32172650167e-07
3.08901594633e-07
4.52557515919e-07
3.09207123959e-07
4.74083416483e-07
3.09456473727e-07
4.96775784128e-07
3.09675581093e-07
5.20633305759e-07
3.10051427079e-07
5.45618948123e-07
3.1036879428e-07
5.71607523808e-07
5.98210029677e-07
3.06825436349e-07
2.26390695317e-07
4.48919229217e-07
2.25395098776e-07
3.57965776159e-07
2.24532078754e-07
2.94325572681e-07
2.34693390518e-07
2.82254413084e-07
2.48990525941e-07
2.94709129006e-07
2.66563194107e-07
3.12119226632e-07
2.81994724281e-07
3.2911062076e-07
2.93661136627e-07
3.45374686544e-07
3.01699456671e-07
3.61615920133e-07
3.07070342694e-07
3.78336657959e-07
3.10502819025e-07
3.95802787143e-07
3.12492550338e-07
4.14175636015e-07
3.13462981579e-07
4.33570366967e-07
3.13829467685e-07
4.54067025732e-07
3.13945466542e-07
4.7571520638e-07
3.1398057528e-07
4.98537243714e-07
3.13974291498e-07
5.22531633697e-07
3.1414958167e-07
5.47667818144e-07
3.14274537993e-07
5.7382375144e-07
6.00574434616e-07
3.10550067711e-07
2.2678973571e-07
4.29806757935e-07
2.29863107786e-07
3.51006576919e-07
2.28438098421e-07
2.91773805446e-07
2.3833811222e-07
2.81059036468e-07
2.52388505716e-07
2.94383356126e-07
2.70197568564e-07
3.12412554137e-07
2.86102767394e-07
3.2975648058e-07
2.98275487007e-07
3.46220084224e-07
3.06740211779e-07
3.62596966348e-07
3.12401619714e-07
3.79432298091e-07
3.15989425277e-07
3.97011509706e-07
3.18027620146e-07
4.15504384226e-07
3.18947608221e-07
4.35028426796e-07
3.19181367066e-07
4.55666389708e-07
3.19106321944e-07
4.77468411424e-07
3.18908131931e-07
5.00453482312e-07
3.18646681651e-07
5.24618313567e-07
3.18567076945e-07
5.4993636835e-07
3.18395118528e-07
5.76283881171e-07
6.03206246139e-07
3.14398983203e-07
2.2740608528e-07
4.06580467064e-07
2.32219113882e-07
3.42301776559e-07
2.32435608624e-07
2.88064649442e-07
2.42904253284e-07
2.79240709292e-07
2.57015569479e-07
2.9365007682e-07
2.74900205987e-07
3.12426940713e-07
2.91145382425e-07
3.30219329171e-07
3.03702213808e-07
3.46949064917e-07
3.12486109328e-07
3.63513793725e-07
3.18391482178e-07
3.80512796608e-07
3.2213463897e-07
3.98249005257e-07
3.24218046248e-07
4.16899436914e-07
3.25075112604e-07
4.36588099657e-07
3.25154474788e-07
4.57401257831e-07
3.24849697747e-07
4.79388956005e-07
3.24368529217e-07
5.02568928624e-07
3.23795122834e-07
5.26938096489e-07
3.23386734714e-07
5.52470940886e-07
3.22842039424e-07
5.79038218729e-07
6.06160987612e-07
3.18515631362e-07
2.27339743338e-07
3.79923815732e-07
2.33899677365e-07
3.29834194699e-07
2.37048704894e-07
2.82457079938e-07
2.48863418061e-07
2.76671700539e-07
2.63816186324e-07
2.92628673053e-07
2.82065650201e-07
3.12360931023e-07
2.98530707526e-07
3.30699348559e-07
3.11265981e-07
3.47752001753e-07
3.2018709428e-07
3.64551206422e-07
3.26110317042e-07
3.81751594051e-07
3.29774231768e-07
3.99679939047e-07
3.31704833274e-07
4.18523237957e-07
3.32328998024e-07
4.38407394285e-07
3.32095680059e-07
4.59420339669e-07
3.31425176109e-07
4.81615602391e-07
3.30544133348e-07
5.05011185027e-07
3.29553800276e-07
5.29604434527e-07
3.28711885032e-07
5.55370635627e-07
3.27701172335e-07
5.82171891836e-07
6.09509668893e-07
3.22956520201e-07
2.2554952353e-07
3.47645264394e-07
2.34265302783e-07
3.11692751778e-07
2.41389940767e-07
2.74123984595e-07
2.55497829098e-07
2.73076686778e-07
2.71939833978e-07
2.9133009382e-07
2.91084141592e-07
3.12404228589e-07
3.08146191808e-07
3.31479341371e-07
3.21182012143e-07
3.48935117579e-07
3.30125703654e-07
3.66005337933e-07
3.35894436835e-07
3.83436711235e-07
3.39272879895e-07
4.01583740985e-07
3.40798061585e-07
4.2063788578e-07
3.40934463727e-07
4.40729281432e-07
3.40171648338e-07
4.61950592954e-07
3.38941875883e-07
4.84356931836e-07
3.37496407543e-07
5.07969122932e-07
3.35941993504e-07
5.32783779457e-07
3.34531584372e-07
5.5877725655e-07
3.32936938676e-07
5.85804596908e-07
6.13350489178e-07
3.27678722725e-07
2.27411364584e-07
3.10185966045e-07
2.43301842578e-07
2.8808194508e-07
2.52147380029e-07
2.63319993773e-07
2.67250027902e-07
2.68714537979e-07
2.83327484978e-07
2.90083872591e-07
3.02483897687e-07
3.12919380975e-07
3.19661676562e-07
3.32907897658e-07
3.32778965969e-07
3.50822601781e-07
3.41645830411e-07
3.68178414307e-07
3.47139525622e-07
3.8584058819e-07
3.50064993713e-07
4.04201602102e-07
3.51022807198e-07
4.23465135486e-07
3.50519124574e-07
4.4376375599e-07
3.49068946577e-07
4.65190222525e-07
3.47139839317e-07
4.87801495786e-07
3.44992059864e-07
5.11618318854e-07
3.42737604165e-07
5.36634863659e-07
3.40634213531e-07
5.62829470488e-07
3.38357828673e-07
5.90053339874e-07
6.17784462123e-07
3.32516208815e-07
2.30288654402e-07
2.67230333959e-07
2.51570083483e-07
2.58071245027e-07
2.65401765923e-07
2.48179953111e-07
2.81544215861e-07
2.62462810115e-07
2.96797719332e-07
2.88375948366e-07
3.15124506627e-07
3.13701818153e-07
3.32046358047e-07
3.34945061368e-07
3.45053490265e-07
3.53453821361e-07
3.53726049983e-07
3.71149559356e-07
3.5886673147e-07
3.89069886614e-07
3.61296466135e-07
4.07663602342e-07
3.61636041892e-07
4.27146536906e-07
3.60424186002e-07
4.4765368122e-07
3.58215069846e-07
4.69280928134e-07
3.55502528413e-07
4.92084907277e-07
3.52555369405e-07
5.16084294788e-07
3.49505791339e-07
5.41271363815e-07
3.46632142874e-07
5.67628290005e-07
3.43623107243e-07
5.95009254887e-07
6.22880782457e-07
3.37167195596e-07
2.36074228043e-07
2.18097494698e-07
2.62818525568e-07
2.18462615295e-07
2.83242107395e-07
2.26515131537e-07
3.00611761317e-07
2.53510931466e-07
3.14687089844e-07
2.86182405929e-07
3.31249798183e-07
3.15053878255e-07
3.47070960775e-07
3.37985744307e-07
3.59313355566e-07
3.57247313459e-07
3.67254319006e-07
3.75320786726e-07
3.71598634783e-07
3.93497474837e-07
3.73144805591e-07
4.12303237208e-07
3.72549541587e-07
4.31974143833e-07
3.7038774672e-07
4.52651855427e-07
3.67227677022e-07
4.74432817084e-07
3.63566284303e-07
4.97374895575e-07
3.59685416289e-07
5.21495034789e-07
3.55744536052e-07
5.46787640039e-07
3.52047411761e-07
5.73239703438e-07
3.48289694741e-07
6.00712022583e-07
6.28659878562e-07
3.41222640479e-07
2.46879692907e-07
1.5898130839e-07
2.80359991885e-07
1.66194758068e-07
3.07416626315e-07
1.97830555364e-07
3.25896381904e-07
2.42686956915e-07
3.38337700107e-07
2.84711736863e-07
3.52152439439e-07
3.18180589657e-07
3.6587019049e-07
3.43097355865e-07
3.7633113514e-07
3.63119085407e-07
3.82665068881e-07
3.81496887191e-07
3.85410666116e-07
3.99810901446e-07
3.85409683289e-07
4.18691001774e-07
3.83356236543e-07
4.3840645009e-07
3.79831250809e-07
4.59107874246e-07
3.7540490652e-07
4.80896764744e-07
3.70580156813e-07
5.03833357216e-07
3.65641593615e-07
5.27940368896e-07
3.60760746648e-07
5.53217494613e-07
3.56247857807e-07
5.7965666583e-07
3.51790406101e-07
6.07123307611e-07
6.35060510223e-07
3.44174995035e-07
2.54881473293e-07
1.00904194956e-07
3.01414897582e-07
1.0701963706e-07
3.33526300957e-07
1.65849538417e-07
3.52585740111e-07
2.32227646861e-07
3.62504685998e-07
2.85956209673e-07
3.72629192765e-07
3.24563042544e-07
3.83398638371e-07
3.51294146281e-07
3.91480151478e-07
3.71771149819e-07
3.95738868603e-07
3.90140351735e-07
3.96600269369e-07
4.0830837676e-07
3.94872908862e-07
4.26999520209e-07
3.9126846528e-07
4.4651126099e-07
3.86379752959e-07
4.67005906542e-07
3.80762240585e-07
4.88591011329e-07
3.74895475948e-07
5.11333096456e-07
3.6906825057e-07
5.35259999424e-07
3.63449752595e-07
5.60378475204e-07
3.58337535583e-07
5.86680051862e-07
3.53392770343e-07
6.14036866848e-07
6.41876295593e-07
3.45433100749e-07
2.86291414504e-07
3.07565376948e-08
3.21256505463e-07
4.97190375255e-08
3.51698427402e-07
1.33331146077e-07
3.67579701673e-07
2.22659994341e-07
3.74313364836e-07
2.89435563798e-07
3.80369942798e-07
3.33107844571e-07
3.88540799578e-07
3.6123185322e-07
3.95024471255e-07
3.8181430232e-07
3.98236942887e-07
3.99916315261e-07
3.98326890084e-07
4.17735533338e-07
3.95993749607e-07
4.36075606301e-07
3.91888624024e-07
4.55250001404e-07
3.86570188095e-07
4.75422480293e-07
3.80588158931e-07
4.96702772188e-07
3.74435250378e-07
5.19163803094e-07
3.68397778439e-07
5.42839890045e-07
3.6262920168e-07
5.6773835696e-07
3.57412378455e-07
5.93851482796e-07
3.52413948388e-07
6.21048844346e-07
6.4875832568e-07
3.4449178263e-07
3.19304336448e-07
-3.12104329413e-08
3.14312635441e-07
-1.8262926489e-08
3.44620357842e-07
9.22650036397e-08
3.55177167465e-07
2.07145731971e-07
3.61736947135e-07
2.89910171757e-07
3.66490188352e-07
3.39711570122e-07
3.74638330211e-07
3.69503131677e-07
3.81815896379e-07
3.90311659881e-07
3.86125403866e-07
4.08270550466e-07
3.87420681669e-07
4.25875166566e-07
3.86264581484e-07
4.43997360229e-07
3.83243815948e-07
4.62962177517e-07
3.78896748039e-07
4.82934707868e-07
3.7377697455e-07
5.0402696565e-07
3.68387569682e-07
5.26314333819e-07
3.63024470341e-07
5.49831704817e-07
3.57849862957e-07
5.74587403643e-07
3.53153331699e-07
6.00574626638e-07
3.48630947367e-07
6.27668164745e-07
6.55290787155e-07
3.41202279468e-07
3.86965105557e-07
-5.58023908076e-08
2.8571179986e-07
-8.63555031955e-08
3.23434412894e-07
3.3095388754e-08
3.28791703469e-07
1.77141696585e-07
3.35909961538e-07
2.82602250066e-07
3.4041714211e-07
3.41532705888e-07
3.49605627506e-07
3.74099016083e-07
3.58492245519e-07
3.95606686128e-07
3.64861567125e-07
4.13745123919e-07
3.68292924298e-07
4.3142521578e-07
3.69208731052e-07
4.4960377156e-07
3.68120463307e-07
4.68616843655e-07
3.65540114276e-07
4.88630424145e-07
3.62014482014e-07
5.09757713398e-07
3.58045704661e-07
5.32074557722e-07
3.53938225036e-07
5.55616156394e-07
3.49866084393e-07
5.80390721463e-07
3.46132313072e-07
6.06392864573e-07
3.42481934081e-07
6.33503224948e-07
6.61139507108e-07
3.35896574715e-07
5.8676676103e-07
-6.40914132192e-08
2.8623069348e-07
-1.13654715732e-07
3.1642375522e-07
-3.78410281762e-08
3.08886718644e-07
1.3339390259e-07
3.14713669541e-07
2.68483265435e-07
3.16501356774e-07
3.39556588224e-07
3.25284138835e-07
3.75753056251e-07
3.34933585709e-07
3.98211364911e-07
3.42734243892e-07
4.16690154403e-07
3.47834178365e-07
4.34603980058e-07
3.50491485683e-07
4.530034876e-07
3.51133178162e-07
4.72235907041e-07
3.5022311372e-07
4.92465180526e-07
3.48269024064e-07
5.13800543452e-07
3.45750265239e-07
5.36314018691e-07
3.42969396541e-07
5.60037340286e-07
3.40104718446e-07
5.84977786499e-07
3.3746406384e-07
6.11132758903e-07
3.34830396538e-07
6.38385402168e-07
6.66139696227e-07
3.2922817881e-07
7.89794072517e-07
-6.23638923394e-08
3.32808347039e-07
-1.10741138799e-07
3.17479263586e-07
-1.01006374313e-07
2.93039027119e-07
7.90859935991e-08
2.95001965409e-07
2.48362691486e-07
2.95491950186e-07
3.34431570167e-07
3.03580533452e-07
3.74932649339e-07
3.1369329228e-07
3.98542828743e-07
3.22570860871e-07
4.17525401503e-07
3.28952775909e-07
4.35839834851e-07
3.32946493828e-07
4.54617412304e-07
3.34928184306e-07
4.74211266639e-07
3.35330841025e-07
4.94783175982e-07
3.34633721548e-07
5.16440735407e-07
3.33302921384e-07
5.39256218804e-07
3.31644580852e-07
5.63261645695e-07
3.29842922654e-07
5.88464660188e-07
3.28201683263e-07
6.14864578624e-07
3.26528148381e-07
6.42343812893e-07
6.70289105901e-07
3.21877840349e-07
1.06488819874e-06
-5.73979862431e-08
4.88292691508e-07
-9.97395706907e-08
3.48582253495e-07
-1.34178398057e-07
2.86526525082e-07
2.03708787773e-08
2.80167125115e-07
2.23526044022e-07
2.80000482045e-07
3.27400452573e-07
2.86458617945e-07
3.72672147587e-07
2.96447113102e-07
3.97490074478e-07
3.05799456176e-07
4.17028133595e-07
3.12939442257e-07
4.35817190249e-07
3.17795190053e-07
4.55051262492e-07
3.20671578217e-07
4.75079722138e-07
3.21965640379e-07
4.96059059483e-07
3.22142365998e-07
5.18095107664e-07
3.21667643604e-07
5.41261505409e-07
3.20854787997e-07
5.65593536129e-07
3.19886945314e-07
5.91101185625e-07
3.1905594254e-07
6.17785732637e-07
3.18192274104e-07
6.45527141558e-07
6.73695362433e-07
3.1437644307e-07
1.18822354705e-06
-5.71681604246e-08
6.59090806131e-07
-9.62618252547e-08
4.57019765088e-07
-1.39909309004e-07
3.04594524163e-07
-3.18061371239e-08
2.77184679325e-07
1.96124091539e-07
2.73298356185e-07
3.19989753683e-07
2.76769337393e-07
3.70523417117e-07
2.85317818589e-07
3.96420342454e-07
2.9405512327e-07
4.16365097555e-07
3.01036861861e-07
4.35518160626e-07
3.05983086861e-07
4.55125816734e-07
3.09102448925e-07
4.75526143279e-07
3.10740733503e-07
4.96866144209e-07
3.11336285871e-07
5.19247203058e-07
3.11343384016e-07
5.42741599309e-07
3.11065934635e-07
5.67383561789e-07
3.10667796122e-07
5.93181588478e-07
3.10423382906e-07
6.2013784436e-07
3.10191069084e-07
6.48130427822e-07
6.76511539709e-07
3.0706638994e-07
1.24471502496e-06
-5.72900666567e-08
8.11781412182e-07
-9.57339103304e-08
5.99952728492e-07
-1.36672269826e-07
3.39354831089e-07
-6.63409114964e-08
2.87889467274e-07
1.71421839735e-07
2.75042946629e-07
3.13982859203e-07
2.74475897942e-07
3.69621719248e-07
2.80302768448e-07
3.96314021265e-07
2.8742963791e-07
4.1642502216e-07
2.93380151103e-07
4.35736067176e-07
2.97657662026e-07
4.55536454586e-07
3.0037069363e-07
4.76152181271e-07
3.01810618705e-07
4.97720799876e-07
3.02379967266e-07
5.20337370763e-07
3.02502283781e-07
5.44069129308e-07
3.02448029021e-07
5.6894503935e-07
3.02350737185e-07
5.94969038203e-07
3.02470891445e-07
6.22141844301e-07
3.02697713698e-07
6.50337809798e-07
6.78887835255e-07
3.00122024662e-07
1.24135632505e-06
-5.97099364248e-08
8.50580111001e-07
-9.63304978544e-08
7.03258764534e-07
-1.33675694894e-07
3.81761728306e-07
-7.90685855088e-08
3.01162184049e-07
1.55643219956e-07
2.78561916433e-07
3.10844332024e-07
2.74574272362e-07
3.70150102142e-07
2.77735448133e-07
3.97207602801e-07
2.8321676866e-07
4.17298223266e-07
2.87993171558e-07
4.36625432107e-07
2.91403266121e-07
4.56483606931e-07
2.93486455751e-07
4.7718408099e-07
2.94500397332e-07
4.98857265588e-07
2.94820403083e-07
5.21593727054e-07
2.94840197289e-07
5.45456319066e-07
2.94800937389e-07
5.70468680158e-07
2.94816295082e-07
5.96630986324e-07
2.95144436978e-07
6.23943473712e-07
2.957055601e-07
6.5227462858e-07
6.80928408481e-07
2.9356525228e-07
1.24055579027e-06
-5.76430900584e-08
8.40040274721e-07
-9.67846864714e-08
7.30408045837e-07
-1.32189587217e-07
4.12930093795e-07
-7.87902541429e-08
3.09140014312e-07
1.50266548317e-07
2.78732361142e-07
3.10569382185e-07
2.72493368224e-07
3.71398775474e-07
2.74183664884e-07
3.98465086378e-07
2.78711700757e-07
4.18521487749e-07
2.82734643033e-07
4.37874857919e-07
2.85530319993e-07
4.57776776207e-07
2.87129625762e-07
4.78523345002e-07
2.87785865861e-07
5.00242508159e-07
2.87864915818e-07
5.23025600929e-07
2.87747882809e-07
5.46936806446e-07
2.87667321538e-07
5.72000630633e-07
2.87734868534e-07
5.98218541105e-07
2.88216151655e-07
6.25592372908e-07
2.89059116362e-07
6.53985104374e-07
6.82671388935e-07
2.87297105544e-07
1.23055244143e-06
-6.26716261564e-08
8.50404202918e-07
-9.96871510591e-08
7.49217816939e-07
-1.30920523747e-07
4.3019289342e-07
-6.9700510666e-08
3.16230885392e-07
1.58623563266e-07
2.80251243347e-07
3.15560270354e-07
2.71222144457e-07
3.74452655179e-07
2.71175890581e-07
4.00673051776e-07
2.74469911867e-07
4.2043344315e-07
2.77558212282e-07
4.39662785234e-07
2.79645028779e-07
4.59488407005e-07
2.80726225457e-07
4.80175991241e-07
2.81025885189e-07
5.01845356429e-07
2.80883117428e-07
5.2458525979e-07
2.80659078293e-07
5.48459590992e-07
2.80574316537e-07
5.73493592434e-07
2.80732008029e-07
5.99690261088e-07
2.81397603019e-07
6.27052993281e-07
2.8254262145e-07
6.55438570496e-07
6.84092196996e-07
2.81172634396e-07
1.22400075922e-06
-6.76188423175e-08
8.41250439085e-07
-1.04251164685e-07
7.30108899795e-07
-1.28318033512e-07
4.26397547707e-07
-4.78407506067e-08
3.10837481486e-07
1.79995721226e-07
2.74248306624e-07
3.24657835973e-07
2.64446867302e-07
3.78274163113e-07
2.64272797437e-07
4.03044412348e-07
2.67305691491e-07
4.22437870924e-07
2.7011889339e-07
4.41518986036e-07
2.71983559983e-07
4.61233658019e-07
2.72922373363e-07
4.81817492136e-07
2.73163761675e-07
5.03386526191e-07
2.73045947365e-07
5.26030842375e-07
2.72929320038e-07
5.49816628061e-07
2.73027464662e-07
5.74770655791e-07
2.73431164336e-07
6.0089704316e-07
2.74405201412e-07
6.28200484225e-07
2.7595292077e-07
6.56532177288e-07
6.85108484395e-07
2.75064773639e-07
1.1652970526e-06
-7.26206966141e-08
7.93912187589e-07
-1.07967916653e-07
6.84488502715e-07
-1.20786773528e-07
3.98984648435e-07
-1.15783908818e-08
2.9616604404e-07
2.09901173068e-07
2.61705591391e-07
3.35806067226e-07
2.52315878059e-07
3.82027513877e-07
2.53032674814e-07
4.05015615531e-07
2.56500455873e-07
4.24005915676e-07