/*--------------------------------*- C++ -*----------------------------------*\
| =========                 |                                                 |
| \\      /  F ield         | OpenFOAM: The Open Source CFD Toolbox           |
|  \\    /   O peration     | Version:  2312                                  |
|   \\  /    A nd           | Website:  www.openfoam.com                      |
|    \\/     M anipulation  |                                                 |
\*---------------------------------------------------------------------------*/
FoamFile
{
    version     2.0;
    format      ascii;
    arch        "LSB;label=32;scalar=64";
    class       volScalarField;
    location    "0.295/water";
    object      d.gas;
}
// * * * * * * * * * * * * * * * * * * * * * * * * * * * * * * * * * * * * * //

dimensions      [0 1 0 0 0 0 0];

internalField   nonuniform List<scalar> 
1496
(
0.00499704051104
0.00499704053555
0.00499704046795
0.00499704040967
0.00499704037026
0.00499704032849
0.00499704027377
0.00499704012378
0.00499703557019
0.00499702080797
0.00499699691368
0.0049969655423
0.00499692708862
0.0049968814605
0.00499683091565
0.00499677996043
0.00499673133569
0.0049966846566
0.00499663979943
0.00499659758928
0.00499705234884
0.00499705237792
0.00499705236486
0.00499705234029
0.00499705231681
0.004997052287
0.00499705224624
0.00499705218066
0.00499705060443
0.00499704423809
0.00499703155392
0.00499701244817
0.00499698716575
0.00499695569891
0.00499691918005
0.00499687995869
0.00499683967469
0.00499679851287
0.00499675733882
0.00499671658564
0.00499706502337
0.00499706504642
0.00499706505218
0.00499706506451
0.00499706508779
0.00499706510856
0.00499706512157
0.00499706513665
0.00499706444658
0.00499706204075
0.00499705529223
0.00499704291765
0.00499702453603
0.00499700053487
0.00499697297445
0.00499694413865
0.00499691227924
0.00499687890054
0.00499684401464
0.00499680844068
0.00499707819997
0.0049970781911
0.00499707817603
0.00499707818502
0.0049970782062
0.00499707820709
0.00499707816026
0.00499707803328
0.00499707739292
0.00499707601879
0.00499707056079
0.00499705994242
0.00499704393388
0.00499702549673
0.00499700869928
0.00499698969499
0.00499696652645
0.00499694044631
0.00499691317516
0.00499688435638
0.0049970919768
0.00499709197394
0.0049970919984
0.00499709207901
0.00499709219559
0.00499709232381
0.0049970924597
0.00499709216561
0.00499709184182
0.0049970900197
0.00499708423858
0.00499707411186
0.00499706156596
0.00499705245144
0.00499704550669
0.00499703261268
0.00499701475123
0.00499699608549
0.00499697554437
0.00499695368404
0.00499710639965
0.00499710639387
0.00499710643823
0.00499710654753
0.00499710669233
0.00499710685103
0.00499710702432
0.00499710641272
0.00499710727036
0.00499710657131
0.00499710193411
0.00499709392137
0.00499708804179
0.00499708829214
0.00499708562369
0.00499707460443
0.00499706314578
0.00499704979088
0.00499703594504
0.00499702096108
0.00499712085347
0.00499712085904
0.00499712090793
0.00499712099847
0.00499712110319
0.0049971212023
0.00499712128484
0.00499712088832
0.00499712253979
0.00499712265647
0.00499711947532
0.00499711516472
0.00499711719235
0.00499712348983
0.0049971208694
0.00499711596895
0.00499710905605
0.0049971028059
0.00499709560853
0.00499708779333
0.00499713509774
0.00499713511224
0.00499713515454
0.00499713523056
0.00499713533203
0.00499713546256
0.00499713532578
0.00499713471711
0.00499713589675
0.00499713574659
0.00499713338042
0.00499713343911
0.00499714283092
0.00499715213064
0.0049971545689
0.00499715361899
0.00499715430183
0.00499715429902
0.00499715496172
0.00499715645615
0.00499714863624
0.00499714864316
0.00499714865475
0.00499714868036
0.0049971487108
0.00499714874204
0.00499714811142
0.00499714759634
0.00499714762279
0.00499714637131
0.00499714439956
0.00499714994827
0.00499716637877
0.00499717991524
0.00499718440647
0.0049971909796
0.0049971968466
0.00499720471727
0.00499721318084
0.00499722344543
0.00499716180319
0.00499716179647
0.00499716179223
0.00499716176959
0.00499716173391
0.00499716151621
0.0049971602108
0.00499715924084
0.00499715780163
0.00499715519171
0.00499715496625
0.00499716886345
0.00499719193765
0.0049972040125
0.0049972153511
0.00499722583398
0.00499723936666
0.00499725381743
0.00499727040339
0.0049972938465
0.0049971756858
0.00499717560386
0.00499717551022
0.00499717547688
0.00499717498649
0.00499717441388
0.00499717299106
0.00499717071551
0.00499716713713
0.00499716332582
0.00499716926686
0.00499719396289
0.00499721704507
0.0049972326914
0.00499724589608
0.00499726327323
0.00499728156279
0.00499730288362
0.00499732732614
0.00499736330541
0.00499719313973
0.00499720419486
0.00499719198748
0.00499718828919
0.00499718693665
0.00499718595566
0.00499718404392
0.00499718014694
0.00499717459621
0.00499717461747
0.00499719618409
0.00499722685746
0.00499724756491
0.00499726224843
0.00499728194001
0.00499730253348
0.00499732689075
0.00499735406116
0.00499738820964
0.00499744233525
0.00499721198332
0.00499725478583
0.00499721848843
0.00499720600007
0.00499720260358
0.00499720121406
0.00499719803292
0.00499719210914
0.00499718952101
0.00499720797309
0.0049972405104
0.00499726538982
0.00499728123737
0.00499730146776
0.00499732217806
0.00499734767836
0.00499737628702
0.00499740776725
0.00499746362443
0.00499750488149
0.00499723191354
0.0049973152251
0.00499726574481
0.00499724310715
0.0049972354476
0.00499723076993
0.00499722440645
0.0049972212326
0.00499723854897
0.00499726973778
0.00499729390943
0.00499730759555
0.00499732735872
0.00499734769798
0.00499737199593
0.004997399732
0.0049974312989
0.00499748600824
0.00499752907922
0.00499756169143
0.00499725259829
0.00499738655014
0.00499732741362
0.00499729178062
0.00499727832476
0.00499726997431
0.00499726912316
0.00499728816347
0.00499731636404
0.00499733677218
0.00499734596646
0.00499736273709
0.0049973815066
0.0049974054139
0.00499743298332
0.00499746768688
0.00499752064396
0.00499755806064
0.00499758838389
0.00499762642448
0.00499727435216
0.0049974615785
0.00499737473436
0.00499732538615
0.00499731399833
0.00499732071921
0.00499734562888
0.0049973693042
0.00499738585999
0.00499739186363
0.00499740753333
0.00499742449474
0.00499744766333
0.00499747723049
0.00499751494917
0.00499756442878
0.00499759580396
0.00499762477889
0.00499766089886
0.0049977031286
0.00499729585826
0.00499753318247
0.00499741777213
0.00499736435286
0.00499737827519
0.00499740568336
0.00499741913164
0.00499743228418
0.00499743628565
0.00499745194419
0.00499746813113
0.00499749036801
0.00499752719733
0.00499756831092
0.00499761584057
0.0049976440812
0.00499767541569
0.0049977125168
0.00499775480042
0.0049977977983
0.00499731626645
0.00499756021231
0.00499746318969
0.00499742997216
0.00499745093671
0.00499745577774
0.00499746864207
0.00499747368225
0.00499749099925
0.00499750866372
0.00499753166462
0.00499759027541
0.0049976378921
0.0049976780763
0.00499770756804
0.00499774585818
0.00499778710485
0.00499783232397
0.00499787774826
0.00499791880513
0.00499733990273
0.00499756253846
0.0049974924744
0.00499745483689
0.00499746078137
0.0049974809744
0.00499749645195
0.0049975225647
0.00499754918087
0.00499758780673
0.00499767002798
0.00499772450588
0.00499776378132
0.00499780051253
0.00499784725021
0.00499789555244
0.00499794652401
0.00499799575409
0.00499803797156
0.00499807436063
0.00499727611321
0.0049975465324
0.00499752212076
0.00499749953826
0.00499753549037
0.00499757800518
0.00499762798446
0.00499768798147
0.00499775695682
0.00499785760324
0.0049979080957
0.00499794416488
0.0049979810576
0.00499802793954
0.00499807777243
0.00499812814376
0.00499817577322
0.00499821504314
0.00499824555078
0.00499827052509
0.00499855311742
0.00499883531215
0.00499873061311
0.00499863611206
0.00499858551806
0.00499856363939
0.00499855891165
0.0049985329412
0.00499851002764
0.00499846225952
0.00499842861546
0.00499841451721
0.00499841884968
0.00499843137712
0.00499844784659
0.00499846450988
0.00499848004779
0.00499849196844
0.00499849901897
0.0049985028181
0.00499969245536
0.00499977930462
0.00499973764532
0.0049996977858
0.00499966644928
0.0049996332979
0.00499957239044
0.00499948148586
0.00499936012386
0.00499923560359
0.00499912738315
0.00499904087177
0.0049989740164
0.00499892180472
0.0049988795511
0.00499884476919
0.00499881376283
0.00499878988961
0.00499876825949
0.00499874666611
0.00499971275964
0.00499971365009
0.00499971394826
0.0049997141851
0.00499971436938
0.00499971432191
0.00499971284521
0.0049997058725
0.00499968341936
0.00499963742674
0.00499957163865
0.00499949116165
0.00499940408812
0.00499931809143
0.00499923810118
0.00499916836234
0.00499910674304
0.00499905452126
0.00499901074357
0.00499896934914
0.00499972859579
0.00499972855984
0.00499972843794
0.00499972841652
0.00499972848144
0.00499972861182
0.00499972876475
0.0049997288789
0.00499972856434
0.00499972055049
0.0049997006657
0.00499966526553
0.00499961453438
0.00499954959759
0.00499947373612
0.00499939516348
0.00499932199321
0.00499925680935
0.00499920190543
0.00499915070546
0.00499974292735
0.0049997429319
0.00499974294206
0.00499974297522
0.00499974303511
0.00499974310349
0.00499974319081
0.00499974330124
0.00499974342177
0.00499974075717
0.00499973220563
0.00499971425149
0.00499968586659
0.0049996465797
0.00499959460104
0.00499953070898
0.0049994631956
0.00499939830213
0.00499934141998
0.00499928862563
0.00499975851708
0.00499975849136
0.00499975856233
0.00499975868473
0.00499975880515
0.00499975887585
0.00499975892332
0.00499975897119
0.00499975902675
0.0049997581569
0.00499975391708
0.00499974248129
0.00499972255505
0.0049996938972
0.00499965623234
0.00499960775511
0.00499955223513
0.00499949505087
0.00499944179764
0.00499939195594
0.00499977548124
0.00499977548307
0.00499977561509
0.00499977580259
0.00499977592634
0.00499977593094
0.00499977581575
0.00499977559172
0.00499977521205
0.00499977520709
0.00499977365098
0.0049997661991
0.00499975145199
0.00499972871779
0.00499969789894
0.00499965857265
0.00499961233192
0.0049995633399
0.00499951566695
0.00499947072044
0.00499979432015
0.0049997944559
0.00499979482589
0.00499979517628
0.00499979539691
0.00499979551388
0.00499979548635
0.00499979528023
0.00499979471343
0.00499979589803
0.00499979406674
0.00499978755537
0.00499977499171
0.00499975516664
0.00499972794231
0.0049996938535
0.00499965499306
0.00499961357546
0.00499957239625
0.00499953327282
0.00499981849525
0.00499981990373
0.00499981651076
0.00499981696168
0.00499981731856
0.00499981766276
0.00499981796702
0.00499981801964
0.00499981763645
0.00499981812193
0.00499981488623
0.00499980698911
0.00499979370606
0.00499977417659
0.00499974895029
0.00499972026008
0.00499969001081
0.0049996564157
0.00499962225902
0.00499958940196
0.00499983171862
0.00499985227343
0.00499983939372
0.00499983967722
0.00499983995615
0.00499984027551
0.00499984060845
0.00499984084172
0.00499984210071
0.00499984254501
0.00499983842277
0.0049998292142
0.00499981466782
0.00499979549909
0.00499977291266
0.00499975171338
0.00499972829259
0.004999700233
0.00499967223951
0.00499964588513
0.00499985345254
0.00499987876788
0.00499986049962
0.00499986089076
0.00499986124644
0.00499986160806
0.00499986198619
0.00499986220363
0.00499986378275
0.00499986451685
0.00499986076318
0.00499985159425
0.00499983755013
0.00499982027964
0.00499980414983
0.00499978995166
0.00499976903105
0.00499974497692
0.0049997235837
0.00499970550279
0.00499988261009
0.00499990202309
0.00499988292065
0.00499988100335
0.00499988126102
0.0049998815569
0.00499988190007
0.00499988141786
0.00499988208092
0.0049998823588
0.00499987867542
0.00499986984773
0.00499985770129
0.00499984505555
0.00499983678684
0.00499982460559
0.00499980491131
0.00499978562816
0.00499977256007
0.00499976391987
0.00499988562991
0.00499991430667
0.00499990112733
0.00499989899263
0.00499989929199
0.00499989959054
0.0049998999204
0.0049998983391
0.00499989731881
0.00499989608751
0.00499989139386
0.00499988249281
0.00499987241471
0.0049998654514
0.00499986103757
0.00499984842154
0.00499983072713
0.00499981675824
0.00499981448863
0.0049998136128
0.00499989215296
0.00499993298503
0.00499991935098
0.00499991576913
0.00499991596065
0.00499991616946
0.00499991644347
0.00499991348675
0.00499991033432
0.00499990637307
0.0049998993566
0.00499988971706
0.0049998809084
0.00499987787015
0.00499987438129
0.00499986145832
0.00499984720109
0.00499984077246
0.00499985107915
0.00499984937696
0.00499988994833
0.0049999424076
0.00499993419785
0.00499993119276
0.00499993125619
0.00499993132382
0.0049999314408
0.00499992609054
0.00499991945416
0.00499991152116
0.00499990123784
0.00499989026145
0.00499988277993
0.00499988330459
0.00499988026966
0.00499986952381
0.00499985975503
0.00499986632038
0.00499988457394
0.00499987330834
0.00499990586927
0.00499996591127
0.0049999508091
0.00499994730621
0.00499994707985
0.00499994710651
0.00499994405835
0.00499993457381
0.00499992201914
0.00499990849687
0.00499989445637
0.00499988336344
0.00499988061829
0.00499988693268
0.00499988616249
0.00499987960159
0.0049998820519
0.00499990813635
0.00499991320691
0.00499989530035
0.00499995176006
0.00500001053311
0.00499999565397
0.00499999694179
0.00500000039559
0.00500000179189
0.00499999731655
0.00499998557806
0.00499996790449
0.00499994731921
0.00499992820506
0.00499991570056
0.00499991485863
0.00499991897935
0.00499991599751
0.0049999168086
0.00499993395602
0.0049999497075
0.00499994376554
0.00499993798144
0.00499633552895
0.00499632461918
0.0049963160846
0.00499630977382
0.00499630665869
0.00499630397751
0.00499630636864
0.00499633957973
0.00499634628839
0.00499633073264
0.00499632760336
0.00499632860928
0.00499633434612
0.00499634015783
0.00499635329138
0.0049963471549
0.00499655985326
0.0049965281926
0.00499650154862
0.00499648144319
0.00499646857602
0.00499645082583
0.00499643808944
0.00499642958703
0.00499642373288
0.00499642172224
0.0049964279826
0.00499647048431
0.00499645601823
0.00499644696829
0.0049964435668
0.00499644603725
0.00499645083717
0.00499645688363
0.00499647068568
0.00499646623898
0.004996678603
0.00499664562262
0.00499661791822
0.00499660163001
0.00499658170552
0.00499656330883
0.00499655098489
0.00499653869464
0.00499653125528
0.00499652844931
0.00499654207595
0.00499654898207
0.00499653190433
0.00499652714858
0.00499652779342
0.0049965305552
0.00499653463209
0.00499653874526
0.00499655120474
0.00499655137168
0.00499677391141
0.00499674298788
0.00499672057473
0.00499670422071
0.00499668250359
0.00499666302367
0.00499664436039
0.00499662852142
0.00499661765132
0.00499660970394
0.00499660914951
0.0049966000927
0.00499659306289
0.00499659252338
0.00499659427672
0.00499659710728
0.00499659918861
0.0049966014389
0.00499661150932
0.0049966141366
0.00499685571418
0.00499683059562
0.0049968157579
0.00499679754562
0.00499677248369
0.00499675146729
0.00499673106258
0.0049967101567
0.00499669139577
0.00499667444362
0.00499666595978
0.00499666143124
0.00499665793664
0.00499665869066
0.00499666141548
0.00499666329614
0.0049966644334
0.00499666522124
0.00499667277929
0.00499667621767
0.00499693153644
0.00499691593788
0.00499690647967
0.00499688325571
0.00499686376101
0.00499684478031
0.00499682218577
0.00499679880396
0.00499677425338
0.00499675202428
0.00499674050018
0.00499674207992
0.00499674129983
0.00499674191715
0.00499674340101
0.00499674467162
0.00499674461428
0.0049967440171
0.00499674911342
0.00499675223011
0.00499700684233
0.00499700331888
0.00499699102646
0.00499697432421
0.00499695951114
0.00499694269073
0.0049969243053
0.0049969024011
0.00499687721135
0.00499685111648
0.00499683623359
0.00499684616399
0.0049968466529
0.00499684492718
0.00499684472244
0.00499684418431
0.00499684381322
0.00499684332863
0.004996846394
0.00499685027989
0.00499708554157
0.00499708766316
0.00499708007452
0.00499706890485
0.00499705949698
0.00499704882164
0.0049970327447
0.00499701483793
0.00499699366276
0.0049969707346
0.00499695619873
0.00499697188236
0.00499697359643
0.00499696948509
0.00499696619747
0.00499696486796
0.00499696588123
0.00499696510583
0.00499696657231
0.00499697091489
0.00499716416679
0.00499717509803
0.00499716963282
0.00499716593386
0.0049971622464
0.00499715622833
0.00499714678345
0.00499713224918
0.00499711615687
0.00499709914698
0.0049970919644
0.00499712095241
0.00499712490702
0.00499712143879
0.00499711448723
0.00499711331856
0.00499711651548
0.00499711406922
0.004997114619
0.00499711879027
0.00499724719791
0.00499725977548
0.00499726186974
0.00499726547181
0.00499726973618
0.0049972723915
0.00499726830754
0.00499726097915
0.00499725352563
0.00499725152116
0.00499726670062
0.00499731308064
0.00499731500061
0.00499731187942
0.00499730107784
0.00499729861841
0.00499729975578
0.00499729562567
0.00499729559641
0.00499729888539
0.00499732509274
0.00499734445145
0.00499735363924
0.00499736651247
0.00499737924227
0.00499739074495
0.00499739866883
0.00499740126264
0.00499740896635
0.0049974327131
0.0049974849227
0.00499752671713
0.00499752195236
0.00499752188907
0.0049975129444
0.00499750635752
0.00499750259245
0.00499749744705
0.00499749745297
0.00499749907712
0.00499740617969
0.00499742402232
0.00499744166003
0.00499746260709
0.00499748515194
0.00499750811097
0.00499752405377
0.00499753899792
0.0049975689052
0.00499762639428
0.00499768705373
0.00499770115328
0.00499770049395
0.00499770067563
0.00499770178927
0.0049976961201
0.00499769157591
0.00499768735042
0.00499768806982
0.00499768877989
0.00499747364592
0.00499749659033
0.00499752174405
0.00499755024268
0.00499758020211
0.00499760729154
0.00499763078689
0.00499766079168
0.00499771089809
0.00499779174596
0.00499782258087
0.00499782498712
0.00499782540998
0.00499782701148
0.00499782951906
0.00499783082573
0.00499783124682
0.00499783025524
0.00499783241404
0.00499783380268
0.00499753516392
0.00499756263815
0.0049975926979
0.00499762497996
0.00499765812004
0.00499768976149
0.0049977227114
0.00499777198661
0.00499785150083
0.00499791456542
0.0049979224201
0.00499792090356
0.00499791808375
0.00499791470211
0.0049979142624
0.00499791618719
0.00499791855343
0.00499792020236
0.00499792415292
0.00499792753903
0.00499759609262
0.00499762755618
0.00499765743247
0.00499769179381
0.00499772554397
0.00499776017899
0.00499780550611
0.00499787365542
0.00499795752154
0.00499798972189
0.0049979907219
0.00499799060617
0.00499798868082
0.00499798618185
0.00499798543251
0.00499798589978
0.00499798730804
0.00499798939748
0.00499799362672
0.00499799871727
0.00499766397125
0.00499769002563
0.00499772407738
0.00499775718399
0.00499778672494
0.00499782435725
0.00499788385807
0.00499796518249
0.00499803455017
0.00499805563172
0.00499805815735
0.00499805820691
0.00499805703581
0.00499805574416
0.00499805584601
0.00499805748983
0.00499805896616
0.00499806064313
0.00499806397822
0.00499806952902
0.00499773733176
0.00499776912821
0.0049977995095
0.00499782837582
0.00499785614063
0.00499789398865
0.00499795974209
0.00499804028997
0.00499809963463
0.00499811879043
0.00499812250978
0.00499812318112
0.00499812301933
0.00499812301131
0.00499812446151
0.0049981260488
0.00499812778375
0.00499812907271
0.00499813166284
0.00499813739439
0.00499783312542
0.00499786349295
0.00499789262753
0.00499791676125
0.00499793837758
0.0049979734009
0.00499803614062
0.00499810825488
0.00499815995867
0.00499817782431
0.00499818439175
0.00499818708583
0.00499818828526
0.00499818925241
0.00499819049126
0.00499819237619
0.00499819310323
0.00499819379498
0.00499819568615
0.00499820157803
0.00499795296381
0.00499798312493
0.0049980074579
0.00499802828391
0.00499804785305
0.00499807336441
0.00499812290928
0.00499817993992
0.00499822350414
0.00499824211202
0.00499825218361
0.00499825750257
0.00499825856252
0.00499825909902
0.00499826058885
0.00499826172877
0.00499826181816
0.00499826157107
0.00499826258473
0.00499826825688
0.00499810539416
0.00499813165106
0.00499815096357
0.0049981680905
0.00499818358676
0.00499820051758
0.00499823221843
0.00499827162718
0.00499830467706
0.00499832328461
0.00499833655383
0.0049983424585
0.00499834071197
0.00499833944494
0.00499833856029
0.00499833826549
0.00499833758319
0.00499833625003
0.00499833642394
0.00499834143171
0.00499829158704
0.00499830851489
0.00499832143573
0.0049983297655
0.00499833816632
0.00499835099335
0.00499836250351
0.00499838351737
0.0049984022296
0.00499841638555
0.0049984284543
0.00499843330481
0.00499842982538
0.0049984262953
0.00499842442926
0.00499842159346
0.00499841987377
0.00499841726499
0.00499841707601
0.00499842132005
0.00499850522058
0.00499850721076
0.00499850735791
0.00499850620861
0.00499850850224
0.00499851225025
0.00499850694522
0.00499850940403
0.00499851309041
0.00499851808418
0.00499852243473
0.00499851979884
0.00499851639829
0.00499851309677
0.00499850974119
0.00499850579731
0.00499850384076
0.00499850047793
0.00499850062206
0.0049985045708
0.00499872605601
0.00499870978444
0.00499869645839
0.00499868277488
0.00499867393756
0.00499867231648
0.0049986525177
0.00499863671683
0.00499862612586
0.00499862098257
0.00499861732262
0.00499860865592
0.00499860571206
0.00499860203664
0.00499859701007
0.00499859257098
0.004998590096
0.00499858634805
0.00499858684457
0.00499859035046
0.00499892982833
0.0049988970786
0.00499887124185
0.00499884859308
0.00499883112396
0.00499881819073
0.00499878939584
0.0049987572543
0.00499873234852
0.00499871801685
0.00499871040032
0.00499869857459
0.00499869459089
0.00499869009016
0.0049986843429
0.00499868022545
0.00499867702297
0.00499867372455
0.00499867441753
0.00499867758344
0.00499910112314
0.00499905739382
0.00499902339685
0.00499899269965
0.00499896856598
0.00499895073849
0.00499891176593
0.00499886759493
0.00499883293263
0.00499881230534
0.00499880191644
0.00499878658257
0.00499878248095
0.00499877564573
0.00499877005046
0.00499876572107
0.00499876144716
0.00499875905649
0.00499876009199
0.00499876295635
0.00499923701631
0.00499918928862
0.00499915064343
0.00499911679643
0.00499908767376
0.00499906243481
0.00499901935032
0.00499896664
0.00499892587963
0.00499890274951
0.00499888819444
0.00499887275242
0.00499886617735
0.00499885736727
0.00499885109023
0.00499884653771
0.00499884237127
0.00499884078289
0.00499884231266
0.00499884518918
0.00499934303465
0.0049992968105
0.00499925680303
0.00499922058148
0.00499918958453
0.00499916042956
0.00499911205121
0.00499905489639
0.00499901257128
0.00499898939608
0.00499896804279
0.00499895496288
0.00499894640686
0.00499893685554
0.00499892985522
0.00499892494074
0.00499892201524
0.00499892123255
0.00499892321643
0.00499892636846
0.00499942705304
0.00499938504327
0.00499934682792
0.00499931050856
0.004999276124
0.00499924428066
0.00499919555476
0.0049991372208
0.00499909681323
0.00499907680322
0.00499905003228
0.00499903944673
0.00499903086993
0.00499902292013
0.0049990161584
0.00499901186422
0.00499900946711
0.00499900865472
0.00499901020238
0.00499901343532
0.00499949596986
0.0049994602311
0.00499942451683
0.00499938958593
0.00499935756489
0.0049993219012
0.00499927285235
0.00499921431791
0.00499917376206
0.00499916272465
0.00499913412925
0.0049991234306
0.00499911833914
0.00499911454932
0.00499910995624
0.00499910693447
0.00499910422769
0.00499910185267
0.0049991015063
0.00499910429152
0.00499955828205
0.00499952782739
0.00499949375089
0.00499946095436
0.00499942537595
0.00499938817806
0.0049993421507
0.00499928349612
0.0049992390331
0.00499924163654
0.00499922443657
0.00499921122707
0.00499920885922
0.00499920816529
0.00499920697309
0.0049992051977
0.00499920221214
0.00499919916164
0.00499919663376
0.00499919501142
0.00499962071315
0.00499959300526
0.00499955962121
0.00499952479242
0.00499948688924
0.0049994476101
0.0049994013225
0.00499934284117
0.00499929896815
0.00499931897331
0.00499933025223
0.00499932046423
0.00499931733269
0.00499931821246
0.00499932267114
0.00499933104799
0.00499933865379
0.00499934406546
0.00499935054455
0.00499933662805
0.00499968549049
0.00499965876115
0.00499962770609
0.00499959384134
0.00499955605319
0.00499951474995
0.00499946762622
0.00499941579803
0.00499938207604
0.00499944356218
0.00499950366735
0.00499949551329
0.0049994887337
0.00499949288855
0.00499950937336
0.00499952829215
0.00499954165357
0.00499955444122
0.00499956488556
0.0049995672699
0.00499974653049
0.00499972228815
0.00499969703384
0.00499966801628
0.00499963369739
0.00499959645935
0.0049995618508
0.004999539965
0.00499958621316
0.00499978242946
0.00499980770014
0.00499977550828
0.00499975536817
0.00499974571138
0.00499973588337
0.00499972562543
0.00499972401955
0.00499972761268
0.00499973188574
0.00499974446324
0.00499979598835
0.00499977562616
0.00499975567999
0.00499973085016
0.0049997042325
0.00499969166125
0.00499969917127
0.0049997865423
0.00499997088232
0.0049999761283
0.0049999323172
0.00499991712214
0.004999907607
0.0049998987524
0.0049998889791
0.00499987518395
0.00499986154633
0.00499985344701
0.00499985372778
0.00499986448924
0.00499982954614
0.00499981227605
0.00499979229156
0.00499976923074
0.00499976688405
0.00499978830932
0.00499990617244
0.00500001935122
0.00499997748525
0.00499995615396
0.00499995445899
0.00499995343565
0.00499995264261
0.00499995226752
0.00499995069505
0.00499994460094
0.00499993428396
0.00499992450245
0.00499992205416
0.00499992719246
0.00499985432746
0.00499983638415
0.00499981380316
0.00499981134426
0.00499984403939
0.00499997957566
0.00500002583675
0.00499997804687
0.00499997140633
0.00499997035538
0.00499996947549
0.0049999688675
0.00499996840691
0.00499996800556
0.00499996766927
0.00499996454536
0.00499995889324
0.00499995204905
0.00499994838355
0.00499994959141
0.00499987992194
0.00499986152244
0.00499985857123
0.00499987713988
0.0049999976666
0.00500002907006
0.00499998689861
0.00499998476495
0.00499998406681
0.0049999835899
0.00499998319433
0.00499998281732
0.00499998246052
0.00499998197004
0.00499998031048
0.00499997577595
0.00499997120596
0.00499996554579
0.00499996118621
0.00499995982038
0.00499993088317
0.00499992397235
0.00499993320788
0.00499999501621
0.00500003034087
0.00499999628314
0.00499999462514
0.00499999466424
0.00499999479236
0.00499999492001
0.00499999500487
0.00499999511418
0.00499999553222
0.00499999588863
0.00499999320046
0.00499998788218
0.00499998415823
0.00499997916002
0.00499997605238
0.00499997325639
)
;

boundaryField
{
    emptyPatch
    {
        type            empty;
    }
    minY
    {
        type            calculated;
        value           nonuniform List<scalar> 0();
    }
    maxY
    {
        type            calculated;
        value           uniform 0.005;
    }
    water_to_cooler
    {
        type            calculated;
        value           nonuniform List<scalar> 
38
(
0.0049963471549
0.00499646623898
0.00499655137168
0.0049966141366
0.00499667621767
0.00499675223011
0.00499685027989
0.00499697091489
0.00499711879027
0.00499729888539
0.00499749907712
0.00499768877989
0.00499783380268
0.00499792753903
0.00499799871727
0.00499806952902
0.00499813739439
0.00499820157803
0.00499826825688
0.00499834143171
0.00499842132005
0.0049985045708
0.00499859035046
0.00499867758344
0.00499876295635
0.00499884518918
0.00499892636846
0.00499901343532
0.00499910429152
0.00499919501143
0.00499933662862
0.00499956728049
0.00499974450526
0.0049998645836
0.00499992735034
0.00499994980981
0.00499996009622
0.00499997360409
)
;
    }
    water_to_heater
    {
        type            calculated;
        value           nonuniform List<scalar> 
59
(
0.00499703454682
0.00499704872097
0.00499705018565
0.00499706289716
0.00499706541745
0.00499707961161
0.00499708281231
0.00499709681696
0.00499710067259
0.00499711486712
0.00499711865396
0.00499713286667
0.00499713579495
0.00499714987333
0.00499715229654
0.00499716649133
0.00499716967811
0.00499718372319
0.00499719068271
0.00499720954118
0.00499721878254
0.00499723305226
0.00499724309148
0.00499725726307
0.00499726835717
0.00499728271143
0.00499729337163
0.00499731311878
0.00499731285631
0.00499734339541
0.00499725004388
0.00499729349185
0.00499853695691
0.00499858331714
0.00499968760104
0.00499970864416
0.00499971534714
0.0049997290478
0.00499973424386
0.00499974649963
0.00499975299592
0.00499976524467
0.00499977286158
0.00499979070813
0.00499978893416
0.00499982232238
0.00499980705598
0.00499984648328
0.00499983833279
0.00499987766707
0.00499987703194
0.00499988002845
0.00499986096463
0.00499989513046
0.00499986737839
0.00499990129973
0.00499989168164
0.00499992581692
0.00499994602615
)
;
    }
    procBoundary0to1
    {
        type            processor;
        value           nonuniform List<scalar> 
41
(
0.00499702724892
0.00499702803374
0.00499702835465
0.00499702856893
0.00499702870394
0.00499702871342
0.00499702772142
0.00499701900994
0.00499699298484
0.00499695144879
0.00499690238454
0.0049968488617
0.00499679058808
0.00499672891335
0.00499666891075
0.00499661441559
0.00499656558833
0.00499652090849
0.00499647991102
0.00499644288194
0.00499619569469
0.00499618940859
0.00499618478481
0.00499618369054
0.0049961822448
0.00499617954318
0.00499618008826
0.00499619587088
0.004996218409
0.00499620345232
0.00499619870306
0.00499619879492
0.00499620200154
0.0049962070746
0.00499622381947
0.00499621738286
0.00499641114732
0.00499638529875
0.00499636444956
0.00499634725923
0.00499634725923
)
;
    }
}


// ************************************************************************* //
