/*--------------------------------*- C++ -*----------------------------------*\
| =========                 |                                                 |
| \\      /  F ield         | OpenFOAM: The Open Source CFD Toolbox           |
|  \\    /   O peration     | Version:  2312                                  |
|   \\  /    A nd           | Website:  www.openfoam.com                      |
|    \\/     M anipulation  |                                                 |
\*---------------------------------------------------------------------------*/
FoamFile
{
    version     2.0;
    format      ascii;
    arch        "LSB;label=32;scalar=64";
    class       surfaceScalarField;
    location    "0.195/water";
    object      phi.gas;
}
// * * * * * * * * * * * * * * * * * * * * * * * * * * * * * * * * * * * * * //

dimensions      [0 3 -1 0 0 0 0];

oriented        oriented;

internalField   nonuniform List<scalar> 
11810
(
3.48382843986e-07
3.14685786518e-07
2.424629353e-07
2.10840629358e-07
3.19747618897e-07
1.93701763415e-07
2.9700876162e-07
1.83263445274e-07
3.10402807248e-07
1.85488995224e-07
3.01572190895e-07
1.89529584914e-07
2.58729394357e-07
1.95758978063e-07
2.3063923949e-07
2.15732292958e-07
2.38592466651e-07
3.45322571602e-07
2.11692700267e-07
4.18436394764e-07
1.9507854859e-07
4.43504885928e-07
1.78731181805e-07
4.6694510163e-07
1.6372606367e-07
4.91636232059e-07
1.49685368336e-07
5.17588623208e-07
1.36463647772e-07
5.44882620767e-07
1.23875820053e-07
5.73572915163e-07
1.11740360527e-07
6.03715955561e-07
9.98306476798e-08
6.35373893583e-07
8.79530591421e-08
6.68612722853e-07
7.03490004525e-07
7.59910698989e-08
1.46474758655e-07
3.33803915306e-07
2.47624727325e-07
2.64473927371e-07
2.46790499459e-07
2.42700848798e-07
2.81313165389e-07
2.35979680984e-07
2.83056566384e-07
2.36794963849e-07
2.87133115621e-07
2.42787923219e-07
2.74938466498e-07
2.51584023831e-07
2.46410347464e-07
2.65310166095e-07
1.36468544742e-07
3.19163413621e-07
6.92997834216e-08
3.62305968984e-07
6.01934399742e-08
3.77272202459e-07
5.36737373222e-08
3.94153268709e-07
4.78367614507e-08
4.1201286248e-07
4.24358964217e-08
4.30851214801e-07
3.73382378914e-08
4.50716529114e-07
3.24965122701e-08
4.71678455011e-07
2.78973238703e-08
4.93806517725e-07
2.35220112808e-08
5.17165061972e-07
1.93528332452e-08
5.41815210202e-07
5.67823052197e-07
1.54023151315e-08
1.64276902648e-07
4.07084057968e-07
2.09294514501e-07
3.23020427165e-07
2.22948854432e-07
2.88909160991e-07
2.41026619527e-07
2.76960005166e-07
2.48763939538e-07
2.7546768948e-07
2.5135044566e-07
2.79317896608e-07
2.48444889467e-07
2.86716513779e-07
2.33477543052e-07
2.98355104083e-07
1.77049705258e-07
3.3021847945e-07
6.74674148279e-08
3.69117612148e-07
5.04943208745e-08
3.91333309257e-07
4.70278520113e-08
4.09594344627e-07
4.3505282721e-08
4.28769452227e-07
4.00466901527e-08
4.48943863249e-07
3.65497694424e-08
4.70127580204e-07
3.29232394588e-08
4.92377344922e-07
2.91434534482e-08
5.15774433006e-07
2.52215414523e-08
5.40409764162e-07
2.12055735821e-08
5.66377457454e-07
5.93774016134e-07
1.72266009799e-08
2.24393870156e-07
4.41392358328e-07
2.41142870159e-07
3.71498304687e-07
2.45818943152e-07
3.25096238853e-07
2.49741346284e-07
3.06946404266e-07
2.46682231113e-07
3.01778509747e-07
2.40431452243e-07
3.03477475278e-07
2.31912811384e-07
3.09225758113e-07
2.18628634707e-07
3.18636714973e-07
1.91736917899e-07
3.38875454639e-07
9.7349076688e-08
3.6641525935e-07
3.81219782135e-08
3.89921071496e-07
3.53204372702e-08
4.08442747974e-07
3.33473199337e-08
4.27710800998e-07
3.1189094996e-08
4.47982311292e-07
2.89486438769e-08
4.69256129122e-07
2.65638360476e-08
4.91564026623e-07
2.39730416636e-08
5.14971121691e-07
2.1146338515e-08
5.3956336347e-07
1.81118411112e-08
5.65439427282e-07
5.92706061847e-07
1.50156050596e-08
2.64250895745e-07
4.60201541149e-07
2.79036141588e-07
4.06861877462e-07
2.73778158197e-07
3.58615376678e-07
2.71147646347e-07
3.32127246558e-07
2.62197407441e-07
3.22940143379e-07
2.49067922142e-07
3.21989599105e-07
2.32923748159e-07
3.25864871958e-07
2.15094279371e-07
3.33375263149e-07
1.92064902515e-07
3.47604161025e-07
1.41142868994e-07
3.68266175878e-07
4.13090884232e-08
3.90133391681e-07
2.85552282799e-08
4.09551670462e-07
2.72190112689e-08
4.29006715762e-07
2.55985262051e-08
4.49497275514e-07
2.38824472227e-08
4.71023352598e-07
2.20798455775e-08
4.93599633678e-07
2.01347837036e-08
5.17274752148e-07
1.79927756611e-08
5.42122554487e-07
1.56532972838e-08
5.68235192583e-07
5.95716800036e-07
1.3244534805e-08
2.9050326311e-07
4.67159535035e-07
3.02875782766e-07
4.29076581115e-07
2.92523937277e-07
3.87650382242e-07
2.86072463277e-07
3.55483057696e-07
2.77649986112e-07
3.41203207077e-07
2.64340823938e-07
3.37298981642e-07
2.4526681059e-07
3.39085319753e-07
2.22433551698e-07
3.44734095766e-07
1.97242658717e-07
3.55299095274e-07
1.63782559193e-07
3.71202842807e-07
7.03383158098e-08
3.90260155769e-07
2.46293133224e-08
4.10196342308e-07
2.31821423221e-08
4.29638131508e-07
2.19449176044e-08
4.50254588146e-07
2.05381389232e-08
4.71940151105e-07
1.90430883012e-08
4.94700102947e-07
1.74420034575e-08
5.1857099152e-07
1.56874934085e-08
5.43615504959e-07
1.37695827336e-08
5.69916877661e-07
5.97572545151e-07
1.17993875714e-08
2.95421079479e-07
4.69844109253e-07
3.06497080575e-07
4.41455882919e-07
2.98064390332e-07
4.08453924468e-07
2.88262358269e-07
3.78435999384e-07
2.81706970359e-07
3.58352326276e-07
2.73134533359e-07
3.509646418e-07
2.5762409433e-07
3.50445180317e-07
2.34744665857e-07
3.54186323147e-07
2.07823651629e-07
3.62095449407e-07
1.7700556442e-07
3.74693217089e-07
1.20139329239e-07
3.91194177702e-07
2.84888171634e-08
4.10175529328e-07
2.05963538376e-08
4.30124194784e-07
1.97869888468e-08
4.50910665517e-07
1.86763752042e-08
4.72755357469e-07
1.74026322299e-08
4.95695941266e-07
1.5998666669e-08
5.19760510601e-07
1.44422560798e-08
5.45002816892e-07
1.27315250279e-08
5.71497574656e-07
5.99334790446e-07
1.09724451318e-08
2.87447428598e-07
4.73879358125e-07
2.97651946725e-07
4.49961994783e-07
2.9240781245e-07
4.23441544432e-07
2.8303860163e-07
3.97759568009e-07
2.77583411466e-07
3.7600148089e-07
2.73719067229e-07
3.64043117363e-07
2.64730944132e-07
3.61223953627e-07
2.46288113458e-07
3.62950419541e-07
2.20227714163e-07
3.68490548345e-07
1.90647210938e-07
3.78434685724e-07
1.52262852459e-07
3.92665195015e-07
5.78523877818e-08
4.10390703097e-07
2.01028928938e-08
4.30496525532e-07
1.93603512985e-08
4.51390590471e-07
1.84340213151e-08
4.73411625814e-07
1.72410264063e-08
4.96552637212e-07
1.58629696263e-08
5.20826772404e-07
1.43078661792e-08
5.46277846107e-07
1.25900268529e-08
5.72971894823e-07
6.00990979807e-07
1.08290072246e-08
2.88447411323e-07
4.74849921792e-07
3.02328590393e-07
4.54206154384e-07
2.91671077409e-07
4.34114313361e-07
2.82329378224e-07
4.13529970545e-07
2.75622235696e-07
3.93992736869e-07
2.73837010142e-07
3.78718512647e-07
2.7017762761e-07
3.72856112908e-07
2.57256961253e-07
3.72316819986e-07
2.34126005414e-07
3.75468289857e-07
2.0567257263e-07
3.82880516984e-07
1.73042987546e-07
3.95049013405e-07
1.15815158467e-07
4.11323705058e-07
2.87440138172e-08
4.30521734175e-07
2.14775592506e-08
4.51659978668e-07
2.03939768864e-08
4.74047566307e-07
1.89445303232e-08
4.97456400305e-07
1.72620061557e-08
5.21978905513e-07
1.53923957247e-08
5.4765558264e-07
1.33746712549e-08
5.74548064705e-07
6.0273692082e-07
1.13476145277e-08
2.86887045847e-07
4.74918666972e-07
3.04916395611e-07
4.56036995946e-07
2.92437507796e-07
4.41086980856e-07
2.85117340271e-07
4.25867791175e-07
2.80150515944e-07
4.10470090758e-07
2.78428457191e-07
3.95951692028e-07
2.76539225812e-07
3.86507680258e-07
2.67981145324e-07
3.83463090182e-07
2.4855388478e-07
3.8408814205e-07
2.21608166144e-07
3.88881913433e-07
1.92814715115e-07
3.9889961645e-07
1.53882358673e-07
4.13617942205e-07
6.44622060007e-08
4.32162181866e-07
2.76772663683e-08
4.52570647054e-07
2.52699326746e-08
4.75243153999e-07
2.28219585186e-08
4.98887307998e-07
2.02333613227e-08
5.23612221524e-07
1.75597954729e-08
5.49458552081e-07
1.48599487595e-08
5.76487199104e-07
6.04773584041e-07
1.22360855839e-08
2.7858789487e-07
4.75139441062e-07
3.02198328141e-07
4.56656219902e-07
2.92875625381e-07
4.45571956767e-07
2.89778654695e-07
4.35713945513e-07
2.87567399535e-07
4.25730555231e-07
2.85454622031e-07
4.14495331185e-07
2.82773839899e-07
4.03387839387e-07
2.76405810656e-07
3.9721717862e-07
2.60697549245e-07
3.95150015593e-07
2.36392717032e-07
3.9724886459e-07
2.09173032977e-07
4.04859328713e-07
1.77599123035e-07
4.17912259434e-07
1.17928195573e-07
4.35318592889e-07
4.12614741801e-08
4.55791929678e-07
3.21577287014e-08
4.77572641749e-07
2.7910488732e-08
5.01366380987e-07
2.38070555084e-08
5.2614157278e-07
1.98843292127e-08
5.52000794724e-07
1.61594379992e-08
5.79007655348e-07
6.072442205e-07
1.27031810435e-08
2.64295759914e-07
4.7869102351e-07
2.9500927363e-07
4.58570881685e-07
2.90771665069e-07
4.49861243194e-07
2.9266595447e-07
4.45211940556e-07
2.92898941271e-07
4.41038212633e-07
2.9080092574e-07
4.34087044107e-07
2.8593651526e-07
4.2356559699e-07
2.79500244207e-07
4.13710779082e-07
2.67379936125e-07
4.09084912191e-07
2.46338042449e-07
4.08563008462e-07
2.20346381565e-07
4.13366814818e-07
1.930893557e-07
4.24202309341e-07
1.5108068058e-07
4.39923045375e-07
6.71405299576e-08
4.60882819589e-07
3.81102703439e-08
4.81643649804e-07
3.15008332888e-08
5.05297092211e-07
2.56271515839e-08
5.29795149168e-07
2.03490697319e-08
5.55378694869e-07
1.56160404341e-08
5.82117930561e-07
6.1009677991e-07
1.14378127748e-08
2.45770244445e-07
4.89569664029e-07
2.81338841275e-07
4.64783711293e-07
2.81213619903e-07
4.56700828845e-07
2.85909709523e-07
4.5599216357e-07
2.87409444274e-07
4.57015836514e-07
2.85481678925e-07
4.54134313548e-07
2.79729673387e-07
4.44826184402e-07
2.73614362185e-07
4.32236445837e-07
2.64491621335e-07
4.24967635695e-07
2.46657652693e-07
4.21957535179e-07
2.22058295494e-07
4.2378794024e-07
1.95756496484e-07
4.31783940127e-07
1.61434575163e-07
4.45371332157e-07
9.01676784391e-08
4.64420336397e-07
3.77477450099e-08
4.87952995338e-07
2.88964019786e-08
5.10311159407e-07
2.20343082257e-08
5.3414883785e-07
1.61535663553e-08
5.59150878255e-07
1.11154850769e-08
5.85374410662e-07
6.12900160324e-07
6.84759017494e-09
2.48001912436e-07
5.02112128383e-07
2.86858035492e-07
4.75712700456e-07
2.76131310514e-07
4.68604009548e-07
2.74900960764e-07
4.70400911491e-07
2.73055895758e-07
4.7477951672e-07
2.70344713506e-07
4.74254823497e-07
2.65784183147e-07
4.65489936157e-07
2.6038898104e-07
4.51359179705e-07
2.52071156326e-07
4.40813368981e-07
2.35883416284e-07
4.35427685695e-07
2.12009066632e-07
4.3422481352e-07
1.84776587979e-07
4.38993593899e-07
1.53263406549e-07
4.49836516659e-07
1.03193515237e-07
4.66211491848e-07
2.92472108596e-08
4.95887295928e-07
1.55300280699e-08
5.14834666962e-07
9.66407910649e-09
5.37936779538e-07
4.88338608246e-09
5.62194007935e-07
9.77989729205e-10
5.87799427088e-07
6.14822393092e-07
-2.17943823445e-09
2.63568293661e-07
5.18166855245e-07
2.94510110002e-07
4.92328035287e-07
2.71010878275e-07
4.85632763121e-07
2.57728300976e-07
4.88479605138e-07
2.49333917893e-07
4.93469031579e-07
2.46339875463e-07
4.92443714215e-07
2.44667311898e-07
4.8298186202e-07
2.40055765411e-07
4.68178169585e-07
2.3143967659e-07
4.54332799868e-07
2.16021837429e-07
4.45729281125e-07
1.92434542585e-07
4.41605687676e-07
1.64008510282e-07
4.43212406219e-07
1.3403374516e-07
4.51119852181e-07
9.52193377377e-08
4.64790911481e-07
1.79459270166e-08
4.87412490312e-07
-1.05932985562e-08
5.17518299004e-07
-1.25978398515e-08
5.39211345389e-07
-1.3899766771e-08
5.6289750307e-07
-1.4784814029e-08
5.88100293735e-07
6.1484759023e-07
-1.53438419094e-08
2.79991136267e-07
5.3613031936e-07
2.83366545951e-07
5.10236744778e-07
2.48393886243e-07
5.02839754549e-07
2.24706985637e-07
5.05190780071e-07
2.14273920979e-07
5.07939694162e-07
2.15358421086e-07
5.0402062912e-07
2.1868203583e-07
4.93164397952e-07
2.17191056799e-07
4.78267984664e-07
2.09486240702e-07
4.62979245081e-07
1.95598920334e-07
4.5075717449e-07
1.74060370597e-07
4.43694269089e-07
1.44825811177e-07
4.42615500337e-07
1.12814197841e-07
4.48077264485e-07
7.96079248023e-08
4.59733176481e-07
2.90698247724e-08
4.78431357899e-07
-4.34971869555e-08
5.15222237421e-07
-4.15729633891e-08
5.35844171673e-07
-3.71939417928e-08
5.59791723753e-07
-3.34548414156e-08
5.8524763077e-07
6.1227468534e-07
-3.02590438394e-08
2.71313047857e-07
5.48897725925e-07
2.4620346215e-07
5.23523370287e-07
2.11982082506e-07
5.14775471401e-07
1.90345894773e-07
5.15595340903e-07
1.85314755998e-07
5.15225086125e-07
1.92200401112e-07
5.08257552839e-07
2.00545786097e-07
4.96213961081e-07
2.03945255293e-07
4.81638906677e-07
2.01026356031e-07
4.66788553778e-07
1.91114734114e-07
4.5337328449e-07
1.72676163242e-07
4.43815021885e-07
1.44362850858e-07
4.40138707644e-07
1.09151088512e-07
4.43127514047e-07
7.69617497326e-08
4.52934846787e-07
4.16445726802e-08
4.69631685094e-07
-4.48085123664e-08
4.95464924623e-07
-6.82714949318e-08
5.28796221125e-07
-5.7954927095e-08
5.52965404196e-07
-4.949172516e-08
5.79474313106e-07
6.07413832241e-07
-4.25882153001e-08
2.52644760721e-07
5.61471293539e-07
2.26735434772e-07
5.35910056201e-07
1.98754328316e-07
5.25530543134e-07
1.82670250935e-07
5.23978925728e-07
1.81648570669e-07
5.20574818515e-07
1.91160884578e-07
5.11119446579e-07
2.0280474326e-07
4.98128834646e-07
2.11299907407e-07
4.8385343542e-07
2.1398137064e-07
4.6967540551e-07
2.08691842024e-07
4.57129008444e-07
1.92062750753e-07
4.47337105898e-07
1.64708931506e-07
4.41115451233e-07
1.29306513196e-07
4.40802497125e-07
9.34823900088e-08
4.48035707368e-07
6.29885199325e-08
4.63223601552e-07
1.55885336943e-08
4.85498781709e-07
-7.71095773848e-08
5.2123142441e-07
-6.77000622382e-08
5.44817221323e-07
-5.66262782065e-08
5.72580881257e-07
6.01729033389e-07
-4.7690146198e-08
2.62421320173e-07
5.68382664052e-07
2.42741243123e-07
5.4503069197e-07
2.12827135165e-07
5.36759698925e-07
1.96763285824e-07
5.33867827549e-07
1.95624945458e-07
5.27523002132e-07
2.05953698666e-07
5.15822353139e-07
2.19687854353e-07
5.02003584498e-07
2.31413843956e-07
4.87834154494e-07
2.3864293998e-07
4.7422374003e-07
2.36666756587e-07
4.62974119305e-07
2.19782612193e-07
4.54825605078e-07
1.9249938191e-07
4.48016020815e-07
1.60293873746e-07
4.44265488322e-07
1.2556883282e-07
4.48195425929e-07
9.80283769453e-08
4.61083557862e-07
6.6430247699e-08
4.81511755443e-07
-2.69463125623e-08
5.09511624173e-07
-6.12991384796e-08
5.38150530243e-07
-5.12009617775e-08
5.669468584e-07
5.97098798587e-07
-4.29743518214e-08
2.64739182747e-07
5.7207700953e-07
2.50419845655e-07
5.50004238772e-07
2.2259861605e-07
5.44452198451e-07
2.08069602238e-07
5.42082510388e-07
2.08146569775e-07
5.33990969068e-07
2.19717115796e-07
5.20775897486e-07
2.35045162613e-07
5.06520341196e-07
2.5010693373e-07
4.92753960429e-07
2.62123771205e-07
4.80592730699e-07
2.63262526067e-07
4.71971868057e-07
2.47292090857e-07
4.65605662828e-07
2.18340481046e-07
4.59726193958e-07
1.87560984799e-07
4.53903342561e-07
1.58486192226e-07
4.54404593867e-07
1.32960393232e-07
4.64291422898e-07
1.09017701378e-07
4.83061246959e-07
5.3268341609e-08
5.07872590835e-07
-3.7016648199e-08
5.37871491097e-07
-3.40527224206e-08
5.64268264939e-07
5.94908129898e-07
-2.9213727961e-08
2.59538119024e-07
5.73725722825e-07
2.49471242528e-07
5.52117171243e-07
2.23582367169e-07
5.49042656827e-07
2.12228635758e-07
5.47558535233e-07
2.14353910013e-07
5.38842154036e-07
2.27626757748e-07
5.25035956831e-07
2.4653914694e-07
5.11035617377e-07
2.67941683832e-07
4.9864372721e-07
2.84438107086e-07
4.89690620507e-07
2.8530744084e-07
4.84105285422e-07
2.69734250712e-07
4.79230786982e-07
2.39393678064e-07
4.74553918163e-07
2.0782174943e-07
4.68417745957e-07
1.83131554834e-07
4.65986474143e-07
1.61855307092e-07
4.72628605862e-07
1.44257487979e-07
4.89071288494e-07
1.08484133637e-07
5.11800745399e-07
1.10330466309e-08
5.42820281651e-07
-1.0051626263e-08
5.6491012272e-07
5.95600758189e-07
-1.0191150592e-08
2.48935369794e-07
5.78348000719e-07
2.4244851072e-07
5.54825565091e-07
2.18686701028e-07
5.52556803643e-07
2.11919369552e-07
5.51189996102e-07
2.18088414655e-07
5.42282079865e-07
2.36003501386e-07
5.28790008757e-07
2.61319098769e-07
5.15963515908e-07
2.87638641864e-07
5.06399237222e-07
3.01913924486e-07
5.01672284896e-07
3.01804166884e-07
4.99054303995e-07
2.8676813251e-07
4.95683220324e-07
2.5543993036e-07
4.92151795399e-07
2.22879347983e-07
4.86949139227e-07
1.9957503176e-07
4.82246038367e-07
1.81785166021e-07
4.85317099104e-07
1.68131377081e-07
4.98720145036e-07
1.4143067396e-07
5.19557988819e-07
6.29814281091e-08
5.48932870919e-07
1.41323201267e-08
5.68548177957e-07
5.98833676151e-07
8.89843920172e-09
2.28585416996e-07
5.92038968806e-07
2.23170561544e-07
5.6127898363e-07
2.05520890305e-07
5.55647095078e-07
2.0697402029e-07
5.52596624311e-07
2.21346138757e-07
5.43931827511e-07
2.4709989231e-07
5.32016688955e-07
2.78665234865e-07
5.21662832704e-07
3.02011291337e-07
5.16412693947e-07
3.11900203537e-07
5.1570832054e-07
3.1284873413e-07
5.16096064875e-07
2.99472088292e-07
5.14833841374e-07
2.69266665506e-07
5.1300098104e-07
2.33666468719e-07
5.096658803e-07
2.08865312749e-07
5.02316371326e-07
1.92700725808e-07
5.0130276818e-07
1.78484877332e-07
5.1083028379e-07
1.5461339033e-07
5.2914684852e-07
9.36196265635e-08
5.55993307058e-07
3.23652026057e-08
5.74615965973e-07
6.03790369264e-07
2.31959325873e-08
2.24870530106e-07
6.08684714556e-07
2.2474147724e-07
5.70234874194e-07
2.0448999181e-07
5.6034098972e-07
2.09720573538e-07
5.5412933585e-07
2.2986266143e-07
5.45489029054e-07
2.61328629649e-07
5.35793642112e-07
2.91781245347e-07
5.28873768117e-07
3.09478391587e-07
5.28417175876e-07
3.1888946193e-07
5.31060095076e-07
3.21532858587e-07
5.34130274997e-07
3.1102340862e-07
5.35337071676e-07
2.8215426781e-07
5.36947727945e-07
2.39651575255e-07
5.37052025875e-07
2.10778242153e-07
5.24652720771e-07
1.94483405769e-07
5.19049994455e-07
1.77694418335e-07
5.23552144348e-07
1.52558492792e-07
5.38344739605e-07
1.02404344616e-07
5.61924513185e-07
4.04454817838e-08
5.82106760301e-07
6.09309299711e-07
2.93813869835e-08
2.26068439385e-07
6.2438321953e-07
2.31900938658e-07
5.79073357185e-07
2.11897480093e-07
5.64830426162e-07
2.19325059867e-07
5.56016117421e-07
2.42141398504e-07
5.47919668785e-07
2.74642003503e-07
5.4084010322e-07
2.99010701328e-07
5.37719294215e-07
3.13514550039e-07
5.4093499155e-07
3.25180928679e-07
5.46345340073e-07
3.30352018037e-07
5.5156479369e-07
3.25029627083e-07
5.55646102629e-07
2.90136140262e-07
5.61461422652e-07
2.37600379598e-07
5.63193197315e-07
2.06928150956e-07
5.49020885695e-07
1.88627822588e-07
5.36236563041e-07
1.68008624388e-07
5.34729198719e-07
1.39725756976e-07
5.45089770047e-07
9.59724232141e-08
5.6590317658e-07
3.75764740592e-08
5.89706912524e-07
6.13727229832e-07
2.66122975718e-08
2.28454781525e-07
6.37803333821e-07
2.43388341279e-07
5.86494309912e-07
2.26770635503e-07
5.68971714996e-07
2.35580020421e-07
5.59560350821e-07
2.57524253392e-07
5.5310579608e-07
2.84954955016e-07
5.48575606676e-07
3.03528833943e-07
5.48548583487e-07
3.18573428088e-07
5.54083501637e-07
3.31551696309e-07
5.61223482802e-07
3.39875826832e-07
5.68104189434e-07
3.30394048851e-07
5.75447501141e-07
2.80378413503e-07
5.82706690485e-07
2.34232490024e-07
5.84039504178e-07
2.02484635171e-07
5.74352368098e-07
1.79468865754e-07
5.52758852195e-07
1.54399733925e-07
5.4455274364e-07
1.23119605317e-07
5.4954021347e-07
8.12043678623e-08
5.6729714562e-07
2.99399975256e-08
6.01004785608e-07
6.1632396582e-07
1.7754148151e-08
2.267399163e-07
6.49657335578e-07
2.52044669771e-07
5.92549462618e-07
2.41409018387e-07
5.74045290822e-07
2.51335536056e-07
5.66750778118e-07
2.70494372837e-07
5.63286064184e-07
2.92017388795e-07
5.61059166371e-07
3.07846737633e-07
5.62667023568e-07
3.22033457327e-07
5.69299659893e-07
3.34583487133e-07
5.77327591508e-07
3.40834998233e-07
5.8580833629e-07
3.07998625783e-07
5.94322960147e-07
2.61674964494e-07
5.99408401696e-07
2.28192246504e-07
6.00795941077e-07
1.96129502013e-07
5.95449225248e-07
1.68810572878e-07
5.72961948395e-07
1.39851166526e-07
5.5418700827e-07
1.06709079544e-07
5.53208385095e-07
6.50309613855e-08
5.67540170805e-07
2.39178122333e-08
6.02749386873e-07
6.1860639888e-07
6.50608143165e-09
2.19318804334e-07
6.61675434864e-07
2.54929634301e-07
6.00215743493e-07
2.48426154563e-07
5.83129122167e-07
2.5769167405e-07
5.79763431548e-07
2.74159786809e-07
5.79960865755e-07
2.92822633596e-07
5.79375256726e-07
3.06764471803e-07
5.81060113766e-07
3.18678004127e-07
5.87519408818e-07
3.26413228141e-07
5.95163375898e-07
3.05431394003e-07
6.02309892485e-07
2.66275992613e-07
6.08844867863e-07
2.41202276549e-07
6.12339703466e-07
2.13409553704e-07
6.13548651535e-07
1.8588147979e-07
6.10510153271e-07
1.53616344791e-07
5.94050553703e-07
1.23807552979e-07
5.63167465911e-07
9.00335829587e-08
5.56968658408e-07
4.91902959704e-08
5.67512910824e-07
6.99735952175e-09
5.9428744045e-07
6.20692649617e-07
-7.42583263305e-09
2.37043212342e-07
6.67234054392e-07
2.83775229837e-07
6.12344191543e-07
2.63246949284e-07
6.01572449068e-07
2.62437699608e-07
6.04209290694e-07
2.71736986615e-07
6.06948210691e-07
2.85570875571e-07
6.04735836454e-07
2.93040764497e-07
6.03732044473e-07
2.91746015872e-07
6.07338469875e-07
2.73589898634e-07
6.11101586769e-07
2.43825970654e-07
6.14299737166e-07
2.25969281316e-07
6.16605485044e-07
2.09097835809e-07
6.18951523701e-07
1.88301778849e-07
6.21112658315e-07
1.62711856673e-07
6.20208012535e-07
1.34640606484e-07
6.09394894541e-07
1.08337976638e-07
5.73666207619e-07
7.47705267925e-08
5.61213499839e-07
3.56496306531e-08
5.67360236547e-07
-6.90636296153e-09
5.88552689534e-07
6.33668546719e-07
-2.68255598522e-08
2.65269836946e-07
6.72630509937e-07
3.10547242665e-07
6.30688105055e-07
2.73057427867e-07
6.31562710244e-07
2.52073868947e-07
6.44271241766e-07
2.4365447417e-07
6.45463471972e-07
2.42117710874e-07
6.3422099793e-07
2.3211575308e-07
6.26968842596e-07
2.12802668445e-07
6.25555972015e-07
1.92376612353e-07
6.2329010351e-07
1.8062110188e-07
6.19721156531e-07
1.75602198941e-07
6.17316884204e-07
1.68812845431e-07
6.18942509955e-07
1.55665828642e-07
6.23169159336e-07
1.36202015928e-07
6.24659805113e-07
1.16414558514e-07
6.17445763091e-07
9.41238215514e-08
5.84302060943e-07
6.13252055631e-08
5.64571412041e-07
2.28842616512e-08
5.66121609709e-07
-1.75122246677e-08
5.82557835364e-07
6.28440494898e-07
-5.79047979973e-08
2.89527908627e-07
6.76504610358e-07
3.10351321244e-07
6.51771775053e-07
2.48432892808e-07
6.73368422216e-07
1.89977537487e-07
7.0305743313e-07
1.54270394043e-07
6.94568232253e-07
1.37947273443e-07
6.6375217991e-07
1.22462321912e-07
6.46953152614e-07
1.10860982181e-07
6.38327994903e-07
1.07634956539e-07
6.28318574764e-07
1.12313954058e-07
6.18146877897e-07
1.19341913843e-07
6.13034935426e-07
1.2206433123e-07
6.12998909416e-07
1.1822503278e-07
6.17256936592e-07
1.09201761009e-07
6.20926574579e-07
9.77518365657e-08
6.16776767395e-07
8.14668251611e-08
5.90921647742e-07
5.15917803573e-08
5.65710419778e-07
1.07730367583e-08
5.62733390326e-07
-2.82507162877e-08
5.74973589154e-07
6.05738125707e-07
-8.31962789008e-08
2.99859226502e-07
6.73796220172e-07
2.76269343046e-07
6.72288284678e-07
1.84539503109e-07
7.26855817417e-07
8.77985109551e-08
7.81085397518e-07
3.24442759172e-08
7.49031703555e-07
1.42587251943e-08
6.89334027742e-07
1.13815810442e-08
6.5798209604e-07
1.76486183084e-08
6.40007822224e-07
3.03214124568e-08
6.23164528283e-07
4.7276390126e-08
6.08718547925e-07
6.2577992939e-08
6.03646302625e-07
7.29059646735e-08
6.02389077769e-07
7.96623069784e-08
6.03968037874e-07
8.29687972149e-08
6.07853779091e-07
8.38868737481e-08
6.07425736581e-07
7.38377849894e-08
5.92181390476e-07
4.72265062502e-08
5.6535346298e-07
4.32245616225e-09
5.56775572527e-07
-3.43018170269e-08
5.64855163881e-07
5.8877198732e-07
-7.51585506708e-08
2.86921995685e-07
6.6881407874e-07
2.26248896459e-07
6.91399170163e-07
1.24654055849e-07
7.88131848215e-07
9.58803993164e-09
8.7313234047e-07
-5.36495148757e-08
8.01792478208e-07
-7.10590495572e-08
7.0829483689e-07
-6.28995570785e-08
6.5855477218e-07
-4.42185656083e-08
6.30667588183e-07
-2.15852798289e-08
6.08817984664e-07
1.23280559134e-09
5.92774128672e-07
2.26909039559e-08
5.88984356157e-07
4.04120332875e-08
5.87892373116e-07
5.52516734278e-08
5.87051066166e-07
6.98398550253e-08
5.88864985173e-07
8.10527783731e-08
5.9132653345e-07
7.42769440564e-08
5.87678256021e-07
4.8586947121e-08
5.6531244204e-07
6.47886244415e-09
5.4748428856e-07
-3.35205959175e-08
5.51667693709e-07
5.71667643282e-07
-6.79040000514e-08
2.8207581088e-07
6.5591255868e-07
2.18894760218e-07
6.99303212753e-07
1.23168168928e-07
8.49339202553e-07
6.95385740372e-10
9.77667757787e-07
-6.59199771575e-08
8.53495946478e-07
-8.82040443852e-08
7.23269248877e-07
-7.92265877343e-08
6.53696015397e-07
-5.71524660649e-08
6.16450468205e-07
-3.17532895007e-08
5.91117830646e-07
-7.0790125709e-09
5.75265274472e-07
1.85004446839e-08
5.72913743543e-07
4.1090536976e-08
5.7259577199e-07
5.97186078046e-08
5.7059785811e-07
7.80186757263e-08
5.70134075913e-07
8.96487163571e-08
5.7358676667e-07
8.13232444522e-08
5.79076260398e-07
5.8221738712e-08
5.64782723378e-07
2.16566108664e-08
5.37935934409e-07
-2.1275665359e-08
5.37756918852e-07
5.55290827142e-07
-5.50015748908e-08
2.71867504002e-07
6.43227180924e-07
2.18161173155e-07
7.01045597855e-07
1.3240834496e-07
9.11238698078e-07
3.77421774064e-08
1.06434907794e-06
-1.99101557852e-08
8.99383893674e-07
-4.35218592256e-08
7.37709498134e-07
-3.8969602578e-08
6.50694600928e-07
-2.02200620363e-08
6.05535748234e-07
2.46344522238e-09
5.78102665956e-07
2.51935613958e-08
5.62931415507e-07
5.0352693374e-08
5.61196435354e-07
7.32526702133e-08
5.61453467777e-07
9.08143793138e-08
5.59158752606e-07
1.04980636781e-07
5.57226929598e-07
1.10044760634e-07
5.60786830764e-07
9.87391241684e-08
5.71607769457e-07
7.96922950487e-08
5.6352206127e-07
4.84028792596e-08
5.34738151604e-07
5.8114396975e-09
5.27271022749e-07
5.41653923792e-07
-2.98482801591e-08
2.5449245057e-07
6.41558194793e-07
1.97012389907e-07
7.14281507808e-07
1.34677342241e-07
9.5760823355e-07
1.01542813996e-07
1.09387009736e-06
4.86165581851e-08
9.45189890608e-07
2.87983205334e-08
7.53626988239e-07
3.07235536765e-08
6.53924997344e-07
4.50481878121e-08
6.02865446241e-07
6.35381848005e-08
5.73822648008e-07
8.25640177595e-08
5.5900952428e-07
1.03942393296e-07
5.57184812795e-07
1.23475224531e-07
5.57505961198e-07
1.37425590524e-07
5.55181188922e-07
1.45521291683e-07
5.5249224565e-07
1.43825248401e-07
5.55537761361e-07
1.29123358086e-07
5.68631361176e-07
1.08436549711e-07
5.64175298805e-07
7.88928844363e-08
5.38449791967e-07
4.05818631044e-08
5.22295653021e-07
5.32344059612e-07
4.5545344077e-09
2.38234854785e-07
6.50592802792e-07
1.74004126924e-07
7.40091683121e-07
1.30161290603e-07
9.88124854022e-07
1.14300529406e-07
1.10461339875e-06
8.89848656099e-08
9.65827879661e-07
8.502422285e-08
7.58640505981e-07
9.24248361051e-08
6.56588792715e-07
1.07505744975e-07
6.04017030443e-07
1.2544991618e-07
5.74953233405e-07
1.43015697784e-07
5.61332039689e-07
1.61097733569e-07
5.59807853839e-07
1.76844686678e-07
5.60098523264e-07
1.87220310554e-07
5.57832240761e-07
1.9105732667e-07
5.54848629491e-07
1.83706947749e-07
5.5723157905e-07
1.63474755006e-07
5.70972357241e-07
1.37263070785e-07
5.68609491547e-07
1.07264915458e-07
5.46441518034e-07
7.5065737838e-08
5.23166558188e-07
5.28061314622e-07
3.98208569182e-08
2.19198826392e-07
6.75609348073e-07
1.40544515637e-07
7.85451977173e-07
9.8443674662e-08
1.0185400482e-06
8.26925513789e-08
1.11331319999e-06
1.02199129791e-07
9.42270926006e-07
1.17808579336e-07
7.47407791142e-07
1.34792251103e-07
6.53729873495e-07
1.5493944918e-07
6.04625014145e-07
1.76211431383e-07
5.78142398135e-07
1.94947817039e-07
5.6733284016e-07
2.11041024766e-07
5.66742567556e-07
2.24018813253e-07
5.67240091848e-07
2.3164300533e-07
5.65219361935e-07
2.3297624049e-07
5.62320688538e-07
2.20204745035e-07
5.64473307727e-07
1.94733525179e-07
5.78271789933e-07
1.64126121118e-07
5.7730416046e-07
1.32437210995e-07
5.57753824431e-07
1.05023516999e-07
5.2922163557e-07
5.28753778807e-07
7.30311775294e-08
2.16526072205e-07
7.06718540611e-07
1.16838186633e-07
8.50615489957e-07
6.60539774018e-08
1.05744490119e-06
4.87755903985e-08
1.12161925103e-06
1.03918411893e-07
8.84606346433e-07
1.35688312511e-07
7.24899210455e-07
1.63121221733e-07
6.46053314651e-07
1.90808676436e-07
6.03966656162e-07
2.16703067626e-07
5.82337850457e-07
2.36300572266e-07
5.75552610169e-07
2.50790117695e-07
5.76200410772e-07
2.61827449314e-07
5.77134229175e-07
2.67356073738e-07
5.75489148988e-07
2.66780711572e-07
5.72978941232e-07
2.49627017988e-07
5.75526039298e-07
2.2039538469e-07
5.89316977426e-07
1.87026896992e-07
5.8950232164e-07
1.54418483277e-07
5.71815000242e-07
1.30073239804e-07
5.39617412968e-07
5.33857369153e-07
1.01882183222e-07
2.12600105654e-07
7.46668426015e-07
7.15471338553e-08
9.53847959512e-07
1.97023869477e-08
1.09861951585e-06
4.22291375461e-08
1.08891361474e-06
1.06263257122e-07
8.2159330829e-07
1.47747009756e-07
6.98522942229e-07
1.83926980454e-07
6.35532094398e-07
2.18407205144e-07
6.02074899529e-07
2.47147782888e-07
5.86887666612e-07
2.66415802862e-07
5.8442117725e-07
2.8003432401e-07
5.86519873487e-07
2.8984777969e-07
5.88124082779e-07
2.93865329016e-07
5.86999543954e-07
2.91728456816e-07
5.85163904206e-07
2.71531052015e-07
5.88717309357e-07
2.40068331566e-07
6.02712030885e-07
2.06166552038e-07
6.04105217036e-07
1.73960610978e-07
5.8816141298e-07
1.51312216695e-07
5.5373392792e-07
5.42514458094e-07
1.25969022071e-07
2.14706937164e-07
7.88891675152e-07
-5.63739872983e-08
1.18320366929e-06
-6.10322999308e-08
1.09916318847e-06
5.30244542808e-08
9.68082893972e-07
1.1383015025e-07
7.6525224025e-07
1.58733351642e-07
6.71923410406e-07
1.99991154125e-07
6.23385915346e-07
2.38276623975e-07
5.99037047596e-07
2.67579823761e-07
5.9108935395e-07
2.86584127056e-07
5.9244192521e-07
3.00629961373e-07
5.96214043525e-07