/*--------------------------------*- C++ -*----------------------------------*\
| =========                 |                                                 |
| \\      /  F ield         | OpenFOAM: The Open Source CFD Toolbox           |
|  \\    /   O peration     | Version:  2312                                  |
|   \\  /    A nd           | Website:  www.openfoam.com                      |
|    \\/     M anipulation  |                                                 |
\*---------------------------------------------------------------------------*/
FoamFile
{
    version     2.0;
    format      ascii;
    arch        "LSB;label=32;scalar=64";
    class       volScalarField;
    location    "0.145/water";
    object      k.gas;
}
// * * * * * * * * * * * * * * * * * * * * * * * * * * * * * * * * * * * * * //

dimensions      [0 2 -2 0 0 0 0];

internalField   nonuniform List<scalar> 
1496
(
5.7808668621
2.05374569627
0.829834886821
0.388411107445
0.211474300307
0.124723875763
0.0809941887782
0.0570852956248
0.0427969754033
0.0333200830184
0.0263665811909
0.0208491195722
0.0162501924682
0.0122898826994
0.00890162746008
0.0061950181975
0.00420155360093
0.00285866041432
0.00207688845914
0.00163106293619
6.21992494955
2.2666442359
0.959953757552
0.458631836977
0.246721780356
0.146963403456
0.0921901473768
0.0613128087731
0.0434588271995
0.0326487271986
0.0254910201128
0.020183221583
0.0158232657853
0.0120095441941
0.00874813439071
0.00617246605836
0.00429782866502
0.00313399549484
0.00250961314233
0.00169744345181
6.34752480986
2.40992096272
1.07600920963
0.528394858697
0.290616834004
0.17005262296
0.103877813365
0.0664309796047
0.0451638733035
0.0329434578958
0.0253978426116
0.0200862974376
0.0157725296787
0.011975414048
0.00875625479527
0.00627490681757
0.00457488946839
0.00364952541439
0.00305217083441
0.00177486198832
5.93804063913
2.45028679148
1.14358982997
0.583126818311
0.318694761247
0.183982891278
0.110909343954
0.069782646305
0.0466581411354
0.0336775732178
0.0259297786526
0.0205306643864
0.0160505184242
0.012104797561
0.00889491888038
0.00657815508227
0.00514705595615
0.00444928181947
0.00307608152807
0.00200733932191
5.23123307784
2.32332580996
1.1279865881
0.583745748762
0.318480595641
0.183376461414
0.110629637707
0.0699549765873
0.0472466951888
0.0345801126194
0.0268473772301
0.021162751276
0.0163541813488
0.0122940091712
0.00922635411222
0.00720114104579
0.00604480667503
0.00481772508392
0.00324141491806
0.00230584714659
4.64330124608
2.1117105275
1.04386333709
0.540608829505
0.295046012865
0.170651820659
0.104195285836
0.0674520887667
0.0471108549784
0.0353893085855
0.0276191460378
0.0216061424834
0.0165960026843
0.0126168458065
0.00985373428297
0.00817229225679
0.00681719574579
0.00475785714274
0.00361907591583
0.0026101134643
4.09516637428
1.88271523899
0.920814500882
0.474206120045
0.259139457362
0.151411816969
0.0946324362237
0.0638004091185
0.0465248715876
0.0357391337622
0.0280139325553
0.0218695476028
0.0168832348751
0.0131816431432
0.0108112442962
0.00914038791443
0.00657778444564
0.00502849829143
0.00406799860645
0.00290856658957
3.4957224595
1.58817541928
0.77087423951
0.396900269862
0.218964683897
0.13080369322
0.0848639261998
0.0601024354901
0.0454679048983
0.0355881998657
0.0281537299642
0.0221196041957
0.0173686423731
0.0140301688692
0.0116727125582
0.00872086384482
0.00650242917827
0.00560328674495
0.00455111153386
0.00321617120078
2.942840637
1.29524566292
0.622289535769
0.322455548258
0.182324460995
0.113207231759
0.0768638847714
0.0566880828848
0.0439984470707
0.0351695743967
0.0282994949644
0.0225678553077
0.018059306931
0.0145718904369
0.0108800421494
0.00793070303166
0.00695680648864
0.00635415457879
0.00505185003071
0.00353198791607
2.46961867386
1.05090960729
0.5000728749
0.263833540711
0.15621226632
0.101667992799
0.0712987980734
0.0535219972823
0.0423898049552
0.0348303452755
0.0286211149942
0.0228829891947
0.0177472198012
0.012882973987
0.00935936517265
0.00787208312013
0.00768402455186
0.00718119705256
0.00556360528531
0.00385852497552
2.048321406
0.875305579521
0.417980348555
0.230553092455
0.145983286241
0.0981764002529
0.0685533154832
0.0512377175067
0.0414590368924
0.0347572088114
0.0279769374974
0.0206730639638
0.0147546687391
0.0109220152477
0.00876036797323
0.00810800569401
0.0083271610372
0.00793779193874
0.00606718718379
0.00421010828086
1.72210836594
0.772329685956
0.383301974698
0.22791728615
0.155218164698
0.105126380468
0.0716530597499
0.0531064637605
0.0426031413216
0.0337381530691
0.0245657965719
0.0174597773541
0.0128645773846
0.010071644141
0.00854412718528
0.00817804888214
0.00858003009155
0.00839849554724
0.00651137967459
0.0045445117928
1.62478175709
0.768281000529
0.39639191878
0.250127936011
0.18155163357
0.127428401464
0.0871886784649
0.0632873280257
0.0470232635402
0.03391214343
0.024113469563
0.0173978520964
0.0129962970746
0.0101924760298
0.00857205188036
0.00804084703921
0.00831555436063
0.00836882268706
0.00683078264085
0.00484118434789
1.85028998508
0.861052303277
0.426750934794
0.268614159121
0.204333881027
0.150825712541
0.107408415438
0.0784620506541
0.0581022423576
0.0424854537685
0.0308069597114
0.0222742649555
0.0161719501274
0.0119477393466
0.00930973192333
0.00804043064894
0.00777795941464
0.00783278296653
0.00694137798899
0.00507275104103
2.26687743468
0.968068747662
0.442259385912
0.267234867888
0.205814619104
0.161813158306
0.122925948947
0.094927710928
0.0751302359505
0.0588248915977
0.0448026775544
0.0333890189142
0.0242005324068
0.0168605034568
0.0116759006182
0.00873964072604
0.00745494714236
0.00708249511932
0.00668738989633
0.00521774669821
2.38059381191
0.963059182927
0.435777246632
0.256885957294
0.197783988334
0.162906703672
0.133015893955
0.109650844264
0.0917097466819
0.0760404562245
0.0616610263769
0.0486488156172
0.0370506924938
0.0263899271753
0.0171567342712
0.0109025453377
0.00775706005881
0.00654264012595
0.00611414151792
0.00520770477646
2.30042692771
0.957649797614
0.438015744983
0.251640192442
0.189306724293
0.158892638812
0.135493427516
0.116575734818
0.100826144322
0.0869278185425
0.0742363334708
0.0628098285193
0.0516366547359
0.0397140100059
0.0268422858509
0.0156470852736
0.0092339548857
0.00649395623481
0.00555450598206
0.00494322241607
2.20638454736
0.936596019453
0.434559332563
0.24537439355
0.178735623547
0.149662386434
0.130657841421
0.115661293205
0.1030896217
0.091815340304
0.0815112399498
0.0719127340465
0.0625569644543
0.0525243349968
0.0396581860777
0.0238226628258
0.0126244757396
0.00717873987252
0.0053242105073
0.00450248635019
2.11504067646
0.903939166735
0.421921858949
0.234630112104
0.166055534449
0.137718553382
0.121633209569
0.110025608608
0.100431417976
0.0919853961134
0.0841586104128
0.0768290966414
0.0694472121527
0.0611707680652
0.0502526970219
0.034999441039
0.017854191035
0.00883291562576
0.00554356870154
0.00419363865105
2.02400375674
0.864346239845
0.401560896691
0.219544715508
0.152036271678
0.124965067731
0.111388235869
0.102497144567
0.0955435326056
0.0894199841261
0.0837974928337
0.0783533278964
0.0728033729646
0.0662821023333
0.0572041393695
0.0435614409002
0.0237658293104
0.0113604359682
0.00619377707047
0.00419982351893
1.9332034626
0.818639682803
0.375296749522
0.201237032792
0.136890523254
0.112398501636
0.101436126297
0.0950510587136
0.0901960664111
0.0859541539967
0.0819152607096
0.0779591327163
0.0737112001024
0.0685798064675
0.0611807171976
0.0491119465995
0.0295559938741
0.0141741975223
0.0071579331788
0.00447712284598
1.83594288262
0.766582549335
0.344083679811
0.180446125034
0.121081369316
0.10038510522
0.0925219416646
0.0885527741981
0.0855465752479
0.0826212340014
0.0796845135552
0.0765933541789
0.0731702125386
0.0688029787674
0.0624160954488
0.0516472921868
0.0331669776427
0.0161359394865
0.00808507804644
0.00484495179936
1.74330244882
0.705520652275
0.307128066846
0.156831124776
0.105022983604
0.0893383917188
0.0848091055039
0.0833966666267
0.0819937881323
0.0800382665544
0.0776457812309
0.0749953079924
0.0718848453484
0.0678926126137
0.0620335083962
0.0522438698092
0.0346651671687
0.0170339857641
0.00866157122629
0.00512060348896
1.66293026398
0.643141894136
0.271485661356
0.137134258922
0.0903676170103
0.0783749615283
0.0779547396222
0.079210392426
0.0792553298538
0.0778683010414
0.0757045136919
0.0730838210435
0.0700035268758
0.0660162124079
0.0603323936972
0.0509963187894
0.0338333579498
0.0168158876673
0.0087955870457
0.00524168911549
1.59853062588
0.580051845032
0.237975055574
0.123710895056
0.0805442124307
0.0689390476353
0.072088772322
0.0753791185419
0.0763141277503
0.0752265807675
0.0730580048712
0.0703733441527
0.067147440072
0.0630567894279
0.0573205272853
0.0480423364003
0.0306334682147
0.015625686202
0.0085688226703
0.00521803217578
1.52351861529
0.537662331159
0.222248176622
0.115088644359
0.0753466962906
0.0632757632627
0.0672399913618
0.0712298192725
0.0724595299486
0.0714230561969
0.0692412562666
0.0664583034194
0.0631326707198
0.0589111632948
0.0530825556787
0.0434649508833
0.0259697151768
0.0139476873197
0.00814480065452
0.00509574892424
1.50602496284
0.487656582233
0.209138841658
0.110850926978
0.0730883203476
0.0601356325882
0.0626083659511
0.0664404023328
0.0676392318455
0.0665734110525
0.0643248271601
0.0614725113344
0.0580301065855
0.0537012121369
0.0476385428465
0.0372270478714
0.0214997946079
0.0122917179892
0.00767696911118
0.00492822109336
1.73567092415
0.51868309543
0.212896188709
0.111228329804
0.0722794037658
0.0575591202006
0.0572106696412
0.0610543911457
0.0621445455888
0.0610050421552
0.0586950789145
0.0557382299823
0.0521882419383
0.047688536485
0.0411388725586
0.0297411928793
0.0176874989322
0.010928670375
0.00726039189147
0.00475446051666
2.06830676228
0.61681190542
0.244435558456
0.119212526409
0.0730996102466
0.0554276896593
0.0515524585452
0.0548620877845
0.0559034319287
0.0548383090522
0.0525584061601
0.0495564180971
0.0458683387087
0.0411019832446
0.0338330062567
0.0230696501555
0.0147794320476
0.00994645272277
0.00694508604548
0.00454055430994
2.42762247758
0.744866960272
0.300068498153
0.137573832436
0.0770355085191
0.054352215817
0.0469489988977
0.0478191313032
0.0489489573908
0.0481988161143
0.0461442994064
0.0431384135005
0.039233978042
0.0340240840585
0.02649678746
0.018401721327
0.0128628374258
0.00932025803088
0.00670199655637
0.00414782495657
2.90234827526
0.909401152603
0.369552568112
0.161939220496
0.0831755779393
0.0544919121111
0.0438112186965
0.0414031814691
0.0418082690659
0.0413958915723
0.0397152195363
0.0367387023219
0.0325981137462
0.027238497052
0.0209161028491
0.0155549335007
0.0117746484603
0.00894984672841
0.00627505018408
0.00359217353024
3.47275045094
1.09162864733
0.443072268998
0.188179228127
0.0908219482436
0.0561840535908
0.0425951440737
0.037246464378
0.0357185028533
0.0350503722794
0.0336495308374
0.03080332035
0.0267982814162
0.02208708876
0.0176230911983
0.01404741316
0.0111528857954
0.00844307611467
0.00543706525678
0.0031512856033
4.04268920544
1.2627316355
0.510428963517
0.212701749246
0.0997011676395
0.0597941706643
0.0435979881434
0.0358730510031
0.0321694731203
0.0303639315787
0.0287605195121
0.0261565843654
0.0227353722
0.019127791516
0.0159393673583
0.0130838359207
0.0103801380019
0.0073391687161
0.00458184972433
0.00290165202068
4.46977579657
1.39179134154
0.557252006095
0.230545318184
0.109148573443
0.065640830228
0.0470117225702
0.037134929064
0.0315197738596
0.0283415053862
0.0261340500102
0.0236876541095
0.0207713063467
0.0176916636448
0.0147133430963
0.0118282380278
0.00892014016759
0.00606307370051
0.00401806105082
0.00278438549028
4.53476519922
1.42692766116
0.566344516136
0.240115108385
0.11946422775
0.0740218505494
0.0531067958962
0.0411719226441
0.0337442884266
0.029214512546
0.026305346554
0.023706754405
0.0203672557439
0.0166776862705
0.0132006779305
0.0100350070137
0.00730743273955
0.00516868492893
0.00369190540854
0.00273508645469
3.98548947693
1.35586676743
0.5555182125
0.251929033078
0.133122608617
0.0852856782195
0.0619509056086
0.0481385683944
0.0391192736305
0.0332567246413
0.0294104667965
0.0256004193667
0.0207365701
0.0159913221194
0.0119495151052
0.00870157247744
0.00635344478771
0.00469120415891
0.0035239311445
0.00271589092571
3.43614345914
1.24612522547
0.53588947765
0.259900024153
0.146470441699
0.0970489987632
0.0718156973031
0.0566242939241
0.0464782340166
0.0395145565971
0.0341925465459
0.0284328009679
0.0221549729887
0.0165756308132
0.0120777999225
0.00869966533385
0.00638638272195
0.00478622781961
0.00366313455765
0.00286178755677
7.34756492536e-05
9.30115137193e-05
0.000130714521578
0.00014839288713
0.000124832929345
8.40320976907e-05
0.000252869689446
0.00198743461219
0.00739606029378
0.0139532697898
0.0197431885718
0.0245493093204
0.0286927072266
0.0332351627662
0.0408935257332
0.0586303165916
0.000660602154398
0.000261968417122
0.000118430088096
6.77772190565e-05
7.21020938366e-05
0.000104433624028
0.000141631727214
0.000152871636348
0.000116871651183
8.2344426844e-05
0.000294968258873
0.00211344597563
0.00754839722498
0.0141140493709
0.0199321676447
0.0247879498823
0.0289756787492
0.0335107516273
0.0410302015272
0.0585687411974
0.000735407918073
0.000295182385073
0.00012493535701
7.25893383496e-05
7.51841120497e-05
0.000115822379408
0.000152076900265
0.000154584381984
0.000107950822397
8.47858296911e-05
0.000337505301001
0.00220641920132
0.0076186061021
0.0141851753522
0.0200435107925
0.024970373058
0.0292284124317
0.0337794369396
0.041155656798
0.0583586821511
0.000870782612596
0.000347067768133
0.000135633509524
8.07007212854e-05
8.20489171493e-05
0.00012649856782
0.000162076416843
0.000153606069801
0.000101249537127
8.91972567831e-05
0.000367346886319
0.00223693859324
0.00758179390064
0.0141511204331
0.0200679688293
0.0250908697619
0.0294471530338
0.0340401089909
0.0412766479837
0.05801369853
0.00107588132416
0.000425431414338
0.000155914362626
7.90983788029e-05
8.92482146188e-05
0.000135663738847
0.000170151790543
0.000151162415134
9.80200644297e-05
9.14156007603e-05
0.000370337437462
0.0021820674675
0.0074290520883
0.0140119364275
0.0200070916093
0.0251498695073
0.0296303219094
0.0342912331448
0.0414027832694
0.0575775055681
0.00133332331545
0.00054020312539
0.000186674418456
8.25296800271e-05
9.20416434422e-05
0.000140012130031
0.000173175885082
0.000149543638737
9.82020857577e-05
9.0321506463e-05
0.000346356859056
0.00204654529843
0.0071683703333
0.0137759857623
0.0198679230377
0.0251519407894
0.0297802510164
0.0345347989846
0.0415436718432
0.0571013073186
0.00160357067024
0.000703401761698
0.0002333025865
9.03734720781e-05
8.98443402428e-05
0.000136570687124
0.000170992345834
0.000150350323296
0.000101339178228
8.72452671111e-05
0.000303604359482
0.0018510261768
0.00682093971475
0.0134598260564
0.0196626226244
0.0251048033225
0.0299015639049
0.0347753779695
0.0417113680814
0.0566343470553
0.00191702825303
0.00092913027425
0.000305653466708
0.000107582362183
8.70968281205e-05
0.000130526176964
0.000168561968391
0.000154739149611
0.000107486834875
8.45010929732e-05
0.000252707888195
0.00162056779576
0.00641118501263
0.0130807251053
0.0194029901755
0.025015411167
0.0299981334905
0.0350170700785
0.0419167468309
0.0562194980991
0.00222269643223
0.001195537389
0.000415083017179
0.000121002580153
8.24564322343e-05
0.000121956125482
0.000165064206872
0.000161501441299
0.000116714299221
8.40541108929e-05
0.000202226345924
0.00137640363948
0.00596063285082
0.0126534326564
0.0190991365339
0.0248895914176
0.0300728253712
0.0352628777292
0.042168880154
0.0558928035371
0.00248924920741
0.00147655952877
0.000539298280991
0.000145636793063
7.78794362688e-05
0.000108475146054
0.000155645078224
0.000167135084003
0.000128537394768
8.72124266647e-05
0.000158361809036
0.001136888504
0.00549078355766
0.0121934560123
0.0187625168733
0.0247345716614
0.0301293005777
0.0355157522916
0.0424758455536
0.0556848461444
0.00274606749343
0.00176950897147
0.000708174342532
0.000206811420933
8.18651121166e-05
9.26489523083e-05
0.000139400251277
0.000167475604621
0.000141394100883
9.45207161634e-05
0.000125252319624
0.000918894378266
0.00502494973928
0.0117181064586
0.0184062575986
0.024559025355
0.0301719722059
0.0357784381564
0.0428445789714
0.0556203725287
0.00299320424779
0.00201579205374
0.000912663765785
0.000284903439532
0.00010435876314
7.79770602449e-05
0.000117992335769
0.000158422024663
0.000151715784009
0.00010543271379
0.000103992782269
0.000732943951133
0.00458252903093
0.0112427205257
0.0180423885178
0.0243712240596
0.030204800866
0.0360524497996
0.0432800332738
0.055719683503
0.0032190632803
0.00219223743121
0.00110778499427
0.000367261826808
0.000107661091491
6.88318058312e-05
9.44625632996e-05
0.000138651101734
0.000153798193634
0.000117822779972
9.32517737071e-05
0.000581646543735
0.00417646916123
0.0107804527315
0.0176824601773
0.0241800743622
0.030232423137
0.0363387524864
0.0437854794967
0.056002925272
0.00339670896757
0.002322141911
0.00129842217843
0.000453452641848
0.000147301098321
7.29395856532e-05
7.32669716757e-05
0.000112244972932
0.00014293747204
0.000127224303482
9.08993477389e-05
0.000464867561835
0.00381827282189
0.0103467630239
0.0173412662055
0.023998125882
0.0302626627482
0.036639623598
0.0443633166393
0.0564914211293
0.00353438835292
0.00240227027956
0.00141659904041
0.000537653758024
0.000188254476892
7.66189895146e-05
5.91203432044e-05
8.63007720939e-05
0.00012109791566
0.000127680654844
9.38753679215e-05
0.000382488757218
0.00352018156461
0.00996001548607
0.0170364549648
0.0238408897345
0.0303062582884
0.0369588839136
0.0450147894332
0.0572039209903
0.00360511285732
0.00242470804882
0.00146720634855
0.000606272129224
0.000214953143282
8.10875233434e-05
5.46344079207e-05
6.57932533778e-05
9.64180849202e-05
0.000116805772807
9.74437157959e-05
0.000332200236838
0.00328997565655
0.00963678490501
0.0167842054631
0.0237229327202
0.0303739130022
0.0373002105969
0.0457384313491
0.0581521144672
0.00359461447345
0.00238302892612
0.00145772077212
0.000652505857501
0.000231503954956
9.31356794193e-05
5.66911346608e-05
5.21532408716e-05
7.56230541262e-05
9.9484114259e-05
9.69687436674e-05
0.000306621447989
0.00312368239943
0.0093899998753
0.0165989641027
0.0236575597073
0.0304753972896
0.0376666007505
0.0465294017996
0.0593391112959
0.00349081915256
0.00228790622213
0.00139943093482
0.0006658819851
0.000242793795153
0.000100041744484
4.77181965739e-05
4.46258305605e-05
6.06474894087e-05
8.28290322174e-05
9.07816656934e-05
0.000287090285301
0.00299830846737
0.0092275666349
0.0164974974094
0.0236631489893
0.0306277232911
0.0380661108701
0.0473822989238
0.0607596872476
0.00332453682772
0.00215602494465
0.00131293479837
0.000657484731928
0.000246886975667
0.000102908753924
4.70397467497e-05
4.15548833882e-05
5.08201798162e-05
7.02984516805e-05
8.21367087033e-05
0.000268253905863
0.0029003966999
0.00914713403991
0.0164862215657
0.0237461800586
0.0308369483651
0.0385041699132
0.0482947204761
0.062407842521
0.00313883691332
0.00201416943309
0.00121333646557
0.0006272455879
0.000243182785051
0.00010250699468
4.76332192517e-05
4.0762344442e-05
4.49800935159e-05
6.21592743086e-05
7.45864734795e-05
0.00025257186924
0.00282892655244
0.00913944558445
0.0165689078511
0.0239108439477
0.0311072361507
0.0389813202346
0.0492571346701
0.0642666229608
0.00298483015975
0.00188608431162
0.00111646928057
0.000581712997292
0.000232819371752
9.88502003351e-05
4.72359154446e-05
3.99943004683e-05
4.20681674738e-05
5.76621692958e-05
6.96134983295e-05
0.000243681352939
0.00279494838452
0.0092023794324
0.0167450797367
0.024157212303
0.0314396502765
0.0394975957422
0.0502593628516
0.0663069561289
0.00293129423155
0.00180222823307
0.00103091515649
0.000532599761496
0.000218693034178
9.48647401645e-05
4.64798470221e-05
3.90609392946e-05
4.13005589984e-05
5.60353374036e-05
6.73197104242e-05
0.000243885127474
0.00281783558601
0.00934901957908
0.0170100591111
0.0244808962641
0.0318316218787
0.0400509378352
0.0512901067254
0.0684916846117
0.00298414670529
0.00175222895146
0.000959537545806
0.00048588440123
0.000203370675492
9.10828400573e-05
4.58576377587e-05
3.92812931075e-05
4.22227045571e-05
5.67228901405e-05
6.72911478358e-05
0.000254516612476
0.00291412710241
0.00959460361032
0.0173545892712
0.024873517183
0.03227736253
0.0406373571317
0.0523373555195
0.0707778262518
0.00306260531902
0.00171132463898
0.000897154090264
0.000443769958386
0.000188679992971
8.78986206037e-05
4.55245845789e-05
4.08605301643e-05
4.43715023e-05
5.90801661767e-05
6.88530593008e-05
0.000275570291876
0.00308535567246
0.0099323832768
0.0177667777966
0.0253230748597
0.0327682124651
0.0412511022641
0.0533887813434
0.0731189366985
0.00310162737495
0.00166053408464
0.000840581636726
0.000407044355812
0.000176558814909
8.56487308013e-05
4.52770716652e-05
4.35671511294e-05
4.77788339871e-05
6.30305885912e-05
7.15376576156e-05
0.000307033746592
0.00332919574746
0.0103512522135
0.0182299409195
0.0258140936397
0.0332928325667
0.0418847351695
0.0544321036617
0.0754675988952
0.00307638044083
0.00159388310976
0.000789807805848
0.000377511323572
0.000168397170366
8.36464627283e-05
4.52678773555e-05
4.62810777996e-05
5.28606962711e-05
6.90909972093e-05
7.61398099308e-05
0.000354716006201
0.00366052437411
0.0108312778879
0.0187222891395
0.0263281583258
0.0338377394085
0.0425294728658
0.0554556807602
0.0777785886494
0.00299297067155
0.0015156652748
0.00074943779585
0.000358339752174
0.000164973608566
8.20452232835e-05
4.55037531706e-05
4.87137668575e-05
5.96645026631e-05
7.67952558731e-05
8.21119286384e-05
0.000418147123243
0.00404136649172
0.0113206664756
0.0192190810978
0.0268456574673
0.0343887228726
0.0431761908321
0.0564496090286
0.080012831299
0.00286565772518
0.001435025919
0.00072454888524
0.00035160583715
0.000166336337626
8.14831045701e-05
4.60688041459e-05
5.17467534621e-05
6.80738994647e-05
8.56566979104e-05
8.87532914669e-05
0.000492991437268
0.004421867945
0.0117815590996
0.0196973199748
0.0273482772147
0.0349327360984
0.0438167673593
0.0574069855882
0.0821411559077
0.00268246702635
0.00136334050865
0.000719530485618
0.000355884799475
0.000172092806479
8.19154054794e-05
5.12387354039e-05
5.61822779941e-05
7.78054876986e-05
9.53542166466e-05
9.55244111847e-05
0.000572422719025
0.00476523090516
0.0121945848141
0.0201380779191
0.0278215082716
0.0354597118255
0.0444453387315
0.0583248276749
0.084146800022
0.00243193811539
0.00131833016971
0.000735617512476
0.0003697089045
0.000181801274547
8.35195900727e-05
5.98477287217e-05
6.22211758951e-05
8.82532197632e-05
0.000105428924962
0.000101705096624
0.00064730444623
0.00505142270037
0.0125496952332
0.0205290066332
0.0282567608156
0.0359640389291
0.0450593595369
0.0592046261325
0.0860261941854
0.00219904751333
0.00131600272506
0.00077137478405
0.000391397959819
0.000194882387984
8.66194101617e-05
6.38155678278e-05
6.92462315579e-05
9.85755184092e-05
0.000115177952332
0.000106490438865
0.000709874534826
0.00527665696051
0.012843488163
0.0208659798217
0.0286520973251
0.0364449541399
0.0456599087821
0.0600521600063
0.0877873362165
0.00205847007706
0.00135472570696
0.00082291893978
0.000418968274101
0.000210430174879
9.15335620119e-05
6.59089886778e-05
7.61527037014e-05
0.000108004843001
0.000123860831341
0.000109520334357
0.000757233454048
0.00544674597434
0.0130787321468
0.0211520586425
0.0290108611663
0.0369053208214
0.0462507395987
0.0608762150058
0.0894458355737
0.00201173006746
0.00142291547747
0.000885595482374
0.000450336378678
0.000227333489294
9.84780997029e-05
6.83244574275e-05
8.21514180811e-05
0.00011607517676
0.000131036646431
0.00011116787306
0.000790722788009
0.00557061218009
0.0132625236766
0.0213943761958
0.0293389016604
0.0373493549399
0.0468364099874
0.0616865993612
0.091020218041
0.00202534618107
0.00150659164107
0.000949231944855
0.000484026796586
0.000244848506773
0.000106969704805
7.14180322455e-05
8.68601435163e-05
0.00012268536526
0.000136780741971
0.000112275139793
0.000813177031141
0.00565683355761
0.013403271059
0.021600696427
0.0296417748903
0.0377803208555
0.0474202181685
0.0624920764582
0.0925280768567
0.00206974439814
0.00158575093234
0.00100710586659
0.000520297950949
0.000262961391102
0.000116817606453
7.49571046107e-05
9.03595744087e-05
0.000127893052879
0.000141411553166
0.00011365290934
0.000827197074514
0.00571243074565
0.0135081629757
0.0217770108003
0.0299228039605
0.0381987368354
0.0480023798897
0.0632988221613
0.0939842952277
0.00211364124352
0.00163971904303
0.00106125142696
0.000561383167444
0.000282446016905
0.000128847109208
7.90304902652e-05
9.2652957665e-05
0.000131378972508
0.000145010284755
0.000115881841237
0.000835067959236
0.0057428938466
0.0135824152504
0.0219270559285
0.030182238519
0.0386004262297
0.0485773989157
0.0641085900977
0.0954018315833
0.00213856712891
0.00167452786138
0.00112174000828
0.000607209647185
0.000303696745611
0.000143043626646
8.40967477799e-05
9.39152129124e-05
0.000133037026207
0.000148084051267
0.000119620002355
0.000839346321579
0.00575292036612
0.0136313524826
0.0220541715861
0.0304166259828
0.038970957971
0.0491207589129
0.0649054272484
0.0967889498346
0.00225637076077
0.00176999083919
0.00118123271209
0.000640193556754
0.000321048038892
0.000162752806319
9.56029780524e-05
9.15763448121e-05
0.000131491558986
0.000150992581335
0.000126498448509
0.000836990771801
0.00573912156904
0.0136624591987
0.0221635396969
0.0306176437116
0.0392763752041
0.0495570172354
0.0655627655924
0.0981031017776
)
;

boundaryField
{
    emptyPatch
    {
        type            empty;
    }
    minY
    {
        type            fixedValue;
        value           nonuniform List<scalar> 0();
    }
    maxY
    {
        type            inletOutlet;
        inletValue      uniform 1e-05;
        value           nonuniform List<scalar> 
40
(
3.43614345914
1.24612522547
0.53588947765
0.259900024153
0.146470441699
0.0970489987632
0.0718156973031
0.0566242939241
0.0464782340166
0.0395145565971
0.0341925465459
0.0284328009679
0.0221549729887
0.0165756308132
0.0120777999225
0.00869966533385
0.00638638272195
0.00478622781961
0.00366313455765
0.00286178755677
0.00225637076077
0.00176999083919
0.00118123271209
0.000640193556754
0.000321048038892
0.000162752806319
9.56029780524e-05
9.15763448121e-05
0.000131491558986
0.000150992581335
0.000126498448509
0.000836990771801
0.00573912156904
0.0136624591987
0.0221635396969
0.0306176437116
0.0392763752041
0.0495570172354
0.0655627655924
0.0981031017776
)
;
    }
    maxX
    {
        type            kqRWallFunction;
        value           nonuniform List<scalar> 
38
(
0.0586303165916
0.0585687411974
0.0583586821511
0.05801369853
0.0575775055681
0.0571013073186
0.0566343470553
0.0562194980991
0.0558928035371
0.0556848461444
0.0556203725287
0.055719683503
0.056002925272
0.0564914211293
0.0572039209903
0.0581521144672
0.0593391112959
0.0607596872476
0.062407842521
0.0642666229608
0.0663069561289
0.0684916846117
0.0707778262518
0.0731189366985
0.0754675988952
0.0777785886494
0.080012831299
0.0821411559077
0.084146800022
0.0860261941854
0.0877873362165
0.0894458355737
0.091020218041
0.0925280768567
0.0939842952277
0.0954018315833
0.0967889498346
0.0981031017776
)
;
    }
    water_to_heater
    {
        type            kqRWallFunction;
        value           nonuniform List<scalar> 
59
(
5.7808668621
5.7808668621
6.21992494955
6.34752480986
5.93804063913
5.93804063913
5.23123307784
5.23123307784
4.64330124608
4.64330124608
4.09516637428
3.4957224595
2.942840637
2.942840637
2.46961867386
2.46961867386
2.048321406
2.048321406
1.72210836594
1.62478175709
1.85028998508
1.85028998508
2.26687743468
2.26687743468
2.38059381191
2.38059381191
2.30042692771
2.20638454736
2.11504067646
2.11504067646
2.02400375674
2.02400375674
1.9332034626
1.9332034626
1.83594288262
1.74330244882
1.66293026398
1.66293026398
1.59853062588
1.59853062588
1.52351861529
1.52351861529
1.50602496284
1.73567092415
2.06830676228
2.06830676228
2.42762247758
2.42762247758
2.90234827526
2.90234827526
3.47275045094
4.04268920544
4.46977579657
4.46977579657
4.53476519922
4.53476519922
3.98548947693
3.98548947693
3.43614345914
)
;
    }
    procBoundary0to1
    {
        type            processor;
        value           nonuniform List<scalar> 
41
(
5.19714354076
1.81480249205
0.707060309809
0.3265641446
0.180820864538
0.112596980184
0.075995403395
0.0565333810272
0.0444626339897
0.0355138328244
0.0282442121595
0.0221361522594
0.0170323413525
0.0127539416268
0.00918549591902
0.00632159687155
0.00419839221109
0.00273803019113
0.00183548470675
0.00129884293478
7.39866910839e-05
8.31452521217e-05
0.000119478901945
0.000141755923176
0.000129486082282
8.86252570078e-05
0.000216005524977
0.00184755370518
0.00719164470993
0.0137304227136
0.019497072555
0.0242685798055
0.0283881577861
0.0329555933814
0.0407402875044
0.0585489144079
0.000640684710653
0.000244229015631
0.000112927826859
7.08647280672e-05
7.08647280672e-05
)
;
    }
}


// ************************************************************************* //
