/*--------------------------------*- C++ -*----------------------------------*\
| =========                 |                                                 |
| \\      /  F ield         | OpenFOAM: The Open Source CFD Toolbox           |
|  \\    /   O peration     | Version:  2312                                  |
|   \\  /    A nd           | Website:  www.openfoam.com                      |
|    \\/     M anipulation  |                                                 |
\*---------------------------------------------------------------------------*/
FoamFile
{
    version     2.0;
    format      ascii;
    arch        "LSB;label=32;scalar=64";
    class       volScalarField;
    location    "0.185/water";
    object      epsilon.gas;
}
// * * * * * * * * * * * * * * * * * * * * * * * * * * * * * * * * * * * * * //

dimensions      [0 2 -3 0 0 0 0];

internalField   nonuniform List<scalar> 
1497
(
28.2730968889
19.7587260055
10.0953189313
4.58806506066
2.09734417314
1.05077021076
0.599211424119
0.383398684685
0.266621724613
0.196568011341
0.154328944111
0.132259682215
0.129697979272
5258.4790012
1352.25950311
410.063074302
142.991756262
64.936002903
40.9974767315
31.9834872175
25.5033856633
17.520647544
9.24745561978
4.40803653271
2.12364307036
1.11202518021
0.651053949869
0.422784478886
0.29832440398
0.223236718516
0.176004914117
0.14810755488
0.137365300151
4973.81903865
1315.7476049
410.542034051
145.212539233
64.2059680011
38.7579056313
29.2536297556
22.803529016
15.4561757863
8.49890698311
4.24169640629
2.13372618278
1.157904201
0.694063561104
0.458225679137
0.32877029721
0.250308946465
0.199545990629
0.167346457171
0.15101695946
4626.70739897
1253.82142384
401.496995776
145.653300634
64.0743950541
37.1172722791
26.7711672788
20.2359145629
13.6054347638
7.80870876753
4.08474285262
2.13551598008
1.192972316
0.730784740932
0.491298525694
0.358843896486
0.27808619065
0.224716242427
0.189280277674
0.168859413936
4249.69191612
1167.87097844
381.564584293
142.282352556
63.1198123976
35.4258152058
24.3556002516
17.7759100889
11.8855276024
7.07976166436
3.87391781957
2.10484083304
1.21152830976
0.760873995065
0.522649267319
0.389213838885
0.307051948148
0.251705955025
0.213601042687
0.189630210094
3871.00341064
1069.49223596
352.549698439
134.210111456
60.2227788003
33.0949571108
21.8090336406
15.3785965794
10.2302138382
6.27721266767
3.58067582999
2.02480247929
1.20690298471
0.781996116045
0.551661190733
0.419971995502
0.337564845353
0.280791400362
0.24000285163
0.212213879684
3565.99945538
974.768264061
318.337157807
121.919870972
55.1281867991
29.884403283
19.0397714396
13.0192049538
8.61258682548
5.41407182629
3.2107108677
1.89413982569
1.17703698083
0.792668186894
0.577567487024
0.450947110931
0.369792028678
0.311834966044
0.26765962082
0.235217644642
3420.48374957
901.246489228
283.470545446
107.253878981
48.5547727465
26.0663272796
16.164035605
10.7504955295
7.08203745424
4.54845771598
2.80087119838
1.72906016081
1.12755531624
0.794214743514
0.600304067057
0.48197830629
0.403174483649
0.343045173244
0.294810139885
0.257404097637
3548.81849975
866.681115617
257.267625875
93.9609334427
42.1956938838
22.4835883491
13.6098787991
8.80932809424
5.79215297679
3.77194426348
2.40396373215
1.55611253195
1.06930356891
0.79021965665
0.620642385259
0.51251369002
0.434703702959
0.370465652522
0.319973233369
0.278500530847
4113.33591335
900.593764756
249.466175775
88.6930999602
39.1007727203
20.7290790719
12.1762000865
7.55581687728
4.84491815304
3.15099301726
2.06412465782
1.40040423968
1.01418260782
0.785074040168
0.639391312059
0.539491230328
0.459204947866
0.393968419871
0.344935504258
0.299267889383
5087.6022897
1022.92490228
272.097071902
93.6986089833
41.1963659249
21.1241334656
11.772637782
6.89324965058
4.22672589741
2.70557340184
1.80626795573
1.27884306585
0.970461355281
0.781353109463
0.65487025611
0.557961707479
0.477960452856
0.418266922021
0.371744172161
0.321806572863
5809.7063762
1144.64198543
306.551089037
103.678107462
43.7432533078
21.7118794909
11.6958291077
6.55626008749
3.84565653234
2.40786202259
1.62681576423
1.19098776776
0.937651603548
0.777490075772
0.662806020005
0.568686958689
0.497237409128
0.446402859701
0.403259856886
0.355090638223
5851.50733177
1150.08021786
316.261546862
105.222352163
43.4666124192
21.3371653778
11.3838312034
6.25490479285
3.56548387727
2.19420245745
1.49603019107
1.1250775149
0.909733508051
0.769339664456
0.66209203428
0.578500053624
0.521538429591
0.483844391805
0.451519481181
0.427913810526
4990.24607992
1052.94884535
284.114881094
94.4663462029
39.6472087925
19.8184704643
10.6834408631
5.84613867923
3.28404057174
2.00907714171
1.39003060935
1.06968234655
0.881527103362
0.75385007579
0.658263082873
0.59351244511
0.559422276476
0.546996643724
0.554604013094
0.62103251007
3967.97460966
861.652572693
235.772783967
80.8802679728
35.2757062911
18.1099139142
9.84740035639
5.35307647309
2.97897108787
1.83481041255
1.29800796808
1.01914019019
0.848671958381
0.733339452554
0.657790853124
0.623406094001
0.633798371689
0.68674674813
0.823108361659
1.1962848147
3253.5315625
738.672349115
209.96531662
74.7894457617
33.3486027353
17.100411504
9.1324246463
4.85829446043
2.68322092335
1.68002450777
1.21695452469
0.96622997722
0.809549849703
0.713829681043
0.672672111417
0.700422060554
0.809107148635
1.04653173096
1.63509520455
3.32306046405
2644.33830845
661.318147447
203.919539859
76.0928767894
33.7979680433
16.8087728485
8.64189534761
4.45181073712
2.43319784108
1.54356335391
1.13286230328
0.901415767122
0.765471008005
0.706833234808
0.739895016386
0.905483970682
1.24862923646
2.12546199609
3.57296767218
4.75483460767
2143.872671
597.830924949
203.726370402
79.7156829424
35.3468610757
17.0238324625
8.33804195709
4.10997115714
2.20337928325
1.39945362707
1.02676877183
0.819392629607
0.723908300507
0.74524378928
0.945721158715
1.40029622339
2.46851436864
3.58504754238
5.0024369301
7.77720109388
1948.83712033
585.403887168
212.448089465
86.1977136413
38.1507265801
17.5754804695
8.07512098425
3.76859776609
1.96589215106
1.22991984069
0.891816836958
0.726668655157
0.709242349333
0.886318748728
1.42992213217
2.49890355045
3.59198112411
5.55337985726
8.61775919893
11.2837249604
1860.97947307
617.317081452
239.594277901
99.8087379542
43.3092154992
18.6110207137
7.83855185371
3.43848926369
1.73524194438
1.05076901201
0.748855047044
0.644722673875
0.74005378839
1.19922107855
2.12777295699
3.32568634828
5.78976091757
9.0869698968
11.8100399327
13.5458443341
1836.04467907
726.625039355
304.798831654
127.602867679
50.9667852393
19.3896841279
7.40915578969
3.11078724716
1.53050474809
0.888490930147
0.623980273073
0.585269327981
0.804704977773
1.40362091335
2.46372025734
4.90299057243
8.77746682735
11.706788774
13.6429129607
14.5764624981
2651.00407018
1095.85304622
444.061017719
166.757112439
58.0473599847
19.9107084331
7.3621820157
3.11765264206
1.4981932212
0.814449655045
0.54691796633
0.534784600637
0.797529322315
1.40208190769
2.89669267736
6.5127682245
10.4996948564
12.8016118789
14.1688209669
14.2404601124
4982.08996837
1818.69957464
585.595939411
185.338020742
60.6666947333
22.0068522635
8.97669928211
3.97286703485
1.83377644395
0.899073312957
0.533321551523
0.479191744347
0.700035770227
1.27288268177
2.75965620628
6.52685952944
10.6731890554
12.6322753132
13.3665105445
12.9813403778
8229.59537478
2264.12410386
598.827348192
178.875284214
61.9421505467
25.9199951365
12.5274450463
6.03972138797
2.71130618661
1.19777377293
0.596574138723
0.425490331822
0.532556668386
0.971476562826
2.04535159996
5.05178023912
9.69329855673
11.4587311687
12.0294138155
11.2124245919
8760.91799783
2224.72582156
615.956511151
186.104120646
68.6602272622
31.5586551991
16.8999468804
8.94884219177
4.17465959335
1.76758768012
0.76804755289
0.420816452974
0.379207479486
0.617854472617
1.30478478642
3.19841553725
7.9538493065
10.0684261226
10.4678239808
9.63776437399
8205.34493474
2194.69512528
633.445664317
203.777477228
79.6518600863
38.5521536605
21.8850837991
12.3465005737
5.99355536994
2.6058811411
1.07512682751
0.492981949323
0.312766149598
0.357027036658
0.732143860616
1.77560438489
5.61070753096
8.58289328756
9.08668211059
8.35481696761
7760.97678925
2137.35797915
637.602211619
215.213439469
88.6731672651
45.3436824958
26.9944649719
16.2062573768
8.18753478039
3.59437142533
1.51341653708
0.643799210077
0.325888855386
0.244650250377
0.362211188875
0.929988244073
3.15432360418
7.24414575832
7.81716562641
7.25510780608
7438.95494167
2069.87537187
629.894220395
219.204085428
93.8631424028
49.8561272209
30.9133459161
19.7226954837
10.79359455
4.68665138498
2.02786530551
0.859278300821
0.394164211797
0.224779480526
0.212681514619
0.463776030296
1.62292381822
5.91643697565
6.66247565121
6.15495513379
7191.83879886
2008.95126452
614.972509367
217.674004375
96.0047705579
52.4749772737
33.4022198895
22.3251936951
13.4643916319
5.92293449796
2.56743543746
1.10872473594
0.495411064315
0.251812013631
0.172153544189
0.254041310104
0.916612165816
4.6080373086
5.50587319579
5.03393841792
7055.07926205
1961.58301574
598.543364205
213.668319439
96.6523271054
53.9449823648
34.8404127319
23.8685153506
15.3157552062
7.28186450666
3.12224580549
1.35963584026
0.6102636694
0.299922371882
0.179720341152
0.19773478293
0.614520266862
3.4214188336
4.42471381411
3.92350638503
6986.62564581
1928.42732963
580.508389756
208.840041514
96.5680917534
54.6086149713
35.4597759899
24.5195797324
16.1924491828
8.21068555266
3.65823360173
1.59753975539
0.724043703812
0.355624037732
0.20853946651
0.202125550399
0.501083325247
2.52704806805
3.47818549915
2.88510668292
7038.56131406
1907.77931029
565.062432691
205.74682845
96.6361349163
54.9323890645
35.6189132559
24.6165123384
16.4133065746
8.60940581378
3.99704703047
1.80434729366
0.831757542544
0.413448249583
0.249942529098
0.239651122238
0.471953285236
1.90840094853
2.69955315371
1.98246082851
7169.6240078
1902.92977935
559.013779698
207.170134652
98.0601717369
55.6113177714
35.7882820034
24.5264114257
16.2709144062
8.64790477713
4.15603329266
1.9399561917
0.920045573215
0.472407576999
0.304180927749
0.305715059021
0.467014011434
1.47834623678
2.04680906684
1.29979115704
7339.84404052
1912.78228402
568.531622922
215.051952712
101.868643884
57.2697983846
36.3696232642
24.5206260561
15.8973213396
8.50121633787
4.20764182245
2.02756012477
0.990499030543
0.529970500829
0.371965309392
0.388637333083
0.490419386303
1.18073325545
1.49342760835
0.835963292255
7445.54059979
1929.78524673
594.615449651
229.512779196
108.503222558
60.302577205
37.6602488829
24.8476335536
15.4652721998
8.35298080228
4.23721387454
2.09550865068
1.0533622729
0.591778047593
0.451419213576
0.436756974482
0.522112790306
0.968160083926
1.02250476621
0.548327565
7372.1402778
1929.34519784
625.393114944
247.006126875
116.918931652
64.3770591078
39.5699742448
25.5493389788
15.324492138
8.3271450958
4.29395259087
2.1625010601
1.11619768668
0.664032457364
0.536595127134
0.445705010031
0.5293725468
0.777501394476
0.673220814508
0.38007780625
6797.47616941
1850.91566293
633.144189738
256.905263686
122.712888764
67.4923351448
41.1079185799
26.0946143683
15.347652886
8.3650934394
4.35684815486
2.22315666663
1.17886167255
0.748887526413
0.613236696377
0.441779321872
0.505178825988
0.588485377786
0.458979090707
0.285335562755
5487.74428079
1632.35229712
587.934588342
246.903634066
120.774006481
67.412688979
41.1950311501
25.9230154276
15.1575389696
8.29984087772
4.35533791354
2.25018651486
1.23353300253
0.840260958645
0.648840974614
0.435144588857
0.454867379536
0.440053118082
0.341787849804
0.235326041124
0.156039365831
0.190798464239
0.209468929458
0.188112720312
0.141214121585
0.110776724201
0.19736286159
0.435907904266
0.417640804597
0.228326176251
0.103681844036
0.0214908481609
0.0189318997159
0.0597678746418
0.115609011142
0.16448823678
0.196545304956
0.24629377719
0.428140160335
1.38255230644
0.149081453318
0.17458779871
0.185744812059
0.162659476475
0.125826597637
0.109269121136
0.264651752213
0.446028015477
0.410503854273
0.217593143309
0.100229349212
0.0253057700091
0.0138638042267
0.0613784870872
0.121046124202
0.172203324344
0.202568466776
0.241984960631
0.389402362916
1.17088704946
0.153396654441
0.169394189038
0.170162116914
0.144042647141
0.117672826272
0.12476618303
0.379079291232
0.466866637821
0.398250460174
0.202798288347
0.0947997395695
0.0254262531693
0.0133204147905
0.0573669901372
0.125970731846
0.179960579728
0.210097239905
0.240231376023
0.353190954798
0.953456700321
0.164516688399
0.169948672863
0.159219831726
0.131808831755
0.112140189646
0.167401449654
0.520630929615
0.515294503465
0.378631698433
0.19147139389
0.0820347243771
0.0243315438593
0.0136789439047
0.0522496963131
0.128181769261
0.185651462789
0.216699067695
0.24008763967
0.32121474497
0.75006027366
0.179037426936
0.172803581037
0.151665788493
0.125357040861
0.111779746953
0.237486464187
0.641930185021
0.575000471329
0.36934706038
0.186461876238
0.0693606167487
0.0254980788776
0.0141982786193
0.0514939401384
0.12821079113
0.188039437531
0.22000915281
0.239377244842
0.293754388625
0.572108680609
0.194620104078
0.176172707834
0.147041143929
0.119702768598
0.136418831944
0.338085561175
0.738555070978
0.629173121578
0.362174222809
0.181738789355
0.0587148872003
0.024808604493
0.0157141229957
0.0557253822726
0.128129862295
0.187529327136
0.219810602699
0.23725017216
0.272213821229
0.426626346541
0.20934868979
0.179363736472
0.143420385748
0.120365797235
0.193476989516
0.54099162149
0.848065120221
0.64578517971
0.348634200157
0.15592015294
0.0506896655859
0.0216632923619
0.0189946287225
0.061676670792
0.128437888793
0.185646613883
0.217558025567
0.234486456572
0.258084247181
0.316319375612
0.222346100304
0.181472984785
0.142826395828
0.146255995273
0.302129403751
0.940141676111
1.00739886327
0.660235169477
0.335938399398
0.135865222111
0.0474427419996
0.0199519776683
0.023539058051
0.0671488993599
0.129000801524
0.184105199605
0.215469337106
0.233330904005
0.256741566723
0.244909670259
0.233935391895
0.185346502303
0.156556533823
0.210406117034
0.502228578098
1.35221502262
1.22309476816
0.645931241153
0.32181455651
0.122549542593
0.0517301268299
0.0197581533556
0.0278404658645
0.071041744366
0.129689718623
0.1832955498
0.215049064937
0.237870056073
0.272626811332
0.218400323594
0.246289415774
0.199337861496
0.202732562498
0.360643769592
0.916521528343
1.72638486975
1.28295605029
0.593062645532
0.285411445564
0.11431731093
0.051821171278
0.0203118684752
0.0310976792427
0.0737147841078
0.130442068086
0.185044273242
0.219934950503
0.247001129181
0.294998191297
0.239057169895
0.267422458521
0.244258715397
0.321271923589
0.721905476825
2.11927089115
2.33852523031
1.23043193296
0.527383996924
0.250086305443
0.110021494906
0.0492114081647
0.0203904187981
0.0332608238965
0.0761384100275
0.13389379893
0.191110661619
0.228010936544
0.257884348367
0.309934758778
0.28454646336
0.320770289882
0.362211829931
0.66303234419
1.65195174851
2.95877548767
2.90059479426
1.04333699852
0.460023557269
0.227604351428
0.106089580227
0.0462384647453
0.019154779359
0.0351800872429
0.0794782033413
0.138532626502
0.198109881415
0.239058551846
0.276296403329
0.313532143885
0.307523915324
0.463885730479
0.728324788085
1.55075901909
3.76163234466
4.23597350064
2.90722595034
0.797649324924
0.382488968768
0.212512229137
0.100444439443
0.0429557551938
0.0171505518672
0.0372029172834
0.0831128361961
0.14396074805
0.207681407202
0.258128637226
0.302880598894
0.308127779501
0.306727497158
0.904242728603
1.80748618497
4.19271742326
5.27132915986
5.15257085932
2.40098768821
0.584367192957
0.320902260832
0.196921325146
0.0946502935083
0.0393293867738
0.0154052320478
0.0394149473218
0.0875404841584
0.151631497326
0.223790292825
0.291955607342
0.320726826019
0.29738030082
0.287559740482
2.49495434902
4.54274732738
6.0282648504
7.49848693913
4.90071544694
1.64852610407
0.438365342151
0.278959531541
0.176352295331
0.0889931312043
0.0343531146228
0.01417164124
0.0421735072371
0.0938720910158
0.164416332697
0.251950644304
0.327096014821
0.324849751009
0.283519039423
0.257334057385
4.75445936696
6.45268787123
8.90862338979
7.77151283733
3.81349778599
1.0140290448
0.352290031213
0.247431623344
0.15188468948
0.0795110661525
0.0274099416113
0.013688189319
0.0464166599036
0.103873573561
0.185388215888
0.283840374752
0.342303389119
0.326275899618
0.268399969181
0.223171372528
6.908881096
9.5031835594
10.2567144056
6.50991659304
2.51029081747
0.635580458589
0.302904543323
0.222636996989
0.126857162634
0.0618944085642
0.0195046718882
0.0145228203772
0.0533989430466
0.119239277375
0.209304578381
0.298363883478
0.350184729364
0.328311038781
0.254041162879
0.190411863855
10.4293315836
11.6146632941
9.55586349319
4.66570350743
1.48583946736
0.455465282898
0.275698818759
0.203035999618
0.103149655184
0.0422970256957
0.0123627724441
0.0171455132926
0.0638859420256
0.136413828818
0.220793405325
0.303797731969
0.359238065559
0.338760917197
0.252987436973
0.16855022007
12.8059548744
12.223553906
7.57847680182
2.95702848691
0.86978691927
0.380814637362
0.260822506248
0.185080377835
0.0805656581222
0.0277125315072
0.00731844238944
0.0214369121802
0.0745362737438
0.144948676208
0.224089642694
0.307981409486
0.368944992349
0.356697719733
0.270600329822
0.170699823744
13.7963659504
11.2251819073
5.26893426885
1.68824738763
0.564882372423
0.350061772668
0.250957478017
0.16388100309
0.0624865512286
0.0183027743179
0.00478301854075
0.0252806971176
0.0793537445512
0.147305216373
0.22588960192
0.311251157378
0.37806183293
0.376506899292
0.302270951218
0.211687669068
13.4282595514
8.93987428044
3.25159864533
0.929231558597
0.427475725511
0.327812109613
0.241494523731
0.150131766511
0.0527166304608
0.0122674371249
0.00395689054999
0.0268018915417
0.0806227411101
0.148295882978
0.226852784403
0.313659488622
0.386410666756
0.395316099117
0.331436705532
0.25295993969
12.2023945299
6.2510925123
1.80440379243
0.560545659991
0.356337347603
0.303040576008
0.230092653939
0.140889844036
0.04744108221
0.00954804160947
0.00385680428964
0.0272654266707
0.0810772334263
0.148745467736
0.227312710158
0.315518677968
0.3942775661
0.413496136378
0.357486122356
0.290222721354
10.2499597576
3.90754296602
0.970772287227
0.39830001097
0.308989392032
0.275820434508
0.216790926598
0.136529399709
0.0445948755934
0.00960723537256
0.00424070753326
0.0276589670882
0.0814080670378
0.149140748846
0.227745516466
0.317219502712
0.40194357407
0.431596993233
0.380681206217
0.320339695078
7.82983608255
2.24046650931
0.582534147853
0.321304109393
0.271525590663
0.248703333114
0.202014278083
0.134146368778
0.0435863466545
0.0107652319952
0.00531858557535
0.0283432647846
0.0819940711191
0.149857344425
0.228499911381
0.319022973348
0.409537728287
0.450167908097
0.40187725033
0.341297053323
5.52917655673
1.30921084323
0.418956131234
0.276500320512
0.242225997603
0.224736541367
0.187918163616
0.131334832216
0.0501463031285
0.011695494069
0.00733030290854
0.0294962637394
0.0831023676819
0.151178325211
0.229864791929
0.321184552517
0.417132394816
0.469717311524
0.422598853133
0.35258667924
3.76950216658
0.878748182766
0.342871228789
0.246642670397
0.219397400189
0.204520386082
0.173870997906
0.123402080373
0.0557866420762
0.0137986068268
0.00977073161186
0.0312151770076
0.0849284386713
0.153300363342
0.232016470614
0.323901129447
0.424914273484
0.490789419545
0.44513433137
0.355416227965
2.62770349998
0.673159606884
0.298785034258
0.22307926783
0.200384270826
0.18725232823
0.160012765296
0.113225117806
0.0580870422058
0.0174896487009
0.0110442654678
0.0335139887753
0.0876068977115
0.156353675089
0.235061707424
0.327253826678
0.432859245318
0.513834691651
0.473127262758
0.353244662311
1.94431185161
0.55468585406
0.266779697139
0.204170084682
0.18502321459
0.173136226158
0.147480941565
0.104034654568
0.0567388924796
0.0201650515513
0.0103340918156
0.0360995945459
0.0911740139783
0.160378649116
0.239019227813
0.33125832622
0.440854523981
0.538772814859
0.511600141909
0.352482054714
1.499175386
0.469241710802
0.239320955479
0.188848312382
0.173268309422
0.162400946298
0.136854156845
0.0959892967469
0.0528029921117
0.0198167752144
0.00907726968678
0.038500826371
0.0955734984665
0.165317982872
0.243812423884
0.33584908305
0.448705240721
0.564512567536
0.564801144169
0.363406514184
1.1593521016
0.394848641157
0.213426589868
0.176132488746
0.164888639835
0.154827363442
0.128114043514
0.0891540151536
0.0482441008394
0.0183996472203
0.00836071278628
0.0407215865039
0.100672797593
0.171032192859
0.24928841302
0.340898547577
0.456230541214
0.589296732406
0.632295713721
0.402490874929
0.879534956644
0.327015283752
0.189526168201
0.165885293335
0.159892754513
0.150285947112
0.121205254946
0.0837722692913
0.0428740127856
0.0167902880125
0.00820575087823
0.0433723004831
0.106329925937
0.177329307134
0.255245712838
0.346237983389
0.463314183552
0.611720181699
0.706223742503
0.491013053399
0.650967430283
0.267607834896
0.169169249063
0.158623562655
0.15838582835
0.148549585594
0.116459571422
0.0794252452668
0.036966566568
0.0145169287947
0.00838083840112
0.0472203305355
0.112413021077
0.183970223006
0.261441832411
0.351662671911
0.469862957806
0.63137540035
0.777482860919
0.622519391706
0.474958810598
0.219282923261
0.153742439405
0.154877924296
0.160086508726
0.149366716322
0.114570399133
0.0740340875204
0.0315444626999
0.0114770658605
0.00978534715935
0.0522848969236
0.118801365128
0.190688961848
0.267623227168
0.356962230778
0.475775521258
0.648343689671
0.843281762027
0.767230377044
0.348651244117
0.183590525877
0.144045995791
0.154929817008
0.164435558912
0.152391015434
0.115616404713
0.0700708336568
0.0271858311807
0.00910597396241
0.0126835362681
0.0584251452238
0.125266577004
0.197260187429
0.27360092371
0.361987827964
0.480984969404
0.662763898659
0.903243393563
0.920431519787
0.264251660438
0.160270383743
0.140025623433
0.158388121742
0.170706114056
0.15732235614
0.119470763388
0.0680057547126
0.0240724011946
0.00794210241127
0.016340141167
0.0646481629839
0.131695600068
0.203579968928
0.279306459293
0.36669700893
0.485499259278
0.674796205637
0.957271876322
1.07856576193
0.211564607278
0.147756377069
0.140858973625
0.164220962743
0.178429451254
0.164156128673
0.126074993228
0.0680100637602
0.0229748807379
0.00768493082381
0.0199946929758
0.0704859257758
0.137934246587
0.209662976716
0.284784116672
0.3711396502
0.489390418198
0.684608709574
1.00533494031
1.23882806618
0.182079504081
0.142963917608
0.14558350571
0.171055748635
0.18720118077
0.17341217701
0.135464666449
0.0701997809348
0.0240148115548
0.00795857069722
0.0233913199633
0.0758829727199
0.143965580963
0.215613013839
0.290140267838
0.375407385443
0.492750466867
0.692339209496
1.04731317484
1.39872700341
0.168752068253
0.146618728554
0.152847103455
0.177076970452
)
;

boundaryField
{
    emptyPatch
    {
        type            empty;
    }
    minY
    {
        type            fixedValue;
        value           nonuniform List<scalar> 0();
    }
    maxY
    {
        type            inletOutlet;
        inletValue      nonuniform List<scalar> 0();
        value           nonuniform List<scalar> 0();
    }
    water_to_cooler
    {
        type            epsilonWallFunction;
        blending        stepwise;
        value           nonuniform List<scalar> 
37
(
13.1291662541
12.4829957612
11.8752497164
11.3635120031
10.9703317409
10.7102391507
10.5921012542
10.6339171772
10.8555942101
11.2316522068
11.6322856494
11.9213150933
12.1090716941
12.2189488573
12.2795976687
12.3178196983
12.3572125976
12.4639071106
12.6891105478
13.0672138336
13.4437948208
13.8064760638
14.1487896473
14.4681515019
14.7681753154
15.0609566827
15.3714428735
15.7393206228
16.21658299
16.8589079581
17.6986600962
18.6413248925
19.5929587666
20.5299129625
21.4343299111
22.2921238582
23.089102691
)
;
    }
    water_to_heater
    {
        type            epsilonWallFunction;
        blending        stepwise;
        value           nonuniform List<scalar> 
60
(
25109.4079109
25109.4079109
24189.3372788
24189.3372788
22829.5590594
22829.5590594
21112.660173
19309.4914179
17758.4213634
17758.4213634
16902.5714729
16902.5714729
17002.5685968
17002.5685968
18415.8231932
21206.4190669
23144.1157303
23144.1157303
21714.7096266
21714.7096266
16335.5342691
16335.5342691
11749.4662152
9246.87710059
7710.63875681
7710.63875681
6446.20742972
6446.20742972
5697.01719126
5697.01719126
5437.07129546
6362.12000725
10621.3509195
10621.3509195
21369.0792145
21369.0792145
36562.0104476
36562.0104476
42816.0848787
42770.0350855
41501.1084056
41501.1084056
40090.3642292
40090.3642292
39002.3230313
39002.3230313
38237.1356731
37876.4258699
37920.5778259
37920.5778259
38319.5580149
38319.5580149
38642.1661056
38642.1661056
38466.2941238
37150.9074829
32978.8091085
32978.8091085
25263.2260677
25263.2260677
)
;
    }
    procBoundary1to0
    {
        type            processor;
        value           nonuniform List<scalar> 
41
(
4039.73922753
1319.59711417
497.654694454
217.776914462
110.670721415
63.6019304503
39.4113307316
24.750422905
14.4849412478
7.98166678319
4.21927777679
2.21474857677
1.27198483845
0.922864605814
0.636063337988
0.4211724569
0.395022263306
0.352200276354
0.283987597908
0.213298752169
0.197277441111
0.186565973812
0.148060444719
0.0745320975886
0.0253876773069
0.00846369096107
0.0265249539594
0.0810754334429
0.149965103737
0.221564759666
0.295486806438
0.379589343853
0.495671391017
0.698115587677
1.0828852253
1.55468205032
0.167405004243
0.155644338032
0.159968819867
0.197277441111
0.181609621311
)
;
    }
    procBoundary1to3
    {
        type            processor;
        value           nonuniform List<scalar> 
41
(
30.7923554707
21.716420693
10.7347558458
4.62424520862
1.99557425951
0.956087613489
0.53419212029
0.339070734443
0.233568037604
0.170828905674
0.135686698886
0.121560660921
0.131721825225
5505.96345857
1363.06767497
403.324736155
141.514671948
67.2254865194
44.1530998862
35.009920491
35.009920491
0.17774525282
0.225905218843
0.247733586449
0.22315655811
0.163898960127
0.122548677684
0.154070504391
0.424924921146
0.424020814392
0.231100617659
0.0995033065887
0.0148011880423
0.0226335325692
0.0565071120742
0.111916357145
0.158978401748
0.19377845031
0.253759248716
0.466171960933
1.55734899155
)
;
    }
}


// ************************************************************************* //
