/*--------------------------------*- C++ -*----------------------------------*\
| =========                 |                                                 |
| \\      /  F ield         | OpenFOAM: The Open Source CFD Toolbox           |
|  \\    /   O peration     | Version:  2312                                  |
|   \\  /    A nd           | Website:  www.openfoam.com                      |
|    \\/     M anipulation  |                                                 |
\*---------------------------------------------------------------------------*/
FoamFile
{
    version     2.0;
    format      ascii;
    arch        "LSB;label=32;scalar=64";
    class       volScalarField;
    location    "0.945/water";
    object      nut.gas;
}
// * * * * * * * * * * * * * * * * * * * * * * * * * * * * * * * * * * * * * //

dimensions      [0 2 -1 0 0 0 0];

internalField   nonuniform List<scalar> 
1497
(
1.6380881243e-06
1.48798438504e-06
1.33458432149e-06
1.16759705363e-06
9.97995832695e-07
8.35988347043e-07
6.75738229288e-07
4.93456570432e-07
2.95524679433e-07
1.43425131269e-07
6.60769513195e-08
3.66371756653e-08
2.75956462265e-08
5.40235979155e-06
4.46652234226e-06
3.51381141143e-06
2.81903946433e-06
2.34118614544e-06
1.99903857269e-06
1.75888337511e-06
1.58937914701e-06
1.4493576948e-06
1.30208705983e-06
1.14098580109e-06
9.79466907259e-07
8.23739076007e-07
6.5969235718e-07
4.652862525e-07
2.65539963153e-07
1.26332418626e-07
6.0059135099e-08
3.5072948792e-08
2.71937598651e-08
5.37690367223e-06
4.37559932269e-06
3.40894365534e-06
2.71155141752e-06
2.25670956832e-06
1.94413524131e-06
1.72594074299e-06
1.5699291191e-06
1.43700014458e-06
1.29280702773e-06
1.13444947028e-06
9.76062295507e-07
8.19104872052e-07
6.43316869405e-07
4.34131343722e-07
2.36296759327e-07
1.11502882481e-07
5.52133271744e-08
3.39471015669e-08
2.69774675978e-08
5.30459876612e-06
4.32512895942e-06
3.37611937872e-06
2.68187942329e-06
2.23851407005e-06
1.94594800474e-06
1.74253198178e-06
1.59184571948e-06
1.45761232712e-06
1.31033131634e-06
1.14974935922e-06
9.88356701524e-07
8.2230576389e-07
6.29260399522e-07
4.07159398728e-07
2.14575211221e-07
1.019897845e-07
5.26197092239e-08
3.36214770243e-08
2.70685085032e-08
5.31768582914e-06
4.42898957862e-06
3.49441399581e-06
2.77672420922e-06
2.31666314255e-06
2.02182468777e-06
1.81272809957e-06
1.6518679558e-06
1.50727991477e-06
1.35243239765e-06
1.18572974726e-06
1.01541288919e-06
8.34592776792e-07
6.24614561105e-07
3.9449757465e-07
2.06066084572e-07
9.94654391581e-08
5.27071083525e-08
3.42099316376e-08
2.75021857974e-08
5.5675339627e-06
4.73259421366e-06
3.75437418113e-06
2.96700695621e-06
2.46454785935e-06
2.13965072623e-06
1.90407722645e-06
1.72249107147e-06
1.56570084233e-06
1.40551622118e-06
1.23483963809e-06
1.0562403846e-06
8.61836042794e-07
6.3971876131e-07
4.04991353815e-07
2.14086227006e-07
1.04510335887e-07
5.55042064141e-08
3.56851971929e-08
2.82567680846e-08
5.95801942261e-06
5.08160481838e-06
4.02580808191e-06
3.19482233838e-06
2.65967206914e-06
2.2902335987e-06
2.00807444007e-06
1.79342185373e-06
1.62099626167e-06
1.45656617056e-06
1.28488906756e-06
1.10385726825e-06
9.06584845739e-07
6.82544700999e-07
4.41675112923e-07
2.3880895513e-07
1.1680951391e-07
6.07650668215e-08
3.79291785576e-08
2.92791723124e-08
6.21874027057e-06
5.23541395533e-06
4.16246915228e-06
3.37481506335e-06
2.84881093049e-06
2.44677042377e-06
2.1155258907e-06
1.86154340762e-06
1.66923279331e-06
1.50054398778e-06
1.33166477615e-06
1.15547975641e-06
9.63689978831e-07
7.43423287508e-07
4.97802532558e-07
2.76041152932e-07
1.34568492854e-07
6.77836979486e-08
4.06840023003e-08
3.05086269605e-08
5.87815117234e-06
5.10647377601e-06
4.169676202e-06
3.46583652951e-06
2.97237428236e-06
2.56507942377e-06
2.19765524641e-06
1.90828936478e-06
1.69777645582e-06
1.52782124768e-06
1.36773441611e-06
1.20394905266e-06
1.02409306035e-06
8.09782255643e-07
5.58081515763e-07
3.16934824296e-07
1.53990540146e-07
7.5283278988e-08
4.35879593361e-08
3.19119699458e-08
5.49905284291e-06
4.98180151612e-06
4.16872034944e-06
3.52918090357e-06
3.05945008797e-06
2.64055377292e-06
2.23843276413e-06
1.91765578388e-06
1.6939313143e-06
1.52880646257e-06
1.38556523663e-06
1.24151561947e-06
1.07752752802e-06
8.69155166065e-07
6.10335787319e-07
3.51304470832e-07
1.70591997107e-07
8.19381231656e-08
4.63769428497e-08
3.35112400989e-08
5.30659432161e-06
4.95308327076e-06
4.19057567801e-06
3.5611560563e-06
3.09127675517e-06
2.65661400556e-06
2.23982329445e-06
1.90319451442e-06
1.66907872429e-06
1.51164712324e-06
1.3896588541e-06
1.26860489389e-06
1.11963045646e-06
9.13046630415e-07
6.44694849358e-07
3.7263798104e-07
1.81709752275e-07
8.71620546713e-08
4.90665220063e-08
3.54244324203e-08
5.43099388302e-06
5.06263166802e-06
4.16881267015e-06
3.52087734964e-06
3.06240956081e-06
2.62173829297e-06
2.20661454057e-06
1.8675419791e-06
1.63375653325e-06
1.48954514926e-06
1.39067415676e-06
1.29089734745e-06
1.15106088725e-06
9.3873551823e-07
6.58810687168e-07
3.80423105895e-07
1.87764233889e-07
9.14488367359e-08
5.2014475011e-08
3.78759149437e-08
5.72538682726e-06
4.81075092055e-06
3.8063384541e-06
3.30915201564e-06
2.94289677558e-06
2.53290536212e-06
2.13768469813e-06
1.81399007226e-06
1.59618889503e-06
1.47430077985e-06
1.40002090111e-06
1.31610522512e-06
1.17416283679e-06
9.46552623325e-07
6.5542445534e-07
3.78814135992e-07
1.91498133401e-07
9.60873955174e-08
5.58397283193e-08
4.11749729194e-08
6.00176886003e-06
4.66814866381e-06
3.45048302755e-06
2.96873970537e-06
2.69079829195e-06
2.37014659572e-06
2.03630505081e-06
1.75473059832e-06
1.57099294759e-06
1.48039654945e-06
1.4284201326e-06
1.34696594326e-06
1.18672369161e-06
9.379519002e-07
6.40897493834e-07
3.74429894482e-07
1.96555104933e-07
1.02703651526e-07
6.13184190964e-08
4.57051422454e-08
6.51518586251e-06
4.9721126969e-06
3.43300646109e-06
2.65183209614e-06
2.37468566155e-06
2.16199895877e-06
1.92191554751e-06
1.70735611207e-06
1.57425971885e-06
1.51820522011e-06
1.47489697606e-06
1.37444444004e-06
1.18486832246e-06
9.18204892968e-07
6.24491851224e-07
3.74355385302e-07
2.06504272618e-07
1.13084375733e-07
6.93864356066e-08
5.19354495314e-08
7.00170026201e-06
5.29838238095e-06
3.59432831708e-06
2.528807953e-06
2.14127199875e-06
1.9808887287e-06
1.82966684261e-06
1.69333338252e-06
1.61696648045e-06
1.58223261882e-06
1.52295089382e-06
1.38849473363e-06
1.1710599902e-06
8.96574065677e-07
6.16141686278e-07
3.84731843235e-07
2.24711657105e-07
1.29350239442e-07
8.12571733887e-08
6.0274051114e-08
7.13253349627e-06
5.39739819735e-06
3.69908123726e-06
2.52628081698e-06
2.03842516964e-06
1.88587292121e-06
1.79985635741e-06
1.73387331705e-06
1.69595488197e-06
1.6541113014e-06
1.55925262636e-06
1.38842434861e-06
1.1530411179e-06
8.84185169899e-07
6.24765901078e-07
4.10984687973e-07
2.54802550419e-07
1.53629524203e-07
9.80593901699e-08
7.13344757627e-08
6.84582600134e-06
5.21267608856e-06
3.66553244839e-06
2.56205091989e-06
2.05878318603e-06
1.91023459425e-06
1.86349010766e-06
1.83459448528e-06
1.79625474697e-06
1.71872244609e-06
1.57887216539e-06
1.38058344904e-06
1.1440083045e-06
8.93500528172e-07
6.56566459128e-07
4.55840573467e-07
2.99439049993e-07
1.88719973698e-07
1.21718803479e-07
8.61930765421e-08
6.3955037049e-06
4.98736966932e-06
3.64440376824e-06
2.68763009576e-06
2.22590043881e-06
2.07327253537e-06
2.02069065802e-06
1.97539015051e-06
1.89636479599e-06
1.76656618835e-06
1.59030986261e-06
1.38150749641e-06
1.1556414133e-06
9.27277632357e-07
7.11921064245e-07
5.23172410374e-07
3.64267904302e-07
2.39288762361e-07
1.55337126013e-07
1.06716156718e-07
6.20151577815e-06
5.0263183687e-06
3.83578286621e-06
2.98033870683e-06
2.5282664172e-06
2.3244265999e-06
2.21566118956e-06
2.12021181535e-06
1.98810603295e-06
1.81077961368e-06
1.60993307737e-06
1.39853673679e-06
1.18762196991e-06
9.85211425881e-07
7.95719660152e-07
6.19826503912e-07
4.55662738491e-07
3.11585819618e-07
2.03846022771e-07
1.36329384839e-07
6.36043782738e-06
5.31069463964e-06
4.20332071545e-06
3.36082412072e-06
2.85647057255e-06
2.58063754429e-06
2.41153891361e-06
2.2653828502e-06
2.08106691974e-06
1.85918446056e-06
1.63752204248e-06
1.42766811646e-06
1.23933250508e-06
1.07113996077e-06
9.10878822796e-07
7.47069352036e-07
5.76974266582e-07
4.11285411328e-07
2.73373304271e-07
1.79392506012e-07
6.61873177702e-06
5.58851726603e-06
4.47067309611e-06
3.60029617244e-06
3.06839670499e-06
2.76398031847e-06
2.56352925428e-06
2.38226888222e-06
2.15413257747e-06
1.89562971794e-06
1.6650389001e-06
1.46841224611e-06
1.31018672385e-06
1.17732942288e-06
1.04467732889e-06
8.94121204731e-07
7.21725785411e-07
5.37124026516e-07
3.67170142583e-07
2.39670688322e-07
6.30408628813e-06
5.45910794785e-06
4.48480793611e-06
3.70593773015e-06
3.18664413133e-06
2.85797629776e-06
2.63209251265e-06
2.43092080723e-06
2.1803835849e-06
1.91061380523e-06
1.68888367558e-06
1.51151435556e-06
1.38089755225e-06
1.27837114499e-06
1.17218045966e-06
1.039120822e-06
8.7195960461e-07
6.76950962151e-07
4.80887261293e-07
3.17917527669e-07
5.69494824538e-06
5.32772423731e-06
4.53161614907e-06
3.80285054445e-06
3.27491298942e-06
2.91230233531e-06
2.64833152645e-06
2.41819171655e-06
2.16639728091e-06
1.90853850147e-06
1.69677937888e-06
1.5372187935e-06
1.42997523963e-06
1.35405640363e-06
1.27434609538e-06
1.1629165069e-06
1.00869413611e-06
8.13890517029e-07
6.03203050733e-07
4.10563604595e-07
5.27855064596e-06
5.24313787719e-06
4.62028924248e-06
3.92027683662e-06
3.3604955309e-06
2.94841897197e-06
2.63525431761e-06
2.36997431165e-06
2.11577086508e-06
1.87513876159e-06
1.67750248722e-06
1.53899297766e-06
1.4557896324e-06
1.40548953616e-06
1.35113380649e-06
1.26188692805e-06
1.12349605614e-06
9.3543938999e-07
7.21103457041e-07
5.09766848568e-07
5.11019412962e-06
5.22084151306e-06
4.69831807462e-06
4.01844994404e-06
3.42960288039e-06
2.96460621347e-06
2.59645972386e-06
2.29647624796e-06
2.03832492625e-06
1.81269696079e-06
1.63827792742e-06
1.526318141e-06
1.47025947242e-06
1.44568332224e-06
1.41428411673e-06
1.34447476032e-06
1.21932470284e-06
1.03861301956e-06
8.26319377499e-07
6.0376843503e-07
5.0474824208e-06
5.22316594855e-06
4.73580354482e-06
4.05970434534e-06
3.45417660059e-06
2.94834511798e-06
2.53423979415e-06
2.20637814419e-06
1.94390206503e-06
1.73582171707e-06
1.58921426674e-06
1.50817543311e-06
1.48261013819e-06
1.48408889685e-06
1.47298163927e-06
1.41662794871e-06
1.29745764671e-06
1.12165556634e-06
9.12559968356e-07
6.80447735116e-07
5.04109585745e-06
5.19845576734e-06
4.6764948695e-06
4.01085301831e-06
3.4179008873e-06
2.89771530332e-06
2.45974924197e-06
2.11595124291e-06
1.85328508546e-06
1.66155486043e-06
1.54228358685e-06
1.49363074191e-06
1.49970905517e-06
1.52592820096e-06
1.52913922028e-06
1.47496555299e-06
1.35350791244e-06
1.17997617183e-06
9.70161663193e-07
7.24721303144e-07
4.95371339529e-06
5.00908860953e-06
4.4707325336e-06
3.85731458527e-06
3.3049513673e-06
2.80675147783e-06
2.3773915508e-06
2.0341762727e-06
1.77566586592e-06
1.60029545127e-06
1.50752035248e-06
1.49045052237e-06
1.52538773083e-06
1.56934209866e-06
1.57314862909e-06
1.50882870948e-06
1.38026269612e-06
1.20474397743e-06
9.8312616699e-07
7.25454289191e-07
4.83074792e-06
4.70192833097e-06
4.12512015533e-06
3.55764964665e-06
3.08556788962e-06
2.65822377447e-06
2.27404698767e-06
1.95331828105e-06
1.71187457391e-06
1.55806424124e-06
1.49291709828e-06
1.50378452389e-06
1.55753249504e-06
1.60201943371e-06
1.58996058986e-06
1.50808471827e-06
1.36829751245e-06
1.17899453242e-06
9.35007906895e-07
6.79522194059e-07
4.71486619639e-06
4.45944121227e-06
3.83710045116e-06
3.25319341942e-06
2.82985380676e-06
2.4786035888e-06
2.15705100951e-06
1.87681859328e-06
1.66453800316e-06
1.53891339056e-06
1.50148111172e-06
1.53068090048e-06
1.58319044418e-06
1.60678996949e-06
1.56707938929e-06
1.46197385554e-06
1.30000429848e-06
1.08064094901e-06
8.26953693121e-07
5.89032795681e-07
4.56840864038e-06
4.27522421356e-06
3.63127387709e-06
3.01857154657e-06
2.62044981422e-06
2.32760872733e-06
2.06100589669e-06
1.82070192304e-06
1.64016548308e-06
1.54337519646e-06
1.52591550152e-06
1.55436651578e-06
1.58193729191e-06
1.56698438886e-06
1.48999693296e-06
1.3514561048e-06
1.15551818658e-06
9.19810457114e-07
6.79113049309e-07
4.60559370718e-07
4.34435176899e-06
4.03527530794e-06
3.43846268716e-06
2.86723675728e-06
2.51231042941e-06
2.25726787151e-06
2.01768323399e-06
1.79879097162e-06
1.63997298547e-06
1.56051410348e-06
1.5428107435e-06
1.5458999395e-06
1.52850790538e-06
1.46353428584e-06
1.34459344692e-06
1.17451743091e-06
9.63959564966e-07
7.33839174929e-07
5.09177746595e-07
3.11891872093e-07
4.13093665908e-06
3.79685027622e-06
3.31652711514e-06
2.86093235217e-06
2.54760577875e-06
2.28595057667e-06
2.0295122542e-06
1.80413825302e-06
1.64723776566e-06
1.56244879935e-06
1.51910376582e-06
1.4775023003e-06
1.40874850661e-06
1.3025075984e-06
1.15968481299e-06
9.7953051447e-07
7.6749649458e-07
5.42817930115e-07
3.35432200321e-07
1.66490148995e-07
4.10493164902e-06
3.82207238278e-06
3.47540539713e-06
3.0934378785e-06
2.72506305483e-06
2.37162427323e-06
2.05530309943e-06
1.80539483112e-06
1.63391963945e-06
1.52457341315e-06
1.44260715113e-06
1.35805717998e-06
1.25594693836e-06
1.1329854927e-06
9.84205605081e-07
7.97953179207e-07
5.77419508357e-07
3.57818331786e-07
1.80400580788e-07
5.97238420447e-08
4.41706368469e-06
4.39823579139e-06
4.08222229077e-06
3.5429884042e-06
2.94289169315e-06
2.42361509519e-06
2.04041289666e-06
1.77367210036e-06
1.58830990956e-06
1.45308731933e-06
1.34003018647e-06
1.23105973414e-06
1.11758978185e-06
9.91227718836e-07
8.3390852874e-07
6.27290923787e-07
3.93751238937e-07
1.98976609255e-07
7.33164451363e-08
1.43241351057e-08
5.48120956818e-06
5.49842268599e-06
4.89371766328e-06
3.94333860771e-06
3.04738350491e-06
2.40312952186e-06
1.99273592023e-06
1.72314818667e-06
1.52856434231e-06
1.37597465888e-06
1.24716063665e-06
1.13099296341e-06
1.01560991012e-06
8.79039926464e-07
6.92751035299e-07
4.56889402565e-07
2.35467396088e-07
9.10937718547e-08
1.7121600169e-08
5.97904541811e-09
6.74407870421e-06
6.55974652607e-06
5.50559086855e-06
4.15809297752e-06
3.08950731413e-06
2.3953265345e-06
1.9702485113e-06
1.69053164951e-06
1.48375875867e-06
1.31945512918e-06
1.18450476937e-06
1.06572937734e-06
9.38260862407e-07
7.69871142246e-07
5.46375347997e-07
3.06089881981e-07
1.2514381752e-07
2.88582508885e-08
2.43353716034e-09
3.82875270566e-09
2.79127630674e-08
3.6574239307e-08
5.6618696845e-08
8.61776116078e-08
1.16041136867e-07
1.41244298481e-07
1.62775753324e-07
1.82337802802e-07
2.06009953872e-07
2.50836244216e-07
3.31388980481e-07
4.0254488417e-07
3.82553106548e-07
3.34831071048e-07
3.1048016722e-07
2.98614148004e-07
3.11844810424e-07
3.50695257824e-07
3.46062535102e-07
4.83752995947e-07
2.73012036701e-08
3.42496573097e-08
5.0120389256e-08
7.40746014202e-08
1.00144474173e-07
1.23011945935e-07
1.42881412283e-07
1.63576045419e-07
1.95047357461e-07
2.54482473649e-07
3.34428580989e-07
3.65868525124e-07
3.34389386825e-07
3.10132243528e-07
2.97268044747e-07
2.9259794252e-07
3.17803491761e-07
3.68562912089e-07
3.70333653808e-07
5.68350672118e-07
2.68728535618e-08
3.2498058369e-08
4.52102912795e-08
6.46848438352e-08
8.74895719664e-08
1.08963480486e-07
1.28372122088e-07
1.51695560413e-07
1.93182173114e-07
2.62701025042e-07
3.28436663466e-07
3.31829951066e-07
3.0568314226e-07
2.94969671555e-07
2.86050502406e-07
2.87180839578e-07
3.22806392709e-07
3.87099131509e-07
4.01285462428e-07
9.38112687647e-07
2.66697247335e-08
3.12691837948e-08
4.174839927e-08
5.80860515623e-08
7.83683701663e-08
9.92663058182e-08
1.19690869597e-07
1.48266123426e-07
2.00521569433e-07
2.72450285808e-07
3.16290950766e-07
3.03829600322e-07
2.87757616986e-07
2.8374408816e-07
2.72695667461e-07
2.8000641727e-07
3.33194978086e-07
4.16107340764e-07
4.40970744157e-07
1.77896447233e-06
2.66989107896e-08
3.05101064574e-08
3.95347057251e-08
5.40068023857e-08
7.29105306246e-08
9.4074562261e-08
1.17584132746e-07
1.54632928842e-07
2.15681020572e-07
2.8028453199e-07
2.99571205098e-07
2.82209797479e-07
2.76304279351e-07
2.73819584035e-07
2.57631911007e-07
2.70969376507e-07
3.4657274123e-07
4.49215031062e-07
4.88783189662e-07
3.10216030145e-06
2.69484725946e-08
3.01901229561e-08
3.842446026e-08
5.21341884971e-08
7.09070067599e-08
9.36767893632e-08
1.2300237033e-07
1.70007902555e-07
2.33677306679e-07
2.80170996381e-07
2.78845867154e-07
2.67471228005e-07
2.67919503893e-07
2.62617255915e-07
2.42620290519e-07
2.62672501501e-07
3.64850461151e-07
4.86506252799e-07
6.92556591431e-07
4.34813973405e-06
2.7420156232e-08
3.0327523096e-08
3.83643975762e-08
5.23257599994e-08
7.23499099041e-08
9.83864064745e-08
1.35079500193e-07
1.89099599877e-07
2.45234899616e-07
2.66660393049e-07
2.59145478721e-07
2.58041222523e-07
2.58376341758e-07
2.46803333488e-07
2.2519561733e-07
2.61260091228e-07
3.91061100331e-07
5.28226603478e-07
1.02780117882e-06
5.2278287543e-06
2.81508181536e-08
3.09899193075e-08
3.93826061449e-08
5.4481152344e-08
7.69112583933e-08
1.07337057695e-07
1.49665247352e-07
2.02275589223e-07
2.40036902199e-07
2.45714788165e-07
2.46152393825e-07
2.48802068203e-07
2.44557364017e-07
2.25233330148e-07
2.06061425672e-07
2.68162759165e-07
4.19345083049e-07
7.87504779435e-07
3.5506167531e-06
6.04084566052e-06
2.92034721704e-08
3.2259103507e-08
4.1497014687e-08
5.83586483039e-08
8.35709648834e-08
1.17515442125e-07
1.60817449531e-07
2.00887822895e-07
2.21828041568e-07
2.29323031182e-07
2.3588585605e-07
2.36372425885e-07
2.25220781216e-07
1.99652142717e-07
1.90803462985e-07
2.78321171353e-07
5.13260958215e-07
1.53005129291e-06
6.07521206857e-06
6.88892272473e-06
3.06553100735e-08
3.41767770041e-08
4.45767919548e-08
6.33566450749e-08
9.0834580455e-08
1.2617697503e-07
1.62502334622e-07
1.84953892287e-07
2.03898147607e-07
2.17459460559e-07
2.24020334874e-07
2.1965970564e-07
2.01512224832e-07
1.74303905523e-07
1.80557427419e-07
2.840229526e-07
7.79130655056e-07
4.21633664873e-06
6.56975689695e-06
7.7167775482e-06
3.2590795429e-08
3.67028256816e-08
4.82740917978e-08
6.85368716469e-08
9.7017843662e-08
1.29352861132e-07
1.50931237899e-07
1.66649411401e-07
1.9041453158e-07
2.05504979898e-07
2.0906882133e-07
1.98945087548e-07
1.7594919369e-07
1.53708143381e-07
1.75163970345e-07
4.02640249853e-07
2.84873947211e-06
4.77388310617e-06
6.74228105142e-06
8.53756361739e-06
3.50954133477e-08
3.97185345225e-08
5.21125674219e-08
7.29250735834e-08
9.98094568811e-08
1.22921581096e-07
1.34271993812e-07
1.52242010787e-07
1.77877593782e-07
1.91516121257e-07
1.90991818799e-07
1.75589790467e-07
1.51969470121e-07
1.38000080324e-07
2.04301450344e-07
1.17452120288e-06
3.55509207957e-06
4.76221699653e-06
6.70099647684e-06
9.31083041421e-06
3.82751828908e-08
4.31226421479e-08
5.55599183894e-08
7.48509506976e-08
9.62138623654e-08
1.11255200706e-07
1.20657341807e-07
1.4001659364e-07
1.64141367817e-07
1.75154642e-07
1.70488525864e-07
1.52140061055e-07
1.30884018222e-07
1.28998971433e-07
3.42786267529e-07
2.2322579557e-06
3.39566309581e-06
4.44534682751e-06
6.1325016031e-06
9.76834766477e-06
4.22454907173e-08
4.65364822283e-08
5.75212191047e-08
7.31586390771e-08
8.89141763569e-08
1.00170795161e-07
1.098627802e-07
1.2812107482e-07
1.48857495021e-07
1.56994888539e-07
1.48865828788e-07
1.30432923284e-07
1.15434420172e-07
1.79277049703e-07
1.22764149122e-06
2.16765314282e-06
3.18131446627e-06
3.84532978412e-06
4.43056316524e-06
9.80635160116e-06
4.69644233456e-08
4.95847914747e-08
5.78432437964e-08
6.94197089978e-08
8.13612103351e-08
9.08787638784e-08
1.00328393765e-07
1.16084372424e-07
1.32824493395e-07
1.38524182068e-07
1.28849349927e-07
1.11153958055e-07
1.27948034107e-07
6.30463402955e-07
1.36670946737e-06
2.02644146202e-06
2.93697294992e-06
2.8405141669e-06
1.98685172503e-06
8.68453812476e-06
5.24923703474e-08
5.24362535443e-08
5.75374959007e-08
6.57476944446e-08
7.49610732212e-08
8.30778507151e-08
9.14365058395e-08
1.04088285577e-07
1.17029042517e-07
1.20962615305e-07
1.11501455842e-07
9.9999282113e-08
2.96254249371e-07
1.04177095481e-06
1.28485004966e-06
1.88149823579e-06
2.65690506304e-06
1.60732575431e-06
8.82173192097e-07
6.08831991396e-06
5.9235162229e-08
5.58584344003e-08
5.79380495137e-08
6.32908372485e-08
7.00955936126e-08
7.6641032528e-08
8.328793058e-08
9.26580351682e-08
1.02142140435e-07
1.05141962701e-07
9.7037430814e-08
1.45009314503e-07
8.62806364936e-07
9.88159721322e-07
1.20932418643e-06
1.73724418002e-06
2.37469630206e-06
9.04608802973e-07
6.46353163851e-07
3.21094777025e-06
6.81445076783e-08
6.09744099809e-08
5.99535598964e-08
6.2528015614e-08
6.69485979856e-08
7.16444527748e-08
7.62607171138e-08
8.24249231836e-08
8.88830314282e-08
9.15765472941e-08
8.75008363752e-08
4.19766594003e-07
8.42856597046e-07
9.3199083486e-07
1.14269476024e-06
1.60851077327e-06
2.16507161143e-06
7.96428084906e-07
4.20038850992e-07
1.33994693674e-06
8.08265963506e-08
6.88333726957e-08
6.4190173737e-08
6.37641267235e-08
6.56478228808e-08
6.82283450933e-08
7.06761139993e-08
7.38760306873e-08
7.79936129899e-08
8.11179451671e-08
1.10594377666e-07
6.18512170956e-07
7.91055106651e-07
8.83067061545e-07
1.08253972948e-06
1.50188634237e-06
2.04964919784e-06
1.7087269797e-06
3.7729657099e-07
7.61189569434e-07
9.92016359863e-08
8.05138957294e-08
7.12690030221e-08
6.73227518437e-08
6.63355852184e-08
6.65031419617e-08
6.66868877532e-08
6.7229689726e-08
6.97445293574e-08
7.3370037925e-08
1.18258493449e-07
6.51097304312e-07
7.48292804552e-07
8.38988778012e-07
1.0277672853e-06
1.42139456331e-06
2.00561646363e-06
2.59300131744e-06
3.59119367845e-07
5.01883504521e-07
1.25528080754e-07
9.73085890993e-08
8.19615114444e-08
7.36091448518e-08
6.91757298264e-08
6.65181599784e-08
6.42739796723e-08
6.24930854282e-08
6.402979082e-08
6.82839117184e-08
1.69567579925e-07
6.42256753807e-07
7.13189307858e-07
7.99154649085e-07
9.79925144048e-07
1.37332516022e-06
1.99357306314e-06
2.56243143522e-06
3.5932182879e-07
4.1528210417e-07
1.62179579177e-07
1.20635907023e-07
9.71183070511e-08
8.30511927503e-08
7.42898827332e-08
6.82173799271e-08
6.32671152063e-08
5.95409510063e-08
6.03669583993e-08
6.48435151475e-08
2.33963735153e-07
6.25305453963e-07
6.84493773736e-07
7.64517405679e-07
9.45870190563e-07
1.36041802509e-06
1.99549806926e-06
2.07254198065e-06
3.66541361705e-07
4.03530189665e-07
2.10864676231e-07
1.5170287917e-07
1.17466347613e-07
9.5955179266e-08
8.16537337883e-08
7.13997932264e-08
6.35027081739e-08
5.80805181245e-08
5.80997937773e-08
6.25332223817e-08
2.52200241999e-07
6.11526113251e-07
6.62022277202e-07
7.38305390935e-07
9.35911688394e-07
1.37985644302e-06
2.00706946055e-06
6.60239763875e-07
3.66338199839e-07
4.4077138166e-07
2.71801312983e-07
1.91176333332e-07
1.43419531854e-07
1.12422398038e-07
9.11238896415e-08
7.58317125361e-08
6.4667490711e-08
5.76162535589e-08
5.68309275227e-08
6.12808205445e-08
2.42319462955e-07
6.02635421226e-07
6.45417005781e-07
7.22137587466e-07
9.52964303903e-07
1.42351165213e-06
2.03918844921e-06
3.41373901638e-07
3.50382450686e-07
8.18918524203e-07
3.42068026326e-07
2.37759260044e-07
1.74038326312e-07
1.315920757e-07
1.01804724096e-07
8.06587872999e-08
6.61041040771e-08
5.76863029528e-08
5.64096200659e-08
6.09642602902e-08
2.08986281903e-07
5.91804539653e-07
6.3255228732e-07
7.16669894034e-07
9.97874893785e-07
1.49677381522e-06
1.89382650173e-06
2.65007347322e-07
3.27588101267e-07
2.18958121668e-06
4.12142270628e-07
2.85909697566e-07
2.05951540133e-07
1.51106362415e-07
1.11930099752e-07
8.46011568471e-08
6.6992682252e-08
5.78650000879e-08
5.66810614478e-08
6.13583199303e-08
1.63144267292e-07
5.59618197868e-07
6.19272531768e-07
7.25758401235e-07
1.0802117849e-06
1.60483232817e-06
3.72788299177e-07
2.49516208851e-07
3.20097571339e-07
2.91732477823e-06
4.70163128177e-07
3.27981847646e-07
2.33724476985e-07
1.66813957636e-07
1.18525543045e-07
8.57829883599e-08
6.63578309591e-08
5.77416396102e-08
5.74155740184e-08
6.21424168992e-08
1.24253628469e-07
4.72998215606e-07
5.93636569387e-07
7.5586414626e-07
1.20005249032e-06
6.952216077e-07
2.25586608278e-07
2.35232341045e-07
3.23688933903e-07
3.38517540786e-06
5.05205429495e-07
3.54574173363e-07
2.49243085719e-07
1.72347854041e-07
1.1726023839e-07
8.18819604234e-08
6.33726099897e-08
5.72341449013e-08
5.86073586288e-08
6.31831650917e-08
1.04333648761e-07
3.43378398193e-07
5.46661685948e-07
7.98210086814e-07
7.15970910134e-07
2.04765945705e-07
2.04385410708e-07
2.4532476145e-07
3.33808904352e-07
3.25928083775e-06
5.09217704297e-07
3.5528875355e-07
2.43143839479e-07
1.60969913655e-07
1.04645152362e-07
7.23217646821e-08
5.90227250863e-08
5.74781287529e-08
6.07448876548e-08
6.44939794861e-08
9.56775531853e-08
2.39454855439e-07
4.06343176486e-07
3.42461157967e-07
1.72828024639e-07
1.89639902677e-07
2.03504591145e-07
2.72356094986e-07
3.44915393623e-07
2.94286059668e-06
4.73981369327e-07
3.21440692813e-07
2.08666547763e-07
1.29408361646e-07
8.16073110927e-08
6.05281646131e-08
5.67499704379e-08
6.0456579368e-08
6.42996899789e-08
6.57474502301e-08
8.09592278857e-08
1.01389232245e-07
1.02938309528e-07
1.20844211033e-07
1.61896054167e-07
1.87830602351e-07
2.24119529513e-07
3.15232700175e-07
3.43840885029e-07
2.52871012255e-06
3.96153282152e-07
2.50820954246e-07
1.47414623802e-07
8.50408975022e-08
5.8487128735e-08
5.48918243461e-08
6.09077773286e-08
6.63532638413e-08
6.65737916928e-08
6.3395817061e-08
5.92717510543e-08
5.08601969312e-08
6.05413552061e-08
1.07437748289e-07
1.56895385756e-07
2.01803068319e-07
2.71226619367e-07
3.65378853287e-07
3.28622387048e-07
2.17878185805e-06
2.83192973212e-07
1.54948012314e-07
7.94673224473e-08
5.1310689618e-08
5.08988975413e-08
6.04832550651e-08
6.70931905494e-08
6.56567126126e-08
5.94458394307e-08
5.36422265326e-08
4.81086234607e-08
4.00665556453e-08
4.13123269902e-08
9.14401503944e-08
1.61499800858e-07
2.46640188665e-07
3.59866658109e-07
3.90848517472e-07
3.24699581923e-07
1.98592033138e-06
1.56875101821e-07
6.80498487284e-08
4.08022775115e-08
4.38544894887e-08
5.60942839813e-08
6.33698557143e-08
6.0575599026e-08
5.27875527403e-08
4.56931344997e-08
4.07266240478e-08
3.5981381651e-08
3.00396306006e-08
2.76973763087e-08
8.08991930728e-08
1.82403062568e-07
2.94052124755e-07
3.78245850564e-07
4.07892467253e-07
3.41277029436e-07
1.91774254172e-06
5.96151683382e-08
2.99379085359e-08
3.43231306529e-08
4.74048923379e-08
5.58652647947e-08
5.52849414316e-08
4.94649234398e-08
4.24475094004e-08
3.63154157e-08
3.16023088665e-08
2.76988685351e-08
2.38383081889e-08
2.28136772044e-08
8.13665062917e-08
1.92109070285e-07
2.9920622129e-07
3.85109204418e-07
4.28514652101e-07
3.68021226643e-07
1.89084056233e-06
2.06312340358e-08
2.39355084903e-08
3.69379719392e-08
4.6635634465e-08
4.982068858e-08
4.72573853168e-08
4.12319850031e-08
3.48517874755e-08
2.94663281491e-08
2.54742950287e-08
2.2703419852e-08
2.1098120503e-08
2.34510879797e-08
8.76493603633e-08
2.06040599807e-07
3.09633114964e-07
3.94574283853e-07
4.49375925713e-07
3.9989525442e-07
1.9634840548e-06
1.3555251964e-08
2.53078360959e-08
3.59423305542e-08
4.2714521002e-08
4.30059469918e-08
3.87014924281e-08
3.27818492009e-08
2.76174844671e-08
2.40972513155e-08
2.17797919357e-08
2.08199783283e-08
2.18651889028e-08
2.976110227e-08
1.13955186481e-07
2.33741855221e-07
3.2246849917e-07
4.03842569483e-07
4.7028070086e-07
4.36061598168e-07
2.20639721242e-06
1.33227587177e-08
2.40878087039e-08
3.33475047928e-08
3.69002519118e-08
3.48059696697e-08
2.95273489304e-08
2.40598036651e-08
2.05635173844e-08
1.9640979402e-08
2.0070236006e-08
2.15958925401e-08
2.61938695965e-08
4.52692335664e-08
1.54928215884e-07
2.58690137581e-07
3.31898710932e-07
4.09771222035e-07
4.88594018088e-07
4.75527939954e-07
2.53759094538e-06
1.09286144869e-08
2.11088593622e-08
2.87956620033e-08
3.08680530018e-08
)
;

boundaryField
{
    emptyPatch
    {
        type            empty;
    }
    minY
    {
        type            calculated;
        value           nonuniform List<scalar> 0();
    }
    maxY
    {
        type            calculated;
        value           nonuniform List<scalar> 0();
    }
    water_to_cooler
    {
        type            nutkWallFunction;
        blending        stepwise;
        value           uniform 0;
    }
    water_to_heater
    {
        type            nutkWallFunction;
        blending        stepwise;
        value           uniform 0;
    }
    procBoundary1to0
    {
        type            processor;
        value           nonuniform List<scalar> 
41
(
7.63065561168e-06
7.20455269784e-06
5.91613798193e-06
4.41857645073e-06
3.26429143206e-06
2.50373295384e-06
2.01968269602e-06
1.69702517778e-06
1.46360871291e-06
1.28640608212e-06
1.14797360613e-06
1.02288435761e-06
8.72296446228e-07
6.67651625816e-07
4.23229021855e-07
2.02785486952e-07
6.26613220694e-08
7.38351276634e-09
9.20650032332e-10
2.61700196457e-09
2.78188365168e-08
2.2764259807e-08
1.76899381094e-08
1.60825812785e-08
1.67120020231e-08
2.05908938568e-08
2.60044759889e-08
3.58913995861e-08
8.62254234644e-08
1.98151584363e-07
2.74869512575e-07
3.36103771674e-07
4.1039205932e-07
5.01695592877e-07
5.17155054588e-07
2.93022414594e-06
8.1354559332e-09
1.67529827424e-08
2.36992376498e-08
2.78188365168e-08
2.58759319679e-08
)
;
    }
    procBoundary1to3
    {
        type            processor;
        value           nonuniform List<scalar> 
41
(
1.70431568857e-06
1.54495700344e-06
1.38487639198e-06
1.21017216065e-06
1.02859885319e-06
8.54133718329e-07
6.90000219569e-07
5.14756890794e-07
3.20181968976e-07
1.58667120974e-07
7.15185549041e-08
3.80105859659e-08
2.7974619079e-08
5.36284017036e-06
4.53851739666e-06
3.63762847084e-06
2.95792519313e-06
2.45576669665e-06
2.0829617105e-06
1.82174792111e-06
1.82174792111e-06
2.86408166862e-08
3.95096816298e-08
6.4775827602e-08
1.00544020291e-07
1.34729313073e-07
1.63049623491e-07
1.86493682983e-07
2.05740117269e-07
2.24918303911e-07
2.56414763924e-07
3.23394541893e-07
4.23531552629e-07
4.57641842415e-07
3.86133558903e-07
3.3355413342e-07
3.11994553002e-07
3.1239990768e-07
3.37784594787e-07
3.32769087749e-07
4.2859355652e-07
)
;
    }
}

