/*--------------------------------*- C++ -*----------------------------------*\
| =========                 |                                                 |
| \\      /  F ield         | OpenFOAM: The Open Source CFD Toolbox           |
|  \\    /   O peration     | Version:  2312                                  |
|   \\  /    A nd           | Website:  www.openfoam.com                      |
|    \\/     M anipulation  |                                                 |
\*---------------------------------------------------------------------------*/
FoamFile
{
    version     2.0;
    format      ascii;
    arch        "LSB;label=32;scalar=64";
    class       volScalarField;
    location    "0.83/water";
    object      epsilonm;
}
// * * * * * * * * * * * * * * * * * * * * * * * * * * * * * * * * * * * * * //

dimensions      [0 2 -3 0 0 0 0];

internalField   nonuniform List<scalar> 
1497
(
14.5902503063
9.10747861699
5.42769007241
3.17213768728
1.83319989175
1.07015100628
0.648724161223
0.416535293938
0.283431274276
0.208944339603
0.172054295899
0.157864598931
0.15681221949
3149.21351928
861.901960401
278.574366927
110.746206898
54.921702858
32.4876980364
21.2381228372
14.2859272486
9.35245433382
5.7782480878
3.4717813788
2.0522601958
1.21857235876
0.74828426072
0.482842162306
0.326651708546
0.235037395996
0.186578844883
0.165549736943
0.161158708775
2780.66719732
740.005712972
230.644522421
90.1536884858
45.2862858577
27.5599010444
18.590554058
12.8777351991
8.6698796108
5.52006686523
3.4095386673
2.06702819354
1.25903523646
0.794909130251
0.526312954622
0.362595343728
0.262578373368
0.207567272193
0.182261539676
0.17541879817
2736.01367334
671.372142858
191.124509556
71.5825094995
36.1794665943
22.4429623542
15.4124409572
10.8302834399
7.37343762114
4.83293990497
3.06977953261
1.91443091972
1.20553569129
0.790708630928
0.543070976274
0.385225751147
0.285573028297
0.229695694039
0.203452703317
0.195786175172
3427.30543506
694.011422949
171.750371775
59.0718918448
28.7894478602
17.9077935441
12.3228898264
8.66183544917
5.94800462393
3.98169217275
2.5945834638
1.67231925202
1.09966793116
0.755993694479
0.540693703427
0.395902960195
0.303207074263
0.25118657981
0.226648415492
0.219070710266
5708.01378518
956.162813718
200.35867393
59.1361503604
25.7668307866
15.0095160705
9.93699212014
6.82232959292
4.67875586194
3.1726414752
2.1224900265
1.42601011914
0.988800939045
0.713389509955
0.527802347174
0.39835535438
0.316867469444
0.271559762277
0.24982408632
0.242127201729
9218.10125181
1436.64266969
274.827845587
69.8662332161
26.479149115
13.7552585177
8.37334963914
5.48060084389
3.70331722897
2.53487548704
1.75066460181
1.23587905126
0.900911602141
0.673008490803
0.508380625196
0.396075052511
0.327613249654
0.289534552912
0.270012987068
0.26088031509
11690.9377244
1908.81956201
374.171837119
88.9953277781
30.0485188816
13.7717731962
7.58726084551
4.6575571127
3.06798069237
2.11795054196
1.51346185202
1.11337797487
0.835720382474
0.631414183404
0.485399457071
0.390768333023
0.334257738853
0.301840611001
0.282906814636
0.270171143096
12190.9197559
2274.77481965
483.619401265
115.420387936
35.6591485675
14.6775565766
7.40004531704
4.27187099365
2.7351574776
1.89422717295
1.38152429829
1.0330062262
0.77624964895
0.588596260428
0.461164062624
0.38110563734
0.333158959662
0.303407441692
0.282138968391
0.266369707415
11157.7788634
2375.36167821
553.321293783
136.832347738
40.8876652157
15.8318727956
7.55084086827
4.16510259609
2.59653623169
1.78729271117
1.30252713535
0.966756098561
0.72108011957
0.548419590439
0.434344600592
0.362835086522
0.318523023455
0.289899127135
0.268438426164
0.252280349715
8936.44093738
2096.14052108
526.130871927
138.899458904
42.7698546575
16.4923195639
7.70715479777
4.145774987
2.54456364819
1.7371227938
1.25287275719
0.916556110569
0.674582044452
0.508352911996
0.399445039515
0.332482440952
0.291632372796
0.265426962079
0.24563551397
0.231548984689
6360.53894905
1627.52948761
439.187535033
125.859456468
41.2790879749
16.3607466225
7.69560154821
4.16623194651
2.57902584695
1.75141356402
1.23853546782
0.881026704247
0.628324606755
0.459743586233
0.356340272771
0.295293368027
0.257997366554
0.234503135413
0.217586647096
0.203628673904
4609.89588027
1280.91157116
370.530072905
113.649228632
39.2895878523
16.3304622544
7.9505699815
4.41377576423
2.73966099471
1.82155254122
1.23944488291
0.839136199967
0.570457285958
0.406717262274
0.312860431162
0.257323760571
0.223072560317
0.201866428196
0.186913351005
0.173815897966
3982.8223672
1179.88983341
353.124309821
112.253727027
40.9544762665
17.5385921432
8.70382343364
4.89733548726
2.99735277871
1.90264917727
1.21625960411
0.777796269104
0.513014957234
0.361772505134
0.276123628632
0.225076198994
0.192871935589
0.172837105041
0.159681253171
0.149363389605
4332.55970449
1292.38058593
376.230883758
117.408991225
42.7659584871
18.5417931899
9.41664690343
5.37217833104
3.19887835154
1.91681931745
1.16513460346
0.725437037733
0.473739975353
0.332255911879
0.252250019158
0.204110738542
0.172660373343
0.152868911781
0.141405201844
0.134623084438
5643.16322041
1537.80736194
400.991968679
115.299959367
40.8534861863
17.97828333
9.46683052046
5.51918448473
3.25579733898
1.89448154453
1.12692457433
0.696408465167
0.455531632873
0.320979913216
0.244295219877
0.19745395515
0.165393676328
0.144805109543
0.134062112595
0.129847751739
7343.27065087
1556.65941102
391.933098429
109.582750306
39.0041661833
17.6696400027
9.37461623866
5.4619708335
3.22288364769
1.85726511842
1.10128771963
0.684960002537
0.454285798306
0.325726934012
0.251728515727
0.204840616581
0.170885340752
0.148457045437
0.136959362975
0.133062308475
7713.74092965
1622.70709285
391.070813573
109.809801114
40.8181720069
19.2852697448
9.43446400326
5.25114190042
3.09318626848
1.79216729886
1.07754477095
0.684245807068
0.465441536055
0.342880013728
0.27129131366
0.223379023985
0.186652710577
0.161767577401
0.148296883401
0.142138252235
7925.23470436
1738.20931233
428.031383683
120.418385861
46.0084169959
22.4902078323
9.79297091218
5.04455649983
2.92325258795
1.71730020977
1.05890135166
0.692849376611
0.486773121686
0.37004510806
0.299683247798
0.249420267694
0.209441212096
0.181910437301
0.165616965682
0.15536415709
7867.00454574
1835.0130692
479.556242544
142.062694196
54.9768705471
27.1093177529
11.0072550592
5.2301248308
2.9060919461
1.70939019391
1.0730678483
0.720226929511
0.52114090682
0.406563981753
0.334477712726
0.279789219572
0.236398346412
0.206166791983
0.186283115429
0.171738607878
7467.29193187
1854.88186379
522.653607143
167.521177375
66.8821993845
33.2893010607
14.9535048052
6.34793780583
3.25125471912
1.85016856618
1.14914016894
0.777110167727
0.571640667488
0.451852870065
0.372861549695
0.312072170525
0.265548063662
0.232733649281
0.208966947128
0.190692277739
6819.13888137
1770.07062929
527.387790721
179.555397836
73.7719756642
36.7927083971
17.975390839
7.85260127545
3.8384487424
2.10240201358
1.27476385787
0.85766217917
0.632611827496
0.499334222468
0.410333277095
0.344579505336
0.295924894959
0.260942130296
0.233727854754
0.212777791237
6211.58950587
1637.49018499
502.277731002
177.42309543
74.6287741509
37.4591498166
19.2454430894
8.80417048993
4.30426053088
2.33336964635
1.40235210673
0.941475128138
0.692124761471
0.543664576486
0.446187706252
0.37665550166
0.326563057467
0.290469445205
0.262174551886
0.241689527692
5764.41218389
1506.48359357
458.318090906
162.964488077
69.2496013119
34.9206150792
18.3911252545
8.78683020898
4.43043080646
2.43886577095
1.4830841796
1.0038737711
0.740848453125
0.582939557002
0.479907165626
0.407967152739
0.357383285453
0.321833134266
0.29586091045
0.281697369345
5705.40261744
1409.70914478
406.236275253
139.788954762
58.8282231673
29.6814713079
15.6993369753
7.98722878275
4.24539710014
2.4135910575
1.5030193572
1.03697765937
0.775315568661
0.61496256897
0.509797656106
0.437436739767
0.388361512597
0.356552348516
0.337770653721
0.336342591593
6354.59906088
1415.94352379
373.178695939
121.149600795
49.4530575831
24.0598757491
12.9896676716
7.05871590854
3.93367848154
2.30957433883
1.47899188308
1.04533974336
0.795113583058
0.638172911385
0.534475825625
0.464656163718
0.420780460086
0.397779015767
0.39255551356
0.410692631656
8232.93868775
1608.83479575
387.611594258
119.669281701
46.0286171089
21.8966928528
11.6396624409
6.41256530802
3.64502328469
2.18750166326
1.43681669001
1.03834257918
0.802607163844
0.652904806154
0.554487163935
0.491914139438
0.459393660021
0.452151404012
0.467644934345
0.512181891468
11285.1285856
2059.39951114
489.229863653
140.221707004
50.5676962544
22.478341586
11.3418298567
6.10781661684
3.45258200293
2.09222353796
1.3981635537
1.02412241225
0.801697070562
0.662244989533
0.574348563128
0.526739282699
0.514148625523
0.530043856947
0.573126316283
0.647647014371
13744.8235435
2668.35438434
638.501132522
179.647390873
60.5791102739
24.7098593409
11.6744560745
6.05100322701
3.36710267237
2.03997085458
1.36833975963
1.00672353446
0.798778274669
0.674353670505
0.60575317069
0.584143970438
0.599960548454
0.644153600713
0.719526441843
0.815325905996
15071.2710949
3157.05052856
815.387606489
231.536796977
73.3485496018
27.4995344058
12.2026287815
6.11667585976
3.35219545668
2.01245964347
1.34231126433
0.995302984401
0.806913551763
0.706559475755
0.670668581119
0.686086213234
0.733998932132
0.806975736007
0.912510463782
0.987209727265
16636.0161358
3780.32870394
1030.07537652
291.570652012
87.3949333396
30.3205536296
12.7079848797
6.1925472087
3.3461415306
1.9935391953
1.33528682646
1.01015275076
0.850740391576
0.789409624472
0.801156856283
0.857756290109
0.932716195403
1.0271323473
1.1312655068
1.05682574936
15880.9354115
4134.33868097
1158.23355923
331.962420283
97.3446945034
32.0734384545
12.8786189173
6.17644289019
3.34809324808
2.01743506729
1.37863026822
1.08469819427
0.97184941471
0.968534903548
1.03635495487
1.12562221249
1.21121659969
1.29852905587
1.30508570463
1.01856114342
13726.7042065
3801.71443578
1107.25075556
325.740628129
95.821887657
31.1584580952
12.5336008791
6.15029594058
3.43116436588
2.12700299953
1.51415453216
1.27399125295
1.23563598937
1.30706110342
1.42485458182
1.52288141208
1.57831784516
1.56315543325
1.29675189614
0.955926967294
11004.4094228
3100.94903048
909.966057212
270.495225338
82.0621453559
28.3046489893
12.1689413051
6.28743765624
3.64875827638
2.3662189147
1.81098115493
1.6723385529
1.7450141922
1.89845222458
2.04065943807
2.09395160411
2.00554363375
1.67761853224
1.18184958292
0.884232104564
7702.08397121
2180.70074314
643.041807678
198.43617777
66.3102082673
25.845937323
12.1299134191
6.58545111485
3.99736342201
2.79589774951
2.39305584607
2.43873318797
2.66168656384
2.88311235047
2.98499140489
2.84388097689
2.32498783584
1.58402482
1.04919647076
0.78384769393
4687.72713903
1365.92834984
425.562619286
146.082112597
55.9812652666
24.348013816
12.1254771298
6.84068035889
4.44564978858
3.52213113212
3.44071925841
3.75176130887
4.10378875486
4.3010815327
4.14164642895
3.4213833761
2.34490718094
1.43605630856
0.895866409011
0.654601310148
2755.10743932
875.655650226
308.37455062
122.116561454
51.51890711
23.2948251472
11.7399680598
6.85382710406
4.94659935899
4.5022672101
4.72463040685
5.10503070277
5.36892612467
5.30778317208
4.6849146786
3.50844071209
2.20345776354
1.24056368085
0.726168218161
0.52300636245
1885.65638135
649.554134394
258.582395615
117.246626036
51.9453020363
23.4375775357
11.2589104676
6.57862773128
5.10654724898
4.94689754765
5.26772219382
5.59908333883
5.6894800143
5.37858070437
4.5169236053
3.20027411484
1.88299292843
0.995203778477
0.571404915955
0.425366073142
0.164011934038
0.177627868034
0.198483218921
0.231254951028
0.280759033469
0.348664890729
0.426951672215
0.486380852677
0.526122574963
0.550676546551
0.567081786519
0.58452970682
0.621976293001
0.716430919264
0.95440805796
1.68260936027
4.76811340996
4.07771951132
1.88614415919
1.24584247685
0.16697811277
0.179462184384
0.197660476563
0.223253532966
0.25864794887
0.30582258903
0.367134574421
0.439536082208
0.497455595544
0.542222167835
0.589305425874
0.663106801695
0.810685213715
1.12521517107
1.86658551017
4.14820967916
19.2657318101
10.2909970227
2.87001666195
1.42230772259
0.180053167575
0.19185277351
0.20879507948
0.230987023015
0.259528893424
0.294818968751
0.336417314641
0.386241738666
0.443357468463
0.507951879319
0.607002715639
0.809018929672
1.27031550997
2.37146122823
5.08771798911
13.3167777723
111.66011912
21.7875400905
4.96052134454
1.87167052842
0.199592446625
0.2103865122
0.225851897818
0.245680658757
0.270253287418
0.299754499864
0.333763538255
0.373021392904
0.425900950689
0.524280346811
0.759149124368
1.36446502991
2.92747590528
6.58707496049
15.2602026573
44.2134060478
218.940608525
57.2632902378
9.10854016445
2.2414939562
0.221825492264
0.23079318179
0.244202782774
0.262002751976
0.284177058999
0.310674394479
0.340780712118
0.378634112222
0.454286924413
0.67558795498
1.34900702934
3.11610343859
6.82044301277
18.5044987233
43.8514783934
90.4992366817
171.92807829
62.5907490955
10.491893191
2.13920623847
0.242802156943
0.24897926758
0.260472782512
0.27685309096
0.297482240697
0.320956191917
0.346058390432
0.395526832308
0.598757909891
1.32666589168
3.11387712148
7.29445225073
20.3666122155
45.8256811348
62.9942235213
83.5177490583
113.311553406
51.6095465086
7.45721841534
1.77134219105
0.258283253767
0.261460848885
0.272310667785
0.287529217476
0.305924822308
0.323119713227
0.34846793957
0.493001787018
1.17449642399
2.84580487547
8.63759855333
21.5194073497
39.6738041781
51.3488863699
60.9028800173
68.3263870891
67.9070824682
26.4339997482
3.01328874488
1.38375516905
0.263813399432
0.26664703063
0.276720165721
0.289504150932
0.301869329456
0.314060313785
0.39745956675
0.921154587619
2.34962512073
9.11650934118
22.0519950962
32.7222575258
40.2206391375
46.0907090431
49.1119870368
49.4103480982
41.865266869
7.20086366628
0.927009936695
1.13405406237
0.259081074393
0.262697671484
0.269476054985
0.27651066491
0.281591490565
0.321219192462
0.613544308826
1.57778177466
8.12568587606
20.5290203416
27.9268199411
32.9564942193
35.7059929509
36.1049234843
35.3950298588
31.7693107425
19.0497464519
1.56750926865
0.441604069696
0.995057343932
0.246060063986
0.246099497404
0.24742276899
0.247054575216
0.257915297434
0.395952161492
0.934600227292
5.00362019115
15.9970938561
23.8522197439
29.1108704281
31.5359590325
31.4589112821
27.9067185834
21.1415791531
13.4283958251
5.59903964908
0.542239320376
0.326693316395
0.90033023302
0.222477072977
0.217702323486
0.212877332675
0.210081729319
0.267246508505
0.470022990475
1.27634950122
5.70310497556
19.1710176782
26.4153895596
29.9784969388
31.1113520653
29.3860097934
22.6568410967
7.68101808234
3.00351351648
1.24153774669
0.296949219227
0.282597334299
0.820534907846
0.192226914953
0.183791531982
0.176370706226
0.194506114212
0.276452691191
0.514407609416
1.23980561147
4.2090104566
19.8358334446
30.5201080424
33.1464663206
33.1236713585
28.7231903563
15.8771966969
2.18669667432
0.793392099434
0.366651867411
0.217372629577
0.258162951957
0.743858131897
0.162817970765
0.154225229159
0.15613899012
0.192079069646
0.29371469228
0.523505581433
1.09284441871
3.04798090728
13.249153442
34.7941721997
37.1020791562
35.9849990885
29.6810428345
7.40165334029
1.12854676235
0.458502661181
0.270277385914
0.19505145826
0.2415063236
0.668568157176
0.141439331494
0.138430967193
0.152585189608
0.200801949327
0.30863535703
0.503119182151
0.951232196888
2.43771475504
9.06597753116
35.6513486358
37.9241380007
35.3476524915
26.9637882361
3.3837403243
0.825908008013
0.383672648503
0.241878333317
0.185459675984
0.228177321458
0.594869926043
0.131153738312
0.134058901743
0.155748301118
0.211856785211
0.31311051831
0.465155136905
0.829083932797
2.09821663751
7.40860752372
31.5323780238
34.9700528693
31.2356861095
15.0703937948
2.005498783
0.665242423707
0.342373767025
0.229060227027
0.180503341556
0.218351464246
0.525173472309
0.129444224121
0.135896439771
0.16156210081
0.220994757109
0.309671341169
0.419945280399
0.698439441405
1.66808964636
5.43752468422
22.5792385926
29.5141216811
25.3566803469
6.4403619429
1.38004733694
0.550522776111
0.312628804539
0.22290720764
0.177342066576
0.211607652424
0.461956243365
0.132940047047
0.140777396571
0.168634376781
0.229372672777
0.3059064021
0.379436457261
0.571959177291
1.19480778129
3.27862190569
11.2643715987
22.0625672378
16.5786136426
3.47696003728
1.021596585
0.461100612347
0.290734648938
0.218753174547
0.175745197628
0.208700398186
0.410913615351
0.139590795364
0.148111161838
0.177877594063
0.239516906153
0.306485650532
0.348733083057
0.469595212322
0.83514990566
1.87218189782
5.04395473926
12.4343735673
9.89528478995
2.20698701384
0.762587797409
0.385835091821
0.268075373166
0.214213795328
0.177143463499
0.208597991298
0.373064462333
0.149597662444
0.159558380735
0.191165374134
0.253038215988
0.312357333509
0.330254644091
0.401758228508
0.61075093054
1.12283320708
2.48403543451
5.60703671517
5.66894383747
1.42772373162
0.559252021203
0.316441612816
0.242708320441
0.209438759656
0.181986139544
0.211196493725
0.346719394368
0.164187858187
0.177277078599
0.21113315103
0.270377954298
0.321717568287
0.323589671777
0.366780569122
0.494120769027
0.737055941919
1.32984995633
2.61415440512
2.93982106819
0.894749362778
0.400971328509
0.248776098855
0.213986989767
0.203936433435
0.189682276946
0.217667281682
0.332901633014
0.1839384938
0.204187686465
0.240488887263
0.290620094011
0.332305441915
0.328949812374
0.358490881976
0.447830898105
0.563930902904
0.813638200855
1.32683288099
1.43840387794
0.551362183647
0.273743933327
0.184500185929
0.18480691092
0.198009047883
0.200542610604
0.228840947087
0.330798399009
0.210238217085
0.243533169367
0.280157793527
0.314205008399
0.345505411911
0.351237602833
0.373430799088
0.443153760341
0.511461138766
0.609469540523
0.798862525827
0.739730415204
0.339831973191
0.180679418251
0.137658997802
0.162784838962
0.198369709969
0.217593612401
0.245598155855
0.337510907469
0.246469845329
0.298084176416
0.327818859281
0.342770328212
0.370465440698
0.400201109714
0.412678114558
0.468088690367
0.518049148531
0.545927607735
0.573396473984
0.427630024706
0.203090680943
0.126098759786
0.109464363964
0.150774491323
0.205049005568
0.240857381171
0.267443001354
0.349878109253
0.298540751873
0.369012481003
0.379418136758
0.378084914242
0.419172218712
0.483704237376
0.480554868907
0.523507577617
0.558085017746
0.5343797685
0.436471884756
0.252260476738
0.126713843669
0.0966101618553
0.0960609084183
0.146010833383
0.214129520118
0.266332021993
0.291828129739
0.366170794036
0.371603952509
0.452165880776
0.429630694014
0.422647483433
0.499459009553
0.599002408187
0.581145516756
0.606762623423
0.60094366184
0.481498487709
0.322451810849
0.138127481504
0.0879010949968
0.0822762143751
0.0913203317076
0.145592107824
0.221840775227
0.287465522685
0.313938538992
0.386710986912
0.470468534689
0.533167533126
0.472060232054
0.479772108797
0.610109217585
0.730287363268
0.710054932868
0.684961288692
0.569705945109
0.390546543128
0.209919224381
0.0761915645194
0.0701956268242
0.0774489334853
0.090682381101
0.149284671519
0.229190888447
0.300656385304
0.326627607727
0.406042716308
0.596175685874
0.591573661121
0.507758718638
0.557495068087
0.748225362822
0.857183805746
0.796957445588
0.673762551687
0.483525634592
0.305354403053
0.112597065388
0.0485795044943
0.0625319187607
0.0752595804839
0.0928981579681
0.157922700399
0.239590335682
0.306383782197
0.325260737103
0.416955503731
0.727807468759
0.618923508108
0.554224068418
0.675105297327
0.918034544079
0.973139441332
0.829048244824
0.615270668855
0.398720702779
0.201969463379
0.0546284018378
0.0382112119484
0.0591611445893
0.0742346504965
0.0982074054002
0.171087374657
0.253647425104
0.310170712143
0.317475624469
0.42295389574
0.803394573748
0.64037226138
0.637185211893
0.846845264964
1.11576188204
1.08299191562
0.836297643075
0.535670416435
0.311090027289
0.108287483847
0.0304255340911
0.0354111861794
0.0583225800017
0.0756414888876
0.106294230207
0.184702156602
0.266282747732
0.309457984963
0.307207895953
0.430802626311
0.813892223997
0.685862466348
0.768132467883
1.06188683152
1.3156784023
1.17451084862
0.815440151075
0.454109905776
0.204121978779
0.0520009324336
0.0230521911475
0.0352817616239
0.0591072605002
0.0793664239512
0.115332115527
0.19408677672
0.268552975156
0.29294765493
0.292869093713
0.441068601273
0.812831127962
0.762146785351
0.939499925982
1.2873285037
1.47847356941
1.21943326789
0.748551942249
0.358667496506
0.116471154137
0.0270462209498
0.021395435053
0.0345610040445
0.0594187922433
0.0827871244268
0.12036756218
0.194919318463
0.259251437455
0.266042380862
0.2773834967
0.450093143232
0.82421115101
0.856606522472
1.11856871219
1.47186122067
1.56468441719
1.1902198714
0.640054932154
0.247578370653
0.0588413446445
0.0184552519471
0.0209046707753
0.0315172135134
0.0571270175756
0.0840230715574
0.120901264974
0.19005006596
0.242538587582
0.237264269178
0.265173621583
0.456377235864
0.832924548405
0.936458650156
1.24677733824
1.55628493371
1.54212187057
1.07238197795
0.514244673786
0.147423845587
0.0311812756971
0.016744544391
0.0203910203474
0.0262213280991
0.0521069045505
0.083762517333
0.119641678045
0.183965506947
0.222222889892
0.213226542149
0.256554918795
0.463317274522
0.809156670597
0.95270239851
1.25812171065
1.49534557239
1.39229204731
0.876795398975
0.352719844879
0.0798435843881
0.0222781875609
0.0175531297277
0.0201039659748
0.0203642062786
0.046046258993
0.0829306064414
0.118219180807
0.178686418632
0.198498674624
0.1938329952
0.25449572477
0.476025707993
0.732558062892
0.872002573638
1.1233273392
1.27967044294
1.12696734444
0.64838602408
0.212879462974
0.0485107846572
0.0213811752258
0.0194838175447
0.0200548776443
0.0160660919947
0.0441999930916
0.0842238829563
0.117453731405
0.168374400619
0.170997330495
0.181270998224
0.261509549797
0.496737781103
0.611230085592
0.713710117789
0.881494415378
0.959981907949
0.804966217258
0.437518608826
0.128088401943
0.0392446920319
0.0238927010384
0.0222037849009
0.0194984297366
0.0147949019151
0.0531119214746
0.0901728073695
0.118448968007
0.148318819404
0.145392180939
0.178718564725
0.277870088929
0.528599693219
0.485865351015
0.544645820424
0.630598491748
0.646220443863
0.521449347482
0.275868582923
0.0927230879117
0.0402871543045
0.028583254829
0.0255188293343
0.0181583504399
0.0187510660366
0.0753785366068
0.0996618813887
0.115777391216
0.121601634667
0.129021994658
0.183171138866
0.300574062864
0.571541918739
0.403154091499
0.432873066121
0.457951710295
0.43101402423
)
;

boundaryField
{
    emptyPatch
    {
        type            empty;
    }
    minY
    {
        type            fixedValue;
        value           nonuniform List<scalar> 0();
    }
    maxY
    {
        type            inletOutlet;
        inletValue      nonuniform List<scalar> 0();
        value           nonuniform List<scalar> 0();
    }
    maxX
    {
        type            fixedValue;
        value           nonuniform List<scalar> 
37
(
5.00635920148
5.13316452193
5.32275703174
5.25332288041
4.69621632148
3.93757310468
3.29896483859
2.86229619786
2.55082806035
2.33880568069
2.17325070121
2.02867955735
1.90000335272
1.7873203767
1.69605519733
1.62638737138
1.58485917722
1.57221526982
1.58909120457
1.63870473988
1.72187752519
1.83765448283
1.97296183979
2.10198408288
2.19266298569
2.21164901036
2.15994132973
2.09443773908
2.04555347426
2.01043379133
1.98450073981
1.96158860959
1.93233608528
1.9199691057
1.94799765698
2.02835519954
2.14721569322
)
;
    }
    water_to_heater
    {
        type            fixedValue;
        value           nonuniform List<scalar> 
60
(
12610.0007991
12610.0007991
11146.479825
11146.479825
10840.9387545
10840.9387545
12526.6500305
17954.3509338
26972.1920162
26972.1920162
34531.5693639
34531.5693639
37649.7044181
37649.7044181
35650.7576933
27908.9438993
18638.5322374
18638.5322374
13153.6305846
13153.6305846
11867.3269943
11867.3269943
13728.6773838
19196.0436206
26386.6607787
26386.6607787
29620.0766296
29620.0766296
31727.2883012
31727.2883012
32716.1897718
32045.3847852
29986.5292251
29986.5292251
27513.0225705
27513.0225705
25626.9746322
25626.9746322
25128.0243723
26794.2249303
32248.6542076
32248.6542076
41495.9255462
41495.9255462
50310.1541089
50310.1541089
54736.5023428
60796.6466058
58409.0600969
58409.0600969
50735.247899
50735.247899
39171.3963942
39171.3963942
24840.415938
13413.5681709
7520.37863284
7520.37863284
5366.2614677
5366.2614677
)
;
    }
    procBoundary1to0
    {
        type            processor;
        value           nonuniform List<scalar> 
41
(
1583.47401883
554.66410181
247.213053696
146.698274516
73.0452289245
30.3888768515
12.596912699
6.69560126201
5.05734237638
4.84008002163
5.07327676894
5.24693063781
5.12169510945
4.61202979539
3.69005153182
2.50452716414
1.43095879958
0.756946795881
0.466159194949
0.383016441236
0.343003330722
0.199449350283
0.0870833167978
0.0471649510576
0.0357259594157
0.0295325267976
0.0179678004784
0.0376756984555
0.111113830112
0.108707620771
0.101310293119
0.096532902893
0.122028116854
0.192962474808
0.326479703493
0.621496842557
0.383796864565
0.399909049351
0.3821720985
0.343003330722
0.325793707121
)
;
    }
    procBoundary1to3
    {
        type            processor;
        value           nonuniform List<scalar> 
41
(
13.3681331106
7.80202079773
4.48408605764
2.55956718936
1.46114558636
0.853563321012
0.526771110844
0.349082478147
0.249227888945
0.196878546642
0.173459714827
0.165996316038
0.167502472172
3798.47860961
1047.91005531
343.273141111
135.50328647
64.9465724883
36.5783576252
22.7318515109
22.7318515109
0.175900017193
0.192224246844
0.219886115274
0.269385054575
0.346639366663
0.436537838651
0.503206186396
0.544119267034
0.563543289844
0.566533967947
0.559373937595
0.54739894679
0.538686615098
0.552208996737
0.633358308105
0.943381901131
1.83363124397
1.87805826598
1.28114482086
1.19653212704
)
;
    }
}


// ************************************************************************* //
