/*--------------------------------*- C++ -*----------------------------------*\
| =========                 |                                                 |
| \\      /  F ield         | OpenFOAM: The Open Source CFD Toolbox           |
|  \\    /   O peration     | Version:  2312                                  |
|   \\  /    A nd           | Website:  www.openfoam.com                      |
|    \\/     M anipulation  |                                                 |
\*---------------------------------------------------------------------------*/
FoamFile
{
    version     2.0;
    format      ascii;
    arch        "LSB;label=32;scalar=64";
    class       volScalarField;
    location    "0.525/water";
    object      p_rgh;
}
// * * * * * * * * * * * * * * * * * * * * * * * * * * * * * * * * * * * * * //

dimensions      [1 -1 -2 0 0 0 0];

internalField   nonuniform List<scalar> 
6000
(
101665.277203
101661.911429
101661.390951
101660.769697
101660.164899
101659.600687
101659.079821
101658.607562
101658.188358
101657.820351
101657.501675
101657.229268
101656.998541
101656.805056
101656.645089
101656.51557
101656.413999
101656.338427
101656.287435
101656.260002
101648.376894
101653.48182
101656.624701
101658.030766
101658.251465
101658.175678
101657.99236
101657.778934
101657.554941
101657.334012
101657.131098
101656.951537
101656.793362
101656.65429
101656.533574
101656.431487
101656.34868
101656.285855
101656.243698
101656.222786
101636.416275
101643.324665
101649.814502
101653.598792
101655.221739
101655.961341
101656.281277
101656.402392
101656.430206
101656.408544
101656.362243
101656.309517
101656.259032
101656.212426
101656.169854
101656.132253
101656.101406
101656.07953
101656.068934
101656.071613
101627.029734
101634.469996
101643.346377
101649.304253
101652.50384
101654.162367
101654.957874
101655.316266
101655.481316
101655.563927
101655.608268
101655.634922
101655.65526
101655.674294
101655.693157
101655.712182
101655.732205
101655.754681
101655.781446
101655.814199
101618.656749
101625.493227
101635.054602
101642.968282
101648.430153
101651.849533
101653.678706
101654.503742
101654.830499
101654.962945
101655.031798
101655.081435
101655.126102
101655.17164
101655.219777
101655.270343
101655.322948
101655.377571
101655.434579
101655.49431
101612.828398
101618.291329
101626.554557
101634.833706
101642.146145
101647.875163
101651.601857
101653.530492
101654.289858
101654.518203
101654.58517
101654.623388
101654.66354
101654.711683
101654.769
101654.834517
101654.906611
101654.983759
101655.064715
101655.148189
101607.661246
101611.848437
101618.325647
101625.629412
101633.576083
101641.272397
101647.451247
101651.430052
101653.343327
101653.962269
101654.091607
101654.127971
101654.168853
101654.225113
101654.296601
101654.38125
101654.476321
101654.579051
101654.686871
101654.797122
101601.197143
101604.752707
101610.111011
101616.255402
101623.896528
101632.433758
101640.563383
101647.054565
101651.124857
101652.876139
101653.337848
101653.449553
101653.535992
101653.637986
101653.754905
101653.883992
101654.022125
101654.166092
101654.312783
101654.459153
101592.603241
101595.873585
101600.755317
101606.396926
101613.726998
101622.400171
101631.478463
101639.969523
101646.748037
101650.732707
101652.180274
101652.555127
101652.756479
101652.955957
101653.159875
101653.365816
101653.571596
101653.774926
101653.973486
101654.164908
101581.686464
101585.002837
101590.044194
101595.660673
101602.88626
101611.568656
101620.97394
101630.630204
101639.792102
101646.888942
101650.480504
101651.572892
101651.979038
101652.311071
101652.626091
101652.925
101653.208303
101653.476139
101653.728158
101653.963616
101566.33949
101573.405651
101579.661955
101585.134416
101592.071844
101600.71867
101610.304754
101620.460318
101630.972573
101640.965488
101647.917096
101650.708465
101651.503785
101651.951222
101652.35033
101652.717104
101653.054723
101653.365671
101653.651505
101653.913075
101559.376756
101568.115384
101573.513289
101577.674599
101583.436236
101591.471364
101600.95044
101611.077745
101621.780055
101633.182689
101643.652461
101649.710966
101651.549094
101652.101141
101652.506025
101652.874544
101653.211626
101653.519673
101653.800459
101654.055214
101553.786335
101562.609303
101568.049984
101572.01032
101577.157659
101584.395163
101593.293111
101602.979329
101613.023203
101624.082119
101636.634815
101647.193296
101651.77393
101652.760611
101653.116191
101653.418681
101653.696317
101653.950601
101654.182629
101654.393299
101548.726298
101559.51584
101564.15239
101568.436379
101573.906536
101581.282327
101589.148207
101597.256246
101605.551346
101614.895874
101627.364443
101641.777746
101651.188622
101653.726274
101654.09886
101654.282653
101654.451023
101654.607799
101654.753133
101654.887411
101543.353901
101555.535702
101559.550568
101564.589891
101571.123332
101579.156176
101587.130099
101593.721359
101599.786126
101606.897971
101617.999091
101634.134906
101648.780671
101654.57949
101655.314279
101655.347497
101655.365978
101655.391785
101655.423424
101655.460115
101539.048302
101554.946659
101557.770453
101563.275015
101570.884046
101579.515244
101586.868128
101591.915254
101595.576283
101600.717306
101610.490635
101626.643002
101644.728929
101654.768779
101656.518243
101656.421487
101656.270126
101656.152203
101656.063913
101656.001794
101534.107499
101552.927206
101556.846107
101563.441617
101572.094864
101581.038603
101587.087929
101589.72465
101591.585199
101595.602359
101604.62206
101620.257254
101639.963504
101653.910584
101657.313807
101657.209889
101656.921163
101656.690848
101656.51404
101656.383973
101527.698393
101551.024629
101557.459221
101565.032046
101573.523077
101581.226518
101584.995349
101585.742652
101586.569198
101589.962156
101598.373935
101613.52331
101634.380679
101651.715906
101657.273686
101657.394112
101657.068547
101656.813063
101656.624685
101656.494361
101519.478673
101545.816362
101554.158166
101562.537616
101570.331876
101576.603238
101579.305449
101579.30611
101579.370232
101582.095168
101589.581683
101604.053537
101626.189842
101647.344637
101655.994012
101656.765213
101656.557794
101656.407046
101656.319601
101656.28446
101510.877011
101538.333035
101545.996062
101554.313627
101562.256758
101568.37467
101570.312915
101569.392031
101568.999631
101570.803926
101576.622085
101589.367503
101612.016098
101638.333322
101652.719938
101655.268269
101655.410088
101655.51023
101655.647931
101655.809808
101506.434117
101527.843336
101532.664742
101539.328504
101547.439214
101553.912289
101556.06079
101555.928855
101556.287745
101558.295418
101562.047462
101569.763017
101588.809761
101619.98536
101645.285246
101652.890897
101653.890426
101654.362406
101654.81814
101655.250099
101495.750953
101507.635839
101507.695865
101512.220475
101522.342315
101532.45915
101538.28593
101541.680784
101545.396402
101550.319373
101553.29728
101554.254146
101562.050856
101590.669841
101629.24102
101648.923489
101652.471159
101653.399286
101654.178859
101654.884165
101476.746867
101479.117649
101477.679563
101481.81777
101494.630785
101510.01846
101521.533166
101529.941601
101538.420172
101545.404028
101548.342493
101548.680805
101549.347488
101563.508456
101603.42986
101640.505473
101651.32334
101653.07603
101654.09578
101654.997808
101453.402322
101455.655281
101455.78001
101460.533051
101473.683896
101492.168601
101508.772717
101522.248087
101534.824634
101545.455034
101548.737112
101546.358888
101545.645902
101549.045405
101578.77406
101625.987124
101649.641545
101653.668199
101654.825744
101655.788209
101435.755391
101446.19542
101447.046779
101450.230091
101461.183516
101480.625683
101500.930506
101518.989091
101535.39182
101549.896823
101553.276534
101549.348013
101544.390496
101546.056383
101565.445285
101610.403174
101646.193839
101655.04344
101656.419787
101657.29978
101432.158266
101442.533062
101444.00938
101444.937348
101454.004869
101474.09593
101497.286171
101518.732717
101539.25565
101553.970186
101554.663635
101554.17297
101547.926738
101546.436832
101560.183337
101599.109457
101641.417427
101656.739712
101658.726078
101659.430646
101428.783016
101441.174124
101441.928236
101442.196472
101450.779017
101471.45068
101496.601453
101521.538964
101545.805469
101554.895824
101555.133494
101555.558575
101554.488792
101550.079627
101558.412345
101591.349001
101636.546646
101658.376012
101661.498498
101662.003046
101427.280567
101439.767456
101438.968127
101439.83471
101449.075953
101470.731373
101498.36483
101527.896667
101553.076768
101555.878683
101556.089856
101556.107509
101556.408757
101554.754526
101556.792044
101583.898588
101631.391159
101659.652379
101664.492686
101664.831737
101423.543839
101441.220409
101438.1771
101440.306836
101451.225755
101474.647601
101505.412137
101537.62911
101557.321763
101557.041348
101556.960647
101557.24029
101556.81398
101556.903611
101552.143025
101574.455108
101624.471373
101659.917433
101667.467511
101667.755191
101422.214778
101443.361123
101439.313076
101443.423568
101457.457598
101483.585066
101516.624357
101548.818919
101558.631054
101558.203169
101558.2408
101557.689647
101557.867549
101556.009019
101539.043696
101560.979168
101614.227784
101658.126801
101670.16272
101670.653237
101418.935396
101449.122029
101444.854454
101450.908743
101468.167579
101496.754209
101530.158596
101558.054705
101559.648891
101559.258145
101558.584185
101558.639787
101557.338279
101549.421904
101530.82217
101548.963394
101600.705432
101653.40111
101672.305205
101673.441279
101417.761824
101456.012921
101453.761084
101462.185458
101481.988825
101511.844733
101543.6729
101561.004706
101560.059001
101559.363866
101559.280289
101558.080623
101558.027878
101536.800521
101529.399709
101540.56073
101586.993131
101646.219885
101673.489285
101675.931164
101413.992004
101467.230569
101469.085808
101480.110642
101500.023677
101527.773485
101555.277747
101560.627449
101559.637465
101559.234886
101557.992787
101557.890228
101552.816861
101527.565343
101527.656564
101533.994675
101575.123492
101637.708659
101673.251681
101677.818368
101411.717596
101479.34757
101486.955395
101501.033262
101518.787378
101541.136931
101560.209415
101559.083089
101558.252773
101556.899224
101556.530796
101554.311593
101533.992922
101524.570833
101524.13397
101527.950409
101564.470139
101627.554233
101670.886908
101678.749368
101405.857074
101492.694055
101501.174585
101514.436288
101529.711827
101547.599091
101557.696539
101556.367724
101554.935456
101554.293344
101552.211118
101544.666233
101520.293416
101519.886459
101519.714338
101521.512297
101551.648795
101612.071717
101664.761586
101678.316348
101417.587785
101505.600309
101506.90289
101514.659522
101528.778118
101546.059039
101553.952654
101552.096505
101550.944741
101548.530539
101546.296104
101524.066994
101514.641215
101514.032468
101513.180776
101513.35594
101529.773783
101585.431726
101651.959764
101675.993108
101442.411809
101500.326346
101499.577254
101504.193199
101519.562052
101537.687549
101545.689295
101543.414685
101539.733509
101536.184309
101530.032145
101521.537207
101515.694145
101510.784127
101507.049625
101502.186367
101501.052186
101550.017182
101628.629522
101670.59561
101441.378107
101471.992335
101459.362091
101462.829785
101486.972204
101509.434919
101517.04043
101515.774534
101515.584446
101520.271368
101524.738585
101527.163014
101523.293811
101515.520541
101504.36447
101490.405607
101490.194085
101508.802096
101590.216663
101658.954974
101400.51773
101393.446929
101370.038721
101376.819671
101412.724556
101447.510408
101466.519266
101477.416193
101489.471345
101505.009674
101519.470461
101526.08078
101525.455866
101520.337259
101504.768601
101480.345912
101480.548609
101481.021792
101546.118045
101636.671517
101346.799798
101305.983345
101291.846488
101295.017335
101321.507067
101361.686117
101401.716855
101433.700158
101460.623596
101485.997203
101505.956938
101516.186836
101518.789071
101518.687363
101507.350087
101476.819055
101471.390818
101472.855591
101510.643276
101604.04563
101282.220786
101266.482926
101266.449025
101266.35032
101271.367921
101293.47626
101336.813881
101385.820135
101427.622048
101465.306211
101494.665299
101508.632862
101512.017662
101514.601416
101511.801398
101484.165226
101464.750649
101465.967988
101487.726583
101570.362894
101262.724884
101265.680789
101265.220922
101266.445332
101266.099387
101268.02131
101295.329437
101343.549575
101394.656675
101443.576663
101485.766238
101506.525439
101509.706031
101512.345891
101514.370877
101498.15068
101463.382337
101462.143715
101474.482877
101543.440581
101265.463685
101265.078217
101266.536906
101265.45449
101266.88572
101266.703886
101280.768555
101319.948389
101373.389241
101429.445985
101480.517066
101508.369892
101511.252915
101513.316876
101515.371902
101511.583944
101475.046436
101460.201977
101467.254237
101523.60359
101262.662713
101266.61026
101265.637968
101267.465559
101266.411653
101267.563217
101277.036137
101311.992376
101365.983713
101426.129325
101481.890557
101512.467238
101514.913727
101516.520884
101518.055504
101519.10045
101493.68998
101461.789439
101463.635399
101507.66367
101266.676727
101266.032766
101267.888829
101266.678685
101268.322062
101267.790313
101276.468262
101311.339258
101366.969313
101429.7394
101487.735458
101517.951692
101519.740804
101520.781211
101522.018459
101522.945546
101509.420578
101469.463114
101460.885532
101493.419633
101264.514408
101268.417956
101267.513672
101269.168812
101268.17541
101269.377213
101277.742434
101314.487117
101372.741842
101438.937455
101499.344818
101524.366907
101525.098157
101525.971683
101526.601779
101527.362118
101521.041823
101479.45093
101456.91671
101480.49087
101269.1806
101268.544649
101269.991516
101268.791926
101270.290461
101270.007408
101281.805307
101324.480826
101388.267491
101458.697662
101516.907297
101530.61298
101530.961681
101531.295455
101531.831357
101531.958598
101529.553082
101486.177128
101453.820667
101470.699292
101267.483657
101270.987075
101270.072795
101271.490617
101270.73924
101271.765793
101291.753853
101344.803653
101414.932217
101486.939675
101533.451463
101536.632746
101536.698487
101537.028452
101536.885393
101537.337533
101535.05425
101490.993307
101456.164816
101466.459823
101272.141641
101271.852752
101272.652332
101271.830779
101273.078341
101275.002979
101309.800398
101373.685072
101448.475946
101517.501739
101542.853788
101542.456925
101542.497382
101542.139436
101542.373167
101541.839958
101539.838448
101495.428973
101458.978769
101465.730411
101271.198697
101275.92797
101273.46809
101274.376152
101274.141643
101286.975113
101336.903212
101408.44542
101484.988898
101542.357716
101548.588388
101548.174214
101547.639475
101547.739785
101546.915589
101547.025706
101542.577796
101499.104002
101462.65363
101465.537975
101274.758546
101285.944911
101275.479096
101275.360239
101278.56319
101310.271606
101372.14334
101447.612896
101521.62817
101554.862407
101553.873098
101553.113059
101552.997062
101551.866224
101551.750824
101550.463282
101544.512138
101502.586663
101466.802274
101462.422202
101274.146283
101300.997738
101284.328077
101283.71025
101298.358799
101345.472133
101413.600641
101489.568769
101551.612697
101559.603858
101558.392067
101558.012804
101556.667947
101556.449104
101554.810702
101554.429525
101544.584833
101506.395995
101468.932723
101453.570753
101275.081411
101318.579466
101305.177297
101309.182311
101335.486133
101389.461494
101458.825848
101530.893295
101564.457539
101562.924098
101562.255632
101560.799794
101560.525771
101558.525613
101558.057588
101556.211928
101544.5465
101509.597772
101468.803557
101444.173644
101271.942678
101336.569255
101332.340507
101346.669244
101382.090713
101438.06082
101504.710984
101561.455158
101566.470939
101565.489888
101563.939454
101563.679506
101561.460183
101561.063069
101558.917355
101557.561472
101544.177114
101511.678053
101467.705529
101440.059842
101269.207315
101354.180423
101362.19968
101388.803376
101431.060368
101486.159605
101546.178895
101569.07098
101567.611793
101565.979712
101565.766884
101563.362186
101563.097402
101560.537356
101559.253051
101556.917687
101544.511304
101512.929912
101465.578505
101436.50227
101266.106867
101374.916715
101393.056132
101427.545014
101473.338645
101524.905269
101568.818881
101568.608548
101566.875532
101566.588193
101564.020644
101563.95292
101561.046947
101559.918696
101557.223847
101555.659738
101546.321863
101514.288064
101462.260009
101432.052388
101270.476254
101401.549854
101419.293777
101451.106397
101496.386407
101545.167141
101568.36219
101566.377045
101565.688732
101562.909711
101562.83435
101559.50039
101555.382042
101547.220004
101551.783376
101554.840103
101550.465023
101517.276775
101460.281706
101427.187707
101289.536043
101420.489032
101426.878191
101450.811516
101496.44117
101545.784162
101562.839878
101561.643534
101558.987514
101559.104771
101555.202071
101536.501954
101522.648535
101536.873668
101548.853447
101555.720332
101553.916501
101524.526203
101465.112463
101423.988274
101310.478649
101401.585811
101401.512024
101424.441824
101474.097507
101527.878103
101550.368706
101548.062178
101548.402305
101530.070241
101498.350374
101483.871567
101507.498342
101531.889297
101544.940548
101551.413708
101553.823366
101537.288676
101481.98249
101426.022216
101290.058051
101331.870626
101325.349384
101343.909385
101398.945111
101462.91792
101496.801278
101493.814467
101466.16932
101428.43851
101417.942068
101450.563728
101493.652475
101522.488126
101535.656884
101541.761706
101549.160831
101551.345959
101508.811673
101436.654101
101230.703495
101229.90447
101225.515777
101236.440834
101281.156366
101342.914254
101377.716408
101371.330303
101345.394373
101331.692559
101358.246477
101416.047594
101473.549505
101509.263285
101524.908379
101531.33254
101540.99679
101553.342783
101534.629643
101458.915074
101158.439811
101171.551753
101172.734128
101176.688804
101198.943367
101239.579405
101272.0163
101277.664826
101270.747056
101273.67024
101306.341873
101369.236243
101442.135126
101495.970506
101517.342785
101522.169363
101532.020808
101548.879842
101551.867763
101489.559249
101151.46512
101159.24234
101158.537409
101159.980522
101171.297383
101196.738863
101223.302161
101233.961545
101232.704031
101235.942816
101261.057244
101318.977502
101402.414559
101479.338298
101512.529322
101515.066007
101522.073234
101544.379254
101562.212951
101520.153772
101147.232912
101157.24936
101158.080263
101158.236556
101166.482999
101188.208372
101208.080382
101213.389773
101209.916162
101208.395557
101228.297252
101282.655298
101369.350282
101460.923741
101507.656508
101509.286322
101513.204197
101537.277906
101562.320839
101544.443296
101151.575038
101157.826026
101158.116671
101158.299374
101166.737152
101188.637275
101205.440954
101204.393065
101196.816141
101193.231506
101210.492783
101263.108368
101350.635527
101446.822681
101501.498795
101503.388474
101506.305066
101530.938571
101563.910856
101560.270212
101147.818572
101164.357048
101159.453718
101161.069622
101173.057646
101194.474485
101207.835003
101203.778251
101193.779584
101194.009848
101205.018041
101256.471795
101345.359221
101441.701554
101495.56371
101498.223514
101502.700602
101529.979184
101566.618178
101567.191998
101153.280219
101176.718647
101168.433541
101173.470545
101190.684943
101210.516258
101216.018283
101206.974436
101194.445699
101194.586736
101205.299546
101257.846956
101348.037302
101444.451457
101493.601742
101497.516808
101504.227329
101532.852387
101569.620319
101569.794783
101149.886454
101195.657472
101187.053575
101196.476666
101218.672541
101237.200645
101234.503861
101216.612862
101197.398742
101194.971986
101209.93977
101266.653998
101358.332315
101452.169134
101497.522818
101500.716031
101507.647021
101537.288015
101572.363209
101571.874987
101154.013476
101215.921383
101207.554284
101223.096697
101251.484077
101270.202363
101262.450947
101235.283738
101209.872293
101206.034197
101228.341
101291.538238
101383.653366
101469.03758
101502.893029
101504.416673
101512.477386
101544.883098
101574.786197
101573.710581
101150.387648
101236.596991
101227.690762
101250.006731
101285.79849
101305.500896
101295.341975
101264.209593
101237.8309
101237.102128
101265.44172
101333.374152
101422.266059
101491.958122
101509.306741
101509.315314
101519.510962
101554.207277
101576.057438
101574.065203
101152.032735
101257.22068
101249.446121
101277.56688
101319.675802
101340.20685
101329.678444
101301.492483
101280.312987
101284.045283
101318.16667
101387.495212
101467.226451
101514.00009
101517.219014
101516.848533
101528.92935
101561.842472
101576.589442
101574.256396
101148.850478
101281.090094
101277.073001
101307.741854
101351.573565
101372.538207
101363.637821
101343.415821
101331.615816
101340.953769
101381.232464
101448.486298
101511.328022
101532.612745
101529.362995
101528.938353
101540.514312
101565.605266
101576.400649
101573.329617
101147.497386
101305.923384
101307.748344
101336.508603
101376.7459
101400.56428
101397.669903
101388.359523
101387.264025
101404.999609
101449.917108
101508.418168
101547.331685
101550.594416
101546.210351
101545.453285
101552.312859
101566.23004
101576.19544
101573.501244
101168.247069
101315.461347
101316.250084
101341.45948
101381.73401
101416.452902
101429.484198
101433.196232
101443.532629
101470.614391
101513.161279
101553.235742
101569.542218
101567.345257
101563.173409
101560.015358
101560.117176
101565.645908
101576.222708
101573.842597
101204.182322
101297.849938
101294.099699
101319.413025
101365.417017
101407.411908
101435.448761
101456.694786
101480.354599
101512.451545
101547.445484
101570.812296
101576.58339
101575.180607
101571.696599
101566.786681
101562.624751
101565.479401
101576.154633
101575.46459
101187.211504
101227.669236
101222.569514
101246.329017
101304.453068
101368.359638
101411.088393
101441.968139
101473.932329
101510.291564
101545.25111
101567.312514
101574.137336
101574.40061
101572.492635
101568.629351
101564.381976
101566.891883
101576.438964
101577.485885
101131.277897
101121.231111
101122.908978
101137.749181
101185.37778
101261.372686
101334.631316
101393.779598
101444.398325
101491.133772
101532.80604
101560.119696
101570.340835
101572.373652
101572.435964
101570.654916
101568.097
101570.596096
101577.548062
101580.266887
101059.946792
101056.606571
101065.506705
101069.989379
101084.847671
101124.070958
101190.159024
101271.761664
101357.457086
101435.53239
101501.650747
101549.122409
101568.956628
101572.667936
101574.429224
101574.881738
101574.246397
101575.679612
101579.845464
101583.624863
101014.411503
101046.804332
101055.981988
101055.985989
101056.020603
101061.069164
101082.747464
101137.683377
101230.963898
101339.367647
101441.729813
101526.052905
101570.062774
101576.548259
101578.574782
101580.523871
101581.479601
101581.856849
101583.810459
101587.509671
101015.318754
101061.73176
101061.991042
101059.08843
101059.10158
101059.176102
101060.416447
101091.578127
101169.116275
101277.470535
101394.759796
101503.978881
101572.899934
101583.623696
101585.163211
101586.667593
101588.303368
101589.16943
101588.783512
101589.649679
101016.708931
101112.141583
101085.106756
101066.299354
101062.287594
101062.352848
101065.004738
101096.307432
101171.164362
101276.17984
101393.667752
101506.964883
101581.016206
101591.682228
101592.570949
101593.84974
101594.828589
101596.088254
101592.833764
101587.797829
101020.512657
101190.053343
101127.611608
101095.324082
101080.592854
101080.260779
101088.346336
101122.582388
101193.501111
101294.420737
101410.501714
101523.238067
101593.016799
101599.428508
101600.151604
101600.516129
101601.428905
101601.004682
101591.022851
101581.866623
101021.934859
101255.890482
101186.03328
101160.77643
101142.018809
101142.78966
101156.841775
101194.018733
101259.67715
101352.205969
101461.900142
101564.077933
101606.702145
101606.515817
101606.382853
101606.837858
101606.507159
101596.736928
101582.386884
101581.980521
101024.311694
101295.720889
101248.308702
101251.485626
101251.177666
101261.864944
101282.732505
101320.165073
101379.441718
101461.021018
101552.085703
101609.02274
101612.254383
101611.34517
101611.248267
101609.776981
101596.718785
101580.064747
101580.360823
101583.761752
101054.107135
101298.933082
101289.430855
101315.739295
101356.793615
101398.934301
101433.773535
101472.001434
101521.221218
101577.582004
101613.38872
101614.548457
101613.084284
101612.558406
101602.113456
101582.090426
101565.717161
101569.968976
101581.079985
101588.732992
101121.176043
101292.246021
101285.296702
101312.336762
101377.07732
101452.4912
101506.634225
101544.127705
101575.067177
101599.900936
101607.008975
101605.037234
101591.748024
101567.312043
101537.252182
101522.594334
101537.499936
101568.230956
101588.001703
101598.957513
101147.234219
101239.703779
101232.314009
101262.997766
101337.193561
101420.971989
101480.975391
101518.739807
101544.241302
101557.76508
101548.586888
101516.953284
101472.567785
101435.098741
101427.81645
101458.294741
101518.296995
101571.01601
101598.270174
101606.956991
101089.814313
101100.869563
101110.820326
101148.633367
101223.075898
101306.660479
101368.380604
101398.308704
101405.11255
101394.80603
101360.63848
101315.099976
101284.791701
101290.519145
101335.830543
101411.237478
101502.074182
101574.403812
101602.88736
101605.770603
100981.235009
100962.452111
100997.401012
101038.562009
101080.519683
101124.272392
101158.114886
101168.750535
101166.090898
101163.208201
101155.174893
101154.016924
101176.431979
101226.297335
101301.326283
101395.731569
101498.4886
101580.277111
101603.440429
101603.749071
100875.544115
100907.291172
100955.006533
100990.101417
101009.090151
101020.02612
101026.881294
101028.003689
101034.857894
101055.057533
101081.484827
101115.298936
101160.960773
101222.883796
101303.880409
101403.718367
101512.359835
101594.672082
101606.254733
101605.915288
100856.271784
100909.708519
100946.427473
100977.099351
100997.479792
101010.65124
101016.383235
101018.040216
101027.583162
101051.450835
101083.272447
101121.95247
101172.761045
101241.77789
101333.751838
101446.60305
101558.822129
101611.783361
101611.887375
101611.316597
100857.455095
100919.912183
100946.250719
100970.960173
100994.621544
101020.524902
101037.360531
101042.588727
101053.779419
101078.662075
101114.386593
101161.639795
101224.509779
101308.743133
101416.338056
101534.510494
101612.685838
101619.835037
101619.217186
101617.67724
100879.931452
100935.687353
100949.380816
100965.714089
100989.129036
101036.38022
101092.814796
101116.508923
101134.16999
101162.328888
101203.604361
101260.343532
101335.658103
101431.34214
101538.697724
101616.67638
101628.370994
101627.715385
101626.392442
101625.561756
100919.646999
100950.553641
100954.938152
100962.07906
100980.03905
101033.655636
101138.8999
101218.00993
101257.562011
101295.986459
101345.960497
101411.15241
101490.097068
101572.855516
101628.451222
101636.482923
101635.979291
101634.917982
101634.555969
101628.077312
100936.533113
100960.126479
100961.230098
100962.518372
100972.432165
101020.522163
101136.248701
101279.209114
101374.415724
101440.625604
101506.258688
101571.523419
101620.88636
101642.942915
101643.880389
101643.77884
101642.970653
101642.851776
101640.007119
101529.118997
100938.495582
100969.871321
100969.040975
100965.161866
100970.989968
101010.524188
101121.744541
101279.807799
101432.029015
101545.70944
101623.483214
101650.19824
101651.656725
101651.364493
101651.821211
101651.162157
101651.587722
101649.380047
101583.120156
101391.482105
100941.552945
100992.107705
100984.186794
100972.442531
100976.334149
101013.507978
101116.109971
101273.988572
101440.554047
101585.348505
101659.257259
101660.273191
101659.954034
101660.633411
101659.711577
101660.531208
101658.503751
101644.906702
101458.261022
101380.618214
100943.656769
101045.773999
101015.162159
100994.797793
100996.008124
101028.895918
101126.501387
101279.941568
101449.074831
101600.13305
101669.919767
101669.419393
101669.697299
101668.563265
101669.483792
101667.306441
101667.769259
101576.059901
101399.306527
101387.371561
100946.01723
101119.244967
101068.999184
101045.228942
101044.619216
101073.503909
101160.360689
101301.058306
101465.527561
101615.719698
101678.876126
101677.967104
101676.934177
101677.531198
101675.294555
101676.000832
101662.43627
101486.930783
101399.244144
101392.384572
100949.846612
101180.520842
101140.235344
101128.131278
101130.512769
101158.466589
101231.711237
101352.245498
101501.57196
101640.860896
101685.978375
101684.428215
101684.388612
101682.129057
101682.629322
101678.693362
101600.266183
101449.877813
101406.956703
101400.748287
100968.618941
101223.082947
101216.965691
101234.304503
101252.12745
101283.861833
101343.770583
101440.929546
101567.415611
101678.381962
101691.084941
101690.124745
101687.754049
101687.936105
101684.005476
101667.856292
101522.374352
101451.673112
101419.388732
101409.931492
101005.958253
101263.236031
101292.447201
101340.340509
101385.75486
101430.810452
101485.613423
101562.846609
101657.852097
101695.703896
101693.691746
101691.24163
101691.194506
101687.145796
101686.891844
101589.191941
101506.752862
101469.62046
101437.332867
101417.903121
101068.533793
101308.571872
101346.530943
101404.071144
101479.430626
101552.343483
101615.987484
101674.223264
101695.062156
101692.971235
101690.726625
101691.068315
101687.21497
101687.335467
101628.854393
101531.621833
101518.992207
101507.841207
101468.516014
101432.129151
101143.617964
101316.470475
101334.825038
101393.22144
101483.459616
101575.757706
101647.51439
101687.079328
101686.115938
101683.906921
101685.013345
101680.932089
101678.859785
101615.155193
101525.208039
101516.209072
101541.461075
101552.324651
101518.172755
101468.523967
101160.220561
101247.148056
101259.343616
101318.521339
101420.507843
101523.834378
101602.397907
101651.083172
101657.567496
101655.306029
101639.310742
101602.174612
101525.222422
101449.728149