/*--------------------------------*- C++ -*----------------------------------*\
| =========                 |                                                 |
| \\      /  F ield         | OpenFOAM: The Open Source CFD Toolbox           |
|  \\    /   O peration     | Version:  2312                                  |
|   \\  /    A nd           | Website:  www.openfoam.com                      |
|    \\/     M anipulation  |                                                 |
\*---------------------------------------------------------------------------*/
FoamFile
{
    version     2.0;
    format      ascii;
    arch        "LSB;label=32;scalar=64";
    class       volScalarField;
    location    "0.98/water";
    object      Tf.gasAndLiquid;
}
// * * * * * * * * * * * * * * * * * * * * * * * * * * * * * * * * * * * * * //

dimensions      [0 0 0 1 0 0 0];

internalField   nonuniform List<scalar> 
1496
(
347.193118737
314.485741907
305.37697004
302.629495672
301.677143521
301.209135716
300.91072206
300.705025282
300.565960702
300.468343383
300.391962479
300.328661621
300.275100691
300.229139873
300.188475823
300.153475235
300.125566875
300.10446329
300.087808223
300.07238063
346.62693441
312.947013895
304.424762891
302.151196678
301.439585034
301.09422049
300.862891114
300.696607663
300.576807132
300.484745119
300.408742391
300.344658587
300.290297877
300.24365581
300.202681446
300.168167863
300.141103765
300.120530887
300.103755819
300.087644197
341.653919267
310.986990618
303.517950432
301.714905358
301.220992833
300.988087454
300.815573868
300.682584526
300.579962831
300.49368909
300.419892483
300.356601252
300.302557569
300.255873432
300.215300966
300.182095676
300.156451325
300.13665189
300.119815404
300.103257325
331.211170724
310.308378516
303.485280478
301.55151308
301.104196921
300.910169194
300.773889257
300.667507857
300.577655401
300.498170666
300.427736539
300.366152591
300.31281139
300.266310243
300.22698855
300.195758578
300.17177999
300.152623876
300.135532751
300.118136161
323.380480283
309.49390768
303.700434197
301.645762841
301.075705902
300.864383794
300.745394476
300.65456916
300.57460022
300.501231413
300.4343257
300.374456396
300.321519045
300.275921695
300.238698576
300.209731641
300.187180981
300.168207884
300.150420925
300.131581608
319.092834508
308.332701282
303.575668901
301.718400461
301.113765726
300.858937514
300.732491913
300.647173692
300.57338082
300.504619307
300.440400073
300.38162912
300.329745287
300.286155328
300.251388058
300.224377512
300.202493063
300.183069095
300.163921776
300.142846367
317.157392956
307.40559269
303.331825686
301.715916773
301.144241881
300.869957174
300.731744079
300.645761175
300.574850358
300.50871165
300.446351877
300.389359342
300.33959818
300.298338468
300.265563817
300.239573238
300.217345771
300.196860517
300.17533254
300.151346738
316.17292102
306.842674119
303.123183121
301.694771325
301.145858929
300.877065183
300.735514651
300.648442637
300.578809394
300.514786428
300.454857704
300.400273466
300.352653808
300.313030387
300.281051668
300.254734049
300.231726483
300.208766804
300.183913975
300.15670314
315.533429384
306.476658061
302.965992782
301.6466055
301.121828484
300.872683626
300.738221392
300.654286751
300.587161088
300.525737238
300.468265011
300.415612931
300.369163435
300.329842818
300.297353094
300.270212376
300.244684398
300.217816634
300.189023958
300.158272837
314.996435647
306.244504724
302.825505412
301.566354115
301.074470077
300.858405438
300.742985231
300.665816931
300.601796242
300.542578936
300.486704231
300.434927301
300.388619117
300.349068276
300.315685343
300.285494698
300.254894318
300.222995814
300.189630746
300.155408269
314.670570915
306.160932071
302.755686717
301.450630567
301.015537863
300.847960878
300.75413445
300.683840981
300.622354861
300.564758053
300.509982454
300.458903451
300.412869719
300.372114286
300.334904784
300.298146741
300.260706068
300.222818406
300.184866608
300.14708021
314.662993448
306.222610496
302.411327917
301.301250201
300.984682425
300.857354347
300.77513383
300.708479274
300.649043664
300.59311375
300.539506889
300.488490405
300.440153089
300.39374074
300.348833323
300.304077323
300.259754713
300.216361657
300.173969812
300.132930925
316.866978358
305.934970718
302.191258098
301.256897475
300.996286329
300.882727924
300.801861914
300.736214048
300.678088831
300.622942767
300.568451463
300.514069744
300.4599416
300.406380454
300.353638303
300.30223952
300.252323798
300.204048879
300.157921536
300.114647958
327.76681684
307.463358765
302.592251457
301.398613515
301.0629293
300.920988942
300.827606212
300.757421755
300.698238196
300.642470355
300.586446056
300.52877022
300.46964761
300.410041568
300.351584011
300.295279165
300.240463521
300.188256201
300.139502487
300.095683869
336.022890511
310.491714851
303.709213498
301.879404198
301.269599091
301.002875486
300.862719971
300.774527505
300.709581823
300.651601189
300.594243292
300.534752956
300.472653061
300.409272182
300.346880323
300.28624094
300.227414095
300.172154073
300.122273165
300.079205169
340.30805719
313.500344095
305.279744386
302.614348153
301.608787736
301.1586206
300.938814328
300.796661176
300.71739624
300.65578209
300.597008547
300.536239271
300.472820208
300.407715808
300.342051002
300.277751943
300.215784452
300.158537242
300.108735832
300.065888638
343.149160734
315.978299988
306.789856127
303.386921526
301.982175291
301.338998947
301.019733169
300.847350152
300.730865969
300.65712481
300.596190921
300.535612371
300.472023135
300.405660547
300.338133127
300.27122749
300.207075063
300.148903642
300.099557117
300.055541225
345.219173714
317.662266752
307.871474865
303.941282462
302.242050236
301.453445193
301.066328173
300.860210729
300.739676156
300.657500623
300.592630247
300.531661433
300.468856105
300.402939487
300.334865272
300.266744144
300.201445358
300.143158032
300.09411181
300.048302745
346.678441727
318.517321471
308.351423309
304.135387127
302.304555653
301.46506107
301.05976652
300.85104013
300.733055096
300.650935366
300.584470911
300.523038141
300.461132017
300.396727864
300.329925942
300.262180481
300.197052741
300.139461483
300.090832301
300.043488805
347.36541079
318.526898061
308.164797161
303.912053112
302.136455819
301.359820446
300.999674691
300.818926953
300.714401717
300.636230096
300.570036476
300.508433277
300.44711829
300.384231433
300.319442355
300.253332571
300.189876984
300.134176092
300.086226609
300.038351116
347.082621608
318.007919636
307.628585098
303.455004955
301.854767205
301.211299439
300.932047955
300.786832291
300.690578031
300.614829853
300.549062087
300.48728116
300.426101333
300.364116202
300.300864925
300.236581316
300.175855896
300.122457807
300.074655641
300.029949403
346.389182768
317.361031784
307.036701446
303.056319437
301.64052231
301.121811918
300.893851011
300.757662383
300.662987261
300.588276538
300.522715574
300.46059666
300.399107894
300.337204319
300.274132644
300.211465213
300.153482977
300.100809539
300.0519929
300.021291342
345.669049383
316.641434828
306.413978861
302.760518122
301.537146254
301.094603642
300.866647038
300.728680246
300.633556315
300.558961433
300.493238448
300.430470357
300.368021862
300.304691023
300.24121979
300.180579463
300.123575086
300.067756239
300.031766118
300.019781662
344.936689537
315.796986911
305.819309853
302.587868795
301.549393298
301.090427682
300.847747176
300.702199777
300.604322727
300.528677568
300.461860141
300.397271788
300.33232104
300.267905121
300.20585119
300.145994224
300.084848164
300.04251015
300.026891195
300.021607336
344.640715609
314.884516666
305.543306708
302.713357071
301.616265809
301.107047808
300.837183598
300.679602266
300.576558966
300.497741911
300.427560602
300.359712324
300.293919326
300.231168929
300.16993768
300.105968723
300.056406159
300.036679049
300.028355964
300.025324676
343.493466869
314.693184019
306.030478494
303.02684614
301.758173174
301.156299066
300.842916857
300.664637526
300.550232847
300.464166611
300.389947959
300.321376496
300.257752123
300.19647706
300.132255755
300.075344187
300.050848794
300.039072714
300.033074691
300.030388781
336.93078758
314.202230132
306.587600537
303.38904698
301.942178311
301.236352434
300.865953245
300.653308984
300.521266394
300.428672512
300.353271069
300.286711375
300.225878534
300.163674715
300.101609901
300.070743824
300.054910526
300.045606165
300.039810821
300.036573065
327.127825178
313.106755805
306.586640869
303.542839585
302.053177875
301.292265624
300.872414481
300.628888061
300.487676496
300.39374907
300.320583936
300.257420688
300.198365393
300.136436246
300.097703564
300.076958692
300.063768731
300.054523959
300.048008057
300.043595609
320.960201872
310.9149066
305.887812458
303.316374508
301.972847656
301.24620559
300.822653193
300.584501217
300.449748758
300.361630829
300.29359293
300.23361531
300.177262205
300.132883248
300.106267012
300.088472761
300.075216906
300.065037292
300.057141472
300.05135025
317.701298069
308.897405015
304.862663312
302.815918703
301.716935077
301.095626229
300.728492516
300.528103502
300.412998758
300.33548049
300.273475199
300.219744339
300.175484
300.143011014
300.120192367
300.102466548
300.088149613
300.076406385
300.066979596
300.059689006
315.742222392
307.434205923
303.949902243
302.287098528
301.410260429
300.914306233
300.632007385
300.479166077
300.386700044
300.320153138
300.266111752
300.221988867
300.186729117
300.159156384
300.136748156
300.117775273
300.101690911
300.088200821
300.077116419
300.068369002
314.201887981
306.41438356
303.281237188
301.870979005
301.154984689
300.773784113
300.571623824
300.457421775
300.380238056
300.320853326
300.273195074
300.235220751
300.204152057
300.17761958
300.154320613
300.133551637
300.115401706
300.100059215
300.087469001
300.077586634
313.400859699
306.002383101
302.988998949
301.664175868
301.033474557
300.7284846
300.571638429
300.47203749
300.398291816
300.34039445
300.294205596
300.257207953
300.226147383
300.198811143
300.173726325
300.150732577
300.130388898
300.113110423
300.099035079
300.088274495
313.980552711
306.421108645
303.244690585
301.848663616
301.1897977
300.84834508
300.661553321
300.538307193
300.449649351
300.382729911
300.330768788
300.289637633
300.255496698
300.225424144
300.197587083
300.171690651
300.148532445
300.128991477
300.11325801
300.101331296
316.906374141
308.010503901
304.168454877
302.517352526
301.689976983
301.202044693
300.894850768
300.69464331
300.558936985
300.461559655
300.389953941
300.336752583
300.295453644
300.260732201
300.229047223
300.199377627
300.172340317
300.149215509
300.130821677
300.116819382
321.137224036
310.006627881
305.388391824
303.299684687
302.220859658
301.582798917
301.189511643
300.933963154
300.747971184
300.603339317
300.492033213
300.409541826
300.350132618
300.305715785
300.268585199
300.234490585
300.203084554
300.175199605
300.152114638
300.134400131
324.647508431
311.269043371
306.085731513
303.631027335
302.398305639
301.725629352
301.333268483
301.081243373
300.899678992
300.749272628
300.6196967
300.511339146
300.425093416
300.361899284
300.314716621
300.274809557
300.238852344
300.206278656
300.177687239
300.154273143
300.020911968
300.017545203
300.014535713
300.011083388
300.008189796
300.005363041
300.003437003
300.002348107
300.002660625
300.004823719
300.008508377
300.01272805
300.015582441
300.01747019
300.020178397
300.020362319
300.058939426
300.047520205
300.038407241
300.031287224
300.025907603
300.021432679
300.017145588
300.013049995
300.009374571
300.00611757
300.004015664
300.002773144
300.003031272
300.005583323
300.010199097
300.015889151
300.019345479
300.021703118
300.024570963
300.024639531
300.072343451
300.058438358
300.047246785
300.038484012
300.031634512
300.025752304
300.020021813
300.015072658
300.010685703
300.006949559
300.00464181
300.003252629
300.003492579
300.006564193
300.012169179
300.01923742
300.023465153
300.026310883
300.029257738
300.029180392
300.086059758
300.069964054
300.056849529
300.046248472
300.037725112
300.030261424
300.023030493
300.01714504
300.012170094
300.007870992
300.005331422
300.003794847
300.004018682
300.007593339
300.014322186
300.022796879
300.027856482
300.031281151
300.03421266
300.033963754
300.099180879
300.081331267
300.066265792
300.053831018
300.04360862
300.034629879
300.026038446
300.019254189
300.013929111
300.008964075
300.006143582
300.004439271
300.004602044
300.008551128
300.016416616
300.026533706
300.032728806
300.03679926
300.039513026
300.039079736
300.110705089
300.091231677
300.074404649
300.06028442
300.04850694
300.038319457
300.028808428
300.021238905
300.01556404
300.01034785
300.00714636
300.005246896
300.005262299
300.009343447
300.018271937
300.030499105
300.038290177
300.043115647
300.045329474
300.04472285
300.119752296
300.098604367
300.080226449
300.064596733
300.051534078
300.040553578
300.030800548
300.022851604
300.016821734
300.012103454
300.008344821
300.006251249
300.006032982
300.009909651
300.019757723
300.034734739
300.04445915
300.050151929
300.051875031
300.051149318
300.125822805
300.102893394
300.082986065
300.066010466
300.052014061
300.040656044
300.031228815
300.023589362
300.017647485
300.013160482
300.009656595
300.007385579
300.006939508
300.010408702
300.022152372
300.039506108
300.051859504
300.057546569
300.059503277
300.058722603
300.128696683
300.103873514
300.082293972
300.064210405
300.049735478
300.038442499
300.02965718
300.02281236
300.017527411
300.013528014
300.010559025
300.008483936
300.00800356
300.011435281
300.028276921
300.046450662
300.061282677
300.066385379
300.06870732
300.067856187
300.127995569
300.101087077
300.077899326
300.059163038
300.044785467
300.034070204
300.026182641
300.020401612
300.016184209
300.013096473
300.010864041
300.00936187
300.009334425
300.01449949
300.037897104
300.060008645
300.07143671
300.077155462
300.079663913
300.07859424
300.122689123
300.093690485
300.069480228
300.050811392
300.037193502
300.027661069
300.0211632
300.016818215
300.013965784
300.01210171
300.010889742
300.010316669
300.011378038
300.02132852
300.052760008
300.072076478
300.082831923
300.089088001
300.091650053
300.090382806
300.111734438
300.081170423
300.056856382
300.039091317
300.027233022
300.019884082
300.015586197
300.013219906
300.012023037
300.011590539
300.011782261
300.012811456
300.016036821
300.029331921
300.061507826
300.080427224
300.093479564
300.100855202
300.103820545
300.102389548
300.095469073
300.064440776
300.041010854
300.026019653
300.017764528
300.013804818
300.012207276
300.011829755
300.012307152
300.013742251
300.016279122
300.020036388
300.02631656
300.037654835
300.06011386
300.0869973
300.103098957
300.111776506
300.115252468
300.113778949
300.076523173
300.045947887
300.026056296
300.016312555
300.012706284
300.012098788
300.012618187
300.013888153
300.015769142
300.018130299
300.021471253
300.026333253
300.033645345
300.045333465
300.063510331
300.095128659
300.112761196
300.122172785
300.126158742
300.124672731
300.057770044
300.029515895
300.016117926
300.012244062
300.012415496
300.01413844
300.015957329
300.01712499
300.019137462
300.022092474
300.026355235
300.032372136
300.041381052
300.054665659
300.073864786
300.104630475
300.122627157
300.132517464
300.136830658
300.135341303
300.040639797
300.018253047
300.012051498
300.012469061
300.014786774
300.017718621
300.018949277
300.020313842
300.022580663
300.026083226
300.031137783
300.038630174
300.0495149
300.064887877
300.085541737
300.115081235
300.132974337
300.142992904
300.147480553
300.146001402
300.027437382
300.012898282
300.0119851
300.014457258
300.017351655
300.019942931
300.021891928
300.023637401
300.026252568
300.030155651
300.035968397
300.044793253
300.058054857
300.076099527
300.098825723
300.126692948
300.144023572
300.153786815
300.158327292
300.156918739
300.019150771
300.011784318
300.01338364
300.016034929
300.018732269
300.021611146
300.024605108
300.02718831
300.030302039
300.034796166
300.041435464
300.051858597
300.067764983
300.089726845
300.114266182
300.139758051
300.155878345
300.165033428
300.169570843
300.168377878
300.015227164
300.012435036
300.014523125
300.017085231
300.020057537
300.023427551
300.027193595
300.031387694
300.035621256
300.041087681
300.04943205
300.062650055
300.082878505
300.109478646
300.131346721
300.153926852
300.168271443
300.176759702
300.181349208
300.180567519
300.014028778
300.013418125
300.01534979
300.018014924
300.021493345
300.025633621
300.030420865
300.036287328
300.043165682
300.050105632
300.060013218
300.077002983
300.101378256
300.129705374
300.148914364
300.16895327
300.1813483
300.189287444
300.194068263
300.19385317
300.013948001
300.01432995
300.016044424
300.018726214
300.022652029
300.027933709
300.034411533
300.042085531
300.051648592
300.061800846
300.071742743
300.08982187
300.119068708
300.147994609
300.167815779
300.184337072
300.195445029
300.2032632
300.208431689
300.208935954
300.014540168
300.015390985
300.016758389
300.019210735
300.023257785
300.029505547
300.038248156
300.048896183
300.060983408
300.075081544
300.086032781
300.101180847
300.13081755
300.166558799
300.186497163
300.200857522
300.211517001
300.219657112
300.225486691
300.226877703
300.01618031
300.016900991
300.017744128
300.01973573
300.023490876
300.030031582
300.040636637
300.055234877
300.071569232
300.089266629
300.105317647
300.117650141
300.144782653
300.184570749
300.204767566
300.218910393
300.230003422
300.239029898
300.245956365
300.248502282
300.01860801
300.018998199
300.019238995
300.020666851
300.023876146
300.030078289
300.041477457
300.059619955
300.081771462
300.103576947
300.125222042
300.139000575
300.167029419
300.20224219
300.22311647
300.23853998
300.250950121
300.261529714
300.270113258
300.274166752
300.021746073
300.021602976
300.021292152
300.022172642
300.024755706
300.030272665
300.041576452
300.061991443
300.090136133
300.117769308
300.143435886
300.161858245
300.191228171
300.22024386
300.242139411
300.259652663
300.274147045
300.286961447
300.297851654
300.303851659
300.025591761
300.024686821
300.023881587
300.024257256
300.026193584
300.030805791
300.041273099
300.062616836
300.095779879
300.130148564
300.160223897
300.184232256
300.213674422
300.238189578
300.261430646
300.281594003
300.299048882
300.314853283
300.328822625
300.337326151
300.030090316
300.028269089
300.027003795
300.026897771
300.028163968
300.031623366
300.040417635
300.061022923
300.097524243
300.138787134
300.173144613
300.202858473
300.231303889
300.255327921
300.280338474
300.30365134
300.324949351
300.344740324
300.362668784
300.374510158
300.035147344
300.032420979
300.03068111
300.030104519
300.030693416
300.032800441
300.039107138
300.056818371
300.093938897
300.141701896
300.181598085
300.216584975
300.244617984
300.271041909
300.298408717
300.325476691
300.351523326
300.37634567
300.399215196
300.41535824
300.040720169
300.037212891
300.034974835
300.033917277
300.033849434
300.034650457
300.038213993
300.051345736
300.085747771
300.137750995
300.185305018
300.224774523
300.255100483
300.284449052
300.315123584
300.346977411
300.378648947
300.409359952
300.438396152
300.459768492
300.046879165
300.042705593
300.039983502
300.038389009
300.037653579
300.037372082
300.038618684
300.046571446
300.075041569
300.127739675
300.183706611
300.228940424
300.262741056
300.295463117
300.330676912
300.368265738
300.406255207
300.443726284
300.480107325
300.507963714
300.053780617
300.048987725
300.045791726
300.043543006
300.042075171
300.04092303
300.040717047
300.044503143
300.064615872
300.113399656
300.177708569
300.229125617
300.267041518
300.304372821
300.345395073
300.389545534
300.434674504
300.479820144
300.524789945
300.561019166
300.061430544
300.056216136
300.052456686
300.049421109
300.047077881
300.045193803
300.044195969
300.04600973
300.058755982
300.096826329
300.167954335
300.22353552
300.266492537
300.310335072
300.358583265
300.410442709
300.4640903
300.518245635
300.573171138
300.621417148
300.070117652
300.064611674
300.06019739
300.056102528
300.052817291
300.050192073
300.048561992
300.049471889
300.058595605
300.086505836
300.152455222
300.210055057
300.258190762
300.310682225
300.368161013
300.429958416
300.494526741
300.560040147
300.626987899
300.693372903
300.08044724
300.074542101
300.069268981
300.063795379
300.059458787
300.055962653
300.053685991
300.053889057
300.060619158
300.082515967
300.137192922
300.187629999
300.239451047
300.301590221
300.371297388
300.447184542
300.527821436
300.61018104
300.694070629
300.786765919
300.092806113
300.086170847
300.07962783
300.072619108
300.067019813
300.062499092
300.059501292
300.059043538
300.063990206
300.081803918
300.120721248
300.158729401
300.210445697
300.280700288
300.367116989
300.465727133
300.576781224
300.695763926
300.816877607
300.949142226
300.106827961
300.098982942
300.090731147
300.082276525
300.075259826
300.069623088
300.065887866
300.064850828
300.068534061
300.082393276
300.103480512
300.131236694
300.177329775
300.252181034
300.360958491
300.505547061
300.702065344
300.949689947
301.211228301
301.43501025
300.12163271
300.112004272
300.101972497
300.092277758
300.083799264
300.077058139
300.072703921
300.071337685
300.074480105
300.081871832
300.091872978
300.109703465
300.1459461
300.221238271
300.366590454
300.634021075
301.133137499
301.913549039
302.789409945
303.374595999
300.137120574
300.124741258
300.113134974
300.102111306
300.092155325
300.0845023
300.079798119
300.078912754
300.08155743
300.083460071
300.08706958
300.095768242
300.11923664
300.188476686
300.391008594
300.96072611
302.303768036
304.752561883
307.867965898
310.008980271
)
;

boundaryField
{
    emptyPatch
    {
        type            empty;
    }
    minY
    {
        type            calculated;
        value           nonuniform List<scalar> 0();
    }
    maxY
    {
        type            calculated;
        value           nonuniform List<scalar> 
40
(
324.647612275
311.269068314
306.08574354
303.631034087
302.39830971
301.725632118
301.333270639
301.081245186
300.89968053
300.74927399
300.619697986
300.511340406
300.425094744
300.361900732
300.314718242
300.274811267
300.238854004
300.206280118
300.177688395
300.154273919
300.137121051
300.124741584
300.113135257
300.102111554
300.092155532
300.084502463
300.079798255
300.078912869
300.081557474
300.083460073
300.087069543
300.095768139
300.119236391
300.188476018
300.391006238
300.960718243
302.303752456
304.752552566
307.867983355
310.009020539
)
;
    }
    water_to_cooler
    {
        type            calculated;
        value           nonuniform List<scalar> 
38
(
300.002880367
300.00343912
300.004139022
300.005008251
300.006079873
300.007391757
300.008979215
300.010874374
300.013117597
300.015776305
300.018962805
300.022849305
300.027665402
300.033655267
300.041070886
300.050246288
300.061672784
300.075995828
300.094001281
300.116690738
300.145359613
300.181642214
300.227835929
300.287187762
300.363772283
300.462088915
300.586997488
300.744392337
300.94232086
301.1911712
301.501374939
301.878572043
302.318270304
302.803137881
303.306080203
303.799226352
304.270381224
304.779023833
)
;
    }
    water_to_heater
    {
        type            calculated;
        value           nonuniform List<scalar> 
59
(
788.563204107
788.472614958
788.472047803
788.37237175
788.271340132
788.260469291
788.2172228
788.252817538
788.24747364
788.299650504
788.29863418
788.359116594
788.358313731
788.413131001
788.413761206
788.472107095
788.470957472
788.547513277
788.548824802
788.640055122
788.736635904
788.801547853
788.892361016
788.918722323
788.93425532
788.939929218
788.949178846
788.93489905
788.93832671
788.90241143
788.902856219
788.875013131
788.874619363
788.871802174
788.870020604
788.890226849
788.888836631
788.906440117
788.906421308
788.881488115
788.868615208
788.782895322
788.701027423
788.54668323
788.534068311
788.51445296
788.515030534
788.45058512
788.454606852
788.316470764
788.322767506
788.127243433
788.12321441
787.909351871
787.897909749
787.692026082
787.691975682
787.561281279
787.569156759
)
;
    }
    procBoundary0to1
    {
        type            processor;
        value           nonuniform List<scalar> 
41
(
342.907791645
314.338600051
305.757410169
302.870084868
301.79793173
301.26077873
300.918808872
300.687820838
300.540583051
300.440714513
300.367636995
300.307507571
300.256346021
300.212087169
300.172471016
300.137870345
300.109897303
300.088802282
300.072688008
300.058555334
300.016761012
300.014249389
300.012255113
300.009476084
300.006990865
300.004778013
300.002918053
300.001987131
300.002397405
300.004170645
300.006971248
300.010067709
300.012280144
300.013695135
300.016178643
300.016447266
300.046854786
300.037674205
300.030616916
300.025119091
300.025119091
)
;
    }
}


// ************************************************************************* //
