/*--------------------------------*- C++ -*----------------------------------*\
| =========                 |                                                 |
| \\      /  F ield         | OpenFOAM: The Open Source CFD Toolbox           |
|  \\    /   O peration     | Version:  2312                                  |
|   \\  /    A nd           | Website:  www.openfoam.com                      |
|    \\/     M anipulation  |                                                 |
\*---------------------------------------------------------------------------*/
FoamFile
{
    version     2.0;
    format      ascii;
    arch        "LSB;label=32;scalar=64";
    class       surfaceScalarField;
    location    "0.34/water";
    object      phi.gas;
}
// * * * * * * * * * * * * * * * * * * * * * * * * * * * * * * * * * * * * * //

dimensions      [0 3 -1 0 0 0 0];

oriented        oriented;

internalField   nonuniform List<scalar> 
2928
(
3.4082720044e-07
3.17770791185e-07
2.36889800433e-07
2.11664798036e-07
3.12005310775e-07
1.93713143049e-07
2.88941517442e-07
1.82769259784e-07
3.0164011588e-07
1.84744514477e-07
2.92805906078e-07
1.88674997001e-07
2.4259730064e-07
1.9494534244e-07
2.05494086453e-07
2.14210258334e-07
2.27331577538e-07
3.50654948539e-07
1.95469010149e-07
4.21987727282e-07
1.77827644872e-07
4.47104213819e-07
1.59662888864e-07
4.70889774256e-07
1.42663729262e-07
4.96002270982e-07
1.26373921376e-07
5.22400153599e-07
1.10587897138e-07
5.50153364347e-07
9.50790101936e-08
5.79295165571e-07
7.96614595781e-08
6.0983820991e-07
6.42457564926e-08
6.4176892013e-07
4.8942013809e-08
6.75049055636e-07
7.09638484091e-07
3.4032397932e-08
1.42927857947e-07
3.37001609434e-07
2.42170489991e-07
2.6512187994e-07
2.39471066589e-07
2.42503358916e-07
2.72654684181e-07
2.35256922097e-07
2.73871512701e-07
2.3579136993e-07
2.77610688302e-07
2.41707426143e-07
2.64108482908e-07
2.50620551358e-07
2.30895400554e-07
2.64522565504e-07
1.11421710338e-07
3.19841403689e-07
5.66094960219e-08
3.61843146198e-07
4.8745504676e-08
3.76451363743e-07
4.25231886841e-08
3.93240423548e-07
3.69761111442e-08
4.11005884104e-07
3.18677977438e-08
4.29742738293e-07
2.70708033952e-08
4.4950113679e-07
2.25460964457e-08
4.70354983528e-07
1.82878496224e-08
4.92383403133e-07
1.42860244593e-08
5.15666535752e-07
1.05280023339e-08
5.40283902316e-07
5.66314478744e-07
7.02397853292e-09
1.63563613955e-07
4.08492269163e-07
2.05578659603e-07
3.23402941597e-07
2.17212473924e-07
2.88422867906e-07
2.33712161871e-07
2.76068931501e-07
2.40718314572e-07
2.74398287951e-07
2.42994973733e-07
2.78239696459e-07
2.39783961028e-07
2.85791612072e-07
2.23677375902e-07
2.97642819242e-07
1.62128153176e-07
3.3018594454e-07
4.51679038889e-08
3.69057538496e-07
3.80096304868e-08
3.91201236931e-07
3.48502528767e-08
4.09440195582e-07
3.15279349468e-08
4.2867214659e-07
2.8263348315e-08
4.48889721015e-07
2.49599934282e-08
4.70100013817e-07
2.1539911313e-08
4.92357188397e-07
1.79941914431e-08
5.15737869332e-07
1.43516524292e-08
5.40327795733e-07
1.06745662522e-08
5.66217011047e-07
5.93501350803e-07
7.09872422775e-09
2.22304854156e-07
4.41410139632e-07
2.37699735638e-07
3.70948295893e-07
2.40638909573e-07
3.24187522797e-07
2.43196017038e-07
3.05878680489e-07
2.39374395155e-07
3.00729588566e-07
2.32944633447e-07
3.02546564846e-07
2.24462888537e-07
3.08507991295e-07
2.11029308296e-07
3.18160734393e-07
1.82904162322e-07
3.3867730899e-07
7.86155551896e-08
3.66217315832e-07
2.55551446639e-08
3.89470991825e-07
2.43142672822e-08
4.08123532505e-07
2.22311556037e-08
4.2744474645e-07
1.99942251196e-08
4.47744275776e-07
1.77126169534e-08
4.69012138514e-07
1.53343013288e-08
4.91282972173e-07
1.28121770369e-08
5.14623675726e-07
1.01346955554e-08
5.39122021261e-07
7.34361463425e-09
5.64878336658e-07
5.92001622054e-07
4.58809632159e-09
2.6101698718e-07
4.59337481675e-07
2.75960202492e-07
4.05802187646e-07
2.6967779011e-07
3.57489804208e-07
2.66016924414e-07
3.31123764225e-07
2.56175124761e-07
3.22031854785e-07
2.42656902277e-07
3.21330890623e-07
2.26443386523e-07
3.25502315205e-07
2.08601772605e-07
3.3326807635e-07
1.85103962979e-07
3.47675468307e-07
1.31577702675e-07
3.68378735129e-07
2.17922223348e-08
3.90115717847e-07
1.87976439339e-08
4.09844365904e-07
1.66869284065e-08
4.29308730294e-07
1.44305293733e-08
4.49774743271e-07
1.22480050914e-08
4.71223453174e-07
1.0135495163e-08
4.93677124743e-07
8.03372833202e-09
5.17189830609e-07
5.89401202699e-09
5.41840464817e-07
3.71823730692e-09
5.67725915145e-07
5.9495547413e-07
1.63476570336e-09
2.89232601234e-07
4.66860281371e-07
3.02287511063e-07
4.29484451204e-07
2.90452035635e-07
3.87498083645e-07
2.82761140979e-07
3.55070083932e-07
2.7308008445e-07
3.4095854192e-07
2.58801458197e-07
3.37336108445e-07
2.39055456774e-07
3.39436736689e-07
2.15788902911e-07
3.45285167744e-07
1.9019801375e-07
3.55917776077e-07
1.55850340059e-07
3.71797542012e-07
5.07220087037e-08
3.90869805e-07
1.43913734632e-08
4.11782836205e-07
1.18921080275e-08
4.31114133282e-07
9.35810624829e-09
4.51457404075e-07
7.06952930375e-09
4.72835292212e-07
5.02926252019e-09
4.95259331449e-07
3.16999010536e-09
5.18772423088e-07
1.41848974607e-09
5.43442265948e-07
-2.57766418545e-10
5.69356426115e-07
5.96618984285e-07
-1.76250769559e-09
2.97596952772e-07
4.72349624139e-07
3.05165815809e-07
4.4503606175e-07
2.94211876207e-07
4.10270730215e-07
2.83264040597e-07
3.78606239717e-07
2.75566465529e-07
3.58463318196e-07
2.65464568884e-07
3.5160043283e-07
2.48593286996e-07
3.51396724834e-07
2.24685524507e-07
3.55217227613e-07
1.97198850114e-07
3.6305831557e-07
1.65782898278e-07
3.75525213927e-07
1.03292065459e-07
3.9191433544e-07
5.43972775394e-09
4.11977195336e-07
3.95815510419e-09
4.32894910341e-07
1.93609254774e-09
4.53037105889e-07
1.8383805253e-10
4.74241929029e-07
-1.29965463351e-09
4.96564536679e-07
-2.57104618487e-09
5.2002919688e-07
-3.70174186352e-09
5.4469005089e-07
-4.7241872365e-09
5.70623964077e-07
5.97922964379e-07
-5.5860696591e-09
2.87994894843e-07
4.81676747187e-07
2.892065235e-07
4.57681240979e-07
2.82126660921e-07
4.273805509e-07
2.71677876862e-07
3.98673123368e-07
2.65614415259e-07
3.75639408111e-07
2.60080176162e-07
3.64345036282e-07
2.49023919949e-07
3.61686807235e-07
2.28995169792e-07
3.63379508402e-07
2.02126558562e-07
3.68806517799e-07
1.72133614521e-07
3.78575995933e-07
1.32322722793e-07
3.92592478747e-07
1.24272034403e-08
4.1028617182e-07
-8.88282448476e-09
4.33797326945e-07
-9.01822059682e-09
4.53398786553e-07
-9.14980625128e-09
4.74576118197e-07
-9.26061923621e-09
4.96908127302e-07
-9.35174253773e-09
5.20420615303e-07
-9.44127385428e-09
5.45158845427e-07
-9.5454585867e-09
5.7118822942e-07
5.98590451305e-07
-9.61490449536e-09
2.87703244681e-07
4.89438118762e-07
2.87908042322e-07
4.65905111231e-07
2.76033345321e-07
4.40133938681e-07
2.64364048578e-07
4.15256182085e-07
2.5558387673e-07
3.9323619054e-07
2.51607320198e-07
3.77335043655e-07
2.45638251982e-07
3.71166845727e-07
2.30891149566e-07
3.70491157743e-07
2.06730278113e-07
3.73631616883e-07
1.78003470256e-07
3.80984457339e-07
1.44790640357e-07
3.92911789818e-07
7.44027731412e-08
4.08906846887e-07
-2.36094404762e-08
4.28870922098e-07
-2.11304076901e-08
4.5202855222e-07
-1.90171043061e-08
4.73432827998e-07
-1.73113109498e-08
4.96020067858e-07
-1.59234078102e-08
5.19787035964e-07
-1.48014455736e-08
5.44771081957e-07
-1.3912543101e-08
5.71033915566e-07
5.98655119406e-07
-1.31639994139e-08
2.87320311636e-07
4.92819575167e-07
2.92474376971e-07
4.69888491958e-07
2.7833541408e-07
4.49015320802e-07
2.64366214497e-07
4.28924217257e-07
2.53665053177e-07
4.09505922288e-07
2.48211861857e-07
3.92174461411e-07
2.44402530075e-07
3.81241325546e-07
2.34823278527e-07
3.7790032317e-07
2.14457810363e-07
3.78733324107e-07
1.86568764287e-07
3.83666204433e-07
1.56576703778e-07
3.93485305752e-07
1.1511593381e-07
4.07802629523e-07
-8.82151001246e-09
4.26019862616e-07
-2.94690575653e-08
4.49793246809e-07
-2.56440613401e-08
4.71188956271e-07
-2.25766303961e-08
4.9425374524e-07
-2.01149360028e-08
5.18439013234e-07
-1.81428760042e-08
5.43801527771e-07
-1.65735448385e-08
5.70406639446e-07
5.98333908292e-07
-1.52865031141e-08
2.91585965864e-07
4.92756416133e-07
3.00182841827e-07
4.71464130723e-07
2.84774205622e-07
4.55240354719e-07
2.701875235e-07
4.40163261782e-07
2.59247645232e-07
4.24429496996e-07
2.52635529086e-07
4.08124229033e-07
2.4922076581e-07
3.93891652224e-07
2.43401344741e-07
3.87020210606e-07
2.27348101708e-07
3.85423936248e-07
2.00906412472e-07
3.87830875208e-07
1.70968782977e-07
3.95238549823e-07
1.37954846155e-07
4.07857199139e-07
7.42349883881e-08
4.24780193153e-07
-2.88809697583e-08
4.43594968815e-07
-2.58214983945e-08
4.69029638883e-07
-2.26540615903e-08
4.92494779878e-07
-2.01206702203e-08
5.1709103845e-07
-1.81061995123e-08
5.42835236688e-07
-1.65221375053e-08
5.6978878958e-07
5.98027606958e-07
-1.52453504784e-08
2.84671180205e-07
4.89414536904e-07
2.94610856641e-07
4.70643804661e-07
2.8195651584e-07
4.58352285158e-07
2.71719204237e-07
4.47952557424e-07
2.65419221391e-07
4.36494889766e-07
2.62791352101e-07
4.22996950262e-07
2.60704929818e-07
4.09102925921e-07
2.56849843143e-07
3.98875310618e-07
2.44677922573e-07
3.94757258373e-07
2.20310221938e-07
3.94478086282e-07
1.89817780896e-07
3.99104179542e-07
1.60902699192e-07
4.09659948493e-07
1.22267278543e-07
4.25181382647e-07
1.07804331778e-08
4.44439555274e-07
-1.91454760686e-08
4.68084169246e-07
-1.71293765934e-08
4.91489513644e-07
-1.55607970577e-08
5.16407356559e-07
-1.43912059719e-08
5.42455096073e-07
-1.35472398827e-08
5.69684689874e-07
5.98166141529e-07
-1.29157157631e-08
2.65728501197e-07
4.89737826878e-07
2.7783346687e-07
4.70698498451e-07
2.69510551426e-07
4.60252369943e-07
2.66872989934e-07
4.53019249179e-07
2.68121511784e-07
4.45296235194e-07
2.71752945631e-07
4.35345549133e-07
2.73446086677e-07
4.24012244538e-07
2.71171051195e-07
4.1325724544e-07
2.6127212396e-07
4.06768573815e-07
2.39519751831e-07
4.03904366188e-07
2.10073299481e-07
4.05550636435e-07
1.81102407654e-07
4.13703626521e-07
1.51136822862e-07
4.27836750387e-07
9.24774573588e-08
4.46295302589e-07
-5.03947261973e-09
4.64731191555e-07
-6.99028248615e-09
4.91718996335e-07
-7.28384597682e-09
5.16861701568e-07
-7.7404794285e-09
5.43103186912e-07
-8.31163420436e-09
5.7049204854e-07
5.99094183923e-07
-8.89929814753e-09
2.56295115549e-07
4.90219690711e-07
2.74103068678e-07
4.70460995616e-07
2.61684690848e-07
4.62021589016e-07
2.62356888319e-07
4.56872273028e-07
2.69195543489e-07
4.52238808362e-07
2.79341097122e-07
4.46010276303e-07
2.85437526987e-07
4.38310136329e-07
2.83619155903e-07
4.2951958184e-07
2.73457583969e-07
4.21421078455e-07
2.53825358712e-07
4.16206152393e-07
2.26825937504e-07
4.15073524959e-07
1.98982528992e-07
4.2055689689e-07
1.74983200776e-07
4.32855793231e-07
1.37794066385e-07
4.50200420651e-07
3.01047753062e-08
4.68530159659e-07
6.0811471937e-09
4.93499157336e-07
3.03250357709e-09
5.18855060526e-07
2.71872333141e-10
5.45120319838e-07
-2.25295502546e-09
5.72486658514e-07
6.01023765177e-07
-4.48108219518e-09
2.4751147768e-07
4.95118544652e-07
2.70925832148e-07
4.72594559237e-07
2.563148861e-07
4.650304528e-07
2.5946438719e-07
4.61323737429e-07
2.70507388937e-07
4.59270853291e-07
2.85071895481e-07
4.56791245328e-07
2.93663777512e-07
4.53136630658e-07
2.91270527851e-07
4.47184966933e-07
2.79616553214e-07
4.38820375743e-07
2.60905770739e-07
4.31507332719e-07
2.36777038089e-07
4.27957662408e-07
2.11226390818e-07
4.30696881709e-07
1.88546174405e-07
4.40575766619e-07
1.60034696797e-07
4.56452503593e-07
8.3290636765e-08
4.76188979287e-07
1.93111279922e-08
4.97746014768e-07
1.24948179639e-08
5.22772036052e-07
7.03339171558e-09
5.48725648154e-07
2.3429641088e-09
5.7576000912e-07
6.03954670975e-07
-1.61713212525e-09
2.38363085368e-07
5.04911026297e-07
2.65789201161e-07
4.78226883428e-07
2.52544247019e-07
4.70378433831e-07
2.58461563387e-07
4.67935218992e-07
2.71873129128e-07
4.68359247186e-07
2.8758744535e-07
4.69352490401e-07
2.95449581659e-07
4.69322122125e-07
2.91495992209e-07
4.66041398274e-07
2.78454466633e-07
4.58223690937e-07
2.60059014204e-07
4.49112010613e-07
2.37820559049e-07
4.43566507342e-07
2.14139255198e-07
4.43544511464e-07
1.91564186007e-07
4.50517476417e-07
1.66253320359e-07
4.64162782937e-07
1.16031603263e-07
4.82827421789e-07
2.8664392618e-08
5.02956547037e-07
1.62100464596e-08
5.28409421165e-07
8.62360442421e-09
5.53603433069e-07
2.35295709729e-09
5.79930088369e-07
6.07474822598e-07
-2.77914924186e-09
2.30404571452e-07
5.19315655269e-07
2.61400034132e-07
4.88048219206e-07
2.51206930289e-07
4.78902971732e-07
2.58133787957e-07
4.77610175861e-07
2.70529101504e-07
4.80359426349e-07
2.83687843053e-07
4.84125142448e-07
2.89067928664e-07
4.86690839028e-07
2.83754950146e-07
4.85372610594e-07
2.69826317796e-07
4.78344212908e-07
2.51259315997e-07
4.67909932902e-07
2.29389912699e-07
4.60171207834e-07
2.06094392667e-07
4.57436097551e-07
1.82989124372e-07
4.6121273493e-07
1.5816566213e-07
4.71830769241e-07
1.18919908847e-07
4.88251609411e-07
2.87939596912e-08
5.09733664547e-07
8.73333990724e-09
5.34402982909e-07
9.46433507318e-10
5.58587257252e-07
-5.27953907356e-09
5.83951619092e-07
6.10650905651e-07
-1.02263799579e-08
2.23974141868e-07
5.38356214713e-07
2.54436009298e-07
5.02780152972e-07
2.46045619935e-07
4.91470523218e-07
2.51269876143e-07
4.907037835e-07
2.61179030282e-07
4.95169790953e-07
2.71720222282e-07
5.00578018068e-07
2.75164912486e-07
5.04270714669e-07
2.68999869116e-07
5.03586974658e-07
2.55192477575e-07
4.96947140874e-07
2.35685045323e-07
4.85905945508e-07
2.12429217108e-07
4.75278656597e-07
1.88362602586e-07
4.69689631562e-07
1.63771884024e-07
4.7036080518e-07
1.37190522023e-07
4.77327688633e-07
1.01694167358e-07
4.90553332869e-07
1.90550134104e-08
5.11208810977e-07
-1.30742059401e-08
5.39128322286e-07
-1.83038710167e-08
5.61910902338e-07
-2.2123976411e-08
5.86284424889e-07
6.12179149588e-07
-2.4957084511e-08
2.41623782869e-07
5.55655552733e-07
2.71273401629e-07
5.21542540717e-07
2.50310653294e-07
5.10275158429e-07
2.4526122487e-07
5.09531713053e-07
2.4770262793e-07
5.13680266317e-07
2.52825454475e-07
5.17971941651e-07
2.53114108862e-07
5.20084637469e-07
2.46928299059e-07
5.17924691963e-07
2.34437603637e-07
5.10495916009e-07
2.15230848951e-07
4.99131824969e-07
1.91909998575e-07
4.86696254091e-07
1.67177396378e-07
4.77535059464e-07
1.39613369219e-07
4.74856017122e-07
1.08769503757e-07
4.78235599582e-07
7.4122783236e-08
4.881048214e-07
2.04601867081e-08
5.05810336569e-07
-4.83555511226e-08
5.39005772673e-07
-4.84729796042e-08
5.61242531715e-07
-4.72887030854e-08
5.8518975035e-07
6.10690946672e-07
-4.59336181361e-08
2.71329893121e-07
5.6931144005e-07
2.85450542491e-07
5.41059503936e-07
2.4826708651e-07
5.32182820819e-07
2.25426067213e-07
5.317068885e-07
2.15722811259e-07
5.32882906756e-07
2.14983058383e-07
5.32522112695e-07
2.15255457367e-07
5.30283410056e-07
2.12671003232e-07
5.24880306734e-07
2.05927029196e-07
5.15452023093e-07
1.94470102033e-07
5.0349224291e-07
1.76621919632e-07
4.91774114163e-07
1.52548192434e-07
4.81378352836e-07
1.22627610978e-07
4.73930607918e-07
8.64566876057e-08
4.73664797586e-07
5.17086734325e-08
4.80816510688e-07
1.35701676374e-08
4.96245928911e-07
-8.17474410672e-08
5.2264800275e-07
-8.4739849769e-08
5.55876494487e-07
-7.66376982339e-08
5.79389331326e-07
6.05355048416e-07
-6.9595248657e-08
2.86656732966e-07
5.77132129928e-07
2.66299385305e-07
5.55460869571e-07
2.17194794198e-07
5.50589163439e-07
1.82556994221e-07
5.51279809777e-07
1.66888723868e-07
5.48273795485e-07
1.6628425617e-07
5.41338059572e-07
1.71180335997e-07
5.33500538732e-07
1.76305601874e-07
5.24379349403e-07
1.80344613136e-07
5.12846344402e-07
1.79982217209e-07
5.00353284778e-07
1.69719137729e-07
4.89894521342e-07
1.49815688607e-07
4.81526354399e-07
1.2242731982e-07
4.7318167142e-07
8.55672730091e-08
4.67348657792e-07
4.66288696443e-08
4.7178282509e-07
1.32014733057e-08
4.85733235734e-07
-4.37446850664e-08
5.08351394398e-07
-1.17749754092e-07
5.43750656054e-07
-1.02675919152e-07
5.6955242842e-07
5.96777857434e-07
-9.01019664027e-08
2.66669543041e-07
5.82544034022e-07
2.23770642428e-07
5.6430108274e-07
1.81480063499e-07
5.62764087626e-07
1.52024677639e-07
5.65314860047e-07
1.38841968761e-07
5.59825050129e-07
1.40621418332e-07
5.47144328573e-07
1.49663078008e-07
5.33874117231e-07
1.6112501055e-07
5.21162863905e-07
1.72091299133e-07
5.07917977928e-07
1.78637741528e-07
4.95373919122e-07
1.75876540969e-07
4.86683241208e-07
1.60400221484e-07
4.80264986718e-07
1.36059129557e-07
4.74486634642e-07
1.05159470491e-07
4.65645548073e-07
6.62738890799e-08
4.65859718864e-07
3.50875133582e-08
4.77728587013e-07
1.76339196066e-09
4.9849313625e-07
-1.2029220865e-07
5.26852300138e-07
-1.17242638389e-07
5.59067316349e-07
5.87121332489e-07
-1.01383939685e-07
2.39696797466e-07
5.9357530434e-07
2.03700707006e-07
5.7401445714e-07
1.75443024002e-07
5.72206359879e-07
1.5565984509e-07
5.76654138015e-07
1.45790786918e-07
5.71024351725e-07
1.48421820272e-07
5.54347815637e-07
1.58672161417e-07
5.36477121661e-07
1.71977042387e-07
5.20558515138e-07
1.85807140545e-07
5.05860213084e-07
1.95844893791e-07
4.9390231004e-07
1.954486676e-07
4.86747644364e-07
1.81901678002e-07
4.81981307066e-07
1.58774462166e-07
4.7799591584e-07
1.31080293051e-07
4.69805177421e-07
9.86617210011e-08
4.65704544867e-07
6.78603790552e-08
4.74665981038e-07
4.15338374319e-08
4.93958274733e-07
-3.18584742399e-08
5.19988477818e-07
-1.15989987312e-07
5.50254606135e-07
5.78902148094e-07
-1.00079904516e-07
2.50194309694e-07
6.0197082459e-07
2.24100757942e-07
5.82880939163e-07
1.97088994657e-07
5.81642149201e-07
1.77437908358e-07
5.8854814479e-07
1.67624191404e-07
5.83159525491e-07
1.70787077187e-07
5.63452513492e-07
1.81666456586e-07
5.42031349545e-07
1.95856002461e-07
5.23556675409e-07
2.12463020327e-07
5.08096711295e-07
2.23681792011e-07
4.97901779001e-07
2.2185077949e-07
4.91778166482e-07
2.08045907941e-07
4.87159133645e-07
1.82493213453e-07
4.84650890557e-07
1.55823232045e-07
4.78088252034e-07
1.30099830301e-07
4.71608083909e-07
1.02754954372e-07
4.77206064791e-07
8.12634479446e-08
4.94157751896e-07
4.38581257036e-08
5.18294653854e-07
-9.34486307258e-08
5.42354001471e-07
5.73846257147e-07
-8.66596416848e-08
2.53895736105e-07
6.04936268044e-07
2.34271355271e-07
5.86702999678e-07
2.07809395062e-07
5.87363993303e-07
1.89366366321e-07
5.96900925395e-07
1.82461637295e-07
5.92128703685e-07
1.88778783685e-07
5.70813873231e-07
2.02303411103e-07
5.4741693502e-07
2.20488603053e-07
5.27696956523e-07
2.39412532565e-07
5.13234535595e-07
2.49210273994e-07
5.05867068949e-07
2.47444131816e-07
5.01251326109e-07
2.326552174e-07
4.96597813483e-07
2.0697107118e-07
4.94259986826e-07
1.80036121757e-07
4.89836937989e-07
1.56352038169e-07
4.82605315534e-07
1.32752693267e-07
4.84693851788e-07
1.1552899193e-07
4.98426037868e-07
9.04069373562e-08
5.20751395481e-07
-3.58857537028e-08
5.41960431149e-07
5.71794656577e-07
-6.49161165889e-08
2.52839714358e-07
6.0605969803e-07
2.38451423117e-07
5.87781290063e-07
2.11160983122e-07
5.91037402355e-07
1.94983061231e-07
6.01930893218e-07
1.91993068203e-07
5.97081580817e-07
2.02002819507e-07
5.75199174388e-07
2.20377479708e-07
5.51371887182e-07
2.44352018561e-07
5.32171020719e-07
2.62737862391e-07
5.20655013234e-07
2.70692319215e-07
5.16207610202e-07
2.70600505442e-07
5.13684305352e-07
2.57366268761e-07
5.09873728474e-07
2.32989978242e-07
5.07412583193e-07
2.03794244229e-07
5.05154495285e-07
1.78135791587e-07
4.97670410086e-07
1.56087452038e-07
4.96066432668e-07
1.38771647129e-07
5.05764835428e-07
1.17937234631e-07
5.25817369787e-07
2.83625335053e-08
5.47476378385e-07
5.71575470413e-07
-3.98986606414e-08
2.44433210518e-07
6.07011306641e-07
2.32638698076e-07
5.87657914881e-07
2.07058462884e-07
5.92968911983e-07
1.96055903421e-07
6.03586388279e-07
1.99331105724e-07
5.98015828227e-07
2.15544024327e-07
5.76776978001e-07
2.40687492714e-07
5.54201668216e-07
2.67469727642e-07
5.37332989558e-07
2.83046427848e-07
5.29934026472e-07
2.90923386357e-07
5.28190783581e-07
2.9262980972e-07
5.27760738833e-07
2.82472440235e-07
5.25529995883e-07
2.60371450316e-07
5.23941649172e-07
2.28005251222e-07
5.24469407247e-07
1.96384329399e-07
5.16919699055e-07
1.73123004575e-07
5.10253912778e-07
1.54297410147e-07
5.14972428707e-07
1.33745789969e-07
5.31978417373e-07
7.57042211389e-08
5.54105586825e-07
5.72260475908e-07
-1.58553948563e-08
2.27904899177e-07
6.17477457681e-07
2.17238188185e-07
5.90960592332e-07
1.96566110754e-07
5.93872223575e-07
1.94115912954e-07
6.018527205e-07
2.06325620097e-07
5.95391961978e-07
2.30698556859e-07
5.76090196978e-07
2.61751566072e-07
5.56417869934e-07
2.87357983613e-07
5.43482406084e-07
3.00545668627e-07
5.40270728263e-07
3.09539736905e-07
5.41060582051e-07
3.1360094701e-07
5.42524392852e-07
3.07070584124e-07
5.42154068481e-07
2.88524302234e-07
5.42420807915e-07
2.51594989892e-07
5.46717733874e-07
2.11006495358e-07
5.39956063342e-07
1.84624347892e-07
5.25884484475e-07
1.64155582127e-07
5.24839117023e-07
1.42406363041e-07
5.38056971618e-07
1.03865870835e-07
5.59630320478e-07
5.74350982187e-07
5.63732456735e-09
2.2391270948e-07
6.28309820731e-07
2.17342283737e-07
5.94981747986e-07
1.96551049717e-07
5.94634997542e-07
1.98791690154e-07
5.9872514315e-07
2.17027611941e-07
5.91221024875e-07
2.47428625374e-07
5.74487730476e-07
2.81096986021e-07
5.5872809114e-07
3.03354250612e-07
5.50777842494e-07
3.15215565452e-07
5.51043787305e-07
3.25982799761e-07
5.54086606014e-07
3.32145950325e-07
5.57178423247e-07
3.3002177859e-07
5.58480643645e-07
3.13666596956e-07
5.61298843465e-07
2.67451634584e-07
5.68820742081e-07
2.19104417483e-07
5.63709705637e-07
1.91826396509e-07
5.42124010493e-07
1.70158957961e-07
5.34797929337e-07
1.47861227238e-07
5.43692558981e-07
1.1595517262e-07
5.64156725444e-07
5.76221382691e-07
2.73919384151e-08
2.24404853693e-07
6.40200856136e-07
2.2344361378e-07
5.99679225826e-07
2.02354991663e-07
5.95122911587e-07
2.07107245516e-07
5.95028696922e-07
2.28972423001e-07
5.86762645539e-07
2.6294210081e-07
5.73056281102e-07
2.95275256741e-07
5.61788217562e-07
3.14018952939e-07
5.59076909114e-07
3.26689520574e-07
5.6223830199e-07
3.38275477277e-07
5.67165931347e-07
3.46277827648e-07
5.71656619687e-07
3.47113486465e-07
5.74646350226e-07
3.24757614713e-07
5.8053898116e-07
2.69066789935e-07
5.89421584135e-07
2.23617418814e-07
5.86057954622e-07
1.96583339777e-07
5.61769722983e-07
1.74374388636e-07
5.46428804366e-07
1.51977136177e-07
5.50284129969e-07
1.22157207284e-07
5.68959845961e-07
5.84564130602e-07
5.41263652775e-08
2.23573028082e-07
6.50362671747e-07
2.2786005338e-07
6.03907062852e-07
2.09097693797e-07
5.9491952273e-07
2.17047361139e-07
5.91482115611e-07
2.4165765942e-07
5.83597382597e-07
2.77048133683e-07
5.73483633978e-07
3.05078885926e-07
5.67020154731e-07
3.21526289111e-07
5.68767940885e-07
3.3474730576e-07
5.74319434024e-07
3.46507437053e-07
5.80825971672e-07
3.54280499672e-07
5.86413675216e-07
3.55209562626e-07
5.91500302856e-07
3.17751461329e-07
6.00368281856e-07
2.63660307012e-07
6.08139733812e-07
2.26628975471e-07
6.06633747314e-07
1.96855650494e-07
5.84027258507e-07
1.75413804636e-07
5.60081279827e-07
1.53841270702e-07
5.587357332e-07
1.25050082183e-07
5.74865573303e-07
5.97415754257e-07
7.75748781315e-08
2.19101831811e-07
6.61641130779e-07
2.29605492294e-07
6.08508374275e-07
2.1598379113e-07
5.94772376666e-07
2.28880753366e-07
5.89318245431e-07
2.56280175245e-07
5.83283700685e-07
2.90854113767e-07
5.77241144466e-07
3.13676618923e-07
5.75472686908e-07
3.28170289766e-07
5.80352746568e-07
3.41453442894e-07
5.87692266641e-07
3.51555055692e-07
5.95002398873e-07
3.58117726203e-07
6.01184911186e-07
3.47569575859e-07
6.08366867493e-07
2.98532840888e-07
6.18795008569e-07
2.57797826553e-07
6.25279752874e-07
2.22443155645e-07
6.25201897937e-07
1.92285861798e-07
6.05758612104e-07
1.73016676966e-07
5.75519009239e-07
1.53273182872e-07
5.6922450131e-07
1.25394718e-07
5.81913016031e-07
6.05505688682e-07
8.63406832575e-08
2.05563068446e-07
6.78726870208e-07
2.22421682834e-07
6.14657259575e-07
2.17106840196e-07
5.95316556553e-07
2.3661623206e-07
5.89128599872e-07
2.6744867695e-07
5.86406196992e-07
2.99577068631e-07
5.84908176512e-07
3.1890953342e-07
5.87341485509e-07
3.33282834298e-07
5.94465598319e-07
3.44267926536e-07
6.02717710013e-07
3.511839053e-07
6.10013522641e-07
3.54052723309e-07
6.16255756773e-07
3.22301043717e-07
6.23992123144e-07
2.76478195588e-07
6.33249195126e-07
2.46318662734e-07
6.40162220795e-07
2.13856853212e-07
6.41793586241e-07
1.85564387672e-07
6.26379969484e-07
1.68466825862e-07
5.92565908204e-07
1.50164504905e-07
5.81836169716e-07
1.22977883706e-07
5.89880210524e-07
6.11950437338e-07
8.30683651957e-08
2.07275669992e-07
6.9318415822e-07
2.38406967901e-07
6.20711572482e-07
2.29115140187e-07
5.99558446019e-07
2.47730461985e-07
5.94229151987e-07
2.76843300713e-07
5.95264662944e-07
3.04882445007e-07
5.97990863779e-07
3.22841959977e-07
6.03409215894e-07
3.35143802339e-07
6.11663509758e-07
3.42322530174e-07
6.19610306535e-07
3.42703713905e-07
6.2514676024e-07
3.2501436674e-07
6.28693560165e-07
2.85554394717e-07
6.35061783637e-07
2.56365575957e-07
6.43298751431e-07
2.31755659724e-07
6.51504574217e-07
2.04533848871e-07
6.55780457057e-07
1.79990090715e-07
6.45962214622e-07
1.63232671989e-07
6.1303876652e-07
1.44035309134e-07
5.9657616705e-07
1.16655305183e-07
5.98254046639e-07
6.17176331564e-07
7.48095271274e-08
2.14650437112e-07
7.00448015065e-07
2.61368245166e-07
6.25606750108e-07
2.47872157126e-07
6.07301475826e-07
2.61602443795e-07
6.05640010543e-07
2.85507056786e-07
6.11152831298e-07
3.10087112093e-07
6.17492917343e-07
3.24715704244e-07
6.24159646721e-07
3.29824920938e-07
6.31272088492e-07
3.23321474484e-07
6.35894622533e-07
3.04576550574e-07
6.364198294e-07
2.76668794362e-07
6.36435511539e-07
2.52062158446e-07
6.40495309116e-07
2.36070019597e-07
6.48443644417e-07
2.18882481384e-07
6.5875790421e-07
1.9967444442e-07
6.6708484658e-07
1.79604276456e-07
6.65570792935e-07
1.57828017814e-07
6.38889143949e-07
1.33270848284e-07
6.11815454951e-07
1.03292166117e-07
6.06041835552e-07
6.20768057591e-07
5.94395206456e-08
2.25074342894e-07
7.00446844846e-07
2.86279855943e-07
6.31578296522e-07
2.69427514045e-07
6.19911276881e-07
2.7820670886e-07
6.25256519468e-07
2.95669135018e-07
6.36169070186e-07
3.10991951833e-07
6.43507190432e-07
3.10184981525e-07
6.47389362214e-07
2.93066558666e-07
6.49670830223e-07
2.69778087794e-07
6.48868679454e-07
2.50873088884e-07
6.44849990373e-07
2.36589551696e-07
6.42622583681e-07
2.27604031772e-07
6.45304383874e-07
2.18965250611e-07
6.51929767119e-07
2.09635021029e-07
6.62812547811e-07
1.99547904333e-07
6.75954060851e-07
1.80137641683e-07
6.84424056186e-07
1.47500833453e-07
6.67135145721e-07
1.16940460386e-07
6.25678562975e-07
8.45348967836e-08
6.12470574802e-07
6.22022209906e-07
3.91110179943e-08
2.33924271448e-07
7.01857391342e-07
3.00157987412e-07
6.41877172241e-07
2.81977584272e-07
6.39326765289e-07
2.82949971312e-07
6.5619224419e-07
2.82841094767e-07
6.73001571775e-07
2.74026236753e-07
6.75630851541e-07
2.52840557792e-07
6.71916751323e-07
2.30257666699e-07
6.67472703151e-07
2.15912798041e-07
6.60546460755e-07
2.09815841764e-07
6.52111455904e-07
2.08299625256e-07
6.4958185472e-07
2.06023197364e-07
6.51701916265e-07
2.00542098209e-07
6.55670043605e-07
1.97533248894e-07
6.64231531384e-07
1.91190922698e-07
6.81349003416e-07
1.6749901773e-07
6.99266704406e-07
1.30087958317e-07
6.90505923841e-07
9.84973941771e-08
6.41192646407e-07
6.37586226818e-08
6.17194221113e-07
6.20971037281e-07
1.79428813791e-08
2.33442564761e-07
2.92707373126e-07
2.71114457347e-07
2.49893191999e-07
2.21174799665e-07
1.97059881766e-07
1.7913827789e-07
1.6898002261e-07
1.66974272115e-07
1.71947853589e-07
1.77528156213e-07
1.7777136818e-07
1.7472401851e-07
1.72940833622e-07
1.64536239075e-07
1.40820492347e-07
1.1246253096e-07
8.2224178213e-08
4.47615330754e-08
-8.08003558946e-10
1.96819153232e-08
7.10445560207e-07
5.96095251451e-09
6.77382810497e-07
-7.12422636651e-09
6.45532270977e-07
-1.96718295104e-08
6.14914737349e-07
-3.18456533459e-08
5.85536301564e-07
-4.38091226601e-08
5.57385017673e-07
-5.5701340577e-08
5.30436792592e-07
-6.76358792455e-08
5.04661270922e-07
-7.97019402279e-08
4.80025764414e-07
-9.19897515587e-08
4.5649581403e-07
-1.04628155978e-07
4.34032219663e-07
-1.17852700672e-07
4.12584597822e-07
-1.32059743872e-07
3.92086271218e-07
-1.47645791113e-07
3.7247039527e-07
-1.64261808917e-07
3.53747548351e-07
-1.77034558566e-07
3.36263497455e-07
-2.04165132519e-07
3.19250879603e-07
-1.48566042033e-07
3.06528229284e-07
-1.04345045792e-06
2.50736878025e-07
2.60739247798e-07
3.77365015054e-09
5.65891890461e-07
7.42274395221e-10
5.39058068644e-07
-2.12351801827e-09
5.13659687013e-07
-4.88505539648e-09
4.89588692934e-07
-7.59748990754e-09
4.66759671584e-07
-1.02994984078e-08
4.45100176212e-07
-1.30153840052e-08
4.24545010614e-07
-1.57615907085e-08
4.05032806453e-07
-1.85545407909e-08
3.86504212363e-07
-2.14274811127e-08
3.68901749445e-07
-2.44487319652e-08
3.52171946989e-07
-2.77270047097e-08
3.3627035849e-07
-3.13309407136e-08
3.21169793143e-07
-3.50008827677e-08
3.06867036472e-07
-3.79179658477e-08
2.93367440044e-07
-3.9748868165e-08
2.80584684314e-07
-4.17159988072e-08
2.68333856845e-07
-4.79851926416e-08
2.54701585211e-07
-1.40533721644e-08
2.43870713081e-07
2.104621147e-07
3.68338518983e-09
5.93002843502e-07
4.36233670353e-10
5.64806090913e-07
-2.60186148952e-09
5.38111364447e-07
-5.43170456903e-09
5.12805394516e-07
-8.07500236192e-09
4.88792696397e-07
-1.05454276026e-08
4.65987792326e-07
-1.28515121287e-08
4.44312129347e-07
-1.50077607109e-08
4.23692612593e-07
-1.70441340322e-08
4.04061682256e-07
-1.9014185359e-08
3.85358694968e-07
-2.09786237875e-08
3.67532275315e-07
-2.29328640846e-08
3.50542928072e-07
-2.46338341268e-08
3.34364160901e-07
-2.54552720998e-08
3.18977241433e-07
-2.48310586374e-08
3.04346641363e-07
-2.31802860822e-08
2.90324753776e-07
-2.18192207481e-08
2.76189415061e-07
-2.06325551053e-08
2.59867385287e-07
1.67188057811e-08
2.35984021433e-07