/*--------------------------------*- C++ -*----------------------------------*\
| =========                 |                                                 |
| \\      /  F ield         | OpenFOAM: The Open Source CFD Toolbox           |
|  \\    /   O peration     | Version:  2312                                  |
|   \\  /    A nd           | Website:  www.openfoam.com                      |
|    \\/     M anipulation  |                                                 |
\*---------------------------------------------------------------------------*/
FoamFile
{
    version     2.0;
    format      ascii;
    arch        "LSB;label=32;scalar=64";
    class       volScalarField;
    location    "0.055/water";
    object      km;
}
// * * * * * * * * * * * * * * * * * * * * * * * * * * * * * * * * * * * * * //

dimensions      [0 2 -2 0 0 0 0];

internalField   nonuniform List<scalar> 
1504
(
1.81385564262
0.810672498577
0.369090807944
0.172595901208
0.0850437501317
0.0464390284478
0.0292213821418
0.0208424515428
0.0155603263406
0.0111234894946
0.00715260861128
0.00398255360858
0.0019000093212
0.000731045500476
0.000234735644766
6.75614948041e-05
2.27900422347e-05
1.34117336736e-05
1.20644566877e-05
1.31283372193e-05
1.88497498514
0.825146341022
0.370886824532
0.172510522237
0.0854103526726
0.0473928393983
0.0301285519183
0.0212574860376
0.0154846830431
0.0107199636398
0.00670330880224
0.00368592036094
0.00170378130707
0.000651338335745
0.000213318780534
6.41547484408e-05
2.2569617588e-05
1.33480408345e-05
1.19422735124e-05
1.3013692453e-05
1.90052447675
0.820051740646
0.365910133626
0.171015115434
0.0866956277962
0.0498323064369
0.0322725474841
0.0225793280289
0.0161170888564
0.0109750625071
0.00674972550548
0.00360182147005
0.0016249384126
0.000626960974845
0.000212554967439
6.58864891903e-05
2.31718510766e-05
1.32317830643e-05
1.16843589435e-05
1.27247087201e-05
1.84868887695
0.780753773502
0.347847418059
0.166867770896
0.0890600585669
0.0537487287817
0.0355479361082
0.0248531802547
0.017517917545
0.0117857170437
0.00720389634459
0.00382002885217
0.00173491895094
0.000689953181397
0.000244150012973
7.67655958254e-05
2.58622802538e-05
1.35773436711e-05
1.15583373595e-05
1.24242776623e-05
1.69491476823
0.708479460683
0.323923063172
0.165152905641
0.0944286424713
0.0593989248012
0.0397381005417
0.0277691128406
0.0196170928534
0.0133082375673
0.0081636738456
0.00438525616949
0.00204488279136
0.000851117030171
0.000317270361766
0.000102441879439
3.26258971493e-05
1.4952281262e-05
1.17222646844e-05
1.225930162e-05
1.43082983686
0.630904809161
0.311513059179
0.173735369545
0.105588115347
0.0674849275088
0.0449092109409
0.0313235064166
0.0223357545648
0.0153114893717
0.00959832395165
0.00536824293006
0.00261556674157
0.00112615877594
0.000435231201408
0.000146135852143
4.46994484863e-05
1.74756854085e-05
1.20885750028e-05
1.21548144923e-05
1.18594115203
0.587565162479
0.325687111892
0.197716622333
0.123374195785
0.0786255403846
0.0518129285243
0.0351624760736
0.0243679938601
0.0167188537257
0.0110385210802
0.00678290821574
0.00359713132228
0.00161116272997
0.000627837612489
0.00021747726512
6.58382953065e-05
2.19876077022e-05
1.28044237711e-05
1.21170145974e-05
1.08876628087
0.591518945952
0.354198122637
0.222850491396
0.14081442846
0.0925749363364
0.0609008064728
0.0393255425666
0.0256684006961
0.017179284919
0.0115824277491
0.00762749376229
0.00465797890964
0.00235489807206
0.000945834415826
0.000329313424529
0.000102396586018
3.05653329976e-05
1.44215214819e-05
1.24381542475e-05
1.08546004831
0.603029874173
0.355980257413
0.226555524132
0.154870113964
0.110311946646
0.0767760646245
0.0496135013261
0.0301441989093
0.0185972887675
0.0119782793378
0.00787778384473
0.00500398863405
0.00287747067292
0.00133438731047
0.000475090969402
0.000150754277575
4.37539665873e-05
1.68799955168e-05
1.28340479165e-05
1.14784042175
0.585480607645
0.332159513446
0.221246023368
0.167305212617
0.131689054315
0.101599599699
0.0704677838202
0.0405656743249
0.0231590428519
0.0136396958987
0.00852017929196
0.00536100178795
0.00312568583836
0.0015909062409
0.000629422577969
0.000200347486407
5.90778590751e-05
1.98212789052e-05
1.2912503314e-05
1.17026962371
0.553686959774
0.304889989286
0.212646109861
0.171380685543
0.144472962342
0.120306505021
0.0932783080227
0.0603215258469
0.0317687924956
0.0170978836509
0.00997362108126
0.00606967306273
0.0035219008578
0.00180628152201
0.000784149325457
0.00025821153322
7.47457612993e-05
2.31707582838e-05
1.27094362021e-05
1.14009374074
0.529068205223
0.290972268484
0.204162212294
0.168700651921
0.147562530515
0.128412194448
0.105251229123
0.0739288640154
0.0408377619225
0.0214968916718
0.0119989690903
0.00705023713618
0.00403575061699
0.00206353646711
0.00091466168273
0.000324065006101
9.31724107084e-05
2.69844144326e-05
1.25243485489e-05
1.10369074611
0.50863123698
0.280827597948
0.195174248099
0.161627777053
0.143872880623
0.128425498284
0.10899819017
0.0805244177346
0.0460484473513
0.02458984688
0.0136443790625
0.00793455117686
0.00450952061198
0.00230692848455
0.00102650788458
0.000381764278251
0.000112175457134
3.07329903684e-05
1.24770131616e-05
1.07756942237
0.494740768042
0.271766951368
0.185190665771
0.152234454176
0.13624543004
0.123128604435
0.106252866205
0.080330685503
0.0468998811611
0.0256182240263
0.0144752205432
0.00850455066718
0.00484943386532
0.00248800138462
0.00111162226121
0.00042420926501
0.000128405054997
3.42952762271e-05
1.2678627947e-05
1.07530429129
0.492731968012
0.260339963865
0.174440166967
0.14160471837
0.126351610825
0.114324897888
0.0986813598774
0.0739371187084
0.0438364629072
0.0247872109253
0.0144884028854
0.00870480091604
0.00501336198761
0.00258135831884
0.00115820300622
0.000448145959553
0.000138515653855
3.68720402582e-05
1.30234015625e-05
1.10193395405
0.504118468382
0.255901474046
0.16463924488
0.130100178824
0.114886951002
0.102997098095
0.087195561995
0.0626003293674
0.0382872893206
0.0227348997466
0.0138800004114
0.00857145928669
0.00499106060035
0.00257501176383
0.00115892828236
0.000451751645988
0.000140948520733
3.76642676005e-05
1.33032864632e-05
1.15149655893
0.52811514698
0.25929635277
0.1546520892
0.118066994304
0.102288065424
0.0894114368884
0.0724781503636
0.0506220020795
0.0322967754229
0.0202225684282
0.0129091188495
0.0081706900421
0.00478934423375
0.00246741160815
0.00111309066103
0.000433573778584
0.000135268782401
3.63669362213e-05
1.33739566124e-05
1.21338691408
0.558516823895
0.267828191615
0.147794880686
0.107088374449
0.0890969864131
0.0744917745129
0.0578274869228
0.0406913293638
0.0270514842863
0.0177758364238
0.0117752301896
0.00757011983106
0.00443596814304
0.0022761776811
0.00102979725659
0.000395454954674
0.000121658531147
3.30417312873e-05
1.31908381175e-05
1.28862302192
0.593149192318
0.280537148143
0.145985039184
0.0979170007838
0.0768503645393
0.0611652211383
0.0463980713632
0.0331822669932
0.0228508107934
0.0156085590159
0.0105897001911
0.0068408314849
0.0039846554768
0.00203831140547
0.000922657373147
0.000343989369558
0.00010302274743
2.85478085998e-05
1.28722755837e-05
1.37375661548
0.629115413327
0.29536359021
0.14864102161
0.0918140283013
0.0670425075143
0.0511168268554
0.0382568556722
0.0277152969836
0.0196236693633
0.0137514207866
0.009425969662
0.00606936168127
0.00350821580483
0.0017953181655
0.000798456674685
0.00028674929615
8.31856823493e-05
2.39895460938e-05
1.25712579256e-05
1.44399429567
0.663725072501
0.31179763628
0.15408184759
0.0889862251219
0.060480002415
0.0441559354372
0.0325974708517
0.0238268387972
0.017185026179
0.012194739689
0.00836510968406
0.00534708789146
0.00307367540253
0.00156891327843
0.000671599195521
0.000230584919194
6.48594428104e-05
2.00579939702e-05
1.2373462105e-05
1.48735672086
0.690465390314
0.326203992943
0.159800651002
0.0880767386393
0.0563700929268
0.0395248196559
0.0287515513259
0.0211011039419
0.0153670678166
0.0109445777307
0.00746867816466
0.00473336230342
0.00270617275255
0.0013480605728
0.000550987032816
0.00017961082015
4.93348542742e-05
1.70067148471e-05
1.22962130839e-05
1.52105926744
0.709974772467
0.336903971108
0.164286423439
0.0878840851926
0.0538167498551
0.036499080248
0.0261809462427
0.019220802109
0.0140481927484
0.00998014086241
0.0067479501968
0.00423513975351
0.00238413384237
0.0011351694762
0.000440376508326
0.000135674392072
3.69760962363e-05
1.48245795892e-05
1.23196326228e-05
1.5578037934
0.726283465215
0.34443969606
0.167324826559
0.0878703330013
0.0522204703954
0.0345481003005
0.0244901375938
0.0179464376373
0.0131078973833
0.00924703702179
0.00617979895801
0.00382126870223
0.00207090595718
0.000936989759344
0.000341682715175
9.92736142046e-05
2.76873924356e-05
1.33774153293e-05
1.24106533651e-05
1.60461590099
0.740153209883
0.349347772139
0.16906950853
0.0877776783573
0.0511616860026
0.0332682597988
0.0233689551056
0.0170737256254
0.0124250774933
0.0086830839886
0.00572307554353
0.00344654107451
0.00177410702179
0.000755475693779
0.000256425765934
7.04605011434e-05
2.11694441966e-05
1.24892087588e-05
1.25340368603e-05
1.64074794939
0.754338623599
0.354642552055
0.170754595634
0.0877774468361
0.0504465377123
0.0324049214547
0.0226033501214
0.0164511153893
0.0119055524174
0.00823159246194
0.00533409974576
0.00308431812025
0.00149884036586
0.000593694820762
0.000186113007859
4.90453616115e-05
1.69529628743e-05
1.19820448152e-05
1.26579763921e-05
1.66134538431
0.764684831213
0.359620294919
0.172564967541
0.0879517134553
0.0499768620639
0.0318060506571
0.0220570258689
0.0159779543232
0.0114810720545
0.00784348570642
0.00497840414666
0.00274543493134
0.00124894263201
0.00045544914108
0.000131459279236
3.4350542381e-05
1.44434520283e-05
1.17011595354e-05
1.27584554619e-05
1.66034614834
0.768299425246
0.363285418195
0.174553379344
0.0884759540354
0.0497985312365
0.031437920892
0.0216762383017
0.0156056655229
0.0111114065273
0.00748971272851
0.00463992697144
0.00243290701982
0.00102919895664
0.000343608652558
9.18964926439e-05
2.51638078224e-05
1.30508614414e-05
1.15308098713e-05
1.28208875556e-05
1.64950250886
0.766351504664
0.365019734085
0.17634191599
0.0892630167958
0.0499138524438
0.0313091126303
0.0214611831514
0.0153310920252
0.0107921038163
0.00717204585195
0.00432531345635
0.0021568609399
0.000845995661312
0.000259271364288
6.56479703856e-05
1.9964047674e-05
1.23037107045e-05
1.13978446665e-05
1.28370775505e-05
1.64635162294
0.764904325357
0.366252791485
0.177931346556
0.0901831518402
0.0502884313449
0.03143256875
0.0214391336866
0.0151814902623
0.0105512128019
0.00691726659461
0.00406970232122
0.00193682952955
0.000707213104415
0.000201811030365
5.01371068857e-05
1.73144316673e-05
1.18895198197e-05
1.12654045553e-05
1.28014674124e-05
1.63982902243
0.767914639122
0.369431772825
0.180265839407
0.0915697018777
0.05109769282
0.0319204511955
0.0216834073124
0.0152180789435
0.0104458585505
0.00676654709973
0.00391428477042
0.00179846433038
0.000621093220974
0.000169352908249
4.2621557067e-05
1.61718798807e-05
1.16420751727e-05
1.11246542657e-05
1.27142340127e-05
1.62062442533
0.771184548684
0.374099483881
0.183609999579
0.0936893207717
0.0525364691318
0.0328978510498
0.0222836530299
0.0155178006024
0.0105332747611
0.00675778881771
0.00388639199507
0.00176122925487
0.000591834285283
0.000159134649997
4.086842756e-05
1.5963476305e-05
1.15058745732e-05
1.09877216607e-05
1.25893447764e-05
1.60614688835
0.775132432712
0.379993245335
0.188016694432
0.0968935155966
0.0548939883422
0.0345445347769
0.0233591431883
0.0161513058412
0.0108609590711
0.00691904979635
0.00399360899828
0.00182931425738
0.000617480410277
0.000168389131545
4.36634564857e-05
1.64983223304e-05
1.14880909206e-05
1.08761997599e-05
1.24523780042e-05
1.61251077794
0.780690960899
0.385189862424
0.192486563605
0.100879777901
0.0580972802752
0.0368674561425
0.0249298576378
0.017132925649
0.0114396294939
0.00725723941235
0.00424339398121
0.00200745554617
0.000697442564929
0.000195317917791
5.06712323905e-05
1.77788920411e-05
1.15973090958e-05
1.07953862916e-05
1.2314740821e-05
1.63563978687
0.784798034214
0.385789524858
0.194418371026
0.104148549204
0.0613113940868
0.0394243530639
0.0267486399182
0.0183151657077
0.0121712535459
0.00771706539627
0.00461408601242
0.00228938729661
0.000837190938322
0.000240989202413
6.20240723047e-05
1.98197820406e-05
1.17997572012e-05
1.07098545908e-05
1.21464919638e-05
1.65469414493
0.78412675453
0.382115876819
0.193813777177
0.105969979111
0.0637552865347
0.0416558801294
0.0284456617428
0.0194557392506
0.0129021912882
0.00820437326177
0.00498673528853
0.00261796789541
0.00102576257483
0.000305874256608
7.83200915534e-05
2.27912055764e-05
1.2135745746e-05
1.06339449499e-05
1.19631941797e-05
1.65169865161
0.778299002206
0.377114075986
0.191852802681
0.106381144648
0.065278468947
0.0433481492994
0.0298324640548
0.0204247876842
0.0135499056512
0.00865683309657
0.00531836433491
0.00292101026629
0.00122584090046
0.000382915773144
9.88958200802e-05
2.67705937132e-05
1.26920395123e-05
1.06449337832e-05
1.1850160462e-05
1.64546251703
0.771574738433
0.372275436785
0.18952264667
0.106277162059
0.0663849088447
0.044736804321
3.56373200993e-05
3.94736818974e-05
3.92861012699e-05
3.06693814944e-05
1.52137619468e-05
7.86212157985e-06
6.68076754991e-06
6.56131926689e-06
6.54953307616e-06
6.54673120829e-06
6.54701294966e-06
7.05860407441e-06
8.54548019944e-05
0.00103734953538
0.00295729492927
0.00532315579602
0.00938396678644
1.59770879055e-05
2.08740176271e-05
2.90477092123e-05
3.72023679558e-05
4.06844366273e-05
3.91899103493e-05
2.9045450124e-05
1.42791086006e-05
7.69934535876e-06
6.66133848426e-06
6.55976183508e-06
6.54973664827e-06
6.54702998274e-06
6.54760454231e-06
7.14042285198e-06
9.33652801851e-05
0.00108750125939
0.00302256197566
0.00539328793208
0.00948257086529
1.57915985295e-05
2.08624440613e-05
2.99931873282e-05
3.85388791961e-05
4.15688537562e-05
3.86643009864e-05
2.75653133842e-05
1.39590270167e-05
7.71325090477e-06
6.65883135886e-06
6.56183520524e-06
6.55236251097e-06
6.54964591688e-06
6.55068043987e-06
7.25567613105e-06
0.000101709333525
0.0011358148499
0.00308522691985
0.00546001902191
0.00956600834034
1.53839415631e-05
2.0865514112e-05
3.06951397143e-05
3.94337783958e-05
4.20132181505e-05
3.79634358455e-05
2.67480587704e-05
1.43160949488e-05
7.92480355559e-06
6.67816018089e-06
6.5684878051e-06
6.5578695218e-06
6.5549789336e-06
6.55734220207e-06
7.46505805622e-06
0.000110675546445
0.00118040619036
0.00314346978169
0.00552288394837
0.00963429328583
1.50144246695e-05
2.08977614827e-05
3.09034342564e-05
3.96751967953e-05
4.20353058295e-05
3.75151792169e-05
2.68620244387e-05
1.52779630388e-05
8.3814334253e-06
6.73339712174e-06
6.58091645399e-06
6.56628262446e-06
6.5629540539e-06
6.56968339121e-06
7.8952951146e-06
0.000120552811819
0.00121969570543
0.0031960116165
0.00558225997012
0.00968890410325
1.47970629415e-05
2.07154936088e-05
3.04531479721e-05
3.91766672185e-05
4.17420618759e-05
3.75389989285e-05
2.78232401464e-05
1.6780547105e-05
9.12971795268e-06
6.84858352915e-06
6.60114223982e-06
6.57732433123e-06
6.57309751896e-06
6.58908855265e-06
8.51774126219e-06
0.000129913294811
0.0012521718498
0.00324300752184
0.00564004145405
0.00973378764629
1.44920416589e-05
2.00782296979e-05
2.93141059907e-05
3.79938525704e-05
4.11490902031e-05
3.79645313346e-05
2.95171124387e-05
1.87583054454e-05
1.01525022087e-05
7.03900398534e-06
6.63111971154e-06
6.59062200472e-06
6.58466729786e-06
6.60683839884e-06
8.89394073813e-06
0.000135690916076
0.00127636272975
0.00328506767075
0.00569829448298
0.00977677852415
1.41208693361e-05
1.90939943757e-05
2.75519407656e-05
3.61123840408e-05
4.01536570474e-05
3.85921550649e-05
3.16986040915e-05
2.1120590103e-05
1.1460866543e-05
7.33051489781e-06
6.67489187199e-06
6.60623146017e-06
6.59715171207e-06
6.61743130796e-06
8.88309850727e-06
0.000137404741194
0.00129244345656
0.00332238966924
0.00575819057304
0.00982465242938
1.39561978566e-05
1.80643761005e-05
2.5438249882e-05
3.36534790666e-05
3.85538939688e-05
3.8777028379e-05
3.37738106e-05
2.36971560856e-05
1.30597897027e-05
7.75427065846e-06
6.73929040463e-06
6.62497150556e-06
6.61063562445e-06
6.62245494288e-06
8.53992223402e-06
0.000135954962692
0.00130178992542
0.00335556315713
0.00582085340011
0.00988381857456
1.38565256324e-05
1.71433003798e-05
2.32701213796e-05
3.08221155727e-05
3.62507129413e-05
3.80101026628e-05
3.51576274996e-05
2.62087941896e-05
1.49040719051e-05
8.33764517591e-06
6.8342614806e-06
6.64848996468e-06
6.62570108458e-06
6.62787495718e-06
8.05635758049e-06
0.000133180323785
0.00130674795086
0.00338568643034
0.00588735332376
0.00995984372523
1.34695563244e-05
1.62612771046e-05
2.12871251053e-05
2.79441282134e-05
3.35717601753e-05
3.64354418521e-05
3.55781875586e-05
2.83013744139e-05
1.68673379739e-05
9.09346345587e-06
6.97253786911e-06
6.67908980492e-06
6.64299300704e-06
6.63860110478e-06
7.71432500641e-06
0.000131495057791
0.00131030445353
0.00341424975316
0.00595864300898
0.0100567341229
1.26641753486e-05
1.525871333e-05
1.96174980512e-05
2.54073704403e-05
3.09931714244e-05
3.45661612947e-05
3.51901040906e-05
2.97160598955e-05
1.87519505445e-05
9.9998733018e-06
7.16460894654e-06
6.71892253672e-06
6.66274165986e-06
6.65523097579e-06
7.68743728168e-06
0.000132281439915
0.00131554161461
0.00344371988667
0.0060359535768
0.0101768450666
1.16740763894e-05
1.41600807342e-05
1.82846328872e-05
2.34938182134e-05
2.89095862889e-05
3.29104814081e-05
3.44779157779e-05
3.0498691041e-05
2.03397218156e-05
1.09383152536e-05
7.39189882001e-06
6.76588460456e-06
6.68414160561e-06
6.67375081539e-06
7.72998145782e-06
0.000134087015859
0.00132398424928
0.00347707696636
0.00612110444681
0.0103233335387
1.08277562016e-05
1.32072355141e-05
1.73290223984e-05
2.2297775654e-05
2.75292818041e-05
3.17654226327e-05
3.38753948179e-05
3.09028681385e-05
2.15438790028e-05
1.17919237852e-05
7.62555582991e-06
6.81514926707e-06
6.70550114348e-06
6.69212447047e-06
7.79233565743e-06
0.000136841442977
0.00133702322159
0.00351589805124
0.00621455908266
0.0104963335918
1.03433658871e-05
1.26312949408e-05
1.68247749429e-05
2.17786343843e-05
2.68781128615e-05
3.12247854199e-05
3.36110902207e-05
3.1191296071e-05
2.24064387666e-05
1.24836974743e-05
7.83559041072e-06
6.86035657217e-06
6.72457175025e-06
6.70852612411e-06
7.87018937555e-06
0.000140715704549
0.0013557232351
0.0035612301934
0.00631616901357
0.0106938486594
1.02519328273e-05
1.25103836176e-05
1.6808314488e-05
2.18516206883e-05
2.68844761514e-05
3.12659168299e-05
3.37513518499e-05
3.15258548843e-05
2.30097093935e-05
1.29743952868e-05
7.99628430325e-06
6.89512762484e-06
6.73908117712e-06
6.72120924391e-06
7.96426679613e-06
0.000145857146369
0.00138070687243
0.00361358465521
0.00642533362142
0.0109125706623
1.04790010342e-05
1.28031961956e-05
1.72428696143e-05
2.24133398159e-05
2.74329115871e-05
3.18098182894e-05
3.4270706168e-05
3.19635078024e-05
2.34152303099e-05
1.32482073494e-05
8.08911819128e-06
6.91453810306e-06
6.74725457241e-06
6.72881131685e-06
8.07625648012e-06
0.000152370590348
0.00141221324009
0.00367298969475
0.00654108983133
0.0111483022712
1.09360829169e-05
1.34303121506e-05
1.80526661268e-05
2.33609170933e-05
2.8399178658e-05
3.27559108232e-05
3.51009507162e-05
3.24915597737e-05
2.36477984507e-05
1.33020868706e-05
8.10381908662e-06
6.91609754612e-06
6.74816601659e-06
6.73058287935e-06
8.20862400653e-06
0.000160325067315
0.00145016790348
0.0037390642918
0.00666220512594
0.0113963481948
1.15163479297e-05
1.42860129234e-05
1.91376509123e-05
2.45912734075e-05
2.9667000568e-05
3.39966082769e-05
3.61544938494e-05
3.30578785091e-05
2.37020851263e-05
1.3146655591e-05
8.04089055867e-06
6.9002273527e-06
6.741870974e-06
6.72647225992e-06
8.36466253954e-06
0.00016975869015
0.00149423893187
0.00381109331815
0.00678726072174
0.0116518644977
1.21389197926e-05
1.52205795403e-05
2.03257055789e-05
2.59467329896e-05
3.11064746153e-05
3.5420613039e-05
3.73329348807e-05
3.35805328726e-05
2.35361010577e-05
1.27925648012e-05
7.91089627205e-06
6.87006130416e-06
6.72930339293e-06
6.71706178554e-06
8.54839856865e-06
0.000180680819838
0.00154388779351
0.00388810954176
0.00691473195147
0.0119101668877
1.27623289718e-05
1.61541636059e-05
2.15178935598e-05
2.73298992136e-05
3.26292646571e-05
3.69404948782e-05
3.85515356386e-05
3.39795813122e-05
2.31097677745e-05
1.22662596704e-05
7.73471948158e-06
6.83064149272e-06
6.71196741224e-06
6.70338391844e-06
8.76438356969e-06
0.000193075165074
0.00159843227898
0.0039690022058
0.00704308971817
0.0121669964459
1.33592080625e-05
1.70504452347e-05
2.26829907588e-05
2.87157790052e-05
3.41912896766e-05
3.84929274494e-05
3.97459690445e-05
3.42006483437e-05
2.24237373121e-05
1.16292065789e-05
7.54104303864e-06
6.78730190924e-06
6.69153504696e-06
6.68668226158e-06
9.0174093033e-06
0.0002069024118
0.00165710628093
0.0040526138712
0.00717087962974
0.0124186945199
1.39154526049e-05
1.78914222884e-05
2.38001123497e-05
3.0089758863e-05
3.57588448392e-05
4.00285187075e-05
4.08643279188e-05
3.41991474192e-05
2.14899064808e-05
1.09398920864e-05
7.35211669822e-06
6.74410968965e-06
6.66952582242e-06
6.66819494728e-06
9.31221412855e-06
0.000222103700633
0.00171911960037
0.00413783851287
0.00729680813316
0.0126622991324
1.44276154457e-05
1.86719074794e-05
2.48551311051e-05
3.14437702888e-05
3.73055460457e-05
4.15100451815e-05
4.18648391827e-05
3.39378099181e-05
2.03274661404e-05
1.02414642824e-05
7.18048240696e-06
6.70354346766e-06
6.6471573007e-06
6.64901425084e-06
9.65312713206e-06
0.000238598590128
0.00178368272075
0.00422366025825
0.00741976656625
0.0128955263477
1.48948560737e-05
1.93879250914e-05
2.58372490231e-05
3.27762896427e-05
3.88105857904e-05
4.2908460122e-05
4.27127519291e-05
3.33903921537e-05
1.89714390074e-05
9.56472315903e-06
7.03154143986e-06
6.66686109836e-06
6.62534135416e-06
6.630037505e-06
1.00436552202e-05
0.000256280032022
0.00185001416844
0.00430917669398
0.00753885673352
0.0131167122261
1.53131352125e-05
2.00275774823e-05
2.67329428209e-05
3.40851311088e-05
4.02534787587e-05
4.41975181399e-05
4.3376803687e-05
3.25453873665e-05
1.74773553851e-05
8.93421045184e-06
6.9066907162e-06
6.63459268668e-06
6.60474785374e-06
6.61197774579e-06
1.04859338255e-05
0.000275003180461
0.00191731660058
0.00439357154752
0.00765336276387
0.0133247095267
1.56745928285e-05
2.0570219932e-05
2.75273158078e-05
3.53627001945e-05
4.16110290192e-05
4.53503793872e-05
4.38286694162e-05
3.14128662961e-05
1.59233579238e-05
8.3756468402e-06
6.80567231539e-06
6.60689999349e-06
6.58587680955e-06
6.59539671291e-06
1.0980152049e-05
0.000294577363741
0.00198476638532
0.00447611093816
0.00776275819626
0.0135188280935
1.59693809573e-05
2.09909358258e-05
2.8210705485e-05
3.6593672139e-05
4.2856903958e-05
4.63388928839e-05
4.40465969196e-05
3.00341697449e-05
1.4406276411e-05
7.91355957316e-06
6.727230297e-06
6.58373419512e-06
6.56910517802e-06
6.58073084039e-06
1.15239902829e-05
0.000314760101436
0.00205150373747
0.00455612265663
0.00786668225731
0.0136987797186
1.6186258226e-05
2.12661019341e-05
2.87834659298e-05
3.77519529858e-05
4.39623168349e-05
4.71355954278e-05
4.40230051471e-05
2.84887144752e-05
1.30260357375e-05
7.55920700691e-06
6.66892421318e-06
6.56489723317e-06
6.55470887661e-06
6.56830167529e-06
1.21123332854e-05
0.000335263222016
0.00211666060458
0.00463301957253
0.0079649618639
0.0138646825073
1.63115782479e-05
2.13790755564e-05
2.92520275701e-05
3.87969755841e-05
4.4897384981e-05
4.77186866259e-05
4.37746328163e-05
2.68932953351e-05
1.18642544265e-05
7.30632056302e-06
6.62744901181e-06
6.55009726191e-06
6.54286255081e-06
6.55831128595e-06
1.27373550816e-05
0.000355767160872
0.00217939928469
0.00470631314368
0.00805760336885
0.0140170591952
1.63316161095e-05
2.13280483813e-05
2.96135179758e-05
3.96742724137e-05
4.5633750928e-05
4.80783040255e-05
4.33512860011e-05
2.53984397676e-05
1.0973693894e-05
7.1387289776e-06
6.59938367965e-06
6.53899485447e-06
6.53363002721e-06
6.55083343656e-06
1.33892277686e-05
0.000375950196498
0.00223898699925
0.0047756644673
0.00814481819126
0.0141568645617
1.62444968273e-05
2.11343686876e-05
2.98437270213e-05
4.03260840058e-05
4.614853309e-05
4.82215923847e-05
4.28405054737e-05
2.41804237375e-05
1.03785531028e-05
7.0384424861e-06
6.58172978857e-06
6.53122164259e-06
6.52695323773e-06
6.5458102658e-06
1.40573674782e-05
0.000395523315875
0.00229486820802
0.00484091709224
0.008227013761
0.0142854745716
1.60739292887e-05
2.0843060183e-05
2.99133546267e-05
4.07082106959e-05
4.64293602794e-05
4.81772873357e-05
4.23626428318e-05
2.33999944538e-05
1.00685268315e-05
6.98922767752e-06
6.57211159287e-06
6.52638239301e-06
6.52265392955e-06
6.54306397541e-06
1.47321835895e-05
0.000414271525131
0.00234674854869
0.00490214546344
0.00830479886912
0.0144046601914
1.58631992979e-05
2.05120798764e-05
2.98130264045e-05
4.0802585804e-05
4.64812325245e-05
4.79988533842e-05
4.20406177837e-05
2.31243446563e-05
9.99740426156e-06
6.97847028602e-06
6.56878871066e-06
6.52405580304e-06
6.52045043746e-06
6.54232446939e-06
1.54068543645e-05
0.000432086307298
0.00239464293181
0.00495966719452
0.00837895250889
0.0145164958136
1.56443705195e-05
2.01823247387e-05
2.95449722083e-05
4.06237505238e-05
4.63327198283e-05
4.7751205318e-05
4.19360246601e-05
2.32988826891e-05
1.01115416924e-05
6.99816834947e-06
6.57055690576e-06
6.52380524726e-06
6.51999178636e-06
6.5432689424e-06
1.60787959425e-05
0.000448986209223
0.00243889620881
0.00501403921459
0.00845038436208
0.0146232248035
1.54031579447e-05
1.98360942254e-05
2.91126042528e-05
4.02217447278e-05
4.60321246433e-05
4.74751119905e-05
4.201747738e-05
2.38231039901e-05
1.03788881632e-05
7.04416720896e-06
6.57658320291e-06
6.52519773521e-06
6.52089742104e-06
6.54556170294e-06
1.67502475673e-05
0.000465111744808
0.00248013466484
0.0050660032382
0.0085200680839
0.0147270774384
1.51441612965e-05
1.94728006414e-05
2.85583121067e-05
3.96708812719e-05
4.56341608286e-05
4.71881262678e-05
4.22540838005e-05
2.46480848294e-05
1.07904839921e-05
7.11427928081e-06
6.58625060225e-06
6.52782785073e-06
6.52279622762e-06
6.54888614477e-06
1.74279206941e-05
0.000480699500906
0.00251917591577
0.00511639430436
0.00858894270404
0.0148300617814
1.49718138989e-05
1.91975157792e-05
2.79817393291e-05
3.905756504e-05
4.51897650537e-05
4.6925166939e-05
4.26529083142e-05
2.5737452618e-05
1.13343574868e-05
7.20654156989e-06
6.59904722074e-06
6.53133552694e-06
6.52535323532e-06
6.55296225245e-06
1.81215611293e-05
0.000496030684879
0.00255685226903
0.00516586588615
0.00865733616596
0.0149332111554
)
;

boundaryField
{
    emptyPatch
    {
        type            empty;
    }
    minY
    {
        type            fixedValue;
        value           nonuniform List<scalar> 0();
    }
    maxY
    {
        type            inletOutlet;
        inletValue      nonuniform List<scalar> 0();
        value           nonuniform List<scalar> 0();
    }
    water_to_cooler
    {
        type            kqRWallFunction;
        value           nonuniform List<scalar> 
38
(
0.00938396678644
0.00948257086529
0.00956600834034
0.00963429328583
0.00968890410325
0.00973378764629
0.00977677852415
0.00982465242938
0.00988381857456
0.00995984372523
0.0100567341229
0.0101768450666
0.0103233335387
0.0104963335918
0.0106938486594
0.0109125706623
0.0111483022712
0.0113963481948
0.0116518644977
0.0119101668877
0.0121669964459
0.0124186945199
0.0126622991324
0.0128955263477
0.0131167122261
0.0133247095267
0.0135188280935
0.0136987797186
0.0138646825073
0.0140170591952
0.0141568645617
0.0142854745716
0.0144046601914
0.0145164958136
0.0146232248035
0.0147270774384
0.0148300617814
0.0149332111554
)
;
    }
    water_to_heater
    {
        type            kqRWallFunction;
        value           nonuniform List<scalar> 
60
(
1.81385564262
1.81385564262
1.88497498514
1.90052447675
1.84868887695
1.84868887695
1.69491476823
1.69491476823
1.43082983686
1.43082983686
1.18594115203
1.08876628087
1.08546004831
1.08546004831
1.14784042175
1.14784042175
1.17026962371
1.17026962371
1.14009374074
1.10369074611
1.07756942237
1.07756942237
1.07530429129
1.07530429129
1.10193395405
1.10193395405
1.15149655893
1.21338691408
1.28862302192
1.28862302192
1.37375661548
1.37375661548
1.44399429567
1.44399429567
1.48735672086
1.52105926744
1.5578037934
1.5578037934
1.60461590099
1.60461590099
1.64074794939
1.64074794939
1.66134538431
1.66034614834
1.64950250886
1.64950250886
1.64635162294
1.64635162294
1.63982902243
1.63982902243
1.62062442533
1.60614688835
1.61251077794
1.61251077794
1.63563978687
1.63563978687
1.65469414493
1.65469414493
1.65169865161
1.64546251703
)
;
    }
    procBoundary3to1
    {
        type            processor;
        value           nonuniform List<scalar> 
41
(
0.031011988024
0.0212639716457
0.0141173024812
0.00905370371422
0.00560103236082
0.00316596983592
0.00140270429226
0.000459936736977
0.000121259411294
3.14151873635e-05
1.34278004088e-05
1.07401676957e-05
1.18153349142e-05
1.64867968451
0.76650385804
0.368427664934
0.187874939846
0.106458354947
0.0675579055396
0.031011988024
0.0461001603756
1.49095963144e-05
1.90516215738e-05
2.74657909656e-05
3.84432162426e-05
4.47404472256e-05
4.66970554775e-05
4.31362477277e-05
2.69804821203e-05
1.19814291382e-05
7.31847123552e-06
6.61448729786e-06
6.53540509379e-06
6.52827411609e-06
6.55754532681e-06
1.88428422855e-05
0.000511396614575
0.0025939515512
0.00521516646965
0.00872694557218
0.0150407270312
)
;
    }
    procBoundary3to2
    {
        type            processor;
        value           nonuniform List<scalar> 
41
(
1.71383657899
0.788016037879
0.366537296249
0.173521400675
0.085912046647
0.0467297522052
0.0292430684904
0.0210373548812
0.0161871788346
0.0121606462207
0.00815819911886
0.00455304419354
0.00215582548955
0.000844034610864
0.000268031559637
7.39893744318e-05
2.33956922142e-05
1.32968010838e-05
1.19283872226e-05
1.29771375097e-05
3.4015648217e-05
3.81153913312e-05
3.89664553349e-05
3.19942116751e-05
1.64780874845e-05
8.17197328174e-06
6.71533340015e-06
6.56551419455e-06
6.55096250976e-06
6.54799980115e-06