/*--------------------------------*- C++ -*----------------------------------*\
| =========                 |                                                 |
| \\      /  F ield         | OpenFOAM: The Open Source CFD Toolbox           |
|  \\    /   O peration     | Version:  2312                                  |
|   \\  /    A nd           | Website:  www.openfoam.com                      |
|    \\/     M anipulation  |                                                 |
\*---------------------------------------------------------------------------*/
FoamFile
{
    version     2.0;
    format      ascii;
    arch        "LSB;label=32;scalar=64";
    class       volScalarField;
    location    "0.43/water";
    object      d.gas;
}
// * * * * * * * * * * * * * * * * * * * * * * * * * * * * * * * * * * * * * //

dimensions      [0 1 0 0 0 0 0];

internalField   nonuniform List<scalar> 
1504
(
0.004987319243
0.00498741012404
0.00498727028985
0.00498720258992
0.00498715354537
0.00498712334244
0.00498710891685
0.00498710525442
0.00498710849756
0.00498711421524
0.00498711903904
0.0049871219771
0.00498712470833
0.00498712777608
0.00498712844798
0.00498712357037
0.00498711478229
0.00498710712752
0.00498709737784
0.00498707958113
0.0049885659561
0.00498846856579
0.00498835540498
0.00498828229228
0.00498820913266
0.00498811102897
0.00498800877217
0.00498792332231
0.00498785132652
0.00498778709047
0.00498772858678
0.00498767529259
0.00498762714206
0.00498758658694
0.0049875542471
0.004987528176
0.00498750394584
0.00498748318628
0.00498746245791
0.00498743621987
0.00498885342916
0.00498885372728
0.00498885430599
0.00498884002624
0.00498881304649
0.0049887634275
0.0049886637628
0.00498854163161
0.00498842732283
0.00498832358071
0.00498822849554
0.00498814113675
0.0049880601546
0.00498798712496
0.00498792795766
0.00498788466001
0.00498784899073
0.00498781700659
0.00498778853923
0.00498775766184
0.00498889537229
0.004988895803
0.00498889658067
0.00498889781851
0.00498889857495
0.0049888950982
0.00498887442523
0.00498881047277
0.00498872255273
0.00498862979195
0.00498853946734
0.0049884535299
0.00498837145611
0.00498829360038
0.00498822525895
0.00498817340445
0.00498813274594
0.0049880964336
0.00498806537407
0.00498803195658
0.00498892404086
0.00498892423975
0.00498892456396
0.00498892489915
0.00498892536122
0.00498892616332
0.00498892606766
0.00498890372006
0.0049888541069
0.00498878893626
0.00498871864236
0.0049886483573
0.00498857902386
0.00498851183339
0.00498844915336
0.00498839775217
0.0049883575048
0.0049883222383
0.00498829090134
0.00498825766996
0.00498894742259
0.00498894759804
0.00498894777951
0.00498894798126
0.00498894819789
0.00498894845115
0.00498894972686
0.0049889423197
0.00498891507677
0.00498887212533
0.00498882191065
0.00498876939012
0.00498871554008
0.0049886623388
0.00498861132837
0.00498856744606
0.00498853122959
0.00498849937635
0.00498847035642
0.00498843949146
0.00498896856161
0.00498896869071
0.0049889687927
0.00498896888772
0.00498896901262
0.00498896920782
0.0049889688467
0.00498896574036
0.00498894885309
0.0049889197539
0.00498888508567
0.00498884697742
0.00498880702331
0.00498876641793
0.00498872792527
0.00498869555127
0.00498866579366
0.00498863893786
0.00498861297667
0.00498858471646
0.00498898780071
0.00498898793122
0.00498898802958
0.00498898811777
0.004988988232
0.00498898840224
0.00498898709698
0.00498898548115
0.00498897405063
0.00498895395432
0.00498893025935
0.00498890301981
0.00498887215823
0.00498884176029
0.0049888145133
0.00498879216144
0.0049887711396
0.00498875008802
0.0049887268939
0.00498870075882
0.00498900567868
0.00498900577155
0.00498900579654
0.00498900577798
0.00498900574225
0.00498900568253
0.00498900388078
0.00498900264403
0.00498899383975
0.00498897988181
0.00498896500544
0.00498894408036
0.00498892155974
0.00498889932823
0.00498888004023
0.00498886735371
0.0049888549016
0.00498884025336
0.00498882006282
0.00498879601152
0.00498902270344
0.00498902280191
0.00498902285123
0.00498902288513
0.00498902296633
0.00498902191698
0.00498901923691
0.00498901645924
0.00498900832485
0.00498900009696
0.0049889917507
0.00498897850021
0.00498896101729
0.00498894529597
0.00498893491562
0.00498892877707
0.00498892500548
0.00498891730144
0.00498890088883
0.00498887913195
0.00498903912839
0.00498903917293
0.0049890391227
0.00498903901562
0.00498903887977
0.0049890359067
0.00498903301954
0.0049890286235
0.00498902155922
0.00498902038337
0.00498902009651
0.00498900842925
0.0049889970787
0.00498898779819
0.00498898263215
0.00498898660483
0.00498898889741
0.00498898849233
0.00498897646458
0.00498895725749
0.00498905599104
0.00498905603603
0.00498905598601
0.0049890558854
0.00498905395898
0.00498905028198
0.00498904641944
0.00498904079532
0.00498903795324
0.00498904547795
0.00498904614386
0.00498904172022
0.00498903477705
0.00498902996294
0.00498903647002
0.00498904465827
0.00498905335221
0.00498905992591
0.00498905257746
0.00498903647204
0.0049890745931
0.00498907461027
0.0049890745281
0.00498907070557
0.00498906597751
0.00498906155243
0.00498905623634
0.00498905137066
0.00498905983451
0.00498907305451
0.00498907856987
0.00498907610485
0.00498907711234
0.00498908075612
0.0049890901225
0.0049891096189
0.00498912407261
0.00498913682736
0.00498913459702
0.00498912229857
0.00498909518849
0.00498909523489
0.00498908376549
0.00498907341534
0.00498906761427
0.00498906293898
0.00498905884677
0.00498906683829
0.00498909018309
0.00498910868244
0.00498911213626
0.0049891194464
0.00498912784655
0.00498913737249
0.00498916309335
0.00498918536137
0.00498920567397
0.0049892245773
0.00498922767819
0.00498921964842
0.0049891173285
0.00498913246985
0.0049891026345
0.00498908436932
0.00498907610388
0.0049890728077
0.00498908368647
0.00498911501755
0.00498914419745
0.00498915299589
0.00498916613763
0.00498917929516
0.0049891957314
0.00498921736192
0.00498924540377
0.00498927745872
0.00498930298836
0.00498932723847
0.00498933602609
0.00498933248203
0.00498913867719
0.00498919521656
0.00498913517672
0.0049891072472
0.00498910434615
0.00498912391004
0.00498916109548
0.00498919434495
0.00498920555636
0.00498922260018
0.00498923826885
0.00498925848222
0.00498928271436
0.00498931375823
0.00498935984962
0.00498938750339
0.00498941964101
0.00498944927869
0.00498946321575
0.00498946269253
0.00498915929025
0.00498927461123
0.0049891900219
0.00498916449691
0.00498919555278
0.00498923218722
0.00498926094157
0.00498926997972
0.0049892886359
0.00498930710915
0.00498933093192
0.00498935979729
0.00498939068142
0.00498944162589
0.00498948027715
0.00498951625012
0.00498955782217
0.00498959360771
0.00498961265172
0.00498961777259
0.00498917753411
0.00498933555341
0.00498926574599
0.00498927718481
0.00498930494201
0.00498932593594
0.00498933039702
0.00498935036205
0.00498937215675
0.00498939915913
0.00498943434816
0.00498947066242
0.0049895223413
0.00498957018675
0.00498961744315
0.0049896664648
0.00498972018621
0.00498976388223
0.00498979071697
0.00498980448629
0.00498919320386
0.00498936568125
0.00498935817996
0.00498933709241
0.00498935169276
0.00498935603623
0.00498938063232
0.00498941167008
0.00498944763882
0.00498949862722
0.004989547177
0.0049896083066
0.00498966517391
0.00498972901769
0.00498978536619
0.00498984776967
0.00498991117643
0.00498996292367
0.00498999883806
0.0049900201017
0.00498891115136
0.00498915587126
0.00498917886478
0.00498920077628
0.00498925251384
0.00498931331311
0.00498939273645
0.00498946544684
0.00498956264412
0.00498964229942
0.00498973434306
0.00498981066412
0.00498989180612
0.00498995875753
0.00499002215419
0.00499008582063
0.00499014754206
0.00499020073267
0.0049902405298
0.00499026483636
0.00498928446659
0.00498959576103
0.00498960288858
0.00498961890404
0.00498966291204
0.00498973845488
0.00498980690452
0.00498989944271
0.00498998222743
0.00499007179969
0.00499014664174
0.00499021768128
0.00499027669053
0.00499032704548
0.00499037299925
0.00499041494197
0.0049904537549
0.00499048852033
0.00499051756779
0.0049905388132
0.00499146392185
0.00499175173306
0.00499160324445
0.00499147255864
0.00499135353392
0.00499120972274
0.004991067215
0.00499095635662
0.00499089872382
0.00499087118615
0.00499085786488
0.00499084944949
0.00499084264961
0.00499083802675
0.00499083438836
0.00499083148856
0.0049908287694
0.00499082531079
0.00499082453332
0.00499082899177
0.00499225075926
0.00499225213905
0.004992252524
0.00499225180911
0.00499224003201
0.00499220033384
0.00499211961391
0.00499198028626
0.00499181054588
0.00499166715178
0.00499156119535
0.00499147712591
0.00499140650402
0.00499134586447
0.00499129342649
0.00499124802282
0.00499120816094
0.00499117185927
0.00499113922589
0.00499111889964
0.00499227081061
0.0049922709202
0.00499227094622
0.00499227112263
0.00499227137276
0.00499227158905
0.0049922716175
0.00499226168664
0.00499220927002
0.00499210090947
0.00499198200677
0.00499188131858
0.00499179420823
0.00499171600134
0.00499164527661
0.00499158182646
0.00499152496608
0.00499147397592
0.00499142771503
0.00499138871421
0.00499228400075
0.00499228404423
0.00499228403658
0.00499228402252
0.00499228404094
0.00499228409389
0.00499228415298
0.00499228345707
0.00499227401969
0.00499223851552
0.0049921702007
0.00499209035703
0.00499201602762
0.00499194664987
0.00499188106009
0.00499181981756
0.00499176341092
0.00499171179421
0.00499166558852
0.00499162202332
0.00499229745964
0.00499229748506
0.00499229747265
0.00499229745413
0.00499229745994
0.00499229750133
0.00499229757741
0.00499229762423
0.00499229381504
0.00499227785993
0.00499224350204
0.00499219426924
0.00499214143648
0.00499208956915
0.00499203778999
0.00499198790224
0.00499194057382
0.00499189638503
0.00499185501864
0.00499181938102
0.00499231144738
0.00499231144277
0.00499231139023
0.00499231132839
0.00499231128912
0.00499231128358
0.00499231132071
0.00499231088531
0.00499230972442
0.00499230065175
0.00499228009028
0.00499225110526
0.00499221847245
0.00499218328389
0.00499214748712
0.00499211132768
0.00499207588009
0.00499204138315
0.0049920097397
0.00499198382639
0.00499232631926
0.00499232627848
0.00499232619365
0.00499232608911
0.00499232596841
0.0049923258103
0.00499232557178
0.00499232455358
0.00499232476909
0.00499231906836
0.00499230564647
0.00499228968173
0.00499227180219
0.0049922513447
0.00499222892948
0.0049922060742
0.00499218301473
0.00499216028521
0.0049921374747
0.00499212128094
0.00499234363727
0.00499234358558
0.00499234354423
0.00499234351772
0.00499234347256
0.00499234334343
0.00499234233974
0.00499234289482
0.00499234255679
0.00499233771127
0.00499232953774
0.00499232525996
0.00499232104975
0.00499231020702
0.00499229930829
0.00499228789947
0.0049922755607
0.00499226335371
0.00499225222112
0.00499224495683
0.00499236374437
0.00499236369911
0.004992363791
0.00499236395727
0.00499236411879
0.00499236333649
0.00499236365796
0.00499236559313
0.004992365345
0.0049923620305
0.00499236353429
0.00499237180228
0.00499237281137
0.0049923711835
0.00499236825125
0.00499236572659
0.00499236377414
0.00499236115562
0.00499235860825
0.00499236139797
0.00499238566144
0.00499238570933
0.00499238596616
0.00499238631663
0.00499238599526
0.00499238509192
0.00499238850318
0.00499239225044
0.00499239353347
0.00499239687941
0.00499241160113
0.00499242452725
0.0049924301645
0.00499243266218
0.00499243761804
0.00499244328104
0.00499244874206
0.0049924557455
0.00499246357992
0.00499247701512
0.00499240739691
0.00499240774778
0.00499240823077
0.00499240872796
0.00499240756976
0.0049924082311
0.00499241345501
0.00499241894217
0.00499242409325
0.00499243905489
0.00499246133788
0.00499247584664
0.00499248272868
0.00499249294005
0.00499250381739
0.00499251615876
0.00499253074611
0.00499254518239
0.00499256221802
0.00499258543069
0.00499242981086
0.00499243018943
0.00499243048945
0.0049924308584
0.00499242984054
0.00499243135475
0.0049924372627
0.00499244405793
0.00499245450836
0.00499247937873
0.00499250590299
0.00499251798669
0.00499253185249
0.00499254603629
0.00499256324773
0.00499258302557
0.00499260311486
0.00499262705601
0.00499265232568
0.00499269013581
0.00499245801953
0.00499246160635
0.00499245365448
0.00499245260494
0.00499245168874
0.00499245331709
0.00499245839069
0.00499246550395
0.00499248149718
0.00499251280962
0.00499253788018
0.00499255569561
0.00499257124633
0.00499259133851
0.00499261410456
0.00499263880995
0.00499266765993
0.0049926972
0.00499273247522
0.00499277361731
0.00499248159937
0.00499249904302
0.00499248238903
0.00499247741732
0.00499247595478
0.00499247623402
0.00499247790154
0.00499248275535
0.00499250252484
0.00499253713733
0.00499256563833
0.00499258191629
0.00499260388219
0.00499262844225
0.00499265598827
0.00499268716383
0.00499271886698
0.00499275614052
0.00499279515751
0.00499284423796
0.00499250249927
0.00499254660764
0.00499250888009
0.00499249746995
0.00499249488408
0.00499249299586
0.00499249043157
0.00499249344782
0.00499252110976
0.00499256281629
0.00499258530065
0.00499260942495
0.00499263564836
0.00499266520101
0.00499269814812
0.00499273153785
0.00499277239357
0.00499281318433
0.00499286346152
0.00499291075586
0.00499252395842
0.00499260746555
0.00499254850101
0.00499252710871
0.00499252148087
0.00499251582206
0.00499251002081
0.00499251974429
0.00499256278766
0.00499260045249
0.00499262801274
0.00499265400462
0.00499268485122
0.00499271985916
0.00499275585713
0.00499280462036
0.00499284937244
0.0049928957679
0.00499293810842
0.00499298573961
0.0049925531158
0.00499267982315
0.00499261174246
0.00499257885847
0.00499257081076
0.00499256566077
0.00499257069495
0.00498669605628
0.00498669167621
0.00498668745282
0.00498668335934
0.00498667946712
0.0049866758866
0.00498667272636
0.00498667004875
0.00498666786216
0.00498666613689
0.00498666483234
0.00498666389863
0.00498666328746
0.00498666293695
0.00498666277445
0.00498666272713
0.00498666296842
0.00498705705437
0.00498703686611
0.00498701924215
0.00498700442623
0.00498699189373
0.00498698101687
0.00498697146303
0.00498696308646
0.00498695582751
0.00498694964819
0.004986944491
0.00498694026887
0.00498693688438
0.00498693423963
0.00498693224375
0.00498693080994
0.00498692985067
0.00498692925916
0.00498692893662
0.00498692904129
0.00498739736117
0.00498736114356
0.00498733073974
0.00498730567898
0.00498728491412
0.00498726736575
0.00498725237817
0.00498723956889
0.00498722868857
0.00498721954341
0.00498721195013
0.00498720572924
0.00498720071254
0.00498719674915
0.00498719370364
0.0049871914555
0.00498718988535
0.0049871888665
0.00498718826825
0.0049871882229
0.00498771198477
0.00498766396001
0.00498762320664
0.00498758969284
0.00498756205159
0.0049875389071
0.00498751935805
0.00498750282686
0.00498748890249
0.00498747725739
0.00498746760413
0.00498745968633
0.00498745327911
0.00498744818643
0.00498744423797
0.00498744128338
0.00498743918321
0.00498743778707
0.00498743694504
0.00498743675193
0.00498798708563
0.0049879343072
0.00498788734424
0.00498784842089
0.00498781625291
0.00498778937615
0.00498776676519
0.00498774772429
0.00498773173666
0.00498771838582
0.00498770731601
0.00498769822243
0.00498769084349
0.00498768495547
0.00498768036452
0.00498767690235
0.00498767441308
0.00498767274027
0.00498767171728
0.00498767139498
0.00498821705283
0.00498816631298
0.00498811794715
0.00498807712414
0.00498804318997
0.00498801479674
0.00498799092144
0.00498797083396
0.00498795397597
0.00498793989296
0.00498792820225
0.00498791858099
0.00498791075559
0.00498790449216
0.00498789958947
0.00498789587194
0.00498789318224
0.00498789135971
0.00498789023748
0.0049878898198
0.0049884039115
0.00498835931155
0.00498831385139
0.00498827447369
0.00498824145963
0.00498821373788
0.00498819039469
0.0049881707389
0.00498815422815
0.00498814041743
0.00498812893405
0.00498811946647
0.00498811175041
0.0049881055607
0.00498810070198
0.00498809700489
0.00498809431612
0.00498809248761
0.00498809135707
0.00498809088628
0.00498855349821
0.0049885165076
0.00498847710883
0.00498844201622
0.00498841225372
0.0049883871219
0.00498836590146
0.00498834799912
0.00498833293551
0.00498832031309
0.00498830979979
0.00498830111772
0.00498829403092
0.0049882883367
0.00498828385899
0.00498828044366
0.00498827795434
0.0049882762562
0.00498827520506
0.00498827472841
0.00498867349585
0.00498864402348
0.00498861242083
0.00498858366199
0.00498855892967
0.00498853787145
0.00498852001804
0.00498850491562
0.00498849218042
0.00498848148951
0.00498847257159
0.00498846519887
0.00498845917568
0.00498845433338
0.00498845052334
0.00498844761582
0.00498844549422
0.00498844404895
0.00498844315487
0.00498844271777
0.00498877251279
0.00498874987049
0.00498872648423
0.00498870511059
0.00498868647881
0.00498867043284
0.00498865675766
0.00498864515486
0.00498863535089
0.00498862710979
0.00498862023109
0.00498861454421
0.00498860990113
0.00498860617238
0.00498860324319
0.00498860101204
0.00498859938987
0.00498859828998
0.00498859761342
0.00498859725686
0.00498885908554
0.00498884234546
0.00498882669865
0.0049888128656
0.004988800715
0.00498879008521
0.00498878097072
0.00498877321985
0.00498876666672
0.00498876116216
0.00498875657621
0.00498875279661
0.00498874972366
0.00498874726948
0.00498874535448
0.00498874390845
0.00498874286881
0.00498874217848
0.00498874176179
0.00498874151833
0.00498894031922
0.00498892861223
0.00498891989809
0.0049889132255
0.0049889074572
0.00498890224743
0.0049888977416
0.00498889391424
0.00498889069587
0.00498888801612
0.00498888581028
0.00498888402025
0.00498888259294
0.00498888148025
0.00498888063793
0.00498888002619
0.00498887961168
0.00498887936268
0.00498887922994
0.00498887912457
0.00498902240743
0.00498901478337
0.00498901202844
0.00498901184359
0.00498901207276
0.00498901203458
0.00498901196502
0.00498901194022
0.00498901197271
0.00498901206075
0.00498901219706
0.00498901237274
0.00498901257709
0.00498901279966
0.00498901302901
0.00498901325501
0.00498901346997
0.00498901367096
0.00498901383203
0.0049890138823
0.00498911089452
0.00498910603658
0.00498910805204
0.00498911355775
0.00498911928856
0.00498912405675
0.00498912813862
0.00498913168746
0.00498913478519
0.00498913748984
0.00498913984555
0.00498914188771
0.00498914364492
0.00498914514107
0.00498914639569
0.00498914742547
0.00498914824852
0.0049891488862
0.00498914933899
0.00498914955821
0.00498921001495
0.00498920621014
0.00498921188077
0.00498922249073
0.00498923329739
0.00498924250075
0.00498925040874
0.00498925724272
0.00498926315138
0.00498926825101
0.00498927263528
0.00498927638237
0.00498927955789
0.00498928221841
0.00498928441175
0.0049892861796
0.00498928756134
0.0049892886046
0.00498928933587
0.00498928973291
0.00498932356279
0.00498931977124
0.00498932802471
0.00498934306129
0.00498935842215
0.00498937157678
0.00498938286508
0.00498939257465
0.00498940092273
0.00498940808621
0.00498941420931
0.00498941941213
0.00498942379598
0.00498942744747
0.00498943044025
0.00498943283699
0.00498943469606
0.00498943608638
0.00498943706636
0.00498943764522
0.00498945587456
0.00498945300752
0.00498946249175
0.00498948055321
0.00498949947991
0.00498951573123
0.00498952963843
0.00498954154951
0.00498955174043
0.00498956044592
0.00498956785728
0.00498957413254
0.0049895794036
0.00498958378232
0.00498958736245
0.00498959022205
0.00498959242919
0.00498959407106
0.00498959524346
0.00498959599883
0.00498961668579
0.00498961465398
0.00498962285505
0.00498964097336
0.00498966146404
0.00498967927435
0.00498969451289
0.00498970754887
0.00498971866803
0.00498972813823
0.00498973618136
0.00498974297953
0.00498974868351
0.00498975341936
0.00498975729128
0.00498976038214
0.00498976275682
0.00498976449941
0.00498976575326
0.00498976665358
0.00498980925845
0.00498980809741
0.00498981362343
0.00498982849858
0.00498984771385
0.00498986503961
0.00498987989764
0.0049898926423
0.00498990350354
0.00498991274024
0.00498992057785
0.00498992720181
0.004989932764
0.00498993739007
0.00498994118206
0.00498994421817
0.00498994654872
0.00498994823285
0.00498994944028
0.00498995043251
0.00499002727765
0.00499002982159
0.00499003390522
0.00499004419914
0.0049900590914
0.00499007368903
0.00499008625223
0.00499009709892
0.00499010636355
0.00499011424571
0.0049901209429
0.00499012661894
0.00499013140581
0.00499013540985
0.00499013871475
0.00499014138122
0.00499014344061
0.00499014491375
0.00499014595087
0.00499014695733
0.00499027513248
0.00499028171474
0.00499028277667
0.00499028767833
0.00499029523403
0.00499030417548
0.0049903121826
0.00499031930793
0.00499032552048
0.00499033086794
0.00499033546281
0.00499033940906
0.00499034278959
0.00499034566818
0.00499034808995
0.00499035008189
0.00499035164787
0.00499035277099
0.00499035351384
0.00499035440774
0.00499054922237
0.0049905528366
0.0049905501324
0.00499054985807
0.00499055029802
0.00499055151514
0.00499055309424
0.00499055492128
0.00499055683773
0.00499055865922
0.00499056035106
0.00499056191881
0.00499056336997
0.00499056470586
0.0049905659171
0.00499056698295
0.0049905678739
0.00499056854953
0.00499056893634
0.00499056957816
0.00499083288461
0.00499082812955
0.00499082289315
0.00499081786798
0.00499081317633
0.00499080703862
0.00499080150445
0.00499079723222
0.00499079416712
0.00499079191866
0.00499079026498
0.00499078908825
0.00499078830439
0.00499078784134
0.00499078762633
0.0049907875806
0.00499078762909
0.00499078772321
0.00499078779743
0.00499078821553
0.00499111150047
0.00499110132106
0.00499109296578
0.00499108211154
0.00499107238726
0.00499106071541
0.00499104876425
0.00499103855228
0.0049910305025
0.00499102418872
0.00499101919977
0.0049910152839
0.00499101226275
0.00499100999348
0.00499100834635
0.00499100719201
0.00499100641255
0.00499100595417
0.00499100578934
0.00499100609202
0.00499136866611
0.00499135537319
0.00499134327259
0.00499132914473
0.00499131564568
0.00499130123095
0.00499128541453
0.00499127080004
0.00499125873477
0.00499124905789
0.00499124128318
0.00499123506298
0.00499123014918
0.00499122634925
0.00499122349831
0.00499122145436
0.00499122008937
0.00499121928306
0.00499121893782
0.004991219107
0.00499159433487
0.00499158078345
0.00499156477919
0.00499155044474
0.00499153592408
0.00499152103117
0.0049915043306
0.00499148775535
0.00499147338775
0.0049914615878
0.00499145198843
0.00499144423009
0.00499143803745
0.00499143319618
0.00499142955105
0.00499142696641
0.00499142526875
0.00499142427116
0.00499142380763
0.00499142382302
0.00499179453029
0.00499178005333
0.00499176410891
0.00499175116518
0.00499173510596
0.00499171951719
0.00499170327447
0.00499168676545
0.00499167183345
0.00499165928456
0.00499164893511
0.00499164049608
0.00499163371511
0.00499162841788
0.00499162446875
0.00499162168167
0.00499161985257
0.0049916187908
0.00499161826666
0.00499161811724
0.00499196746303
0.00499195727219
0.00499194142177
0.00499192709648
0.00499191149908
0.004991896241
0.00499188179762
0.00499186731288
0.00499185374582
0.00499184195109
0.00499183197976
0.0049918237153
0.00499181705928
0.00499181192605
0.00499180811879
0.00499180541421
0.00499180363961
0.00499180260328
0.00499180204953
0.00499180174922
0.00499211838587
0.00499211095847
0.00499209897603
0.00499208582693
0.0049920707047
0.00499205678165
0.00499204482429
0.00499203343579
0.00499202250316
0.00499201252671
0.00499200374471
0.00499199630341
0.00499199037003
0.00499198588038
0.00499198258351
0.00499198023167
0.00499197864032
0.00499197764887
0.00499197704302
0.00499197672502
0.00499225205997
0.00499225589192
0.00499224639576
0.00499223493969
0.00499222364241
0.00499221122876
0.00499220154927
0.00499219312473
0.00499218493244
0.00499217698891
0.00499216959802
0.00499216314656
0.00499215798716
0.00499215417815
0.00499215145768
0.0049921494073
0.00499214780902
0.00499214661235
0.00499214573629
0.00499214552961
0.00499238244253
0.00499239287623
0.00499239039676
0.00499238523172
0.00499237623288
0.00499236793462
0.00499236129543
0.0049923555014
0.00499234946229
0.004992343007
0.00499233637431
0.0049923297352
0.00499232371586
0.00499231897677
0.00499231552114
0.00499231280343
0.00499231038366
0.00499230822638
0.00499230653244
0.0049923062276
0.00499250588843
0.0049925284036
0.00499253413453
0.00499253475384
0.00499253476423
0.0049925341756
0.0049925318677
0.00499252853878
0.00499252403
0.00499251815645
0.00499251040018
0.00499250000416
0.00499248753851
0.00499247532487
0.0049924654832
0.0049924588159
0.00499245438634
0.00499245115724
0.00499244872894
0.0049924479743
0.00499262767707
0.00499265785899
0.00499267451048
0.00499268919155
0.00499270204563
0.00499270904801
0.00499271168231
0.00499271158991
0.00499270914109
0.00499270360743
0.00499269239649
0.00499267420973
0.00499264984764
0.00499262305849
0.0049925991391
0.00499258397411
0.00499257847375
0.00499257609362
0.00499257454797
0.00499257463564
0.00499273592829
0.00499277523458
0.00499280753883
0.00499283809893
0.00499285605354
0.00499286695185
0.00499287598727
0.00499288320141
0.00499288796053
0.00499288787454
0.00499288047869
0.00499286522278
0.00499284355415
0.00499282110844
0.00499280741849
0.00499279694752
0.00499278852771
0.00499277605378
0.00499277006691
0.00499277101546
0.00499282478607
0.00499287296689
0.00499291910386
0.00499295483403
0.00499297776646
0.0049929947082
0.0049930094615
0.00499302279775
0.00499303529894
0.00499304580875
0.0049930535701
0.00499305930098
0.00499307512054
0.00499310546941
0.00499313648248
0.00499315752494
0.0049931673547
0.00499316909072
0.00499314638548
0.00499313152205
0.00499289597034
0.00499295264254
0.00499300801399
0.00499304943047
0.00499307372728
0.00499309355823
0.00499311253521
0.00499312857797
0.00499314478811
0.00499316385623
0.00499318881234
0.00499323559766
0.00499331126855
0.00499335188043
0.00499333357944
0.00499333426941
0.00499333821771
0.00499334156229
0.00499334686238
0.0049933370059
0.00499296537944
0.00499302466511
0.0049930856584
0.00499313004328
0.00499315570931
0.00499317520711
0.00499319387507
0.00499321189256
0.00499322975947
0.00499325112931
0.00499329219612
0.00499336764568
0.00499338604543
0.00499336833003
0.00499336707804
0.00499336883575
0.00499337215182
0.00499337650833
0.00499338952744
0.00499338957779
0.00499303948807
0.00499309853896
0.00499315977689
0.00499320673677
0.00499323234235
0.0049932511236
0.00499326968942
0.00499328763284
0.00499330698126
0.00499333351465
0.00499338973289
0.00499341876745
0.00499340776802
0.00499340604354
0.00499340688639
0.00499340898035
0.00499341238882
0.00499341694205
0.0049934297617
0.00499343253901
)
;

boundaryField
{
    emptyPatch
    {
        type            empty;
    }
    minY
    {
        type            calculated;
        value           nonuniform List<scalar> 0();
    }
    maxY
    {
        type            calculated;
        value           nonuniform List<scalar> 0();
    }
    water_to_cooler
    {
        type            calculated;
        value           nonuniform List<scalar> 
38
(
0.00498666296842
0.00498692904129
0.0049871882229
0.00498743675193
0.00498767139498
0.0049878898198
0.00498809088628
0.00498827472841
0.00498844271777
0.00498859725686
0.00498874151833
0.00498887912457
0.0049890138823
0.00498914955821
0.00498928973291
0.00498943764522
0.00498959599883
0.00498976665358
0.00498995043251
0.00499014695733
0.00499035440774
0.00499056957816
0.00499078821553
0.00499100609202
0.004991219107
0.00499142382302
0.00499161811724
0.00499180174922
0.00499197672502
0.00499214552961
0.0049923062276
0.0049924479743
0.00499257463564
0.00499277101546
0.00499313152205
0.0049933370059
0.00499338957779
0.00499343253901
)
;
    }
    water_to_heater
    {
        type            calculated;
        value           nonuniform List<scalar> 
60
(
0.00498730386501
0.00498736050726
0.00498856450392
0.00498885188937
0.00498887842728
0.00498889923023
0.00498891281357
0.00498893282687
0.00498894132306
0.00498896100266
0.00498896739342
0.0049889866231
0.00498898963046
0.00498900944179
0.00498901173401
0.00498903124311
0.00498903294915
0.00498905269234
0.00498905470847
0.00498907327765
0.0049890791663
0.00498909873507
0.00498910599028
0.00498912594322
0.00498913237781
0.00498915206199
0.00498915789811
0.00498917599647
0.00498917019516
0.00498919833112
0.00498888761527
0.00498893079095
0.00498926897666
0.00498932368024
0.00499146193845
0.00499224867874
0.00499225693943
0.00499227339525
0.00499227550145
0.00499228995475
0.00499229266499
0.00499230695636
0.00499231019448
0.00499232500479
0.00499233144175
0.00499234589587
0.0049923551702
0.00499236958869
0.00499238015236
0.00499239637031
0.00499240550482
0.00499242750861
0.00499243161767
0.0049924633877
0.00499246304884
0.00499249469025
0.00499249171058
0.00499252366369
0.00499252109946
0.00499255021306
)
;
    }
    procBoundary3to1
    {
        type            processor;
        value           nonuniform List<scalar> 
41
(
0.0049926094946
0.004992654965
0.00499268655166
0.00499271031903
0.00499274064566
0.00499278007617
0.00499281967549
0.00499287123839
0.00499291371338
0.0049929541948
0.004992992003
0.00499303326893
0.00499308002807
0.00499259271754
0.00499275476159
0.00499270638403
0.00499268077483
0.00499268486475
0.00499269991363
0.0049926094946
0.0049927372511
0.00499313021151
0.00499318339814
0.0049932390824
0.00499328504223
0.00499331218203
0.00499332943933
0.0049933450525
0.00499336209523
0.00499338298388
0.00499341959256
0.00499345496002
0.00499345088614
0.00499344867055
0.00499344865241
0.0049934496087
0.00499345135432
0.00499345425022
0.00499345798941
0.0049934687865
0.00499347243629
)
;
    }
    procBoundary3to2
    {
        type            processor;
        value           nonuniform List<scalar> 
41
(
0.00498624492421
0.00498643787039
0.00498642760402
0.00498640113
0.00498639207519
0.0049864050978
0.00498642880908
0.00498645664846
0.00498649070414
0.00498653142818
0.00498657311916
0.00498661106405
0.00498664588877
0.00498667738497
0.00498670162822
0.00498671338903
0.0049867166568
0.00498671813433
0.00498671788764
0.00498671351141
0.00498639012912
0.00498639255292
0.00498639398435
0.0049863946098
0.00498639464774
0.00498639432544
0.0049863938552
0.0049863933973
0.00498639303651
0.00498639280443
0.00498639270445
0.00498639272754
0.00498639285391