/*--------------------------------*- C++ -*----------------------------------*\
| =========                 |                                                 |
| \\      /  F ield         | OpenFOAM: The Open Source CFD Toolbox           |
|  \\    /   O peration     | Version:  2312                                  |
|   \\  /    A nd           | Website:  www.openfoam.com                      |
|    \\/     M anipulation  |                                                 |
\*---------------------------------------------------------------------------*/
FoamFile
{
    version     2.0;
    format      ascii;
    arch        "LSB;label=32;scalar=64";
    class       volVectorField;
    location    "0.2/water";
    object      U.gas;
}
// * * * * * * * * * * * * * * * * * * * * * * * * * * * * * * * * * * * * * //

dimensions      [0 1 -1 0 0 0 0];

internalField   nonuniform List<vector> 
1504
(
(0.0529526406041 1.41090782187 0)
(0.0985640839651 1.45597020771 0)
(0.0838551518299 1.6410360607 0)
(0.0592189491578 1.81543079437 0)
(0.0210667777343 1.66711095554 0)
(-0.0131433487437 1.31943254755 0)
(-0.0306538748785 1.07790234894 0)
(-0.0337950580263 0.940634327361 0)
(-0.0296999027202 0.850102343788 0)
(-0.0229120040204 0.78431625118 0)
(-0.0142817391007 0.744245945551 0)
(-0.00392444235351 0.710616886334 0)
(0.00606355523132 0.674665623622 0)
(0.014142857836 0.639135174056 0)
(0.0207175394703 0.609931891665 0)
(0.0255014952157 0.597461838377 0)
(0.0261196689651 0.579706793757 0)
(0.0218018468722 0.536073332157 0)
(0.0129743186952 0.471801669868 0)
(-0.00202144999643 0.442834270753 0)
(0.052689362889 1.36901342792 0)
(0.0999472620029 1.42935688866 0)
(0.0900059562969 1.65782388117 0)
(0.0688759193291 1.95332447489 0)
(0.0346756037383 1.82099681878 0)
(0.00795150074035 1.39326297937 0)
(-0.00465835625993 1.09813889704 0)
(-0.00763596157296 0.935496055103 0)
(-0.00486348401112 0.835975822058 0)
(0.000361829092043 0.768401386258 0)
(0.00731407061111 0.72789832187 0)
(0.0158961197213 0.695574901948 0)
(0.0241100144313 0.661207628604 0)
(0.0302751256075 0.626196031838 0)
(0.03463366085 0.596367113703 0)
(0.0369977495631 0.581888688904 0)
(0.0354131184504 0.568716810723 0)
(0.0302234728651 0.532380031556 0)
(0.0223607932893 0.469898498766 0)
(0.0097027051231 0.434598465245 0)
(0.0502929118267 1.33590429805 0)
(0.0942590429621 1.40176161729 0)
(0.0828233609561 1.664713322 0)
(0.0664074220969 2.06706925382 0)
(0.0415465831352 1.9505782349 0)
(0.0237543532651 1.44135456032 0)
(0.0182626653064 1.11714422315 0)
(0.018068794639 0.938656587448 0)
(0.0213413516877 0.832739668165 0)
(0.0261782748103 0.763849800118 0)
(0.0321478199961 0.722485767929 0)
(0.0391367731707 0.690230531697 0)
(0.0454540410223 0.656502278046 0)
(0.0496386284866 0.621706574094 0)
(0.051884861689 0.591329139513 0)
(0.0516785706373 0.573924056037 0)
(0.0476194447451 0.562642300686 0)
(0.0405804911241 0.53124935555 0)
(0.0321480954959 0.472644311573 0)
(0.0210816470036 0.431254925279 0)
(0.0473221233185 1.32135691407 0)
(0.0869458012604 1.39128276237 0)
(0.07082242505 1.6941198036 0)
(0.0599940763426 2.11600336593 0)
(0.0465154715144 2.05326262072 0)
(0.0345930755035 1.46036997175 0)
(0.0347128516749 1.12713589218 0)
(0.0378159368177 0.943904447351 0)
(0.0427018731746 0.835796652906 0)
(0.0484133544763 0.767164305795 0)
(0.054575386853 0.725708643029 0)
(0.0607741869518 0.693002522999 0)
(0.065661582168 0.659251518259 0)
(0.0681920091886 0.624333493761 0)
(0.0686925808077 0.593381643669 0)
(0.0664797386531 0.573301685052 0)
(0.0603764027173 0.561844010289 0)
(0.0516225460009 0.534010179405 0)
(0.0422153236287 0.479324792256 0)
(0.0316352445166 0.432479402071 0)
(0.044162585381 1.32924781115 0)
(0.0797594383121 1.40118062045 0)
(0.0605233668003 1.75440423953 0)
(0.0459574579551 2.13066005311 0)
(0.0377629123789 2.11378737491 0)
(0.0366504059475 1.44992501992 0)
(0.043370884113 1.1236115137 0)
(0.0506581894482 0.945581889047 0)
(0.0582952505068 0.840255171539 0)
(0.065891898803 0.774592645781 0)
(0.0728679826968 0.734230370198 0)
(0.0787143462047 0.701148292368 0)
(0.0826187570612 0.667142039227 0)
(0.0838902730622 0.631974781248 0)
(0.0830705853574 0.600507843599 0)
(0.0796917172809 0.578444317453 0)
(0.0725276172742 0.565898111167 0)
(0.062614449587 0.540886007715 0)
(0.0519996321867 0.489890367095 0)
(0.0409147475411 0.437411383241 0)
(0.0439591045098 1.35282175532 0)
(0.0787880181018 1.42394250151 0)
(0.0538362237618 1.85225452729 0)
(0.0329674994375 2.15708228129 0)
(0.0294359746731 2.11626216629 0)
(0.0371298742159 1.41308473537 0)
(0.0490116871339 1.10826419462 0)
(0.0600838467739 0.942597413556 0)
(0.0704440219429 0.844223049517 0)
(0.0796889981105 0.784099535346 0)
(0.0871508490968 0.745435585696 0)
(0.0926707003545 0.712230593291 0)
(0.0958958586639 0.677965083592 0)
(0.0962300630195 0.642582906086 0)
(0.0944994687507 0.61073373055 0)
(0.0908022449938 0.587372292733 0)
(0.0834176846983 0.573711210077 0)
(0.0727892829233 0.550814289421 0)
(0.0608412646059 0.503533271128 0)
(0.0485507888377 0.445380460605 0)
(0.043640109908 1.38402628853 0)
(0.0771600893068 1.45485416004 0)
(0.0422381329859 2.01957040393 0)
(0.00334100592652 2.23057140479 0)
(0.010432090374 2.00448400001 0)
(0.0397467723945 1.36131612235 0)
(0.0548826212261 1.08667565939 0)
(0.0682371706069 0.936545356595 0)
(0.0801894102974 0.847603272664 0)
(0.0902128710962 0.794285513299 0)
(0.0977454632443 0.757466945889 0)
(0.103030267696 0.72442710555 0)
(0.105754134461 0.689969811046 0)
(0.105295638987 0.654420751821 0)
(0.102978951933 0.622343187065 0)
(0.0993573276968 0.598288787198 0)
(0.0920716649871 0.584089744587 0)
(0.0809430488394 0.562193480609 0)
(0.0682800533304 0.518851126605 0)
(0.0553970108554 0.456889280464 0)
(0.0436395792703 1.41986000286 0)
(0.0756617238606 1.49548455091 0)
(0.041927424684 2.2163241922 0)
(0.00529395893691 2.34809153443 0)
(0.0122014009874 1.80832408546 0)
(0.0430746078386 1.30290565418 0)
(0.0602227185457 1.06212940097 0)
(0.0747261052532 0.928624386186 0)
(0.0873538591756 0.850622898671 0)
(0.0975741451102 0.803934492532 0)
(0.105103644919 0.769062290242 0)
(0.110312920545 0.736461832588 0)
(0.112567965974 0.701950969079 0)
(0.111348936021 0.66635626491 0)
(0.10859003105 0.634307401174 0)
(0.105110580483 0.610202258174 0)
(0.0981351444244 0.59641613562 0)
(0.0872952378415 0.574706997962 0)
(0.0748458883829 0.534494040719 0)
(0.0614912725138 0.471799490922 0)
(0.0414516085475 1.4563622482 0)
(0.0625974318175 1.57187484319 0)
(0.0181771312286 2.40968743371 0)
(-0.000564530335709 2.37566987562 0)
(0.0211233446539 1.64230966873 0)
(0.0471297980344 1.24459847417 0)
(0.0647472050206 1.03667916036 0)
(0.0796220190393 0.919851610961 0)
(0.0924532417445 0.853407092642 0)
(0.102677708049 0.812328816443 0)
(0.110300621438 0.779455740377 0)
(0.115549587124 0.747542199911 0)
(0.117317448315 0.713229803179 0)
(0.115392100977 0.677870177466 0)
(0.112330811666 0.646217334312 0)
(0.109088406598 0.622659815785 0)
(0.102565646197 0.610046563159 0)
(0.0923547323236 0.588397605632 0)
(0.0799602436082 0.550058207999 0)
(0.0660836372428 0.488492051183 0)
(0.0118468352394 1.63741327519 0)
(-0.034914593515 1.90067847631 0)
(-0.0776866974176 2.43214827147 0)
(-0.0236210851272 2.16127825554 0)
(0.0285787379434 1.51594335214 0)
(0.0516969186917 1.19153546 0)
(0.068656781894 1.0122342394 0)
(0.0834721249458 0.911028085703 0)
(0.0964354494771 0.855258389102 0)
(0.106880732668 0.818815241405 0)
(0.11492937455 0.788016498635 0)
(0.120369250741 0.757149302504 0)
(0.121684329243 0.723490671743 0)
(0.119086253893 0.688785136794 0)
(0.115716585316 0.657934546516 0)
(0.112672139181 0.63546141559 0)
(0.106585830965 0.624540282168 0)
(0.0967297072404 0.603180719392 0)
(0.084206004984 0.566236469823 0)
(0.0699992797134 0.506617243136 0)
(0.0171309752289 1.87018340287 0)
(0.019752904665 2.23085056838 0)
(0.00551767196792 2.34080620012 0)
(0.0239930512241 1.89179198057 0)
(0.0510169982439 1.42425794072 0)
(0.0664613287996 1.15150387223 0)
(0.0797041166159 0.993727719886 0)
(0.092868162294 0.904952833361 0)
(0.105073736996 0.857137697302 0)
(0.11517699253 0.824261860693 0)
(0.123315064463 0.79546272247 0)
(0.128640939705 0.765974037899 0)
(0.128960202296 0.733329399032 0)
(0.125054915622 0.699567414354 0)
(0.121065157158 0.669907826243 0)
(0.118086551482 0.649128574061 0)
(0.111884670211 0.640329785533 0)
(0.101783903753 0.619454515052 0)
(0.0891897229203 0.583830595771 0)
(0.0744178078206 0.527066220326 0)
(0.0287670845177 1.93485460448 0)
(0.0500280762612 2.30835870213 0)
(0.046467866087 2.2978192017 0)
(0.0613632849714 1.75092153644 0)
(0.0780326403265 1.3667778459 0)
(0.0882694565444 1.12882053752 0)
(0.0981770477674 0.985808516294 0)
(0.10943349375 0.905418903988 0)
(0.120501157821 0.86221322075 0)
(0.129968680958 0.831532265857 0)
(0.137782883958 0.804252033605 0)
(0.142192798265 0.776041773709 0)
(0.140486296053 0.744231517801 0)
(0.134711636845 0.711507075892 0)
(0.130034024046 0.683362713472 0)
(0.126595760575 0.664852279879 0)
(0.119286166976 0.658318310238 0)
(0.108407057853 0.637743310105 0)
(0.09535750507 0.603328246191 0)
(0.079415763447 0.550033880714 0)
(0.0307725337575 1.9009440978 0)
(0.0622047586941 2.30987939901 0)
(0.0703955056232 2.21693629843 0)
(0.0873867563292 1.64897142202 0)
(0.101837319595 1.32486083287 0)
(0.110878834619 1.11703748937 0)
(0.1200177264 0.986999338387 0)
(0.130670466497 0.913102269879 0)
(0.1410204518 0.872402412846 0)
(0.149792477602 0.842825272929 0)
(0.15680676185 0.816459081299 0)
(0.15922686329 0.789018249624 0)
(0.154906417041 0.757656181151 0)
(0.147623816981 0.726106618391 0)
(0.14226420734 0.699598699419 0)
(0.137328470542 0.683865789494 0)
(0.127721992232 0.679454801303 0)
(0.115731120837 0.659269977072 0)
(0.102122745863 0.625956893222 0)
(0.0846915575299 0.57556773474 0)
(0.0222525624886 1.89062714975 0)
(0.0383799598208 2.29999711817 0)
(0.0612077116401 2.01440930659 0)
(0.101587408038 1.54483896245 0)
(0.119234191636 1.28467711469 0)
(0.130634573502 1.10862709159 0)
(0.141763101884 0.993524492755 0)
(0.15354832344 0.926730455944 0)
(0.163796222793 0.887927191972 0)
(0.171750169618 0.858831652875 0)
(0.177240881321 0.832911968578 0)
(0.176831481125 0.80553427952 0)
(0.170048324747 0.774455805436 0)
(0.161814446638 0.74419081744 0)
(0.15571711159 0.719341358087 0)
(0.14831371102 0.706839334126 0)
(0.136311033054 0.70441628481 0)
(0.12369891381 0.685260615252 0)
(0.109112719504 0.652932552924 0)
(0.0900680457632 0.604782304327 0)
(0.010827062833 1.99555450139 0)
(0.0348275198733 2.24961368763 0)
(0.072799265661 1.73462795717 0)
(0.109865153491 1.43639644927 0)
(0.130455850375 1.24143411823 0)
(0.14620762587 1.09966937745 0)
(0.161321013791 1.00291825507 0)
(0.175262903942 0.945008678751 0)
(0.185324544692 0.908123074326 0)
(0.192187759134 0.87927691 0)
(0.195360781436 0.85332967914 0)
(0.191569000042 0.82536962833 0)
(0.18333065956 0.794727255459 0)
(0.175194381876 0.765692261151 0)
(0.168071534114 0.742391795511 0)
(0.158151388343 0.733566806268 0)
(0.144734764128 0.733024063639 0)
(0.131788119879 0.715277603541 0)
(0.116468048555 0.683713044671 0)
(0.0968768611435 0.637611273675 0)
(-0.00379975188236 2.25075844563 0)
(0.0344436250138 1.97546199652 0)
(0.0913550900808 1.53988683136 0)
(0.118296913543 1.34351610745 0)
(0.140527718307 1.20083796792 0)
(0.160540339495 1.09240606711 0)
(0.179374616277 1.0161018881 0)
(0.193938094232 0.967246131368 0)
(0.20246400033 0.932060240673 0)
(0.207411383102 0.903326983922 0)
(0.207470733582 0.876720497369 0)
(0.200999471571 0.84803284251 0)
(0.192753552169 0.818021263252 0)
(0.18555747161 0.789995091918 0)
(0.177335859444 0.767549143865 0)
(0.16487575004 0.762207445341 0)
(0.151064218074 0.763864757203 0)
(0.138849854648 0.747334812121 0)
(0.123967828413 0.715985948138 0)
(0.104376826487 0.671134657417 0)
(0.0280538770022 2.40330396271 0)
(0.0740126297158 1.69954568781 0)
(0.104278326245 1.42557355708 0)
(0.129021005039 1.27636794653 0)
(0.153068305596 1.17261319745 0)
(0.175908870107 1.09333361937 0)
(0.194717825853 1.03516992239 0)
(0.205839414611 0.992888492011 0)
(0.211565835163 0.959046872717 0)
(0.214159532765 0.92999604459 0)
(0.211233159946 0.90227674293 0)
(0.20370187353 0.873093012437 0)
(0.19652045558 0.843605190117 0)
(0.190245275127 0.816015267313 0)
(0.18047460581 0.7931328761 0)
(0.166188930685 0.790122457832 0)
(0.152914421276 0.794714434333 0)
(0.14216144486 0.778894890931 0)
(0.129113525823 0.746843547641 0)
(0.111078977593 0.702069055496 0)
(0.0320691668945 2.34283562315 0)
(0.0854693875476 1.58736997793 0)
(0.117781852253 1.35184553055 0)
(0.142227061626 1.23729675541 0)
(0.167330497196 1.16291883696 0)
(0.187539603033 1.10553755965 0)
(0.200318670974 1.05964171462 0)
(0.20701101856 1.02157280207 0)
(0.210934642696 0.988435181619 0)
(0.211290934942 0.958303373077 0)
(0.206245401493 0.92915413426 0)
(0.198591450609 0.89967077658 0)
(0.192417166329 0.870312129864 0)
(0.186028351847 0.842016703471 0)
(0.174624939246 0.817355581373 0)
(0.159572984603 0.8149506098 0)
(0.147719909642 0.823258660181 0)
(0.139414778586 0.807143159366 0)
(0.129473128501 0.773042367889 0)
(0.115710290766 0.726776060781 0)
(0.0338938152266 2.21001509667 0)
(0.096056410799 1.50428314937 0)
(0.134179779813 1.31437652518 0)
(0.156209282855 1.22627895223 0)
(0.175355907689 1.17209181857 0)
(0.186898272095 1.12862289851 0)
(0.19471878217 1.09030586979 0)
(0.199862423447 1.05442111448 0)
(0.201683687672 1.02015522545 0)
(0.198894693967 0.987844503789 0)
(0.191924710705 0.956975379994 0)
(0.184100971174 0.926988584166 0)
(0.177435490516 0.89669717922 0)
(0.169569420823 0.866276148813 0)
(0.157006253084 0.838803955515 0)
(0.142764995199 0.835059265925 0)
(0.132984329479 0.847591551397 0)
(0.127389760788 0.829848546056 0)
(0.121224785164 0.792179260856 0)
(0.111852792113 0.743050672541 0)
(0.033646371753 2.03663601959 0)
(0.104604361964 1.46405528585 0)
(0.146667179823 1.31816437291 0)
(0.158648672714 1.24740763076 0)
(0.169729333187 1.20479583689 0)
(0.177263628101 1.1693745674 0)
(0.183089160356 1.13375888389 0)
(0.1847885157 1.09516865746 0)
(0.181573608068 1.05614820456 0)
(0.17421556086 1.01992761585 0)
(0.16431674637 0.986584041885 0)
(0.154485908967 0.954711834178 0)
(0.14599292826 0.921723699283 0)
(0.137012173594 0.887755680314 0)
(0.125136708221 0.85650110519 0)
(0.113250323912 0.84905024295 0)
(0.106518840922 0.865079128754 0)
(0.1045489712 0.845299934711 0)
(0.102644164735 0.803141169176 0)
(0.0979299255473 0.750770370158 0)
(0.0368799513046 1.98334275054 0)
(0.114456897938 1.50869737398 0)
(0.151452344209 1.38378954115 0)
(0.150369560515 1.31877847998 0)
(0.154154006466 1.27883039345 0)
(0.155979038129 1.24299366119 0)
(0.154887023454 1.19981757041 0)
(0.14857604861 1.1487068745 0)
(0.137577581401 1.09867285015 0)
(0.124210052401 1.05529763923 0)
(0.110912642064 1.01715455709 0)
(0.0997356632104 0.980854205411 0)
(0.0913108833344 0.943203747444 0)
(0.083970865568 0.904301088202 0)
(0.0757315571946 0.868311556931 0)
(0.0688427218147 0.85418625173 0)
(0.0680498359157 0.8705013788 0)
(0.07190541926 0.85105747066 0)
(0.0751550443356 0.804297734655 0)
(0.0756260719812 0.749114462017 0)
(0.0462147852682 2.10396087045 0)
(0.121417458228 1.66595803854 0)
(0.137602733946 1.52983760169 0)
(0.116696704093 1.45899383747 0)
(0.101814826606 1.40982651594 0)
(0.0887042339 1.35993664801 0)
(0.0748126735138 1.29082609169 0)
(0.0587837561222 1.20968811818 0)
(0.0422962951923 1.1378525595 0)
(0.0281704326955 1.08263919599 0)
(0.0180474635301 1.0373697281 0)
(0.0122117598019 0.995412589237 0)
(0.00972304923959 0.952746061804 0)
(0.00882415390098 0.90925724602 0)
(0.00864550125237 0.869148109604 0)
(0.0112906428582 0.847132466676 0)
(0.0205739874746 0.856971839382 0)
(0.0327608824616 0.842621444046 0)
(0.0423575792611 0.793649302794 0)
(0.0488416545857 0.737049070732 0)
(0.0652312928304 2.21007038866 0)
(0.123778584833 1.84851557978 0)
(0.0908566759313 1.70199635922 0)
(0.0408366208059 1.62133051626 0)
(-0.00251772146061 1.55583472783 0)
(-0.0388326758741 1.48455547256 0)
(-0.0692438438119 1.37887572609 0)
(-0.0918962254692 1.25223218804 0)
(-0.104326330559 1.14455800638 0)
(-0.107138622668 1.07358739156 0)
(-0.103516361582 1.02311443274 0)
(-0.0962503925612 0.979034065582 0)
(-0.0871578705735 0.935489309352 0)
(-0.0772271419582 0.891829626513 0)
(-0.0659278464071 0.85157987257 0)
(-0.05037663344 0.824808069794 0)
(-0.0289828933057 0.822699369747 0)
(-0.00691697418668 0.81465319794 0)
(0.0106246073971 0.770200752594 0)
(0.0232786524698 0.714586571711 0)
(0.0787826719423 2.05610558464 0)
(0.118872005022 1.9346615375 0)
(0.0513346232776 1.81121288985 0)
(-0.00615461189081 1.72513911533 0)
(-0.0614395899745 1.64557219767 0)
(-0.113626816634 1.56032631006 0)
(-0.161119823164 1.42796467514 0)
(-0.198505781193 1.26184577726 0)
(-0.218592733179 1.10983160385 0)
(-0.218118070661 1.01459560455 0)
(-0.20364420118 0.961663351013 0)
(-0.183977046616 0.922376024533 0)
(-0.163442233985 0.885019377319 0)
(-0.143328775263 0.847518073712 0)
(-0.123058537448 0.812450056653 0)
(-0.0987100937009 0.786244781998 0)
(-0.0676776658139 0.775192781446 0)
(-0.0359321081801 0.768038053078 0)
(-0.0114388146332 0.73618939053 0)
(0.00549364718372 0.684419311789 0)
(0.0504419860263 1.64647312383 0)
(0.0863143596081 1.90778324352 0)
(0.0562306791459 1.85014292236 0)
(0.0229710655228 1.7713101825 0)
(-0.0155756922932 1.69621820299 0)
(-0.060082386906 1.61454063535 0)
(-0.111787273752 1.48150457081 0)
(-0.164843009062 1.27368566269 0)
(-0.207100299109 1.06775687382 0)
(-0.228009328412 0.936025438175 0)
(-0.225190925652 0.877265491563 0)
(-0.20789030249 0.844387460257 0)
(-0.185469010913 0.817067513439 0)
(-0.162388900886 0.788571757819 0)
(-0.139673710741 0.760791846925 0)
(-0.115087900687 0.73800116152 0)
(-0.0830208822646 0.724222594707 0)
(-0.0467567386349 0.71397489872 0)
(-0.0186981073637 0.697119273018 0)
(-0.000621239360801 0.651949713162 0)
(0.0140598152056 1.33454714001 0)
(0.0285469506387 1.84485720208 0)
(0.0244181480506 1.85922773203 0)
(0.014288162592 1.79524808894 0)
(0.00139864645782 1.73738669414 0)
(-0.0156969383418 1.6705177738 0)
(-0.0391639211843 1.55472034206 0)
(-0.0774825735459 1.3470122585 0)
(-0.1248424205 1.08091993714 0)
(-0.157702806072 0.878079271185 0)
(-0.171020660675 0.809477155021 0)
(-0.170049162191 0.776119407344 0)
(-0.15728706576 0.756251594967 0)
(-0.138842519054 0.734980007181 0)
(-0.119177746492 0.712748762305 0)
(-0.0982800620213 0.69278633158 0)
(-0.071976259872 0.678538296063 0)
(-0.0392747530906 0.666311961413 0)
(-0.0119347986948 0.659721928687 0)
(0.00426199192543 0.623325658147 0)
(0.00510431941508 1.24636051533 0)
(0.00913283732595 1.8173930388 0)
(0.00487696761886 1.86879919446 0)
(-0.000886519140765 1.811320685 0)
(-0.00596554659556 1.76195712904 0)
(-0.0116531058903 1.70601026483 0)
(-0.0199769904065 1.60541567744 0)
(-0.0330572245668 1.43000621272 0)
(-0.0599436715857 1.16377904696 0)
(-0.0857397328601 0.856417031016 0)
(-0.0975095327035 0.776268992144 0)
(-0.104130261048 0.735896190481 0)
(-0.102531384294 0.71685599047 0)
(-0.0924879345789 0.699011810877 0)
(-0.0785738981034 0.679420311435 0)
(-0.0627952368529 0.660606644441 0)
(-0.0424989570724 0.645889821283 0)
(-0.016745380136 0.632679004721 0)
(0.0048019282676 0.63004474572 0)
(0.0162107101313 0.602994042574 0)
(-0.00130211265714 1.25437958228 0)
(-0.0078650799067 1.83859923076 0)
(-0.0176451922422 1.89623126914 0)
(-0.0250549105995 1.83243861729 0)
(-0.0292256036917 1.77967631685 0)
(-0.0311376504277 1.72517664137 0)
(-0.0327799796197 1.63158309997 0)
(-0.0377512215794 1.46899884202 0)
(-0.034572388411 1.18537703728 0)
(-0.0310760365841 0.862545123174 0)
(-0.0375649620673 0.772852667847 0)
(-0.042509260818 0.724460468797 0)
(-0.0442222911392 0.701192391326 0)
(-0.0401657791377 0.682978068699 0)
(-0.0319887073399 0.663544814034 0)
(-0.0213524598775 0.644643857926 0)
(-0.0056559188999 0.629239378772 0)
(0.0134580909755 0.615057376592 0)
(0.026973121359 0.612258718699 0)
(0.0315242119592 0.592531575017 0)
(-0.00778503957669 1.33891588252 0)
(-0.0262142488124 1.91808189598 0)
(-0.0438670604947 1.95259166712 0)
(-0.0543779327207 1.86650832067 0)
(-0.0576578455609 1.79533360995 0)
(-0.053894161105 1.72751273884 0)
(-0.0456348187037 1.63078831377 0)
(-0.0310039686432 1.45464394289 0)
(-0.00635055001885 1.10396280584 0)
(0.00819203551422 0.876047151878 0)
(0.00739616453663 0.785162399684 0)
(0.00632004392517 0.731949722999 0)
(0.00609305521023 0.704153556591 0)
(0.00813387381838 0.683496176309 0)
(0.0123307369698 0.662780541276 0)
(0.0187420513029 0.643174785606 0)
(0.030472742448 0.627099171917 0)
(0.0450805834229 0.612353583431 0)
(0.0512199343576 0.608035468633 0)
(0.0475282991524 0.591786619965 0)
(-0.0162140535502 1.51487853151 0)
(-0.0496149079903 2.07645552948 0)
(-0.0773573124417 2.05453381622 0)
(-0.0933012507532 1.92512535145 0)
(-0.0982765298078 1.81647329115 0)
(-0.0936896919734 1.72415733573 0)
(-0.0730223152493 1.57259803017 0)
(-0.0209414183964 1.30167382843 0)
(0.0240353150231 1.03290334243 0)
(0.0365370451474 0.885007256228 0)
(0.0414760908158 0.801593867236 0)
(0.0449022362543 0.748738244198 0)
(0.0475568759633 0.718805714713 0)
(0.0494215729134 0.695453131407 0)
(0.0512090485874 0.672986470832 0)
(0.0547117263978 0.652515884251 0)
(0.0637877950959 0.635891277801 0)
(0.0750037329894 0.62129218939 0)
(0.0739748297609 0.616203579991 0)
(0.062365714662 0.599761423962 0)
(-0.0246274789783 1.79839104616 0)
(-0.0711685527743 2.32231416633 0)
(-0.108112061574 2.21648841723 0)
(-0.132757823891 2.02452453443 0)
(-0.146777373322 1.86649467027 0)
(-0.113764787933 1.58049109356 0)
(-0.0364515903259 1.37882357779 0)
(0.018712351481 1.13720623476 0)
(0.0435903439445 0.995535676304 0)
(0.0587660972201 0.888672320863 0)
(0.0687421761288 0.817702310634 0)
(0.0767940415735 0.770038522601 0)
(0.0819656177511 0.73978683089 0)
(0.0837230345589 0.714065250526 0)
(0.0841393908186 0.689959244433 0)
(0.0859561842597 0.668626127127 0)
(0.0937166846854 0.651672488901 0)
(0.101884707283 0.638010139409 0)
(0.0933800616757 0.632970950937 0)
(0.0754753112745 0.614403832274 0)
(-0.0242918441371 2.13635357623 0)
(-0.0662501018549 2.60195824842 0)
(-0.0954596221071 2.40211188779 0)
(-0.116945585949 2.15329631464 0)
(-0.0873190979395 1.738266744 0)
(-0.0265837969994 1.35930813242 0)
(0.010554810533 1.18852382345 0)
(0.039706007215 1.06586122365 0)
(0.0624511160195 0.96715944297 0)
(0.0796298950256 0.889776087179 0)
(0.0940104757965 0.83306825822 0)
(0.105107520763 0.792730917211 0)
(0.110584194472 0.762370405414 0)
(0.111963836169 0.735097946156 0)
(0.112056305796 0.709851975934 0)
(0.113196646556 0.687851941374 0)
(0.120777051415 0.670775487966 0)
(0.124459278844 0.657915992262 0)
(0.108741243837 0.65314211075 0)
(0.0885128631758 0.633251960472 0)
(-0.0149513704796 2.4215877247 0)
(-0.0356889708031 2.81921927085 0)
(-0.0426496070294 2.5366350878 0)
(-0.0264613445462 2.16486748685 0)
(0.00185306632428 1.53417511061 0)
(0.0222583406554 1.25217194566 0)
(0.042519522952 1.11402858151 0)
(0.0637283472004 1.01810139903 0)
(0.084034074647 0.94781366268 0)
(0.10327834667 0.891860409736 0)
(0.119865729657 0.848047484688 0)
(0.130322507019 0.813121413377 0)
(0.134749205193 0.782957360799 0)
(0.136453425171 0.755203254476 0)
(0.136891119072 0.729369227651 0)
(0.138075198998 0.706909833347 0)
(0.144223353184 0.689558455548 0)
(0.142406717632 0.677117882186 0)
(0.123377591447 0.673147509052 0)
(0.104509224433 0.653852906207 0)
(-0.00654564093333 2.5935253412 0)
(-0.00711921495779 2.91888943999 0)
(0.00628546900331 2.58424167201 0)
(0.0366329878325 2.02333553097 0)
(0.0633135717585 1.48758305572 0)
(0.0702349808488 1.21823155591 0)
(0.0793939349743 1.07761360975 0)
(0.0938066994341 0.993265634035 0)
(0.112153197465 0.938180991721 0)
(0.131018315049 0.896422642885 0)
(0.14500499487 0.860941022025 0)
(0.152637428445 0.829257926113 0)
(0.156918665287 0.8002418183 0)
(0.159391810221 0.772688423464 0)
(0.160191503968 0.746615549471 0)
(0.161371666312 0.72372274433 0)
(0.164862408253 0.705616166491 0)
(0.159030471724 0.69405694029 0)
(0.140684801662 0.691665881316 0)
(0.124313841574 0.673532230422 0)
(0.00366366804647 2.64087884775 0)
(0.0220191905362 2.90835491443 0)
(0.0638752824237 2.48753156554 0)
(0.10114571146 1.90770050469 0)
(0.11293733637 1.48451086138 0)
(0.115860661395 1.22271684302 0)
(0.120923684898 1.07240320972 0)
(0.131431495717 0.986621088358 0)
(0.146106193705 0.93783165556 0)
(0.159649769667 0.902686085226 0)
(0.168725665295 0.871451449659 0)
(0.175001163822 0.842500411463 0)
(0.179587840691 0.81494023362 0)
(0.182166593696 0.787816590092 0)
(0.182840048236 0.761629478621 0)
(0.183463319054 0.738211482828 0)
(0.18462097344 0.718972529203 0)
(0.177173404455 0.707933823527 0)
(0.160220644637 0.706849672915 0)
(0.146039608498 0.689562690509 0)
(0.0237188328107 2.50534446845 0)
(0.0674163856827 2.78990370823 0)
(0.110596571017 2.29009841881 0)
(0.142315587488 1.84923370395 0)
(0.152852537356 1.49129774062 0)
(0.156467865866 1.24212836081 0)
(0.161655427144 1.08569814444 0)
(0.170327902142 0.994965069829 0)
(0.18009362205 0.945958709258 0)
(0.187833697169 0.912177628154 0)
(0.193795133991 0.88297671925 0)
(0.19905875977 0.855806900474 0)
(0.202858527194 0.829131128945 0)
(0.204702077312 0.802186284271 0)
(0.204634921802 0.77566591723 0)
(0.204210543144 0.75135684248 0)
(0.203351739628 0.730540334604 0)
(0.19445367096 0.71822632504 0)
(0.178615127746 0.717365358355 0)
(0.166888662118 0.700607124037 0)
(0.0368842708267 2.26411052543 0)
(0.104078629965 2.54991226614 0)
(0.148991412744 2.12120570663 0)
(0.17100001665 1.79018308225 0)
(0.1816317061 1.49120270066 0)
(0.187811140619 1.26250726857 0)
(0.194953769802 1.10754613131 0)
(0.203302260338 1.01408457516 0)
(0.210223602587 0.962657167758 0)
(0.214719793399 0.927813376819 0)
(0.218475764254 0.898767236142 0)
(0.222010955782 0.871871554075 0)
(0.224237906727 0.845145285046 0)
(0.224663896128 0.817769468822 0)
(0.223263177627 0.790384851116 0)
(0.221292423923 0.7645934174 0)
(0.21815783794 0.74154225905 0)
(0.20771323999 0.726118220421 0)
(0.192284549824 0.724203817828 0)
(0.18204102148 0.707904859652 0)
(0.0401672278191 2.12315788072 0)
(0.113812832825 2.2131018122 0)
(0.161725479471 1.97525528739 0)
(0.18439443877 1.72384431312 0)
(0.19784014161 1.47813709538 0)
(0.207878566322 1.27598532111 0)
(0.218029131101 1.13069468529 0)
(-0.0735128267788 0.466461866726 0)
(-0.0654588277744 0.46474153376 0)
(-0.0583304083769 0.463207769432 0)
(-0.0518887308332 0.461782934441 0)
(-0.0461204591926 0.460298025296 0)
(-0.0410581720414 0.458337684536 0)
(-0.0366040898753 0.454803269878 0)
(-0.0324555885904 0.447542595848 0)
(-0.0283010362004 0.435159185387 0)
(-0.0240915918163 0.419311228633 0)
(-0.019956542784 0.401921720521 0)
(-0.0160007417688 0.383730460382 0)
(-0.0122891495786 0.364967949548 0)
(-0.00890394409984 0.345606191374 0)
(-0.00593283966335 0.325502665875 0)
(-0.0028043928623 0.305001199741 0)
(-0.000524155500173 0.286168221681 0)
(-0.0192250746258 0.43505833064 0)
(-0.0386067479767 0.438350633107 0)
(-0.0703350987213 0.453302777387 0)
(-0.0851791617883 0.450060481306 0)
(-0.0753940723733 0.449836326438 0)
(-0.0670018455107 0.449446061349 0)
(-0.0594489301157 0.448933685244 0)
(-0.0526920812036 0.448166846808 0)
(-0.0467433495081 0.446743261429 0)
(-0.0414961722918 0.443524054621 0)
(-0.036642308397 0.436314817151 0)
(-0.031867864831 0.423903196429 0)
(-0.0271159923868 0.408179546364 0)
(-0.0224961061455 0.391018511493 0)
(-0.0180931901751 0.373103493275 0)
(-0.0139589513406 0.354654402369 0)
(-0.0101747933789 0.335655247452 0)
(-0.00684203346885 0.315958785816 0)
(-0.00341042399817 0.295844182626 0)
(-0.000761063198806 0.277407756954 0)
(-0.00588934986737 0.424142644235 0)
(-0.0203564245486 0.423420952719 0)
(-0.062096843612 0.436831617864 0)
(-0.0914993500234 0.432939307244 0)
(-0.0811799259251 0.433977981507 0)
(-0.0721805520228 0.434755120703 0)
(-0.0640529897943 0.435182841184 0)
(-0.056757208315 0.435164724037 0)
(-0.0502970359501 0.434298733926 0)
(-0.0445667135787 0.431400078059 0)
(-0.039265807737 0.424240821866 0)
(-0.0340961198535 0.411825800695 0)
(-0.0290045745154 0.396255294819 0)
(-0.0240854253691 0.3793416507 0)
(-0.0194067903669 0.361715315767 0)
(-0.0150113883968 0.343591204115 0)
(-0.0109754521174 0.324969723267 0)
(-0.007414360434 0.305705534721 0)
(-0.0038275201549 0.286001310028 0)
(-0.000943729684757 0.267933430161 0)
(0.00708657577197 0.417094374137 0)
(-0.00581777842443 0.414178310029 0)
(-0.0482777864668 0.420007299347 0)
(-0.08643598517 0.417658660955 0)
(-0.0827879311646 0.418527525668 0)
(-0.0736848275114 0.420287337735 0)
(-0.0654964795649 0.421509608477 0)
(-0.058105092968 0.422132276713 0)
(-0.0515151120709 0.421736785854 0)
(-0.0456261969519 0.419076630984 0)
(-0.0401561282785 0.411904026536 0)
(-0.0348362276905 0.399464501314 0)
(-0.0296275416503 0.384038765768 0)
(-0.0246127424867 0.367360106357 0)
(-0.0198474242841 0.350012037258 0)
(-0.0153648858953 0.332206659696 0)
(-0.0112426464629 0.313965642108 0)
(-0.00760995285977 0.295151375398 0)
(-0.00402728138495 0.27588200439 0)
(-0.00106092793342 0.25815902079 0)
(0.0186302065926 0.413632783833 0)
(0.00616741089698 0.408647785485 0)
(-0.0209405909823 0.407317870305 0)
(-0.0641571395163 0.405080936374 0)
(-0.0807583640768 0.404447615056 0)
(-0.0718067269806 0.406894661529 0)
(-0.0639756493638 0.408673544016 0)
(-0.0568607587071 0.409751392479 0)
(-0.0504732017955 0.409673575987 0)
(-0.0447192211032 0.407117699663 0)
(-0.0393393958771 0.399832192875 0)
(-0.034103418693 0.38732094926 0)
(-0.0289912811625 0.372006196638 0)
(-0.0240778742919 0.355529533486 0)
(-0.019409833444 0.33843291654 0)
(-0.015016372676 0.320928217428 0)
(-0.0109714887346 0.30306135312 0)
(-0.00741898112256 0.284709931976 0)
(-0.00399978069416 0.265903175948 0)
(-0.0011062461483 0.248510261788 0)
(0.0282617364477 0.413053685941 0)
(0.0159559305908 0.405463817737 0)