/*--------------------------------*- C++ -*----------------------------------*\
| =========                 |                                                 |
| \\      /  F ield         | OpenFOAM: The Open Source CFD Toolbox           |
|  \\    /   O peration     | Version:  2312                                  |
|   \\  /    A nd           | Website:  www.openfoam.com                      |
|    \\/     M anipulation  |                                                 |
\*---------------------------------------------------------------------------*/
FoamFile
{
    version     2.0;
    format      ascii;
    arch        "LSB;label=32;scalar=64";
    class       volScalarField;
    location    "0.78/water";
    object      p_rgh;
}
// * * * * * * * * * * * * * * * * * * * * * * * * * * * * * * * * * * * * * //

dimensions      [1 -1 -2 0 0 0 0];

internalField   nonuniform List<scalar> 
1496
(
100271.014893
100300.349842
100388.335037
100466.50333
100494.292952
100496.01053
100487.089578
100476.540636
100476.315439
100477.063148
100493.488078
100534.263181
100606.545663
100716.072709
100860.415528
101021.103169
101169.126232
101261.496615
101282.183404
101280.954461
100273.70848
100295.988454
100383.590653
100463.867598
100497.365086
100503.537948
100499.532702
100494.037998
100494.772606
100497.963689
100511.573151
100545.446438
100607.437586
100697.014555
100814.151536
100955.087956
101108.308729
101243.786536
101288.942308
101286.809074
100273.070535
100298.304357
100386.325272
100468.981626
100510.40673
100528.405914
100537.891377
100546.104329
100555.764915
100565.346481
100576.101665
100598.183491
100642.798586
100719.126689
100827.140827
100960.281846
101103.261104
101230.580527
101284.795095
101282.567623
100275.677315
100306.343058
100397.358041
100484.641638
100535.820011
100567.818586
100595.251179
100623.915701
100652.064564
100674.199605
100689.567676
100707.538247
100740.118989
100798.994284
100888.855209
101002.705811
101125.077194
101220.804625
101263.582643
101284.207255
100275.173929
100320.982009
100418.987405
100510.041523
100567.051491
100611.988219
100657.864342
100709.210933
100760.42163
100801.075693
100829.636605
100855.365302
100889.62055
100941.52933
101011.497392
101090.016682
101162.515562
101221.42548
101271.471859
101292.096905
100277.259277
100338.774377
100448.20831
100540.72707
100604.09427
100662.617949
100726.509602
100798.751941
100871.657927
100932.354549
100977.525507
101015.378487
101054.601784
101094.792711
101126.901254
101152.286457
101186.718401
101241.972719
101300.086606
101298.554269
100277.722696
100361.380866
100484.405162
100579.651446
100654.076102
100727.470302
100808.589063
100898.671496
100989.200014
101066.210901
101122.884373
101162.245786
101184.034456
101181.292101
101170.507199
101178.981364
101221.200974
101299.663778
101307.031115
101206.140477
100282.484797
100392.190083
100528.593047
100633.447655
100723.422277
100812.772374
100909.443337
101013.459826
101115.214922
101198.20379
101248.530534
101263.365567
101243.436221
101199.565707
101192.341174
101220.459739
101307.124258
101307.272371
101226.208304
100714.033498
100287.833009
100433.547018
100581.038109
100704.794183
100814.530067
100920.401592
101029.757401
101141.716783
101243.850737
101313.000904
101333.168247
101314.404173
101254.117481
101216.991296
101236.397744
101321.532357
101322.824036
101275.492039
100746.885212
100393.064458
100289.556661
100483.405504
100648.490182
100797.847667
100927.606507
101047.495522
101164.981151
101276.508453
101362.396373
101395.846943
101385.998199
101329.51268
101265.962993
101267.84913
101338.739521
101373.87446
101327.881096
100832.86916
100437.680625
100370.201619
100288.36204
100539.145787
100740.945228
100917.108922
101058.536082
101184.97402
101303.386461
101404.213526
101455.25917
101454.955424
101416.55344
101341.088457
101311.472777
101359.258693
101411.180302
101379.866764
101007.440829
100502.283742
100423.648501
100396.987544
100290.996339
100621.393175
100864.783394
101064.309897
101203.509585
101324.097318
101429.54792
101501.385175
101514.572179
101498.579958
101440.092144
101374.037078
101388.739559
101433.378569
101420.142439
101195.706835
100645.206176
100494.230772
100460.464838
100461.731495
100289.657444
100712.461812
101018.717133
101240.544791
101364.274775
101460.135419
101525.50392
101550.731193
101548.743053
101528.85813
101473.980215
101445.43098
101467.192719
101456.247827
101317.510549
100870.32189
100624.673269
100553.820254
100549.845315
100559.003355
100292.674097
100814.915719
101195.209818
101443.614837
101520.753984
101556.56521
101566.013181
101565.775702
101565.297792
101556.913409
101527.15295
101522.377481
101499.214412
101386.150477
101060.004978
100799.360235
100701.275168
100685.264993
100685.240203
100688.642358
100290.807409
100943.130081
101379.006645
101571.355014
101576.207511
101575.957436
101575.061093
101575.049602
101573.793177
101573.644222
101571.11028
101551.63444
101459.468649
101174.088566
100908.082738
100842.990286
100842.651518
100850.760921
100850.05075
100852.434938
100293.578769
101099.828414
101515.39719
101584.955386
101585.790878
101584.707125
101585.112176
101582.7621
101583.267123
101580.338738
101579.917093
101546.780039
101322.574724
100997.890958
100912.983488
100907.77291
100956.23221
100989.326877
101006.931615
101025.976758
100313.702738
101248.487614
101540.910697
101596.177894
101594.781724
101595.712829
101592.898167
101593.701636
101589.526489
101590.09873
101585.053819
101499.986763
101169.62685
100977.657218
100934.169064
100953.727812
101001.101398
101046.658245
101090.286272
101134.903503
100434.932618
101309.831138
101541.915649
101606.345077
101606.776997
101603.758366
101604.762079
101599.82298
101600.551515
101594.912607
101590.541964
101389.235008
101125.676079
101002.781613
100976.296215
100987.828743
101016.68997
101055.139104
101101.724159
101152.010585
100667.446384
101288.815133
101509.180077
101608.905699
101616.403843
101616.255522
101611.383784
101611.647257
101605.322446
101605.090276
101520.541177
101288.70903
101154.715234
101083.078357
101049.262162
101034.106708
101036.850952
101060.976992
101101.624048
101148.001824
100817.837682
101186.579573
101390.079183
101531.647214
101595.176623
101611.895252
101611.758867
101600.843077
101575.704272
101512.809626
101372.833694
101267.308148
101236.078711
101212.081053
101167.049621
101117.664493
101086.339575
101082.527824
101105.620381
101138.63149
100771.557513
100927.407323
101075.566117
101249.927983
101385.120304
101438.823797
101430.60827
101384.346822
101309.134164
101235.695956
101203.065131
101232.204596
101266.79725
101296.470576
101294.645242
101253.290747
101195.935152
101151.036797
101133.851808
101142.662831
100648.026642
100623.32377
100699.230904
100831.777493
100947.603489
100993.16292
100969.571506
100901.437741
100846.168192
100843.552045
100936.949521
101082.722154
101197.249479
101284.965588
101332.106354
101358.124783
101350.083164
101292.206989
101222.152397
101177.211163
100468.813909
100454.701727
100542.482948
100609.428198
100633.54836
100627.789645
100596.868463
100560.019872
100543.047432
100555.779632
100626.668304
100762.712185
100935.495908
101128.292029
101272.942284
101363.31822
101421.651667
101440.574403
101380.219504
101276.713298
100331.384367
100411.11395
100525.587332
100566.451273
100560.042318
100529.310507
100492.287303
100474.424251
100470.04769
100470.482571
100479.466138
100519.568872
100625.784347
100829.883956
101061.475404
101264.642327
101404.372369
101484.36805
101513.406142
101425.854538
100292.634517
100413.342341
100522.51457
100563.297242
100557.053957
100523.275895
100479.522282
100469.689307
100469.946987
100469.337947
100469.917792
100470.429088
100518.145319
100649.641089
100843.082009
101077.080623
101311.722253
101476.828367
101545.783153
101530.241679
100293.385046
100422.078278
100521.9818
100566.978452
100564.658123
100532.424624
100483.900231
100472.945261
100472.39772
100472.933269
100472.496152
100472.921976
100514.672927
100626.452582
100784.363882
100983.354207
101216.66547
101441.206638
101555.610339
101564.082894
100295.82486
100431.982385
100524.519148
100577.075916
100587.316949
100561.349183
100503.921837
100477.051063
100475.933165
100475.706293
100475.931066
100476.529873
100524.244315
100634.394135
100789.437626
100983.560437
101207.825018
101431.440532
101566.072729
101580.436412
100296.830154
100436.674488
100530.657557
100595.307091
100621.530601
100610.646288
100553.378551
100498.891066
100482.483384
100479.705669
100481.035687
100495.032472
100556.16437
100663.055373
100813.148379
101005.665589
101228.832787
101449.051571
101582.970954
101596.670879
100299.337276
100443.213863
100540.238909
100614.966007
100661.517211
100672.593805
100630.823186
100558.722126
100515.475571
100503.594404
100509.603936
100546.880054
100621.175983
100728.176749
100877.715259
101071.040379
101291.076027
101497.258852
101612.059661
101615.310329
100300.613584
100463.053535
100551.437655
100627.286336
100702.864523
100741.091283
100727.071995
100660.503128
100596.497897
100572.073781
100583.125584
100635.353594
100717.238918
100831.633804
100989.194834
101186.886493
101400.098447
101576.187329
101645.629208
101634.787926
100308.588053
100501.102456
100563.013093
100629.974161
100732.563055
100812.589424
100831.73432
100786.807057
100721.516117
100688.432925
100698.62702
100750.889885
100837.559804
100964.173824
101133.308391
101332.136614
101526.266771
101650.494119
101673.754124
101652.525151
100343.109439
100538.357036
100570.272214
100626.430492
100741.37042
100874.980414
100929.245313
100914.981735
100865.236387
100831.108559
100836.649533
100883.938239
100975.742436
101113.402917
101288.18079
101476.030314
101631.036653
101695.47807
101696.520058
101670.347451
100413.09323
100554.030449
100573.037918
100617.704831
100740.478841
100914.14387
101010.746518
101027.165645
101000.430762
100974.004168
100979.463645
101026.979238
101124.488668
101266.957156
101435.341251
101596.217213
101696.98449
101721.541439
101717.44971
101697.026626
100489.307666
100567.83266
100574.794382
100606.019686
100732.701887
100932.10917
101069.505426
101115.084485
101113.760506
101103.04194
101117.396751
101172.11386
101273.941471
101412.800856
101563.216902
101682.615522
101734.657364
101743.88293
101742.698169
101745.793503
100552.378708
100585.398788
100577.422502
100597.360807
100724.066582
100940.244748
101106.590495
101181.121444
101204.636371
101215.709074
101246.181545
101311.463513
101414.650276
101542.791693
101664.808538
101736.984185
101762.479872
101771.706132
101780.105041
101789.81453
100605.389048
100605.447569
100581.995534
100599.041
100725.020651
100948.971076
101132.116481
101229.251278
101275.295198
101309.253257
101356.624603
101430.091126
101530.803215
101643.155846
101730.184374
101771.646775
101790.524436
101796.406693
101797.447001
101798.321472
100641.299072
100621.655837
100587.479112
100604.247002
100733.271128
100966.622664
101165.000709
101286.689171
101362.703992
101426.69908
101494.978288
101575.254837
101663.713339
101739.298277
101781.300738
101800.493036
101804.562978
101804.641123
101804.848245
101805.139284
100879.757082
100867.006082
101070.334325
101527.930623
101610.280035
101613.479946
101614.453156
101615.106123
101615.57999
101615.91449
101615.882578
101591.640879
100914.732514
100895.55607
100976.987809
101560.706144
101241.628564
101112.270825
100965.669821
100934.655888
100944.931419
100935.886193
101076.065278
101519.468648
101621.796538
101625.529802
101626.323741
101626.923542
101627.420224
101627.721866
101622.598083
101119.212325
100895.60689
100897.631645
101092.422559
101567.930174
101259.435084
101180.875478
101079.420919
101061.889773
101073.060773
101048.073572
101059.433443
101449.392102
101631.546848
101637.803291
101637.775261
101638.009835
101638.320477
101628.429707
101242.129024
100918.551233
100919.300345
100995.409991
101113.802534
101566.564344
101267.890666
101241.256231
101219.589526
101189.597347
101116.542329
101025.995265
100942.847237
101104.801134
101512.678999
101633.307891
101638.281689
101637.210168
101600.149122
101202.925979
100885.466402
101036.855621
101177.278379
101189.704792
101134.646574
101513.292837
101284.714598
101284.218855
101242.544968
101109.945238
100912.789425
100748.579973
100634.679068
100566.413983
100787.947292
101301.620296
101535.421324
101449.421114
100991.118844
100693.785015
100876.352729
101198.67619
101341.500586
101302.852384
101154.341486
101467.574594
101290.051351
101246.987489
100990.084498
100651.201054
100451.683611
100361.449552
100321.8515
100277.253661
100315.500574
100606.023124
100937.212248
100806.584241
100582.208129
100644.123824
100907.61783
101207.915787
101385.347713
101367.064929
101182.272504
101443.366628
101220.755898
100827.982741
100446.989801
100293.534545
100246.868329
100232.949727
100229.848742
100229.626608
100239.608303
100308.779293
100416.001469
100449.331282
100535.733533
100707.527979
100996.242265
101250.120028
101425.548236
101410.247371
101212.678237
101450.542952
100734.353832
100367.119909
100264.699699
100239.188469
100231.104733
100229.874214
100229.960287
100233.617216
100248.257741
100288.89253
100351.016234
100438.386118
100598.211273
100840.67298
101110.870848
101334.430248
101478.961187
101450.646073
101234.471169
101506.063708
100364.415385
100286.360127
100262.933871
100251.099033
100247.811416
100248.572298
100253.628911
100266.652407
100291.618886
100332.785064
100405.253254
100528.148994
100731.226269
100979.100834
101228.895331
101425.716875
101532.591052
101483.339066
101236.838668
101600.566569
100325.168018
100300.199485
100291.196375
100289.993711
100291.708101
100296.622223
100308.913205
100334.098308
100376.572587
100439.746568
100533.547746
100675.268776
100881.965096
101121.037251
101342.521277
101510.712749
101581.524558
101506.998464
101205.537934
101668.314106
100346.84179
100344.504139
100347.05878
100349.826087
100355.289061
100366.950955
100390.08117
100431.278475
100494.6317
100578.24247
100682.985688
100832.987263
101042.248654
101264.5156
101447.165459
101582.127936
101621.163785
101515.596836
101121.511976
101688.744684
100400.783955
100410.422317
100416.331965
100421.879707
100432.882306
100455.635621
100494.594374
100553.967679
100632.694812
100725.523891
100839.190115
101004.67316
101210.833952
101398.274891
101540.170454
101635.258491
101635.639122
101433.747981
100982.896704
101701.412457
100477.431324
100489.44677
100497.443423
100506.84537
100525.104084
100561.716315
100617.340261
100684.470461
100759.963461
100857.040021
100986.795746
101170.333418
101363.925502
101513.643449
101618.289662
101655.439604
101639.653011
101035.724176
100938.503397
101712.820528
100574.385137
100588.339763
100599.039359
100611.208628
100633.641354
100677.500674
100734.487009
100778.239232
100827.116403
100921.486655
101065.906365
101260.259297
101451.056458
101587.375503
101660.290384
101664.006128
101456.541409
100668.73388
100873.310978
101720.692935
100701.613241
100718.375248
100730.853974
100740.740654
100754.497968
100780.594006
100803.426773
100798.336424
100824.642373
100920.274065
101069.621465
101268.776226
101471.212046
101615.341193
101668.791534
101634.956352
100951.215105
100660.6629
100701.38617
101727.151428
100866.634057
100885.45209
100896.887622
100895.948298
100878.316895
100849.518487
100808.760301
100776.011158
100785.267232
100878.911059
101037.927865
101251.816565
101474.12991
101634.234498
101672.928058
101454.420766
100666.072537
100664.613046
100672.742271
101726.497801
101051.958503
101073.802297
101082.435219
101064.430388
100997.928133
100890.398618
100792.611169
100760.029159
100762.085398
100790.767305
100957.844661
101189.520852
101451.192036
101638.063719
101662.550938
101361.560077
100666.202146
100661.140795
100700.291415
101736.865018
101183.979371
101223.087397
101236.323923
101215.285447
101121.006737
100943.585574
100785.393781
100761.628119
100757.292866
100761.476887
100869.66417
101098.333373
101397.263826
101630.635397
101684.353998
101478.464438
100802.379632
100665.791725
100686.047133
101745.802342
101207.821752
101259.267117
101295.976202
101305.943965
101252.428213
101063.949007
100826.478011
100757.234228
100760.687675
100756.758702
100764.437922
101004.050444
101329.704884
101627.096685
101712.295674
101624.145306
101038.467195
100662.523253
100664.585798
101754.116707
101199.673125
101249.481928
101292.666393
101330.536291
101347.903122
101253.519105
100963.416993
100760.337771
100753.251434
100760.427729
100757.825057
100903.648676
101236.85868
101628.983776
101723.729001
101695.882934
101254.924645
100665.602842
100663.368154
101762.814022
101169.133849
101204.004885
101251.941298
101314.191701
101377.904011
101402.95519
101185.965389
100791.619639
100759.699954
100753.161162
100760.549463
100759.525333
101107.204061
101627.886147
101731.12312
101731.355282
101558.892297
100797.902092
100664.997746
101766.093579
101150.865601
101157.166813
101176.984176
101249.668208
101361.648742
101448.752826
101389.94137
100930.824354
100752.781322
100759.654084
100755.158445
100761.164887
101006.396685
101613.097384
101738.272484
101739.01879
101725.50796
101228.176569
100662.907674
101739.803208
101158.380705
101151.576332
101151.899301
101190.287597
101309.535376
101456.855404
101512.53836
101081.277609
100759.857949
100754.3267
100760.498195
100759.281414
100998.4422
101598.775922
101746.375424
101746.500972
101747.261299
101470.226576
100663.835455
101726.449733
101198.257938
101162.712232
101158.429
101188.317899
101289.362233
101459.44857
101572.331023
101182.890164
100754.914631
100761.162925
100757.373677
100762.539252
101038.725909
101612.72846
101754.728541
101755.486694
101755.226596
101508.967593
100663.006269
101744.203888
101294.92393
101200.713631
101182.100802
101206.916882
101303.067406
101474.882203
101600.334303
101228.048891
100763.07752
100757.304326
100764.05557
100763.659268
101124.71187
101647.716862
101764.01926
101764.129395
101765.009466
101438.621621
100665.294683
101787.422641
101418.921332
101273.783388
101233.103612
101255.588401
101349.187841
101526.198415
101615.824736
101226.683426
100759.758042
100766.354935
100763.488997
100780.456226
101218.246478
101680.790198
101773.546984
101774.204789
101773.829139
101243.508557
100666.18161
101818.648555
101499.551728
101352.825894
101304.198288
101330.731497
101430.055778
101608.666451
101625.694571
101147.658082
100768.985446
100764.55939
100769.925697
100851.735486
101309.532784
101707.495042
101783.997997
101783.967182
101784.697354
100922.665388
100670.023746
101829.553867
101530.027165
101409.611971
101380.343868
101417.217661
101528.25263
101667.154879
101630.980618
100979.52397
100767.906801
100773.583439
100773.675738
100946.823181
101401.494681
101737.228403
101794.967532
101795.580279
101784.518322
100688.530611
100672.226673
101835.128131
101545.402815
101453.397304
101452.276415
101507.55989
101633.780414
101685.09733
101551.395999
100803.431247
100778.7425
100776.500609
100786.594423
101062.532269
101498.686605
101771.01631
101807.337502
101807.297368
101652.348306
100675.732404
100677.112132
101727.547888
101558.761229
101500.500018
101522.736306
101605.729764
101701.592012
101696.820815
101238.772976
100783.26461
100780.319789
100783.939404
100861.493416
101228.005792
101607.847012
101809.031486
101819.735379
101820.44871
101275.104997
100681.483372
100680.707212
101531.20942
101573.904795
101557.702139
101605.095564
101701.619706
101713.411017
101611.731655
100850.311354
100786.003144
100789.269458
100797.087958
101016.14563
101431.748105
101722.458663
101832.233658
101833.176827
101644.978804
100980.648417
100839.213733
100686.438124
101374.001337
101602.040136
101624.804044
101701.154843
101730.463935
101713.071175
101188.529966
100790.236722
100794.633578
100793.672248
100873.361672
101235.709586
101627.303245
101800.200502
101843.594601
101660.259054
100963.679999
101052.746326
101364.663779
101030.568741
101356.534086
101652.026311
101701.823317
101745.135419
101742.198794
101478.343842
100809.276821
100798.754401
100796.628906
100800.904107
101021.095909
101456.855178
101758.799648
101810.93412
101732.718145
100986.634946
100955.649367
101331.564669
101759.127851
101548.778178
101433.88053
101716.740586
101757.974793
101758.238713
101601.555357
100950.69696
100803.159286
100801.911828
100802.746257
100853.281007
101182.326913
101605.555461
101780.322972
101785.561455
101274.882413
100931.296123
100959.364053
101647.21989
101892.191965
101794.739311
101622.951451
101778.695368
101779.447731
101681.583471
101112.741844
100816.797968
100806.248025
100829.208346
100831.583596
100934.377853
101287.763467
101665.592409
101789.834945
101658.064185
100935.15022
100936.177431
101353.596948
101867.867316
101906.341062
101871.247889
101817.664626
101790.622924
101751.718629
101271.777982
100882.426327
100848.788706
100915.287585
100995.605758
100957.014366
100995.272024
101305.164589
101668.999135
101782.440704
101501.393202
100912.509108
101172.819231
101836.079379
101917.371086
101917.389015
101902.253026
101908.234667
101796.333736
101459.562889
100920.991745
100886.296885
100955.782899
101110.542848
101189.457553
101119.022076
101009.53116
101252.101354
101581.501108
101664.733453
101308.624356
100914.619115
101426.003249
101927.49203
101927.486795
101927.357228
101923.161391
101927.246917
101596.191422
101012.582896
100906.265828
100920.420491
101078.265992
101234.769433
101276.324896
101191.118048
101001.968913
101106.946636
101291.517471
101318.032153
101099.90651
100914.845899
100988.277699
101617.953629
101929.063437
101935.215196
101934.923229
101934.890965
)
;

boundaryField
{
    emptyPatch
    {
        type            empty;
    }
    minY
    {
        type            zeroGradient;
    }
    maxY
    {
        type            prghTotalPressure;
        U               U.gas;
        p0              uniform 100000;
        value           nonuniform List<scalar> 
40
(
100642.29033
100622.883782
100588.132105
100604.861537
100734.498294
100969.076133
101168.279609
101290.194083
101366.116504
101429.930311
101498.033898
101578.17995
101666.576194
101742.163257
101784.184562
101803.358112
101807.383345
101807.41425
101807.458326
101807.535166
101601.800677
101017.711052
100908.189776
100921.491979
101079.332012
101236.08472
101277.741356
101192.313811
101002.789221
101108.231858
101293.182285
101319.564722
101100.404288
100914.602988
100989.455375
101620.718727
101929.817066
101936.26229
101936.300772
101936.340386
)
;
    }
    maxX
    {
        type            fixedFluxPressure;
        gradient        uniform 0;
        value           nonuniform List<scalar> 
38
(
101560.706144
101567.930174
101566.564344
101513.292837
101467.574594
101443.366628
101450.542952
101506.063708
101600.566569
101668.314106
101688.744684
101701.412457
101712.820528
101720.692935
101727.151428
101726.497801
101736.865018
101745.802342
101754.116707
101762.814022
101766.093579
101739.803208
101726.449733
101744.203888
101787.422641
101818.648555
101829.553867
101835.128131
101727.547888
101531.20942
101374.001337
101356.534086
101433.88053
101622.951451
101817.664626
101908.234667
101927.246917
101934.890965
)
;
    }
    water_to_heater
    {
        type            fixedFluxPressure;
        gradient        uniform 0;
        value           nonuniform List<scalar> 
59
(
100271.014893
100271.014893
100273.70848
100273.070535
100275.677315
100275.677315
100275.173929
100275.173929
100277.259277
100277.259277
100277.722696
100282.484797
100287.833009
100287.833009
100289.556661
100289.556661
100288.36204
100288.36204
100290.996339
100289.657444
100292.674097
100292.674097
100290.807409
100290.807409
100293.578769
100293.578769
100313.702738
100434.932618
100667.446384
100667.446384
100817.837682
100817.837682
100771.557513
100771.557513
100648.026642
100468.813909
100331.384367
100331.384367
100292.634517
100292.634517
100293.385046
100293.385046
100295.82486
100296.830154
100299.337276
100299.337276
100300.613584
100300.613584
100308.588053
100308.588053
100343.109439
100413.09323
100489.307666
100489.307666
100552.378708
100552.378708
100605.389048
100605.389048
100641.299072
)
;
    }
    procBoundary0to1
    {
        type            processor;
        value           nonuniform List<scalar> 
41
(
100277.049468
100314.697977
100405.659401
100481.457155
100506.87764
100507.285641
100496.671585
100483.684873
100479.347036
100483.686908
100513.91879
100589.051624
100713.362439
100866.58516
101020.3542
101145.733493
101229.023702
101265.366848
101276.660259
101266.103254
100863.205213
100855.228487
101036.939518
101519.671996
101599.89524
101602.831469
101603.87672
101604.677005
101605.3864
101606.056117
101606.677069
101606.921127
101405.692037
100891.54207
100892.837548
101551.930746
101191.662796
101023.913049
100899.795593
100880.402944
100880.402944
)
;
    }
}


// ************************************************************************* //
