/*--------------------------------*- C++ -*----------------------------------*\
| =========                 |                                                 |
| \\      /  F ield         | OpenFOAM: The Open Source CFD Toolbox           |
|  \\    /   O peration     | Version:  2312                                  |
|   \\  /    A nd           | Website:  www.openfoam.com                      |
|    \\/     M anipulation  |                                                 |
\*---------------------------------------------------------------------------*/
FoamFile
{
    version     2.0;
    format      ascii;
    arch        "LSB;label=32;scalar=64";
    class       volScalarField;
    location    "0.045/water";
    object      alphat.gas;
}
// * * * * * * * * * * * * * * * * * * * * * * * * * * * * * * * * * * * * * //

dimensions      [1 -1 -1 0 0 0 0];

internalField   nonuniform List<scalar> 
1504
(
2.66823633547e-06
2.82863293792e-06
2.55075149981e-06
2.10931596164e-06
1.78764717721e-06
1.57012197684e-06
1.33757817275e-06
1.07406501935e-06
8.01057758708e-07
5.41134900648e-07
3.2388601663e-07
1.6529435914e-07
7.86339856517e-08
2.03790305804e-08
3.02029573458e-09
3.1844853352e-10
4.69344677009e-11
2.34392422997e-11
2.90836821821e-11
5.68658802462e-11
2.90009298184e-06
3.06697544238e-06
2.75120678307e-06
2.24624285781e-06
1.85998903714e-06
1.5981925453e-06
1.36343906891e-06
1.12114795039e-06
8.68656232839e-07
6.20634457475e-07
4.04308091279e-07
2.32345340699e-07
1.05181407765e-07
3.53215987646e-08
6.79991660168e-09
6.91843925241e-10
7.3671001488e-11
2.43472196685e-11
2.56310883044e-11
4.72814550554e-11
2.72712268807e-06
2.98164765677e-06
2.7808416717e-06
2.36126679082e-06
1.93648008284e-06
1.57846417836e-06
1.31968152912e-06
1.09101448563e-06
8.660426505e-07
6.49297998466e-07
4.53161370705e-07
2.83352336434e-07
1.44473241236e-07
5.151090849e-08
1.12253308321e-08
1.44828656943e-09
1.30441330726e-10
2.81310787501e-11
2.34405226555e-11
3.94664729866e-11
2.63556644104e-06
2.92074103336e-06
2.80679696079e-06
2.4795785321e-06
2.05504778881e-06
1.61863677194e-06
1.25853653035e-06
1.00332280693e-06
8.06223431038e-07
6.3148784568e-07
4.66155074994e-07
3.08923004131e-07
1.69436762835e-07
6.87845484098e-08
1.7458147276e-08
2.62020139872e-09
2.49925726259e-10
3.77433156936e-11
2.3529522728e-11
3.52471688216e-11
2.55653741549e-06
2.87469295113e-06
2.82901836859e-06
2.59147085475e-06
2.19621193667e-06
1.7132242033e-06
1.26670506662e-06
9.5002338321e-07
7.47823129367e-07
5.96120548857e-07
4.56054162157e-07
3.13213312897e-07
1.77527101854e-07
7.57554678189e-08
2.18267408824e-08
3.67384974967e-09
4.10268747842e-10
5.09364172366e-11
2.49430218309e-11
3.35659415807e-11
2.49370739936e-06
2.83913974498e-06
2.85039126183e-06
2.66923800031e-06
2.30324517044e-06
1.80746702434e-06
1.32341127508e-06
9.58243201364e-07
7.25370013507e-07
5.69987748575e-07
4.40527927444e-07
3.07188010929e-07
1.74818311821e-07
7.4557551744e-08
2.22833547748e-08
4.10008369507e-09
5.25013627594e-10
6.1624212775e-11
2.635139188e-11
3.30908135693e-11
2.39220940416e-06
2.74689694051e-06
2.80231581501e-06
2.67442467655e-06
2.34781462843e-06
1.86685385501e-06
1.37661968662e-06
9.86885886709e-07
7.26817065357e-07
5.5824024146e-07
4.28644257506e-07
2.97876313457e-07
1.6633805846e-07
6.87947495112e-08
2.03760532396e-08
3.9140570045e-09
5.45709407603e-10
6.53180451259e-11
2.69802675986e-11
3.29952171628e-11
2.26888163356e-06
2.60860413151e-06
2.68471839887e-06
2.60147358681e-06
2.31959585321e-06
1.86957926142e-06
1.39283734318e-06
1.00045314883e-06
7.29549643212e-07
5.53173689489e-07
4.20799653481e-07
2.87812038022e-07
1.54810353131e-07
6.08628321642e-08
1.74538878372e-08
3.38070349344e-09
4.93758004544e-10
6.23196967019e-11
2.67629544283e-11
3.29727791555e-11
2.15895140284e-06
2.46318921812e-06
2.52421721356e-06
2.45801951569e-06
2.21147699607e-06
1.80028441605e-06
1.35484189134e-06
9.81816973482e-07
7.19675493403e-07
5.46784841999e-07
4.13869235063e-07
2.76252997692e-07
1.40975874377e-07
5.19896854758e-08
1.42587502492e-08
2.72122441638e-09
4.05416180243e-10
5.53176103259e-11
2.60085815819e-11
3.2974248452e-11
2.06670499384e-06
2.32911465627e-06
2.34360224463e-06
2.26652006419e-06
2.03307556322e-06
1.66255318156e-06
1.26553013105e-06
9.30877837547e-07
6.9470213207e-07
5.35607197673e-07
4.04634351965e-07
2.6105035907e-07
1.24676195284e-07
4.28256117465e-08
1.11702647146e-08
2.06647740762e-09
3.08926178083e-10
4.67626142639e-11
2.50360038489e-11
3.30771462233e-11
2.0048901322e-06
2.20600450115e-06
2.15491346099e-06
2.03602298181e-06
1.81033574907e-06
1.48556509378e-06
1.14471572757e-06
8.61746707996e-07
6.62103636449e-07
5.21239422994e-07
3.9163516916e-07
2.41205397064e-07
1.06747788847e-07
3.41628526484e-08
8.47322831076e-09
1.49969071291e-09
2.23545737067e-10
3.86738478972e-11
2.4077645852e-11
3.33386497723e-11
2.03858682444e-06
2.15453205162e-06
1.98800000389e-06
1.79112217183e-06
1.57045323255e-06
1.29667331651e-06
1.02038388764e-06
7.94594111266e-07
6.32274132023e-07
5.0686306841e-07
3.75160339848e-07
2.18180119555e-07
8.93397205863e-08
2.68666536699e-08
6.3533528978e-09
1.0622505915e-09
1.58047053288e-10
3.2190804362e-11
2.33046977074e-11
3.37912743694e-11
2.09233570988e-06
2.16995186375e-06
1.89852715094e-06
1.59730226304e-06
1.36043511534e-06
1.13237054471e-06
9.18339808196e-07
7.4412249874e-07
6.11238393769e-07
4.94086713417e-07
3.56581301314e-07
1.95166563882e-07
7.46701246638e-08
2.14198047241e-08
4.82991288313e-09
7.54877804877e-10
1.1221278698e-10
2.75439898282e-11
2.27931128801e-11
3.44741608812e-11
2.12646435131e-06
2.17837692815e-06
1.84672892443e-06
1.46840299134e-06
1.20616842969e-06
1.01220255247e-06
8.49232716982e-07
7.14000621233e-07
5.98938980103e-07
4.82542006481e-07
3.37637828563e-07
1.75375605996e-07
6.39486961804e-08
1.77705693212e-08
3.79581083193e-09
5.62856769174e-10
8.18207259951e-11
2.44292318361e-11
2.25399308911e-11
3.54049475245e-11
2.13609286889e-06
2.17302590704e-06
1.81059982069e-06
1.39013491581e-06
1.10828559869e-06
9.3752782774e-07
8.11244867904e-07
7.00550866798e-07
5.92097685691e-07
4.71080731981e-07
3.20200194261e-07
1.60882138976e-07
5.72685701685e-08
1.55207706143e-08
3.09974703745e-09
4.52094619798e-10
6.19770834839e-11
2.23951309376e-11
2.25044747576e-11
3.65775830312e-11
2.14641773452e-06
2.16174408459e-06
1.78214615876e-06
1.34333865557e-06
1.05218336348e-06
8.98015629622e-07
7.96050198231e-07
6.97594994761e-07
5.87344898308e-07
4.59385310775e-07
3.06114900443e-07
1.52262787949e-07
5.39320694456e-08
1.41601831881e-08
2.5961913012e-09
3.67870760941e-10
4.86916209826e-11
2.10545484564e-11
2.26397472125e-11
3.79725254014e-11
2.15001832631e-06
2.1529550648e-06
1.76484943595e-06
1.31713801335e-06
1.02275131035e-06
8.80905149206e-07
7.94221101936e-07
6.99601376661e-07
5.827788855e-07
4.48278961659e-07
2.96236305282e-07
1.48541407886e-07
5.26135363158e-08
1.31453013218e-08
2.16908038876e-09
2.87143851989e-10
3.93024586919e-11
2.01425974877e-11
2.29070603309e-11
3.95664802643e-11
2.15394574979e-06
2.14882927952e-06
1.75712323609e-06
1.3046628902e-06
1.00901582073e-06
8.75894324098e-07
7.98413276265e-07
7.02838278909e-07
5.78123506174e-07
4.3870673341e-07
2.89757163232e-07
1.47270008378e-07
5.15713533316e-08
1.19784433532e-08
1.79793659262e-09
2.11648746646e-10
3.22976927883e-11
1.95072976853e-11
2.32818203326e-11
4.13431182582e-11
2.14753245555e-06
2.14680129808e-06
1.75649339269e-06
1.30182537169e-06
1.00481486789e-06
8.76755554712e-07
8.04087731577e-07
7.05599648287e-07
5.73765597208e-07
4.30615351549e-07
2.84398283973e-07
1.4520352254e-07
4.91373798276e-08
1.03304372529e-08
1.46666322712e-09
1.46719432321e-10
2.69813794709e-11
1.90822884373e-11
2.37567411818e-11
4.33054244613e-11
2.14371796243e-06
2.14921559107e-06
1.76067387223e-06
1.30507687013e-06
1.00648651765e-06
8.80521906483e-07
8.09450574181e-07
7.07293435573e-07
5.69381656986e-07
4.23044450033e-07
2.77681846779e-07
1.39847915426e-07
4.44036254559e-08
8.21596286856e-09
1.08062179937e-09
9.67223871149e-11
2.30972134728e-11
1.88535714934e-11
2.43413700845e-11
4.54796614459e-11
2.14328966532e-06
2.15247232154e-06
1.76525699568e-06
1.30990021926e-06
1.01077010676e-06
8.85636624749e-07
8.13884995597e-07
7.07334729235e-07
5.64326983406e-07
4.14921142903e-07
2.68276663623e-07
1.30420237329e-07
3.763564848e-08
6.155435118e-09
7.0316028417e-10
6.29754450258e-11
2.04940986016e-11
1.88251840712e-11
2.50525315942e-11
4.78979696401e-11
2.15550660416e-06
2.1628699957e-06
1.77462353841e-06
1.31678384996e-06
1.01738545445e-06
8.92428606176e-07
8.17613427289e-07
7.05475706969e-07
5.57873683845e-07
4.05348903866e-07
2.5609865576e-07
1.1779208715e-07
3.00290460272e-08
4.59216457083e-09
4.21310545557e-10
4.29241988282e-11
1.89574910369e-11
1.89910923822e-11
2.58935932822e-11
5.05568186587e-11
2.17252995431e-06
2.1791065842e-06
1.78863429895e-06
1.32754317948e-06
1.02828556453e-06
9.02196760145e-07
8.21380287948e-07
7.02035157969e-07
5.49881926719e-07
3.94424902763e-07
2.42328643003e-07
1.04057696951e-07
2.32331313713e-08
3.25373888731e-09
2.50774643647e-10
3.22294666872e-11
1.82177465305e-11
1.93195352008e-11
2.68327429338e-11
5.33691220259e-11
2.19548571595e-06
2.1985903833e-06
1.80500539667e-06
1.34433969416e-06
1.04651779509e-06
9.16586692749e-07
8.26316487105e-07
6.98258146743e-07
5.41644538141e-07
3.83817369667e-07
2.29469730374e-07
9.19259449689e-08
1.88830359042e-08
2.26378581703e-09
1.63171064828e-10
2.71537617301e-11
1.80200789891e-11
1.97549550299e-11
2.78012103239e-11
5.6151449348e-11
2.21449645212e-06
2.21437456462e-06
1.82307824257e-06
1.37014203969e-06
1.074632762e-06
9.36852160854e-07
8.33722721402e-07
6.96132994592e-07
5.35531895896e-07
3.76236142249e-07
2.2079284411e-07
8.40155364271e-08
1.67290778668e-08
1.71798418917e-09
1.26252019234e-10
2.53761014681e-11
1.81730230363e-11
2.0236644198e-11
2.87149465656e-11
5.86625611138e-11
2.23074320891e-06
2.22507913565e-06
1.84739168373e-06
1.40926867827e-06
1.11334351659e-06
9.62439467686e-07
8.43939452613e-07
6.97317229573e-07
5.33957299544e-07
3.74555016628e-07
2.19428058826e-07
8.24312371175e-08
1.64841211037e-08
1.56803584578e-09
1.2070780149e-10
2.57731987119e-11
1.85555658392e-11
2.07051473223e-11
2.94800276974e-11
6.06287320513e-11
2.25831128859e-06
2.25544356756e-06
1.89064549849e-06
1.46204619185e-06
1.15971095796e-06
9.91043823158e-07
8.56099404024e-07
7.02139199559e-07
5.38149965685e-07
3.80372989744e-07
2.26921526867e-07
8.83541561407e-08
1.86603020582e-08
1.79214331233e-09
1.40970372876e-10
2.80464195313e-11
1.9097468353e-11
2.10890615519e-11
2.99794014676e-11
6.17494982878e-11
2.27255626494e-06
2.27699375185e-06
1.92932735847e-06
1.51223893626e-06
1.20472182704e-06
1.01857495177e-06
8.68675128903e-07
7.09769219998e-07
5.47424329315e-07
3.93007496411e-07
2.42440089111e-07
1.01753344328e-07
2.41473565101e-08
2.49225166503e-09
1.93724983675e-10
3.25617268037e-11
1.97957310598e-11
2.13412781391e-11
3.01369507954e-11
6.18572608898e-11
2.27375257065e-06
2.2930755473e-06
1.96087255042e-06
1.55531368087e-06
1.24474399397e-06
1.04309351933e-06
8.80177018387e-07
7.17991501513e-07
5.58801683817e-07
4.09361087484e-07
2.62710885915e-07
1.20673154923e-07
3.25133913571e-08
3.89575491556e-09
2.98099870495e-10
4.03763080937e-11
2.07821500577e-11
2.1546967178e-11
3.00874776906e-11
6.12821359229e-11
2.26588978432e-06
2.30479475655e-06
1.98658602179e-06
1.59221230665e-06
1.28037434229e-06
1.06458835508e-06
8.89359784627e-07
7.24462194717e-07
5.69179761234e-07
4.25536885975e-07
2.83426745031e-07
1.41312586986e-07
4.10936044342e-08
6.17395512104e-09
4.79405957527e-10
5.27454570524e-11
2.21240865113e-11
2.17284102602e-11
2.98818201551e-11
6.02025293999e-11
2.26297623791e-06
2.31423749034e-06
2.00803278827e-06
1.62383168156e-06
1.31125735024e-06
1.08264999614e-06
8.96135286621e-07
7.29078409662e-07
5.77756207854e-07
4.39544137598e-07
3.01737820499e-07
1.60300310705e-07
5.04542499072e-08
9.13876561526e-09
7.50729843295e-10
7.02875285414e-11
2.37357843177e-11
2.18061570309e-11
2.94386946735e-11
5.8533774155e-11
2.26571078512e-06
2.32477412033e-06
2.02987455015e-06
1.65383262585e-06
1.33913348233e-06
1.09837438179e-06
9.01927761131e-07
7.33170907785e-07
5.85232386205e-07
4.51368212821e-07
3.16962006927e-07
1.76236680681e-07
6.09234583022e-08
1.22678243886e-08
1.0985250734e-09
9.25809828126e-11
2.55513496028e-11
2.18231692068e-11
2.88819586352e-11
5.66411940755e-11
2.2682287384e-06
2.33402611169e-06
2.04999749381e-06
1.68232809026e-06
1.36528117654e-06
1.11308399654e-06
9.07799994022e-07
7.3753490302e-07
5.92269799561e-07
4.61625095808e-07
3.29618801212e-07
1.89307088518e-07
7.0186554826e-08
1.51846253658e-08
1.49376434307e-09
1.18502355188e-10
2.75299344016e-11
2.18588218502e-11
2.8368279122e-11
5.49133727786e-11
2.2701559176e-06
2.34413011179e-06
2.06950299762e-06
1.70925214646e-06
1.39006517227e-06
1.12740479333e-06
9.14031543541e-07
7.4223558243e-07
5.99031553582e-07
4.70748735382e-07
3.403804104e-07
2.00208744403e-07
7.8105675439e-08
1.78388081123e-08
1.91325712074e-09
1.46985972976e-10
2.96294778795e-11
2.19403859657e-11
2.79470894823e-11
5.34620817948e-11
2.26986802834e-06
2.35625401548e-06
2.08917128937e-06
1.73469836155e-06
1.41357953976e-06
1.14150225456e-06
9.20635553409e-07
7.47140980752e-07
6.0542689115e-07
4.78874612736e-07
3.4964917094e-07
2.09492327081e-07
8.4971857191e-08
2.0275177164e-08
2.3451771511e-09
1.77361096331e-10
3.18196359582e-11
2.20659602952e-11
2.76110404801e-11
5.22559154351e-11
2.27897628494e-06
2.36889632092e-06
2.1072843196e-06
1.75774808024e-06
1.43506160663e-06
1.15495299481e-06
9.27385940446e-07
7.52061691701e-07
6.11355110854e-07
4.86076914925e-07
3.57677499676e-07
2.17533312778e-07
9.10355884952e-08
2.25156020683e-08
2.78326707173e-09
2.09170678612e-10
3.40745158879e-11
2.22277760744e-11
2.73462473598e-11
5.12497296445e-11
2.29056680552e-06
2.3847067565e-06
2.12791919108e-06
1.78106461233e-06
1.45559801478e-06
1.16773776898e-06
9.33905940907e-07
7.56646038882e-07
6.16628337128e-07
4.92347680184e-07
3.64613129846e-07
2.24511885168e-07
9.63996238361e-08
2.45452836063e-08
3.21762758793e-09
2.4165317781e-10
3.63381449058e-11
2.24130128586e-11
2.71410006199e-11
5.0413934248e-11
2.29748067352e-06
2.39416458225e-06
2.14421505506e-06
1.80297634647e-06
1.47565608833e-06
1.18015105085e-06
9.39995400547e-07
2.40090043603e-09
3.23252990262e-09
4.69906706528e-09
7.7366427587e-09
1.12072899377e-08
1.71401140211e-08
2.87108675733e-08
3.23692564009e-08
3.27647970219e-08
3.27920888014e-08
3.27907013183e-08
3.2623882014e-08
2.72160141014e-08
4.01126255215e-07
1.52085622718e-06
2.30574278854e-06
2.90667794267e-06
1.52793378679e-10
4.68663807083e-10
1.25732044731e-09
2.32222166414e-09
3.17954792709e-09
4.47133107517e-09
7.10861782036e-09
1.04602363497e-08
1.50108371835e-08
2.67394553034e-08
3.20801820989e-08
3.2757964337e-08
3.28100790999e-08
3.28096468987e-08
3.26277492083e-08
2.76531986151e-08
4.11754563466e-07
1.54047867618e-06
2.33210262226e-06
2.93744927787e-06
1.24919372716e-10
3.9853878506e-10
1.13850548652e-09
2.21844094103e-09
3.09007705241e-09
4.17578660925e-09
6.36285155252e-09
9.59723890055e-09
1.32633118137e-08
2.42311256515e-08
3.15869829299e-08
3.27300896131e-08
3.28277002388e-08
3.28299036425e-08
3.26330881547e-08
2.8071446291e-08
4.21157037201e-07
1.55731032998e-06
2.35725747496e-06
2.96969678266e-06
9.94234696724e-11
3.25859529083e-10
1.00555744077e-09
2.09237666414e-09
3.00079951129e-09
3.94124774191e-09
5.70222924839e-09
8.64147794324e-09
1.19186434416e-08
2.15507330327e-08
3.08424938333e-08
3.26705055618e-08
3.28437121901e-08
3.28512987042e-08
3.26396577416e-08
2.84925406405e-08
4.29846637119e-07
1.57198629467e-06
2.38028633409e-06
3.00174501393e-06
8.23407925183e-11
2.64055754909e-10
8.73140088963e-10
1.96279785199e-09
2.92739392551e-09
3.79925917889e-09
5.23474057241e-09
7.72800176534e-09
1.08451311724e-08
1.91284561508e-08
2.98677611929e-08
3.25723799741e-08
3.28567834185e-08
3.28733805415e-08
3.26467054434e-08
2.89430361946e-08
4.38382356521e-07
1.58535828601e-06
2.40127341478e-06
3.0324334879e-06
7.30078732013e-11
2.2225804321e-10
7.60723052984e-10
1.84724699378e-09
2.87223413194e-09
3.72790004201e-09
4.95911406931e-09
7.00316562912e-09
9.93293920789e-09
1.7202238073e-08
2.8770185566e-08
3.24389401372e-08
3.28657904457e-08
3.28950691274e-08
3.26526327305e-08
2.94496712094e-08
4.4727867638e-07
1.59829247506e-06
2.42042021939e-06
3.06097419489e-06
6.84615092477e-11
1.98353967525e-10
6.79468391122e-10
1.75598400225e-09
2.83838298032e-09
3.70457214363e-09
4.82398892938e-09
6.51443512084e-09
9.17541807373e-09
1.57824629671e-08
2.77042653453e-08
3.22862428297e-08
3.28703574342e-08
3.2914725642e-08
3.2655098058e-08
3.00365044833e-08
4.56944397893e-07
1.61152510096e-06
2.43804290509e-06
3.08697273636e-06
6.64701291749e-11
1.86362497873e-10
6.30167406061e-10
1.69559157776e-09
2.82976147846e-09
3.71710795945e-09
4.78087931183e-09
6.22644283075e-09
8.60786956858e-09
1.4777649921e-08
2.68082009963e-08
3.21390735861e-08
3.2871072763e-08
3.29305346346e-08
3.26514665611e-08
3.07237935575e-08
4.67661553845e-07
1.62559552789e-06
2.45451745168e-06
3.11040142386e-06
6.58887876251e-11
1.8168250139e-10
6.07134175496e-10
1.66868673446e-09
2.8481540631e-09
3.75933394981e-09
4.79872993797e-09
6.0843723813e-09
8.2384454478e-09
1.41050597403e-08
2.61658942447e-08
3.20221387902e-08
3.28690845271e-08
3.29409064851e-08
3.263930967e-08
3.15282336533e-08
4.79598507693e-07
1.64084717e-06
2.47022840804e-06
3.13151380168e-06
6.62147700377e-11
1.8177959484e-10
6.04152282913e-10
1.67543479603e-09
2.89271942301e-09
3.82629949304e-09
4.85803527219e-09
6.04286802771e-09
8.04387345153e-09
1.37220404235e-08
2.58065733864e-08
3.19521312667e-08
3.2865379927e-08
3.29447134641e-08
3.26167386035e-08
3.24636760552e-08
4.92835764924e-07
1.65746145554e-06
2.4855337881e-06
3.1507358833e-06
6.72431417188e-11
1.85210047778e-10
6.15996925605e-10
1.71149582378e-09
2.95996857643e-09
3.91242579698e-09
4.94535954416e-09
6.0694394707e-09
7.98918039404e-09
1.36039753742e-08
2.57255710883e-08
3.19344988956e-08
3.28602835343e-08
3.29413765606e-08
3.25825417953e-08
3.3541832663e-08
5.07392250054e-07
1.67549940503e-06
2.50074354334e-06
3.16856262845e-06
6.90423282892e-11
1.91818469962e-10
6.40084669082e-10
1.77285728705e-09
3.04908733574e-09
4.01556296074e-09
5.04838917868e-09
6.13117123766e-09
8.01803375092e-09
1.36975129625e-08
2.58944916238e-08
3.19645479725e-08
3.28534039592e-08
3.29308636844e-08
3.25361896955e-08
3.47723664893e-08
5.23238858906e-07
1.69492680907e-06
2.51610250763e-06
3.18547449441e-06
7.15545150564e-11
2.01578958331e-10
6.7763825232e-10
1.86008073467e-09
3.15600098713e-09
4.13350667385e-09
5.16781056233e-09
6.22773579609e-09
8.14340145974e-09
1.39990937933e-08
2.62734432664e-08
3.20308093915e-08
3.28439565293e-08
3.29136524883e-08
3.2477756682e-08
3.61629473601e-08
5.40311484447e-07
1.71564257029e-06
2.53178697566e-06
3.20188495545e-06
7.47775084685e-11
2.14159722029e-10
7.26557540348e-10
1.96658595772e-09
3.27541659987e-09
4.26142512442e-09
5.30157404076e-09
6.36239481046e-09
8.36332061069e-09
1.45007423819e-08
2.68147917943e-08
3.21189959284e-08
3.28311765407e-08
3.28906359599e-08
3.24077912763e-08
3.77189122251e-08
5.58515473529e-07
1.737492842e-06
2.54790343702e-06
3.21811068517e-06
7.87369616209e-11
2.29578225194e-10
7.86079169043e-10
2.08804537048e-09
3.40330244295e-09
4.39639948045e-09
5.444743408e-09
6.51860534011e-09
8.64327623702e-09
1.51751151078e-08
2.74667571544e-08
3.22152436116e-08
3.28146382782e-08
3.28629915003e-08
3.23271381291e-08
3.9443629751e-08
5.77740821767e-07
1.76030377942e-06
2.56450565585e-06
3.23437146418e-06
8.34179310865e-11
2.47869390248e-10
8.56054401752e-10
2.22108391298e-09
3.53575845866e-09
4.53642896375e-09
5.59784871721e-09
6.69467971466e-09
8.97713466185e-09
1.6021202853e-08
2.81792312076e-08
3.23080004136e-08
3.2794357469e-08
3.28320074122e-08
3.22367555494e-08
4.13385906406e-08
5.97868783118e-07
1.78389547252e-06
2.58160589751e-06
3.25079788351e-06
8.87746147696e-11
2.68977856776e-10
9.35856202078e-10
2.36183149503e-09
3.66909835474e-09
4.67982934307e-09
5.76376773417e-09
6.89607806738e-09
9.36838646208e-09
1.70447302528e-08
2.89032977587e-08
3.23890920425e-08
3.27707696843e-08
3.27989426797e-08
3.21375514516e-08
4.34042835946e-08
6.18788252341e-07
1.80811125512e-06
2.59919893071e-06
3.26745765394e-06
9.47607282237e-11
2.92847626536e-10
1.02450676419e-09
2.50654069861e-09
3.80014800723e-09
4.82519580071e-09
5.94557711033e-09
7.12676975631e-09
9.81737623363e-09
1.82429057911e-08
2.95954002563e-08
3.24539692266e-08
3.27446013835e-08
3.27649233565e-08
3.20303005203e-08
4.5640052633e-08
6.40393731549e-07
1.83281307018e-06
2.61726651876e-06
3.28437108674e-06
1.01359742962e-10
3.19515954515e-10
1.12095021844e-09
2.652063511e-09
3.92627502256e-09
4.97139985919e-09
6.14685113598e-09
7.38997477641e-09
1.03264829859e-08
1.95999294547e-08
3.02219085548e-08
3.25012560823e-08
3.27167491031e-08
3.27309176724e-08
3.19156217135e-08
4.80443172749e-08
6.62589732286e-07
1.85788979358e-06
2.63579084505e-06
3.30153679355e-06
1.08614068988e-10
3.4917107575e-10
1.22407482128e-09
2.79583614319e-09
4.04539501126e-09
5.11772101445e-09
6.37287774616e-09
7.69178203929e-09
1.09076926815e-08
2.10803033479e-08
3.07604883596e-08
3.25318623401e-08
3.26881692407e-08
3.26977489452e-08
3.17940512635e-08
5.06130151979e-08
6.85272357044e-07
1.88322891944e-06
2.65474343055e-06
3.31893685812e-06
1.16631263802e-10
3.82117919772e-10
1.33242235418e-09
2.93563303007e-09
4.15600075979e-09
5.26393069899e-09
6.63122678724e-09
8.04232460326e-09
1.15820827431e-08
2.26204545996e-08
3.11999468947e-08
3.25481580401e-08
3.26598380144e-08
3.26661505853e-08
3.16661396767e-08
5.33384992186e-08
7.08322200006e-07
1.90871072979e-06
2.67408789496e-06
3.33655306341e-06
1.25531309001e-10
4.18530630023e-10
1.44353896717e-09
3.0691888908e-09
4.25705015924e-09
5.40982032903e-09
6.92997983624e-09
8.45175977476e-09
1.23659261337e-08
2.41293351501e-08
3.15397693404e-08
3.25532940563e-08
3.26327140127e-08
3.26367995637e-08
3.15325872454e-08
5.62069654056e-08
7.31581217398e-07
1.93417696962e-06
2.69376264299e-06
3.3543617426e-06
1.35317404501e-10
4.57949336727e-10
1.55329771184e-09
3.19382539211e-09
4.3476556319e-09
5.55398232476e-09
7.27312466804e-09
8.92210732792e-09
1.32504727811e-08
2.55065423387e-08
3.17886191448e-08
3.2550673796e-08
3.26077072498e-08
3.26103271822e-08
3.13943061761e-08
5.91978263173e-08
7.54855287276e-07
1.95943912818e-06
2.7136877371e-06
3.37234493724e-06
1.45709229705e-10
4.98720337839e-10
1.65581368171e-09
3.30624675608e-09
4.42670648101e-09
5.69247939429e-09
7.65560012876e-09
9.44152444478e-09
1.41925097091e-08
2.66688279463e-08
3.19609295788e-08
3.25434871867e-08
3.25856060128e-08
3.25872758696e-08
3.12524418739e-08
6.2283036976e-08
7.77911417957e-07
1.98427232016e-06
2.73375703493e-06
3.39048171876e-06
1.5607092427e-10
5.37851594729e-10
1.74446594768e-09
3.40268289832e-09
4.49274009687e-09
5.81883516767e-09
8.06237381195e-09
9.98732191466e-09
1.51176554996e-08
2.75678805682e-08
3.20729220373e-08
3.25343846366e-08
3.25670051425e-08
3.25680409091e-08
3.11082591313e-08
6.54299742193e-08
8.00508323486e-07
2.00845310552e-06
2.75385851243e-06
3.40875863919e-06
1.6551482812e-10
5.71579250648e-10
1.81331626265e-09
3.47944361179e-09
4.54439110356e-09
5.92536000831e-09
8.46975273575e-09
1.05302730345e-08
1.59290343857e-08
2.81916346371e-08
3.21394322027e-08
3.25252917622e-08
3.25522355815e-08
3.25528069447e-08
3.09629953265e-08
6.86045824078e-08
8.22418330911e-07
2.0317766552e-06
2.77387692358e-06
3.42715968316e-06
1.73013632079e-10
5.9619313109e-10
1.8584443245e-09
3.53396981945e-09
4.58100089651e-09
6.00339043818e-09
8.84164668092e-09
1.10332093464e-08
1.65308589464e-08
2.85545183955e-08
3.21721810952e-08
3.25173824112e-08
3.25413405457e-08
3.25415214528e-08
3.08176218484e-08
7.17775636873e-08
8.43473003047e-07
2.05410471355e-06
2.79372004825e-06
3.44567513158e-06
1.77478374726e-10
6.08846892372e-10
1.87972426893e-09
3.56572795214e-09
4.60273500831e-09
6.04381700895e-09
9.12990879979e-09
1.14466143985e-08
1.68531799006e-08
2.86834994416e-08
3.21792772116e-08
3.25111527429e-08
3.25340876664e-08
3.2533902487e-08
3.06726663382e-08
7.49287958521e-08
8.63583717973e-07
2.07537741815e-06
2.81332093855e-06
3.46429073813e-06
1.78221799208e-10
6.08601274568e-10
1.87905915227e-09
3.57610427795e-09
4.61120718469e-09
6.04395838074e-09
9.29608745592e-09
1.17192503983e-08
1.68840511391e-08
2.86085085837e-08
3.21656359552e-08
3.25065722054e-08
3.25300279107e-08
3.25294876771e-08
3.05280379449e-08
7.8052275492e-08
8.8276874538e-07
2.0956394776e-06
2.83265713191e-06
3.48299669885e-06
1.76170005086e-10
5.98365144207e-10
1.85746404546e-09
3.5682621262e-09
4.60917576199e-09
6.01181855149e-09
9.36279851638e-09
1.19001563717e-08
1.66851092857e-08
2.83577101173e-08
3.21338805228e-08
3.25032612795e-08
3.25285708868e-08
3.25276993861e-08
3.03830119352e-08
8.11564558587e-08
9.0114045853e-07
2.11501944521e-06
2.85174131666e-06
3.50178004945e-06
1.72216921811e-10
5.82225700202e-10
1.82150060831e-09
3.54670374426e-09
4.59962886716e-09
5.95731921475e-09
9.32239432959e-09
1.19808411201e-08
1.63276672385e-08
2.79593698275e-08
3.20855048135e-08
3.2500678569e-08
3.25290720686e-08
3.25279167464e-08
3.02362745745e-08
8.42634653896e-08
9.18892502348e-07
2.13371821519e-06
2.87062443042e-06
3.52063493091e-06
1.66115444551e-10
5.59956938437e-10
1.77786837262e-09
3.51630964455e-09
4.58607941058e-09
5.87720147357e-09
9.14436464374e-09
1.19116518162e-08
1.58817088524e-08
2.74460934824e-08
3.20219308181e-08
3.24982771886e-08
3.25309015103e-08
3.25295330365e-08
3.00861335426e-08
8.74037727712e-08
9.36253614785e-07
2.15196000236e-06
2.88937364649e-06
3.5395567599e-06
1.59123717146e-10
5.34509960925e-10
1.72978012124e-09
3.4817640341e-09
4.57193450397e-09
5.78888244682e-09
8.88974410852e-09
1.17263135013e-08
1.54084315688e-08
2.68552814048e-08
3.1945237138e-08
3.2495619751e-08
3.25334984493e-08
3.25319991827e-08
2.99307184206e-08
9.0611957525e-08
9.53459578533e-07
2.16996959488e-06
2.90806668695e-06
3.55854929887e-06
1.52645736207e-10
5.09903944685e-10
1.68099929718e-09
3.44703468947e-09
4.55990914489e-09
5.71014126646e-09
8.62602604589e-09
1.14832458744e-08
1.49445422705e-08
2.62261208452e-08
3.18583484404e-08
3.24924276777e-08
3.25363976421e-08
3.25348483094e-08
2.97682449547e-08
9.39207140195e-08
9.70711930656e-07
2.18793193658e-06
2.92677143528e-06
3.57761798024e-06
1.47150470649e-10
4.88024537588e-10
1.63469778194e-09
3.41493629067e-09
4.55189478184e-09
5.64658909437e-09
8.38009958506e-09
1.12170722358e-08
1.45076534775e-08
2.55948098873e-08
3.17647776847e-08
3.24885855612e-08
3.25392467694e-08
3.25377120673e-08
2.95971648403e-08
9.73586578667e-08
9.88170605852e-07
2.20599060887e-06
2.94554491197e-06
3.59677238673e-06
1.42557318706e-10
4.69153683059e-10
1.59254866432e-09
3.38700464365e-09
4.54870877121e-09
5.59678858667e-09
8.15802916812e-09
1.09470800957e-08
1.41070748125e-08
2.49905115963e-08
3.16681013966e-08
3.24840971688e-08
3.25417963801e-08
3.25403176466e-08
2.94163005195e-08
1.00947721962e-07
1.00593944077e-06
2.22423437386e-06
2.96442567463e-06
3.61602146922e-06
1.38706994316e-10
4.5303454849e-10
1.55496525907e-09
3.36367657791e-09
4.55010536046e-09
5.55852340695e-09
7.96241717563e-09
1.06894412023e-08
1.37515767274e-08
2.4433517045e-08
3.15714920131e-08
3.24790411194e-08
3.25438879415e-08
3.25424799868e-08
2.92248484541e-08
1.04704309733e-07
1.02408119043e-06
2.24271313052e-06
2.98343425315e-06
3.63536744283e-06
1.35492874505e-10
4.39365204066e-10
1.52183041305e-09
3.34478673827e-09
4.55540325707e-09
5.53398786958e-09
7.79569618541e-09
1.0457393333e-08
1.34494135979e-08
2.39348042741e-08
3.14774187455e-08
3.24735259723e-08
3.25454296704e-08
3.25440824878e-08
2.90224247605e-08
1.08637445379e-07
1.04259807682e-06
2.26134353818e-06
3.00224195768e-06
3.65407004092e-06
)
;

boundaryField
{
    emptyPatch
    {
        type            empty;
    }
    minY
    {
        type            zeroGradient;
    }
    maxY
    {
        type            calculated;
        value           nonuniform List<scalar> 0();
    }
    maxX
    {
        type            compressible::alphatPhaseChangeJayatillekeWallFunction;
        Prt             0.85;
        Cmu             0.09;
        kappa           0.41;
        E               9.8;
        dmdt            uniform 0;
        value           uniform 0;
    }
    water_to_heater
    {
        type            compressible::alphatWallBoilingWallFunction;
        phaseType       vapor;
        relax           constant 1;
        partitioningModel
        {
            type            Lavieville;
            alphaCrit       0.2;
        }
        otherPhase      liquid;
        dmdt            uniform 0;
        dDep            uniform 1e-05;
        qQuenching      uniform 0;
        alphatConv      uniform 0;
        value           nonuniform List<scalar> 
60
(
9.06285658083e-09
9.06285658083e-09
4.38566934908e-08
2.65509817103e-07
2.59574868469e-07
2.59574868469e-07
1.21620322978e-07
1.21620322978e-07
4.87329207741e-08
4.87329207741e-08
3.54122857269e-08
3.53125212035e-08
3.62136626444e-08
3.62136626444e-08
4.30742248159e-08
4.30742248159e-08
8.43484282728e-08
8.43484282728e-08
1.35288357511e-07
1.28463727885e-07
1.38230868864e-07
1.38230868864e-07
1.28463727885e-07
1.28463727885e-07
1.38460992618e-07
1.38460992618e-07
1.27829621578e-07
1.38105141506e-07
1.27829621578e-07
1.27829621578e-07
1.3710844219e-07
1.3710844219e-07
1.27226161192e-07
1.27226161192e-07
1.3222062622e-07
1.26858582162e-07
1.28914396205e-07
1.28914396205e-07
1.26623559784e-07
1.26623559784e-07
1.17751817133e-07
1.17751817133e-07
9.2033388206e-08
8.82150719468e-08
8.77383365126e-08
8.77383365126e-08
8.80277899546e-08
8.80277899546e-08
8.71637686779e-08
8.71637686779e-08
8.7610979608e-08
8.65745636809e-08
8.72273998158e-08
8.72273998158e-08
8.61949380326e-08
8.61949380326e-08
8.63205295585e-08
8.63205295585e-08
8.55456760167e-08
8.57055470399e-08
)
;
    }
    procBoundary3to1
    {