/*--------------------------------*- C++ -*----------------------------------*\
| =========                 |                                                 |
| \\      /  F ield         | OpenFOAM: The Open Source CFD Toolbox           |
|  \\    /   O peration     | Version:  2312                                  |
|   \\  /    A nd           | Website:  www.openfoam.com                      |
|    \\/     M anipulation  |                                                 |
\*---------------------------------------------------------------------------*/
FoamFile
{
    version     2.0;
    format      ascii;
    arch        "LSB;label=32;scalar=64";
    class       volScalarField;
    location    "0.26/water";
    object      k.gas;
}
// * * * * * * * * * * * * * * * * * * * * * * * * * * * * * * * * * * * * * //

dimensions      [0 2 -2 0 0 0 0];

internalField   nonuniform List<scalar> 
1497
(
0.0555537062671
0.0384409164581
0.026710887941
0.0185202782437
0.0127998916681
0.00879256097015
0.00592091592351
0.00377796469527
0.00216813692516
0.00109014927008
0.000478170994309
0.000189094347181
0.000100338493445
2.60560538149
1.42218469925
0.76412018468
0.40860974231
0.227050013874
0.13703264977
0.090192112068
0.0618831973525
0.0427054820042
0.0295227079836
0.0204057198115
0.014053554935
0.00961806549661
0.00647993292812
0.00414429575923
0.00236644081896
0.00117752396019
0.000517923692248
0.000200537955882
0.00010029745781
3.26819734758
1.6526248852
0.823537296969
0.42558540383
0.235106075801
0.145394730428
0.0992102892762
0.0698991355691
0.0484671423234
0.0334810460252
0.0230848142049
0.0158526710402
0.0108019615946
0.00725846751472
0.00465014062079
0.00263031392458
0.00126568346022
0.00054334586938
0.000207227186441
0.000100075369246
3.58533453778
1.6059161511
0.77425446892
0.408618772513
0.23757425866
0.154143854384
0.109457953376
0.0796440794514
0.0556529083039
0.0378776509074
0.0259078904778
0.0177426211264
0.0121176413568
0.00819603198599
0.00530746992905
0.00302076521547
0.00142353098981
0.000589049052716
0.000221977270795
0.000102147294859
3.52259153251
1.51339624343
0.726371111983
0.389647064392
0.234534877907
0.157903151506
0.115530263553
0.0865866877076
0.0620747462632
0.0417238818222
0.0282789260714
0.0193330660512
0.0132717015862
0.00910464852884
0.00601608409684
0.00351350365533
0.00168499411208
0.000690117790304
0.00025738653629
0.000110900010976
3.36194339254
1.43356663782
0.682757875534
0.367999558129
0.225488573985
0.154935745679
0.115039212069
0.0871305582061
0.0631259147686
0.0429464302637
0.0292939169133
0.020155724368
0.0139893130465
0.00976537054986
0.00660328539748
0.00397164532523
0.00196554376906
0.000816163775757
0.000303922823254
0.000124283478499
3.29383946339
1.37004316258
0.638612748279
0.340889288327
0.209701415169
0.145271825705
0.108181118243
0.0816218030714
0.0588590096437
0.0410908007128
0.0285595219054
0.0199585860297
0.0141064825471
0.0100568785105
0.00694734685534
0.00426704451174
0.00216341157358
0.000917413490082
0.000345879548489
0.000138470345123
3.36182443843
1.32887965806
0.599281665519
0.313029661178
0.191578449335
0.132130127334
0.0971830454363
0.0723887327058
0.0526096197454
0.0375236429879
0.0266259721889
0.0190076735351
0.013768359956
0.0100544997761
0.00706309673325
0.00437165217413
0.00224042912418
0.000966772116418
0.000372022130299
0.000150046794087
3.53934620392
1.33434503995
0.581180230813
0.296971579058
0.180059117397
0.121972365127
0.0879913505058
0.0644986772218
0.0468626099709
0.0337688877534
0.0243601510331
0.0178019634875
0.0132633284249
0.00990880216417
0.00700917402769
0.00430780956926
0.00220776212927
0.000965947061934
0.000382267179734
0.000159420442449
3.70748677929
1.4103778115
0.613390414976
0.309094920554
0.182239854015
0.12039039529
0.0841386398527
0.0600329369066
0.0429802417346
0.0308803838258
0.0225025180183
0.0168145096048
0.0128530169497
0.00973628093623
0.00682826742454
0.00413018235534
0.00211186783863
0.000939338880629
0.000387014773986
0.000170487132148
3.67373327235
1.47554904883
0.667464806357
0.34035454982
0.19628716654
0.125452119072
0.0849963175683
0.0589426591377
0.0412475605191
0.0292915405077
0.0214369878864
0.016286939701
0.0126328151615
0.00953729585367
0.00656457654799
0.00392193597048
0.00201515461106
0.000920248063341
0.000400158970019
0.000188256506889
3.52352471205
1.51228332169
0.706751289694
0.363312851649
0.208614514721
0.131688455291
0.0877511608598
0.0597058357345
0.0410327213191
0.0288381940416
0.0211269240772
0.0161460636738
0.0124842097353
0.00928608167589
0.00630756382063
0.00376780412114
0.00197339546723
0.000937321899719
0.00043265029656
0.00021576084274
3.32192052824
1.44383087822
0.688376752867
0.362253909392
0.211671138357
0.134492773792
0.0894463316605
0.0604784584099
0.0413206833867
0.0289614047497
0.021169913009
0.0160704732743
0.0122954219107
0.00905788153535
0.00613990964
0.00372448920809
0.00201951333358
0.00100834859686
0.000492239923908
0.000254685522416
3.13886720346
1.3463686022
0.647005561863
0.347144067621
0.206761136481
0.132828572961
0.0887046779614
0.0601426942181
0.0412842312711
0.0289736676872
0.0210799706736
0.0159314659572
0.0121381623954
0.0089197358187
0.00609785953494
0.00380555175569
0.00215768095649
0.00112898173728
0.000572505137975
0.000305288433162
2.95652394853
1.24883224187
0.600501877067
0.325427983738
0.196183752189
0.127089575589
0.0853577922128
0.0583558377967
0.0404258513721
0.0284878013787
0.0208396465091
0.0158198390026
0.0120548736163
0.00887829321196
0.00616588115693
0.00398263215785
0.00235703322003
0.00127605565466
0.000669703853671
0.000367361791727
2.79932680638
1.15690466713
0.553893290136
0.300716883936
0.182273648067
0.118674015154
0.0802093670074
0.0554391483597
0.0388258427228
0.0277290803305
0.020605857034
0.0157609102066
0.0120200060599
0.00889245745312
0.0062877004963
0.00418892281695
0.00256407203559
0.00144689261557
0.000782334627096
0.000440345034798
2.67658125767
1.07701541748
0.511085471972
0.27710561748
0.168426692655
0.109880776942
0.0746569705448
0.0521645780276
0.0370520597115
0.0270540195978
0.0204569868359
0.0157205957611
0.0119792038582
0.0088927205091
0.00637108765929
0.00434773571437
0.00277753861592
0.0016275256901
0.0009057939664
0.000522831519388
2.56945549226
1.01624559238
0.481165981688
0.261870621768
0.159059026105
0.103195082672
0.070156318774
0.0494764249178
0.0358043384142
0.0267412548311
0.020432803337
0.0156684144957
0.0118688200149
0.00879023996744
0.00637396549542
0.00449405461196
0.00297438329656
0.00180135731059
0.00102995291702
0.000611262067794
2.37887460061
0.9749195718
0.474646825918
0.261490517687
0.157198661157
0.100489090982
0.0681173720304
0.0485899118648
0.0359054723126
0.0271444383034
0.0206548748347
0.0156001836805
0.0116317745172
0.00861619542025
0.00637605204917
0.00460668266894
0.00312541759874
0.00193510477179
0.00113004388334
0.000691768669463
2.19015352219
1.00110211664
0.511193491055
0.28070915928
0.165882175928
0.104744121638
0.0710830814716
0.0511858932982
0.0379726108409
0.0283377924294
0.02098819045
0.0154151335194
0.0113697588474
0.00850603898967
0.00638632274939
0.00468556886328
0.00322468900562
0.00201529204368
0.00119128937734
0.000750824488148
2.3377253868
1.15698283739
0.597144519869
0.322792331491
0.185725136539
0.115790168845
0.0789104435269
0.0570972611002
0.0417973667601
0.0301313571651
0.0215056531501
0.0154693102661
0.0113618816942
0.00852118484582
0.00643718493401
0.0047606927799
0.00329594219862
0.00205587916377
0.00121346308872
0.000780937695439
2.84880713775
1.42495457326
0.70928159669
0.362214106496
0.201739177204
0.125021196202
0.0865513557082
0.0636846262287
0.0465043900638
0.0327330822535
0.0227207669907
0.0160530644455
0.0116641535495
0.00868860709861
0.00656257504982
0.00487709161006
0.00338572124867
0.00209043980713
0.00121410325683
0.000788858125307
3.49074030825
1.55973157007
0.729334518391
0.369850696384
0.204777580809
0.127804240077
0.091411786187
0.0695308146268
0.0517368752451
0.0361247202499
0.0243768043134
0.0168856068935
0.0121139192799
0.00898659479675
0.00679276799229
0.00507893666828
0.00354003332374
0.00215854308967
0.00122497258939
0.00079655981993
3.72622234642
1.49576508603
0.680637531492
0.343395692051
0.194402370539
0.1268765948
0.0950368738917
0.0751424898815
0.0574426159828
0.0399944521884
0.0258376721506
0.0175500195316
0.0125065740215
0.00930172850232
0.00710721595772
0.00537740975292
0.00377736769485
0.00228500011923
0.00127529619481
0.00082923188709
3.69120140733
1.45986232381
0.637688333161
0.315058720244
0.182297304788
0.124711528274
0.0971582733131
0.0789041602149
0.0615531373836
0.0431031904304
0.0266117378078
0.0178573642194
0.0127562099502
0.00958192600396
0.0074469895578
0.00573554554193
0.00407423977884
0.00246423674298
0.00137550696409
0.00090108404291
3.72285635084
1.43267884794
0.600989473812
0.291172176291
0.170893254656
0.121080194294
0.0965855320165
0.079013480563
0.0614825009534
0.042150569565
0.0261050527047
0.0177287108515
0.0128485344713
0.00982074620039
0.00778496111981
0.00610972534725
0.00438747901609
0.0026719127956
0.00151961973849
0.00101299676558
3.8593301521
1.4339664153
0.57615410078
0.272509438024
0.16143630444
0.116983528758
0.0938551641274
0.0757211899284
0.0565533003213
0.0373028999125
0.0245228462037
0.0172299780556
0.0128191103447
0.0100407515123
0.00813006116586
0.00648204307926
0.00468663507697
0.00289004040813
0.00169915862778
0.00115914875871
4.09930781621
1.47860297215
0.570252823695
0.263062708644
0.156374587706
0.114097189866
0.0900985307742
0.0684629362667
0.0474452078959
0.0322678534197
0.0225224628266
0.0164968423685
0.012714219587
0.0102694538238
0.00849743126105
0.00684129849212
0.00495295943114
0.0031151519569
0.00191075061192
0.00133305106982
4.42725121916
1.56529386791
0.587459517416
0.265567552227
0.156843630394
0.112757925213
0.0844561293165
0.0576568545022
0.0397326384739
0.028282516138
0.0207213233301
0.0158292505296
0.0126844801619
0.0105817743782
0.0089152366144
0.00717439854246
0.00517064188447
0.00333264437589
0.0021457188389
0.00152783910063
4.79351664698
1.67640264059
0.621020164533
0.276863431335
0.160497351722
0.110927274532
0.0740321564313
0.0490637479608
0.0347141724243
0.0255436444573
0.019440394454
0.0154523792581
0.0128649787114
0.0110336282527
0.00937342484328
0.00746191971568
0.00536070911706
0.00355284205736
0.00239299724311
0.0017310026519
5.19295515674
1.7866327388
0.658542221314
0.291138407235
0.164257684753
0.104054565639
0.0652436163083
0.0440982365284
0.0317623536336
0.0238984026691
0.0187602531857
0.0154677409482
0.0133075262919
0.0116075278018
0.00980413526396
0.00770374780291
0.00554908333701
0.00379068405485
0.00265341299917
0.00193590749765
5.67790208524
1.90422290052
0.701771059367
0.310700990974
0.167979471612
0.0986345100214
0.0623770445513
0.0422636036142
0.0304483158358
0.0231772008669
0.018672296992
0.0158862764126
0.0139655603779
0.0121882696821
0.010175533689
0.00793141442669
0.0057597163395
0.00405376147252
0.00292065095012
0.00212581654953
6.30814677135
2.08686872186
0.789441472542
0.353897236069
0.183289550393
0.107186670693
0.0665518408234
0.0436657860813
0.0306720870948
0.0233145412608
0.0191428880777
0.0166170849644
0.0146716135452
0.0127155035986
0.010524471401
0.00817514122621
0.00600509182498
0.00433551198264
0.00317433230209
0.00230296312083
6.88512530124
2.36671105042
0.95203626743
0.438513127069
0.228597436873
0.130370240022
0.0779687393341
0.0485109771149
0.0325295677177
0.0243256149018
0.0200640362533
0.017450869702
0.0153507556184
0.0132299724368
0.0108858013783
0.00845127940695
0.00628126823623
0.00461619710203
0.00339783472746
0.00247630423619
6.87196612059
2.64950761668
1.15262176216
0.552966356126
0.287401748322
0.161057650437
0.0938416182046
0.0560075043772
0.0358738675749
0.0260609352986
0.0211851124689
0.018298560628
0.0160430507616
0.0137679600204
0.0112775807556
0.00875843932532
0.00656249857293
0.00485577983623
0.00359087852279
0.00264603396257
6.21106492336
2.68139092755
1.27762303323
0.635073887449
0.334221190804
0.187382024404
0.108605881925
0.0638682584542
0.0397847959983
0.0279915348418
0.0223220018483
0.0191785787707
0.0167776836278
0.0143453261119
0.0116971844952
0.00907324156751
0.00679676133193
0.00501473263205
0.00375668576329
0.00280615523384
5.39613865191
2.57434136687
1.28140755658
0.657418347188
0.353504938958
0.20053060544
0.117085496989
0.0691651975718
0.0427210680645
0.0295543321656
0.023402279337
0.0200933336938
0.0175592069663
0.0149518208759
0.0121125518918
0.00930889443227
0.006886631185
0.00510251790905
0.0039041615194
0.00295416483401
4.58845520335
2.28197913159
1.17128490802
0.619032079377
0.341580519945
0.1970461215
0.116568089653
0.0698621159696
0.0436539115298
0.0305068397527
0.0243700591039
0.0210170695231
0.0183550149329
0.0155307313484
0.0123896026717
0.00927080652263
0.00678945181406
0.00515845270724
0.00404419389831
0.00308623215634
0.000115300695223
0.000151676923507
0.000271193172354
0.000607190103878
0.00121734486484
0.0019895174223
0.002652611868
0.00286197643702
0.00225118464856
0.00133330174292
0.000694147420174
0.000504563652827
0.000534974267763
0.000814419020772
0.0024469535996
0.00534719681485
0.0119670104373
0.0209170377277
0.0316780905639
0.0509329616605
0.00010380596644
0.000146676604388
0.000266773836293
0.000593234443548
0.00113648954993
0.00173350308494
0.00213776238775
0.00209252845152
0.0013732081075
0.000614637375484
0.00021175539765
0.000104815111052
0.000114055803642
0.000332687402313
0.00200951783367
0.00288190539359
0.00343182393489
0.0206323200714
0.0353015156686
0.0608454195697
8.83491337417e-05
0.000130293028479
0.000221204959114
0.000476281648332
0.000898051575178
0.00133052616013
0.00155280793982
0.00138470639948
0.000816897121859
0.000375773369331
0.000170177639332
9.93234304121e-05
8.35272497682e-05
0.000139993833556
0.00127142076917
0.00298903527426
0.00472362917388
0.00421579481739
0.0372613274526
0.0684080192195
8.36542474302e-05
0.000113946262333
0.000175647583918
0.000345208627855
0.000630416157917
0.00090608817624
0.00101084589172
0.000856370078422
0.00053672182864
0.000316111311095
0.000202090667042
0.000141200822307
0.000104389759112
0.000259116299673
0.001182067282
0.00358822817471
0.00677267780927
0.00340764602284
0.0374105762085
0.0731555344603
8.22606678325e-05
9.919324869e-05
0.000143632109785
0.000242695668407
0.000409703142278
0.00056574869138
0.000609508087956
0.000517175724137
0.00037428892637
0.000277453633753
0.000230095856481
0.000193450121961
0.000212529728732
0.000745379680686
0.00207650154991
0.00516995560435
0.00914850172497
0.00280184754823
0.0194283480564
0.0731151378212
8.35956323741e-05
8.90658957158e-05
0.000124975300666
0.000179833559905
0.000268174875153
0.000349387833531
0.000371650079909
0.000337789206485
0.000294154197426
0.000263280571676
0.000242777233426
0.000259068489997
0.000383524631174
0.00102210602204
0.00350841201098
0.00762761230812
0.0103910489831
0.00279590279375
0.00769003914685
0.0691248972878
8.69046324596e-05
8.60921051637e-05
0.000116510121922
0.000149504322237
0.000197237542808
0.000243371113866
0.000266873140777
0.000272724781091
0.000273582830511
0.000266239751455
0.000265505497555
0.000305224816646
0.000500272085615
0.00193812257017
0.00526293557284
0.00960361538486
0.0123673632223
0.00306582399227
0.0107124917521
0.0640632300263
9.13268252677e-05
8.73097052702e-05
0.000115166075741
0.000140417546563
0.000173257438643
0.000209829936232
0.000242959575553
0.0002701253899
0.000283788392516
0.000276803296402
0.000283235781437
0.000341821878657
0.000795425053056
0.00315274682383
0.00737625445966
0.0118427160687
0.0143992705747
0.0033329648375
0.0165080243026
0.0596043421377
9.6755351402e-05
9.12389253001e-05
0.000118821655304
0.000144195519616
0.000175995611585
0.000215894567559
0.000259685652221
0.000294531304328
0.000301943148882
0.000285432636322
0.000293646099845
0.000411662409155
0.0014001178888
0.00477265201125
0.00969914315242
0.014070343483
0.0160791566387
0.00352940108522
0.0172748857614
0.0557250617744
0.000104434502184
9.74182060669e-05
0.000126011697064
0.000155816087518
0.000194048718544
0.000243282161436
0.000295435618761
0.000326062318329
0.000315168220791
0.000284389864483
0.000313795142449
0.000562324065692
0.00234846325529
0.00700133636467
0.0124196383552
0.0162268880895
0.0166273928997
0.00355229863645
0.0162524045044
0.0521433202957
0.000115986024675
0.000106414538803
0.000135841266731
0.000172793767377
0.000222200615754
0.000283486503837
0.00033834732061
0.000352756034174
0.000316189881362
0.000271995260313
0.00037247369952
0.000857038518797
0.00388145924411
0.0101492556009
0.0154028631618
0.0172717878159
0.0142470422585
0.00339704978713
0.0152659450051
0.0487899506403
0.000133241427564
0.000118632910004
0.00014875182617
0.000194641374393
0.000258207453412
0.000331426526917
0.000379898766939
0.000366937613018
0.000303043628349
0.000259089579353
0.000504192934342
0.00145877358449
0.00650247627589
0.0137546341739
0.0179042426227
0.0161291546117
0.0101529526228
0.00315110390305
0.0154642227485
0.0457342046515
0.000158169471499
0.000135934386407
0.000163206925907
0.000222961551931
0.000301717753133
0.000382054574124
0.000411203422098
0.000362232758723
0.000274320445126
0.000271074987019
0.000745941183025
0.00277035679902
0.00965289330752
0.0170699423676
0.0198817405025
0.0136033453074
0.00711743243852
0.00294214709966
0.0162424996396
0.0430371425672
0.000192393744254
0.000161272890635
0.000183403386036
0.000259533074628
0.000350353778752
0.00042510524694
0.000419169589366
0.00032988058257
0.00023332752915
0.000350707171306
0.00114659380761
0.00502251195122
0.0131078726961
0.0199326945842
0.0209541139624
0.0109400668113
0.00543081566372
0.00278182119719
0.0162551820036
0.0406014207218
0.000237550644454
0.000201032918157
0.00021861899235
0.000291656795004
0.000394291294094
0.000442648883604
0.000389393832662
0.000271330583209
0.000210553581791
0.000548831145369
0.00185603507263
0.00837382814802
0.0168403338801
0.0221321868043
0.0200093470236
0.00867533649116
0.00447874318777
0.0026389625361
0.0158850596904
0.0383347238312
0.000293212909268
0.0002559643965
0.000276460678749
0.000332824973184
0.00041693251309
0.000415854190045
0.000321110352636
0.000209138425942
0.000253131121908
0.000848862915754
0.00332660262665
0.0120028601117
0.0197684790368
0.0231417915232
0.0171226174119
0.00693199025699
0.0038661496191
0.00249729540383
0.0161374161595
0.0362634414718
0.000358857586668
0.000321166705437
0.000342311019693
0.000368655760484
0.000391938779574
0.000348000997517
0.000239175482896
0.000180197383569
0.000391831831763
0.00117376173266
0.00561566821876
0.0147293034978
0.0213718816143
0.0228727454851
0.0136435384075
0.00569458468172
0.00344360063743
0.00236921846234
0.0164897885478
0.0343760367334
0.000433163548219
0.000392442828938
0.000402436806852
0.000390552691866
0.000340269205898
0.000259827939034
0.000180499813191
0.000215938838332
0.000579437935054
0.00150490178758
0.00845603945885
0.0168288229068
0.0221955294682
0.0214360532769
0.0103715739781
0.00483377275313
0.00315315579154
0.00226006174948
0.0163972984736
0.0326139670396
0.000506430912648
0.000459346772313
0.00044688922618
0.000393242101603
0.00028618997267
0.000183734144825
0.0001562546712
0.00028499949989
0.000730520433246
0.00193339126894
0.0112416854656
0.018532448044
0.0224179875273
0.0187157526281
0.00780161584745
0.00420976203797
0.00294015095242
0.00215995064554
0.0161343644132
0.0309641490037
0.000566543601765
0.000510259327036
0.000468017147308
0.00037265044079
0.000237455611862
0.000140172919132
0.000156722341252
0.000348905816481
0.000842184404248
0.00242738666447
0.0134562945189
0.0195765941009
0.021832012819
0.0151596625286
0.00614479672941
0.00375116618057
0.00274439432635
0.00206575025578
0.0159419457952
0.029460728154
0.000604947223752
0.000538855648676
0.000465652503948
0.000335355313899
0.000190385147663
0.00011489307348
0.000165473422428
0.000394630179757
0.000942529373746
0.00290275100973
0.0150334188385
0.019944318998
0.0201097027104
0.0115676949886
0.00513715945946
0.00342043664093
0.0025614728011
0.00207258813767
0.0156268760033
0.0280928894388
0.000624150203143
0.000548786830146
0.000446758463372
0.000291358330864
0.000149970882543
0.000100546756034
0.000171713573789
0.0004229126021
0.00103912578492
0.00331838330657
0.0161031441974
0.0197644442564
0.0171765842674
0.00850696049401
0.00443796472118
0.00314224727555
0.00239187281814
0.0022515033005
0.0152733870423
0.0268620353015
0.000638795408242
0.000550915137567
0.00042005505744
0.000247195071271
0.000121357440638
9.16341279725e-05
0.000169679829116
0.000433247453176
0.00113726653113
0.00371672739036
0.0167224920378
0.018852555646
0.0137584040798
0.00640161575617
0.00391519854303
0.00287997709961
0.00222440975081
0.00236638144051
0.015033168166
0.025824870166
0.000666801612713
0.000556436714877
0.000392337889175
0.000206419028221
0.000103279102965
8.29969890005e-05
0.00016223380023
0.000438165337445
0.00127008782037
0.004244458554
0.0169082997242
0.016808334985
0.010604816736
0.00518122165649
0.00351439371759
0.00263851261867
0.00205427409083
0.00229889478151
0.0148450045901
0.0250289036453
0.000718769342707
0.00057088802438
0.000367251234199
0.000175792257459
9.06050338975e-05
7.60582825816e-05
0.000155373296389
0.000451665525249
0.00145705385424
0.00495731086493
0.0166441946867
0.01397760702
0.0080268610937
0.00443676927645
0.00315308808679
0.00240402394039
0.00188226107624
0.00224369042852
0.0147195194228
0.0245219637212
0.000795181336369
0.000593982476257
0.000345481306032
0.000157740662628
7.69529765337e-05
7.13392366165e-05
0.000151668120831
0.000488847449126
0.00169734351482
0.00582125341591
0.0155487675309
0.011204304833
0.00629091680951
0.00393944948704
0.00284877683629
0.00217930864096
0.00172642522539
0.00238234960321
0.0146829372264
0.0243423172854
0.000890746083298
0.000623244602316
0.000332916492245
0.000144986973029
6.76061340694e-05
6.59916369756e-05
0.000143813353336
0.000531822394646
0.00192528044065
0.00668895676191
0.0135631539785
0.00918260764066
0.00540921663604
0.00359646480846
0.00259058623818
0.0019689337575
0.00186630389007
0.003000154477
0.0147856004598
0.0245645471681
0.000999176606968
0.000657166532821
0.000332770956335
0.000131201544381
6.27621449661e-05
5.93787444069e-05
0.000118843647367
0.000541400702153
0.00202262260555
0.007292609103
0.0116124861241
0.00827230205176
0.00508338853536
0.0033688770256
0.00238817555106
0.00178783601962
0.00197763538057
0.00517420411695
0.0150514946293
0.0253098395013
0.00111574116948
0.000700447955753
0.000336082739442
0.000122784026264
6.23273506509e-05
5.45759146005e-05
8.39298888707e-05
0.000493609812987
0.00197466768395
0.00746737274044
0.0104633899539
0.00817235686114
0.00512437432172
0.00339634629494
0.00233530169178
0.00192285790663
0.0020294798061
0.00981396560353
0.0154727398643
0.0265832993291
0.0012340554404
0.000743903381864
0.000341189505498
0.000122629941185
6.50913060548e-05
5.31116915194e-05
6.31283083847e-05
0.000360319975801
0.00178180482915
0.0071611121181
0.0100552645927
0.00850385331934
0.00553947605119
0.00368015721181
0.00249612423518
0.00205487543239
0.00239276723678
0.0118462521616
0.0159570817339
0.0282742251228
0.00134230610942
0.000780292407161
0.000350599535083
0.000128905397557
7.03523888557e-05
5.37526745194e-05
5.87346783932e-05
0.000243360488993
0.00140016216853
0.00630303708904
0.00999976693284
0.00921504448573
0.00642282591375
0.00438996789877
0.00294003171251
0.00202129524277
0.00235398176863
0.0120856913099
0.016405040646
0.0301500048425
0.00144428501786
0.000820206676634
0.000364486275129
0.000137449771537
7.62341819635e-05
5.52758113112e-05
5.87907827841e-05
0.000182831649559
0.000960466180704
0.00516254712915
0.00941397891887
0.00965820656648
0.00766585243172
0.0054003612165
0.00370926917775
0.00244075340618
0.00230589776534
0.00828304614462
0.0167467467695
0.0319163636338
0.00154904324549
0.000865149379254
0.00037595796969
0.000145655380614
8.18743519384e-05
5.76269351084e-05
6.09680790868e-05
0.000149179764983
0.000643753971692
0.00386342851119
0.0084278833094
0.00956562616482
0.00860677302672
0.00654259487383
0.00441699916353
0.00290362943331
0.00194170301729
0.00291839576384
0.0168883576735
0.0331408856732
0.00165779353591
0.000905805883111
0.000378521304484
0.000150836591171
8.64793487429e-05
6.06588235415e-05
6.43725604264e-05
0.000127754771045
0.000435570841373
0.00270518128184
0.0073018569699
0.00948851063623
0.00947314429661
0.00749710090035
0.00477207760876
0.00310760440175
0.0021150358123
0.0022564262469
0.0167417116291
0.0334038277479
0.0017693572438
0.00091566398327
0.000376160462116
0.000152889575647
8.92865171456e-05
6.3376400767e-05
6.81166311262e-05
0.000123083087262
0.000333451396341
0.0018757569434
0.00640693438322
0.0101251328089
0.0109613802688
0.00837063927846
0.00506849231151
0.00317141161271
0.00221091694962
0.00174427796337
0.0140248990491
0.0326314426292
0.00185323610299
0.000912430201243
0.000371304055194
0.000152858241566
9.00645660984e-05
6.487068072e-05
7.10211487852e-05
0.000129956729325
0.0003293979637
0.00152383755734
0.00632056725069
0.011415805641
0.0132419845163
0.00922848625958
0.00526035807429
0.00324169157825
0.00227471923833
0.00179767668982
0.00790494869161
0.0313337330451
0.00188485219779
0.000906618530535
0.000366468314466
0.000151919666545
8.86972567706e-05
6.99201542607e-05
7.56523694493e-05
0.00015087661112
0.000451117733994
0.00187348413174
0.00715610633268
0.0131850648942
0.0150838234671
0.00943837852124
0.00523055113961
0.00322693116414
0.00229114791834
0.00183025249204
0.00526946541538
0.0299020471712
0.00189627133437
0.000902338690534
0.000364585568986
0.00015116228537
)
;

boundaryField
{
    emptyPatch
    {
        type            empty;
    }
    minY
    {
        type            fixedValue;
        value           nonuniform List<scalar> 0();
    }
    maxY
    {
        type            inletOutlet;
        inletValue      nonuniform List<scalar> 0();
        value           nonuniform List<scalar> 0();
    }
    maxX
    {
        type            kqRWallFunction;
        value           nonuniform List<scalar> 
37
(
0.0509329616605
0.0608454195697
0.0684080192195
0.0731555344603
0.0731151378212
0.0691248972878
0.0640632300263
0.0596043421377
0.0557250617744
0.0521433202957
0.0487899506403
0.0457342046515
0.0430371425672
0.0406014207218
0.0383347238312
0.0362634414718
0.0343760367334
0.0326139670396
0.0309641490037
0.029460728154
0.0280928894388
0.0268620353015
0.025824870166
0.0250289036453
0.0245219637212
0.0243423172854
0.0245645471681
0.0253098395013
0.0265832993291
0.0282742251228
0.0301500048425
0.0319163636338
0.0331408856732
0.0334038277479
0.0326314426292
0.0313337330451
0.0299020471712
)
;
    }
    water_to_heater
    {
        type            kqRWallFunction;
        value           nonuniform List<scalar> 
60
(
2.60560538149
2.60560538149
3.26819734758
3.26819734758
3.58533453778
3.58533453778
3.52259153251
3.36194339254
3.29383946339
3.29383946339
3.36182443843
3.36182443843
3.53934620392
3.53934620392
3.70748677929
3.67373327235
3.52352471205
3.52352471205
3.32192052824
3.32192052824
3.13886720346
3.13886720346
2.95652394853
2.79932680638
2.67658125767
2.67658125767
2.56945549226
2.56945549226
2.37887460061
2.37887460061
2.19015352219
2.3377253868
2.84880713775
2.84880713775
3.49074030825
3.49074030825
3.72622234642
3.72622234642
3.69120140733
3.72285635084
3.8593301521
3.8593301521
4.09930781621
4.09930781621
4.42725121916
4.42725121916
4.79351664698
5.19295515674
5.67790208524
5.67790208524
6.30814677135
6.30814677135
6.88512530124
6.88512530124
6.87196612059
6.21106492336
5.39613865191
5.39613865191
4.58845520335
4.58845520335
)
;
    }
    procBoundary1to0
    {
        type            processor;
        value           nonuniform List<scalar> 
41
(
3.95605645375
1.96311693719
1.01705425147
0.548128846014
0.308698494048
0.180840037934
0.10861317415
0.0665801468887
0.042922027008
0.0309674359085
0.0252241116895
0.0219011494914
0.0190721258584
0.0158521999756
0.0121295969429
0.00883030154731
0.00664946128106
0.00520467356059
0.00416510235398
0.00319050759406
8.51075540666e-05
8.21471822079e-05
8.95672625658e-05
0.000204264120644
0.000757685057394
0.00295904264565
0.00881824117791
0.0148091818886
0.0158965597006
0.00899799120069
0.00496848920146
0.00315737155357
0.00227503598957
0.00184084353324
0.00459625423132
0.0285326877037
0.00189988338665
0.000904232732279
0.000368470256719
8.51075540666e-05
0.000151162766714
)
;
    }
    procBoundary1to3
    {
        type            processor;
        value           nonuniform List<scalar> 
41
(
0.0514780064051
0.0357966512394
0.0251410665671
0.017546878219
0.0121254538103
0.00828224808635
0.00551595521443
0.0034728055268
0.00196401374752
0.000965698034898
0.000415191865696
0.000169224907714
0.000107118053744
2.1543368023
1.18265731636
0.657331121823
0.369384115508
0.211810918685
0.127437908471
0.0820141922515
0.0820141922515
0.000120020306709
0.000142336216873
0.000226891779722
0.000492497749173
0.00105285658979
0.00190531288538
0.0028369574751
0.00344646277602
0.00324974411667
0.00242862482419
0.00148601077648
0.000930343884807
0.000850679957966
0.000961489082105
0.00142603155086
0.00369983067662
0.0114574554006
0.018283926006
0.0265429013169
0.0403572884341
)
;
    }
}


// ************************************************************************* //
