/*--------------------------------*- C++ -*----------------------------------*\
| =========                 |                                                 |
| \\      /  F ield         | OpenFOAM: The Open Source CFD Toolbox           |
|  \\    /   O peration     | Version:  2312                                  |
|   \\  /    A nd           | Website:  www.openfoam.com                      |
|    \\/     M anipulation  |                                                 |
\*---------------------------------------------------------------------------*/
FoamFile
{
    version     2.0;
    format      ascii;
    arch        "LSB;label=32;scalar=64";
    class       volScalarField;
    location    "0.655/water";
    object      d.gas;
}
// * * * * * * * * * * * * * * * * * * * * * * * * * * * * * * * * * * * * * //

dimensions      [0 1 0 0 0 0 0];

internalField   nonuniform List<scalar> 
1503
(
0.00497424876366
0.00497431074079
0.00497432670305
0.00497433882227
0.00497434903392
0.00497435809033
0.00497436633624
0.00497437377111
0.00497438032604
0.0049743860284
0.00497439090835
0.00497439501838
0.00497439843592
0.00497440123598
0.00497440348128
0.0049744052248
0.00497440651034
0.00497440737389
0.00497440784299
0.00497440793966
0.0049745590972
0.00497458924305
0.00497458633621
0.00497458573759
0.00497458985656
0.00497459356729
0.00497459709488
0.00497460052634
0.00497460397266
0.00497460732184
0.00497461034813
0.00497461296654
0.00497461521272
0.00497461712814
0.00497461872887
0.00497462001542
0.00497462098249
0.0049746216248
0.00497462193736
0.00497462191729
0.00497483476286
0.0049748660278
0.00497485361655
0.00497484394569
0.00497484120121
0.00497483898421
0.00497483728448
0.00497483629088
0.00497483593428
0.00497483609318
0.00497483655507
0.0049748370712
0.00497483751265
0.00497483786328
0.00497483812964
0.0049748383057
0.00497483837125
0.0049748382993
0.00497483806066
0.00497483763077
0.00497507165222
0.00497509300141
0.00497507961321
0.00497507319459
0.00497507290379
0.00497507170011
0.00497506966829
0.00497506756905
0.00497506573135
0.00497506423637
0.00497506306731
0.0049750621015
0.00497506120103
0.00497506030518
0.00497505941066
0.00497505852531
0.00497505764723
0.00497505676377
0.00497505585427
0.00497505489875
0.00497530852756
0.00497532266002
0.0049753045862
0.00497529764767
0.00497529786656
0.00497529753377
0.00497529587791
0.00497529361489
0.00497529132458
0.00497528918679
0.00497528723826
0.00497528545296
0.00497528375406
0.00497528208366
0.00497528043135
0.00497527881169
0.00497527723984
0.0049752757236
0.00497527426189
0.00497527285171
0.00497553660035
0.00497555077518
0.00497553156306
0.00497552313253
0.00497552174143
0.00497552108171
0.00497551953675
0.00497551709406
0.00497551434988
0.00497551168494
0.00497550917385
0.00497550681638
0.00497550457052
0.0049755023879
0.00497550024892
0.0049754981623
0.0049754961463
0.00497549421827
0.00497549238961
0.00497549067015
0.00497576747633
0.00497578059164
0.0049757602754
0.00497575034621
0.00497574630235
0.00497574367297
0.00497574122243
0.00497573834585
0.00497573509282
0.00497573187998
0.00497572886344
0.00497572604059
0.00497572338207
0.00497572084613
0.00497571840232
0.00497571604659
0.00497571379033
0.00497571165004
0.00497570964004
0.0049757077746
0.00497596479017
0.00497598367015
0.00497597256064
0.00497596646994
0.00497596381811
0.00497596117586
0.00497595843616
0.00497595554404
0.00497595227733
0.00497594886826
0.00497594560908
0.004975942555
0.00497593970167
0.00497593702139
0.00497593448139
0.00497593206756
0.00497592978235
0.00497592763678
0.00497592564206
0.0049759238117
0.00497619784389
0.00497621406894
0.00497619545673
0.00497618655591
0.00497618200014
0.0049761774759
0.00497617332233
0.00497616962924
0.0049761660893
0.00497616248424
0.00497615904237
0.00497615590119
0.00497615306495
0.00497615048853
0.00497614811527
0.00497614590916
0.00497614385589
0.00497614195457
0.00497614020786
0.00497613862407
0.00497638295447
0.00497640183339
0.00497638774749
0.0049763831668
0.00497638219719
0.00497638042169
0.00497637799006
0.00497637552584
0.00497637306083
0.00497637034425
0.00497636752463
0.00497636492513
0.0049763626706
0.00497636071458
0.00497635896819
0.00497635737852
0.00497635592082
0.00497635458547
0.00497635336952
0.00497635227322
0.00497658484888
0.00497660768117
0.00497658925741
0.0049765816975
0.00497657970668
0.00497657827686
0.00497657687266
0.00497657563004
0.00497657435086
0.00497657280249
0.00497657109727
0.00497656962854
0.00497656858105
0.00497656785742
0.00497656729034
0.00497656679483
0.00497656634072
0.0049765659158
0.00497656551243
0.00497656512685
0.00497674504042
0.00497677546914
0.00497676610847
0.00497676305427
0.00497676536302
0.00497676797794
0.00497676987584
0.00497677098023
0.00497677131163
0.00497677107866
0.00497677076372
0.00497677097825
0.00497677183203
0.00497677302617
0.00497677421458
0.00497677526433
0.00497677615903
0.00497677689876
0.00497677748459
0.00497677792538
0.0049769337733
0.00497697335239
0.00497696569814
0.00497696137191
0.00497696334971
0.00497696643968
0.00497696911887
0.00497697053623
0.0049769707553
0.00497697061281
0.00497697107978
0.00497697280056
0.00497697567683
0.00497697908196
0.00497698225763
0.00497698497989
0.00497698725526
0.00497698912004
0.00497699060546
0.0049769917458
0.00497713317239
0.00497717397423
0.00497716561325
0.00497716425357
0.00497716959497
0.00497717478278
0.00497717815162
0.00497717922956
0.00497717876769
0.00497717821118
0.00497717871845
0.00497718111657
0.00497718533411
0.00497719043735
0.00497719511235
0.00497719897444
0.00497720208563
0.00497720453714
0.00497720640376
0.0049772077557
0.00497735521405
0.00497740109288
0.00497739237208
0.00497739233063
0.00497739844833
0.00497740340285
0.00497740571059
0.00497740534457
0.00497740378824
0.0049774024108
0.004977401839
0.00497740311999
0.00497740689398
0.00497741204367
0.0049774167111
0.00497742027348
0.0049774229111
0.00497742479367
0.00497742603464
0.00497742673056
0.0049776047879
0.00497765245174
0.0049776440658
0.00497764383042
0.00497764966735
0.0049776538334
0.00497765457034
0.00497765287366
0.00497765063365
0.0049776482523
0.00497764559929
0.0049776438519
0.00497764447865
0.00497764693968
0.00497764916561
0.00497765024432
0.00497765048237
0.00497765018011
0.00497764947092
0.00497764843816
0.00497788349876
0.00497793625007
0.0049779289579
0.00497792752091
0.00497793039476
0.00497793067933
0.00497792802552
0.00497792418456
0.00497792014754
0.00497791528497
0.00497790915191
0.00497790287586
0.00497789772053
0.00497789389864
0.00497789057525
0.00497788676282
0.00497788265098
0.00497787862142
0.00497787479249
0.00497787116243
0.00497819837613
0.00497824680184
0.00497823585997
0.00497822794428
0.00497822280654
0.00497821582242
0.00497820754851
0.00497819915748
0.00497819066449
0.00497818160193
0.00497817206165
0.0049781626313
0.00497815330093
0.00497814285817
0.00497813241653
0.00497812260143
0.00497811346262
0.00497810526545
0.00497809807423
0.00497809176108
0.00497849779089
0.00497851802871
0.00497849208862
0.00497847878536
0.00497846960649
0.00497845934824
0.00497844796472
0.00497843626791
0.00497842487006
0.00497841429458
0.00497840453254
0.0049783955595
0.00497838648276
0.00497837520246
0.00497836111831
0.00497834726486
0.00497833478738
0.00497832391223
0.00497831460606
0.00497830667254
0.0049786668962
0.00497867559294
0.00497865425216
0.00497864704272
0.00497864369092
0.00497863860536
0.00497863118093
0.00497862252172
0.00497861391332
0.0049786061621
0.00497859932856
0.00497859150805
0.00497858396355
0.00497857645308
0.00497856570028
0.00497855283897
0.00497854072286
0.00497853018657
0.00497852118884
0.00497851357636
0.00497881996324
0.00497882633537
0.00497880290633
0.00497879620352
0.00497879452205
0.00497879193639
0.0049787876803
0.00497878255651
0.00497877716621
0.0049787726522
0.00497876879576
0.0049787644719
0.00497875978929
0.00497875419911
0.0049787480737
0.0049787398501
0.00497873148284
0.00497872416643
0.00497871790689
0.00497871260232
0.00497894444712
0.00497895653646
0.00497894094852
0.00497893732165
0.00497893796331
0.00497893800357
0.00497893651405
0.00497893376037
0.00497893129061
0.0049789320143
0.00497893213504
0.00497893087462
0.00497892703839
0.00497892197856
0.00497891840733
0.00497891511263
0.00497891198988
0.00497890963284
0.00497890770885
0.00497890609331
0.00497909850952
0.00497911641444
0.00497910242047
0.00497909638628
0.00497909489683
0.00497909333055
0.00497909058869
0.00497908801827
0.00497908981051
0.00497909338389
0.00497909534256
0.00497909536182
0.00497909321055
0.00497908930931
0.00497908700793
0.0049790872362
0.00497908905407
0.00497909203495
0.00497909496095
0.00497909757099
0.0049792381854
0.00497925864733
0.00497924458287
0.00497924107397
0.00497924190927
0.00497924224727
0.00497924175964
0.00497924394318
0.00497925162321
0.00497925884136
0.00497926020144
0.00497926262243
0.00497926411889
0.00497926228049
0.00497926087728
0.00497926314013
0.0049792690212
0.00497927676161
0.00497928414375
0.00497929072989
0.00497941201238
0.0049794337162
0.00497941103449
0.00497940441351
0.00497940404597
0.00497940422052
0.00497940583899
0.00497941442225
0.00497942730856
0.00497943031932
0.00497943538942
0.00497943981533
0.0049794432164
0.00497944630796
0.00497944517873
0.00497944816713
0.00497945694457
0.00497946827165
0.0049794790668
0.00497948876167
0.00497956432058
0.00497959161041
0.00497957256861
0.00497956888774
0.00497957189826
0.00497957631307
0.00497958468707
0.00497960055215
0.00497960953477
0.0049796187595
0.00497962360765
0.00497963109803
0.00497964479451
0.00497964768957
0.00497964466091
0.00497964667308
0.00497965643693
0.00497966950674
0.00497968224928
0.00497969382934
0.00497974840804
0.00497978376449
0.00497976332422
0.00497975806157
0.0049797615591
0.00497976842949
0.00497978187881
0.00497979753763
0.00497981113464
0.00497981811528
0.00497982874309
0.00497984356755
0.00497985590728
0.00497985798477
0.0049798541354
0.00497985703855
0.00497986691805
0.0049798804323
0.00497989411635
0.00497990663809
0.00497992477225
0.00497996885312
0.00497995701553
0.00497995507493
0.00497996229883
0.00497997370432
0.0049799909153
0.00498000961817
0.00498001825653
0.00498003078114
0.00498004421384
0.0049800661179
0.00498007907524
0.00498007573463
0.00498007713953
0.00498007947352
0.00498008742045
0.00498010020385
0.00498011431656
0.00498012727872
0.0049801328483
0.00498018379367
0.00498016781146
0.00498016871951
0.00498018019551
0.00498019552716
0.00498021545509
0.00498022967932
0.00498024648478
0.00498026103129
0.00498028468464
0.00498030418751
0.00498030319324
0.00498030814254
0.00498030949392
0.00498031030793
0.00498031627505
0.00498032847365
0.00498034313251
0.00498035634072
0.00498036160528
0.00498041684863
0.00498040136882
0.00498040466616
0.00498041773526
0.00498043342288
0.00498045148063
0.00498047327026
0.00498049160743
0.00498051400706
0.00498053981399
0.00498054189144
0.00498054721704
0.00498055141872
0.00498055427275
0.00498055387283
0.00498055861733
0.004980569387
0.00498058350772
0.00498059595175
0.00498058547946
0.00498066024279
0.00498065505191
0.00498066025782
0.00498067466236
0.00498069414446
0.00498072053296
0.00498074920602
0.00498077217401
0.00498079467433
0.00498080088452
0.00498080544503
0.0049808115951
0.00498081827165
0.00498081893184
0.00498082000023
0.00498082208207
0.00498082902358
0.00498083947482
0.00498084867159
0.00498088519553
0.00498098509214
0.00498098263645
0.00498098875818
0.00498100326043
0.00498102533135
0.00498105136771
0.0049810698076
0.00498108089235
0.00498108790996
0.00498109190826
0.0049810976578
0.00498110411483
0.00498110787663
0.0049811106191
0.00498110873189
0.00498110793515
0.00498110947639
0.00498111243424
0.00498111497847
0.0049814062735
0.00498151135636
0.00498150086331
0.00498148687704
0.00498147500258
0.00498147042677
0.00498146726511
0.00498145895217
0.00498144904853
0.00498143999471
0.0049814345264
0.00498143199697
0.00498142895565
0.00498142642448
0.00498142193426
0.00498141724665
0.00498141280525
0.00498140796169
0.00498140011062
0.00498139209174
0.00498214266344
0.00498218204027
0.00498212532529
0.00498209098905
0.00498205417916
0.00498201315424
0.00498197144175
0.0049819314154
0.00498189470091
0.00498186205316
0.00498183460007
0.00498180916156
0.00498178502813
0.00498176442293
0.00498174854241
0.00498173662444
0.00498172596751
0.00498171347199
0.00498169440622
0.00498167268593
0.00498267337784
0.0049826423902
0.00498260042724
0.00498257656092
0.00498255111625
0.00498251084495
0.00498245461675
0.00498239453186
0.00498233617007
0.00498228082898
0.00498222916572
0.00498218059872
0.00498213523461
0.00498209566557
0.00498206493936
0.00498204273781
0.00498202434452
0.00498200352563
0.00498197721543
0.00498194333208
0.00498283791585
0.00498283291521
0.00498282166744
0.00498281420213
0.00498280672653
0.00498279293696
0.00498276042657
0.00498271075749
0.0049826531517
0.00498259275825
0.00498253307074
0.00498247628061
0.00498242287589
0.00498237462836
0.00498233437518
0.0049823037023
0.00498227683859
0.00498225151929
0.00498222424848
0.00498218668874
0.00498288288455
0.0049828838982
0.00498288462336
0.00498288515331
0.00498288530995
0.00498288438684
0.00498287656178
0.00498285384396
0.00498281760434
0.00498277204443
0.00498272217232
0.00498267245434
0.00498262416258
0.00498257885027
0.00498253904998
0.00498250619207
0.00498247701834
0.00498245158842
0.00498242569872
0.00498239214063
0.00498291119191
0.00498291170515
0.00498291207748
0.00498291248043
0.0049829130118
0.00498291351536
0.00498291316031
0.00498290474559
0.00498288573788
0.00498285791013
0.00498282493125
0.00498279001681
0.00498275433281
0.00498271947919
0.00498268793385
0.0049826605861
0.00498263584773
0.00498261122175
0.00498258719851
0.00498256035308
0.00497440768813
0.00497440713683
0.00497440633934
0.00497440533019
0.00497440413196
0.00497440275798
0.0049744012136
0.00497439949819
0.00497439760599
0.00497439552723
0.00497439324796
0.00497439074892
0.0049743880017
0.00497438496294
0.00497438157438
0.00497437780237
0.00497437369652
0.00497436916573
0.0049743630612
0.00497430179361
0.00497462157868
0.00497462096448
0.00497462012382
0.00497461909219
0.00497461789526
0.00497461655282
0.00497461507998
0.00497461348937
0.00497461179159
0.00497460999505
0.00497460810366
0.00497460611362
0.00497460401072
0.00497460177773
0.00497459942934
0.00497459705981
0.00497459478443
0.00497459256999
0.00497459012056
0.00497458998349
0.00497483701956
0.00497483626025
0.00497483537874
0.0049748343972
0.00497483333733
0.00497483222052
0.00497483106601
0.0049748298911
0.00497482870977
0.00497482753129
0.00497482635818
0.00497482518696
0.00497482401549
0.00497482286451
0.00497482180627
0.00497482094904
0.00497482034555
0.00497481990681
0.00497481945548
0.00497482112369
0.00497505392166
0.00497505295832
0.00497505200953
0.00497505107408
0.00497505015804
0.00497504927028
0.00497504841859
0.00497504760849
0.00497504684134
0.00497504611364
0.00497504541746
0.00497504474546
0.00497504410177
0.00497504351744
0.00497504305047
0.00497504273807
0.0049750425232
0.00497504224458
0.00497504189931
0.00497504335752
0.00497527154034
0.00497527037426
0.00497526933622
0.00497526840277
0.00497526756238
0.00497526680714
0.00497526612933
0.00497526552016
0.00497526496827
0.00497526446029
0.00497526398306
0.00497526353005
0.00497526311021
0.00497526275437
0.00497526250065
0.00497526234632
0.00497526220482
0.00497526198351
0.00497526185464
0.00497526311587
0.00497548912486
0.00497548780922
0.00497548669455
0.00497548574275
0.0049754849287
0.00497548423148
0.00497548363183
0.00497548311127
0.00497548265114
0.00497548223412
0.00497548184712
0.0049754814872
0.00497548116724
0.00497548091554
0.00497548075345
0.00497548065069
0.00497548051085
0.0049754803325
0.00497548031931
0.00497548128861
0.00497570612625
0.00497570475071
0.00497570361184
0.0049757026643
0.00497570187434
0.00497570121349
0.00497570065615
0.00497570017912
0.00497569976111
0.00497569938471
0.00497569903922
0.00497569872525
0.00497569845738
0.00497569825863
0.0049756981337
0.00497569803152
0.00497569787495
0.0049756977523
0.00497569780605
0.00497569854391
0.00497592221438
0.00497592089711
0.00497591981993
0.00497591893514
0.00497591820577
0.00497591760084
0.00497591709306
0.00497591665864
0.00497591627709
0.00497591593334
0.00497591562003
0.00497591534081
0.00497591511042
0.0049759149454
0.00497591483539
0.00497591471798
0.00497591456158
0.0049759145003
0.00497591457849
0.00497591514372
0.00497613725701
0.00497613613973
0.00497613523246
0.00497613449067
0.00497613388027
0.00497613337301
0.0049761329443
0.00497613257344
0.00497613224355
0.00497613194366
0.00497613167036
0.00497613142995
0.00497613123648
0.00497613109941
0.00497613099527
0.00497613086278
0.00497613072798
0.00497613071932
0.00497613079971
0.00497613124318
0.00497635133197
0.0049763505656
0.00497634993983
0.00497634942306
0.0049763489915
0.00497634862552
0.00497634830784
0.00497634802441
0.0049763477644
0.00497634752235
0.00497634729928
0.00497634710387
0.00497634694887
0.00497634683637
0.0049763467329
0.00497634659385
0.00497634649537
0.00497634652385
0.00497634659866
0.00497634695685
0.0049765647809
0.00497656448413
0.00497656421992
0.00497656398127
0.00497656376307
0.00497656356035
0.00497656336759
0.0049765631804
0.00497656299594
0.00497656281518
0.00497656264367
0.0049765624921
0.00497656237121
0.00497656227567
0.00497656216697
0.00497656203123
0.00497656197234
0.00497656202208
0.00497656209027
0.00497656238906
0.00497677823712
0.00497677843215
0.00497677852733
0.0049767785509
0.00497677852329
0.00497677845867
0.00497677836606
0.00497677825227
0.00497677812308
0.00497677798574
0.00497677784964
0.00497677772648
0.00497677762388
0.00497677752939
0.00497677740633
0.00497677727896
0.00497677725192
0.00497677730957
0.00497677737101
0.00497677762811
0.00497699256655
0.00497699310323
0.00497699341902
0.00497699358075
0.00497699363542
0.00497699361606
0.0049769935452
0.00497699343941
0.00497699331122
0.00497699317219
0.00497699303355
0.00497699290602
0.00497699279237
0.00497699267372
0.00497699252337
0.00497699240111
0.00497699239026
0.00497699244476
0.00497699249776
0.00497699272462
0.00497720864529
0.00497720915111
0.00497720938289
0.00497720943463
0.00497720937007
0.00497720923294
0.0049772090523
0.00497720884856
0.00497720863602
0.00497720842625
0.00497720822866
0.00497720804986
0.00497720788555
0.00497720771164
0.0049772075188
0.00497720739064
0.00497720737697
0.00497720741857
0.00497720745979
0.00497720766295
0.00497742696765
0.00497742687428
0.00497742658403
0.00497742618689
0.00497742574021
0.00497742528086
0.00497742483109
0.00497742440485
0.00497742401018
0.00497742365239
0.00497742333418
0.0049774230542
0.00497742279889
0.00497742254085
0.00497742229243
0.00497742214417
0.00497742211054
0.0049774221312
0.0049774221569
0.0049774223394
0.00497764718628
0.004977645874
0.00497764461004
0.00497764343265
0.00497764235947
0.00497764139679
0.00497764054301
0.0049776397932
0.00497763914009
0.00497763857614
0.00497763809249
0.00497763767638
0.00497763730349
0.00497763694606
0.00497763663773
0.00497763645933
0.00497763639573
0.00497763639124
0.00497763639938
0.00497763656236
0.0049778678065
0.00497786486472
0.00497786235851
0.00497786022625
0.00497785841435
0.00497785687758
0.00497785557625
0.00497785447702
0.00497785355084
0.00497785277306
0.00497785212054
0.0049778515675
0.00497785107918
0.00497785063154
0.00497785027468
0.00497785006771
0.00497784997552
0.00497784994837
0.00497784994079
0.00497785008536
0.00497808632839
0.00497808184917
0.00497807821874
0.00497807525676
0.00497807282801
0.00497807083004
0.00497806918244
0.00497806782244
0.00497806669943
0.00497806577253
0.0049780650055
0.00497806436109
0.00497806379707
0.00497806329827
0.00497806292385
0.00497806270605
0.00497806260001
0.00497806256126
0.00497806254516
0.004978062674
0.00497830006015
0.00497829477239
0.00497829060056
0.00497828727901
0.00497828461478
0.0049782824659
0.00497828072473
0.00497827930977
0.00497827815736
0.00497827721736
0.00497827644614
0.00497827579979
0.00497827523466
0.00497827475001
0.00497827440638
0.00497827421088
0.00497827411747
0.00497827408623
0.00497827407401
0.00497827419237
0.00497850732475
0.00497850241455
0.00497849860954
0.00497849563446
0.00497849328964
0.00497849142935
0.00497848994463
0.00497848875447
0.00497848779674
0.00497848702322
0.00497848639141
0.00497848585795
0.00497848538619
0.00497848499449
0.00497848473878
0.00497848460776
0.00497848456004
0.00497848456021
0.00497848456748
0.00497848468311
0.00497870829896
0.00497870498974
0.00497870248699
0.00497870058275
0.00497869912374
0.00497869799829
0.00497869712358
0.00497869643944
0.00497869590052
0.00497869547195
0.00497869512097
0.00497869481254
0.00497869452636
0.00497869430226
0.00497869418811
0.00497869416298
0.0049786941933
0.00497869424848
0.00497869429092
0.00497869441306
0.00497890487565
0.00497890406169
0.00497890355485
0.00497890326346
0.00497890311651
0.0049789030629
0.00497890306579
0.00497890310066
0.00497890315004
0.00497890320052
0.00497890323532
0.00497890323473
0.00497890320313
0.00497890320081
0.00497890326673
0.00497890337856
0.00497890351142
0.00497890363982
0.00497890372981
0.00497890386758
0.00497909992024
0.00497910199802
0.00497910380456
0.00497910537903
0.00497910674553
0.00497910792426
0.00497910893273
0.00497910978846
0.00497911050641
0.00497911109771
0.00497911156477
0.00497911190872
0.0049791121639
0.00497911240687
0.00497911266876
0.00497911293167
0.00497911317881
0.00497911338959
0.00497911353379
0.00497911369462
0.00497929649003
0.00497930135744
0.00497930540873
0.00497930879975
0.00497931164248
0.00497931402438
0.00497931601479
0.00497931767123
0.00497931903916
0.00497932015278
0.00497932103405
0.00497932170868
0.00497932224208
0.00497932272051
0.00497932316946
0.00497932357834
0.00497932393689
0.00497932422878
0.00497932442709
0.0049793246155
0.00497949725938
0.00497950440678
0.00497951031601
0.00497951522294
0.00497951930416
0.00497952269877
0.00497952551672
0.00497952784696
0.00497952975865
0.00497953130438
0.00497953252452
0.00497953347113
0.00497953423711
0.00497953491128
0.00497953551582
0.0049795360476
0.00497953650107
0.00497953686292
0.00497953710877
0.00497953732589
0.00497970409093
0.00497971277265
0.00497971996566
0.00497972593553
0.00497973089149
0.00497973500282
0.00497973840474
0.00497974120607
0.004979743491
0.0049797453252
0.00497974676604
0.00497974789163
0.00497974881519
0.00497974962188
0.00497975033235
0.00497975094935
0.00497975147006
0.00497975188262
0.00497975216407
0.00497975240774
0.0049799178079
0.00497992731068
0.0049799352027
0.00497994174997
0.00497994717354
0.00497995165781
0.00497995535178
0.00497995837503
0.00497996082008
0.00497996276215
0.00497996427508
0.00497996546085
0.00497996644403
0.00497996730172
0.00497996805391
0.00497996870668
0.00497996925793
0.00497996969543
0.00497996999622
0.00497997026128
0.00498013876812
0.0049801485043
0.00498015655451
0.00498016319267
0.00498016865159
0.0049801731279
0.00498017678006
0.00498017973381
0.00498018208652
0.00498018392178
0.00498018532968
0.00498018643182
0.00498018735459
0.00498018816438
0.00498018887998
0.00498018950782
0.00498019004436
0.00498019047491
0.0049801907747
0.00498019105307
0.00498036764565
0.00498037699323
0.00498038458152
0.0049803907315
0.0049803957015
0.0049803997036
0.0049804029039
0.00498040543065
0.00498040738319
0.00498040885203
0.00498040994152
0.00498041078529
0.00498041150191
0.00498041214484
0.00498041272935
0.00498041325885
0.0049804137258
0.00498041411064
0.00498041438454
0.00498041466491
0.00498060594517
0.00498061380959
0.00498061996396
0.00498062478104
0.00498062853467
0.00498063143943
0.00498063365613
0.00498063530433
0.00498063647714
0.00498063726592
0.00498063778204
0.0049806381589
0.00498063849691
0.00498063883338
0.00498063917589
0.00498063952079
0.00498063985354
0.00498064014693
0.00498064036535
0.00498064063273
0.00498085518569
0.00498085974435
0.00498086299417
0.00498086528905
0.00498086685742
0.00498086787111
0.00498086845171
0.00498086868526
0.00498086864102
0.00498086839718
0.00498086805742
0.00498086773776
0.00498086750934
0.00498086738828
0.00498086736878
0.00498086743565
0.00498086756395
0.00498086771595
0.00498086784634
0.00498086808242
0.0049811151801
0.00498111412887
0.00498111268088
0.00498111106155
0.00498110935379
0.00498110761417
0.00498110587337
0.00498110414756
0.00498110245587
0.00498110084177
0.00498109938006
0.00498109814955
0.00498109718106
0.00498109646342
0.00498109597139
0.00498109567386
0.00498109553234
0.0049810954961
0.00498109550759
0.00498109569254
0.00498138293608
0.0049813739454
0.00498136605905
0.00498135923778
0.00498135329169
0.00498134807248
0.00498134345925
0.00498133935696
0.00498133570442
0.0049813324852
0.00498132972196
0.00498132743794
0.00498132561516
0.00498132420975
0.00498132317239
0.00498132245288
0.00498132199714
0.00498132174023
0.00498132161091
0.00498132172682
0.00498165175553
0.00498163323077
0.00498161782723
0.00498160508825
0.00498159443136
0.00498158542252
0.00498157773849
0.00498157114021
0.004981565462
0.00498156060719
0.00498155652872
0.00498155318329
0.00498155050114
0.00498154840401
0.0049815468171
0.00498154567058
0.00498154489493
0.00498154441184
0.00498154413685
0.00498154417233
0.00498191077608
0.0049818830974
0.00498186061668
0.00498184239557
0.00498182744637
0.00498181503843
0.00498180464243
0.00498179587407
0.00498178846096
0.0049817822231
0.00498177704097
0.00498177280681
0.00498176940505
0.00498176672741
0.00498176467722
0.00498176316819
0.00498176211836
0.0049817614395
0.00498176103695
0.0049817609913
0.00498214732401
0.0049821137653
0.00498208668573
0.00498206486626
0.00498204710476
0.00498203248747
0.00498202035106
0.00498201021267
0.00498200172416
0.00498199464402
0.00498198879719
0.00498198402852
0.00498198019205
0.00498197716061
0.00498197482433
0.00498197308737
0.0049819718613
0.00498197105382
0.00498197056542
0.0049819704506
0.00498235320193
0.00498231881196
0.00498229089571
0.00498226831374
0.00498224992722
0.00498223482746
0.00498222233439
0.0049822119443
0.00498220328682
0.00498219609902
0.00498219018088
0.00498218535688
0.00498218147167
0.00498217839455
0.00498217601421
0.00498217423456
0.00498217296843
0.00498217212664
0.0049821716119
0.0049821714521
0.00498252773966
0.00498249741186
0.00498247239455
)
;

boundaryField
{
    emptyPatch
    {
        type            empty;
    }
    minY
    {
        type            calculated;
        value           nonuniform List<scalar> 
40
(
0.00497416007449
0.00497421494681
0.00497422307562
0.0049742328512
0.00497424241182
0.00497425133766
0.00497425956195
0.0049742669934
0.00497427354756
0.00497427924942
0.00497428412895
0.00497428823863
0.00497429165588
0.00497429445569
0.0049742967008
0.00497429844417
0.0049742997296
0.00497430059307
0.00497430106214
0.0049743011588
0.00497430090729
0.00497430035604
0.00497429955862
0.00497429854955
0.00497429735143
0.00497429597756
0.00497429443332
0.00497429271805
0.00497429082602
0.00497428874743
0.00497428646836
0.00497428396954
0.00497428122255
0.00497427818405
0.00497427479578
0.00497427102409
0.0049742669186
0.00497426238819
0.0049742562842
0.00497419502186
)
;
    }
    maxY
    {
        type            calculated;
        value           nonuniform List<scalar> 0();
    }
    maxX
    {
        type            calculated;
        value           nonuniform List<scalar> 
37
(
0.00497430179361
0.00497458998349
0.00497482112369
0.00497504335752
0.00497526311587
0.00497548128861
0.00497569854391
0.00497591514372
0.00497613124318
0.00497634695685
0.00497656238906
0.00497677762811
0.00497699272462
0.00497720766295
0.0049774223394
0.00497763656236
0.00497785008536
0.004978062674
0.00497827419237
0.00497848468311
0.00497869441306
0.00497890386758
0.00497911369462
0.0049793246155
0.00497953732589
0.00497975240774
0.00497997026128
0.00498019105307
0.00498041466491
0.00498064063273
0.00498086808242
0.00498109569254
0.00498132172682
0.00498154417233
0.0049817609913
0.0049819704506
0.0049821714521
)
;
    }
    water_to_heater
    {
        type            calculated;
        value           nonuniform List<scalar> 
61
(
0.00497424875749
0.00497452801802
0.00497456938569
0.00497481401187
0.00497485533876
0.00497506119503
0.00497510253024
0.00497530837029
0.00497553641233
0.00497573236039
0.00497577888479
0.00497594133731
0.00497598772611
0.00497618591375
0.00497623246378
0.00497638262557
0.00497658448743
0.00497670993688
0.00497675621176
0.00497691004435
0.00497695664302
0.00497712109508
0.00497716754251
0.00497735471487
0.0049776042565
0.00497784619298
0.00497789519298
0.00497817380808
0.00497822174801
0.00497848631031
0.00497852957998
0.00497866617619
0.00497881921329
0.0049789138796
0.00497895358268
0.00497907759436
0.00497911778245
0.00497922739135
0.00497926711298
0.00497941111726
0.00497956338237
0.00497971728182
0.00497975749056
0.0049799038023
0.00497994371877
0.00498012173948
0.00498016199643
0.0049803605202
0.00498058438318
0.00498084752165
0.00498089632492
0.00498137953071
0.00498143085671
0.00498212947227
0.0049821775951
0.00498267206505
0.00498283652597
0.00498285801487
0.0049828893283
0.00498289437244
0.00498292519267
)
;
    }
    procBoundary2to3
    {
        type            processor;
        value           nonuniform List<scalar> 
41
(
0.00498293631886
0.00498293676259
0.00498293701585
0.00498293722073
0.00498293745698
0.00498293735332
0.00498293767745
0.00498293360804
0.00498292259447
0.00498290601146
0.0049828868892
0.00498286596775
0.00498284261665
0.0049828193603
0.00498279884044
0.00498278174788
0.00498276324727
0.00498274126526
0.0049827204069
0.00498270013821
0.00498245193868
0.0049824351894
0.00498242140808
0.00498241001
0.00498240054297
0.00498239267156
0.00498238615191
0.00498238079313
0.00498237642623
0.00498237290796
0.00498237011887
0.0049823679584
0.00498236633945
0.004982365184
0.00498236441306
0.00498236393841
0.00498236376362
0.00498267646019
0.00498265347392
0.00498245193868
0.00498263411797
)
;
    }
}

