/*--------------------------------*- C++ -*----------------------------------*\
| =========                 |                                                 |
| \\      /  F ield         | OpenFOAM: The Open Source CFD Toolbox           |
|  \\    /   O peration     | Version:  2312                                  |
|   \\  /    A nd           | Website:  www.openfoam.com                      |
|    \\/     M anipulation  |                                                 |
\*---------------------------------------------------------------------------*/
FoamFile
{
    version     2.0;
    format      ascii;
    arch        "LSB;label=32;scalar=64";
    class       volScalarField;
    location    "0.3/water";
    object      alpha.gas;
}
// * * * * * * * * * * * * * * * * * * * * * * * * * * * * * * * * * * * * * //

dimensions      [0 0 0 0 0 0 0];

internalField   nonuniform List<scalar> 
1503
(
0.172413450203
0.102576845329
0.0285780988079
0.00708183938934
0.00133613963746
0.000210955863171
2.75062395668e-05
2.11092943902e-06
4.40452079274e-08
3.73837971551e-10
1.79686022542e-12
7.05941023313e-15
1e-15
1e-15
1e-15
1e-15
1e-15
1e-15
1e-15
1e-15
0.609271735099
0.261417580645
0.107758560927
0.036356228256
0.0114503573128
0.00308386151362
0.00070766200557
0.000126888945094
1.27277810168e-05
2.66314782543e-07
7.97903372981e-10
1.25223514354e-12
2.38101000162e-15
1e-15
1e-15
1e-15
1e-15
1e-15
1e-15
1e-15
0.613304089033
0.34827961549
0.17197946859
0.0730888618931
0.0280150675383
0.00937608155041
0.00264898453949
0.000600562403091
8.9297591685e-05
4.65962581652e-06
1.82506743281e-08
2.15359817993e-11
2.35335057564e-14
1e-15
1e-15
1e-15
1e-15
1e-15
1e-15
1e-15
0.613303650933
0.42616365203
0.250793362885
0.128372468633
0.0576682972673
0.0222170486223
0.0071380080278
0.0018472545448
0.000341310589148
3.11023051639e-05
4.2237572675e-07
4.55618178407e-10
3.60818089025e-13
1.2183583379e-15
1e-15
1e-15
1e-15
1e-15
1e-15
1e-15
0.600121817976
0.473605892355
0.330867436066
0.202979133532
0.108186661045
0.0485014717924
0.0176739934651
0.00504698227722
0.00105207169908
0.000127658800299
4.54981367283e-06
7.27610047332e-09
5.35794137985e-12
4.45150052434e-15
1.00002016513e-15
1e-15
1e-15
1e-15
1e-15
1e-15
0.576817288812
0.49147542965
0.391268289234
0.280880564866
0.177479889803
0.0951246534626
0.0412213814457
0.0135991142095
0.0031734941595
0.000453402872619
2.67879931461e-05
1.68401409381e-07
1.05327872238e-10
5.48169524325e-14
1.0203756817e-15
1e-15
1e-15
1e-15
1e-15
1e-15
0.557075035762
0.489769013891
0.422798901577
0.341196517184
0.248948329886
0.158029746975
0.0830788258769
0.0335554578523
0.00940120738023
0.00159116040292
0.00012563963376
2.29605645716e-06
1.61886133269e-09
7.44515953045e-13
1.29838674644e-15
1.00107043804e-15
1.00053125276e-15
1.00026747138e-15
1.00003549314e-15
1e-15
0.547854473679
0.482664205401
0.431066996695
0.375448595906
0.304211965995
0.220789546856
0.137283668816
0.0682764197388
0.0242343460318
0.00520737287188
0.000536609185368
1.74374173245e-05
3.65586725337e-08
9.49725630676e-12
3.20837497779e-15
1.00409186065e-15
1.00333865275e-15
1.00243271948e-15
1.00174617144e-15
1.00087462411e-15
0.53410131931
0.470324786501
0.436415333456
0.398366209042
0.343993413056
0.271923811815
0.19076626293
0.112963210415
0.0507579008384
0.0144390284659
0.00202774659563
0.000100572280111
8.13917919402e-07
9.39773655603e-11
1.03038582154e-14
1.00675429016e-15
1.00484989836e-15
1.00409351713e-15
1.00338329458e-15
1.00246650584e-15
0.516435554315
0.461549192633
0.445096572482
0.420001721108
0.375371678945
0.31085037768
0.236144013504
0.159312831738
0.0875437188097
0.0328260782182
0.00645021954972
0.000486983317335
9.16872899807e-06
3.27462596541e-10
6.48375643047e-14
1.02467462656e-15
1.00409814988e-15
1.00377142411e-15
1.00325193445e-15
1.0025558074e-15
0.510613304341
0.468302271025
0.461794711931
0.443966637994
0.403040786694
0.342953147481
0.274837674405
0.203731452146
0.131117228761
0.0628494445375
0.0173804790549
0.00205846079688
7.5515356407e-05
3.497953169e-07
4.27727632781e-12
2.89750164797e-15
1.0034355835e-15
1.00262804311e-15
1.00256944219e-15
1.00254161679e-15
0.533952598601
0.497473101312
0.485034028528
0.467048106371
0.429332263818
0.374509227402
0.312479839237
0.247988606538
0.179390121568
0.105796437273
0.0407244921624
0.00765218939489
0.000524516518689
8.83644390212e-06
5.92792003179e-10
1.3893394352e-13
1.06335650131e-15
1.00258571339e-15
1.00257038691e-15
1.00255506546e-15
0.595114898823
0.533015167884
0.502876243431
0.483268466469
0.452009641568
0.405715840592
0.350355195406
0.291111104443
0.228440615477
0.158337366604
0.0820220133667
0.0241149103516
0.00295956973451
0.000109183865395
5.84312758222e-07
1.5640487052e-11
6.66915528503e-15
1.00295579379e-15
1.00258308402e-15
1.00256917091e-15
0.602833047996
0.542408690748
0.516317210366
0.495205525746
0.46633109818
0.426034883751
0.378108230903
0.325272191185
0.270402152317
0.210705378924
0.137826022096
0.059893950441
0.0124055816854
0.00087609984563
1.44200225032e-05
4.07308415313e-09
5.08683422318e-13
1.21054871037e-15
1.00259074628e-15
1.00257745995e-15
0.600149761403
0.542638951756
0.525137087365
0.503171305143
0.470992601316
0.428589437213
0.383438610066
0.340765818206
0.297733400407
0.253053485668
0.19501843057
0.113405494473
0.0364515255943
0.00445403017255
0.00014432126921
6.92523861003e-07
5.26078743098e-11
2.21550708848e-14
1.01393018102e-15
1.00714765492e-15
0.604331047142
0.539410292616
0.526672215068
0.50477450618
0.470483224622
0.426305057966
0.380493408333
0.339851313837
0.309114364514
0.280826430447
0.240980929668
0.169319057972
0.0752406414981
0.0145509496296
0.000825975468499
9.45618233512e-06
2.27008539069e-09
8.24705567289e-13
1.35710477393e-15
1.01479146932e-15
0.600365619589
0.531210022067
0.522500600198
0.500858537824
0.464264164744
0.416718298853
0.369891710501
0.332792509594
0.310049851335
0.295827277094
0.270904309694
0.211848536218
0.11616703971
0.0319924515405
0.00286896360485
5.57545227541e-05
1.19051178284e-07
1.80409831775e-11
7.76262413387e-15
1.02391848637e-15
0.604262982558
0.518411506916
0.507833929924
0.4843106575
0.445194241169
0.395383654886
0.349174344402
0.318308523445
0.307355491624
0.303377125487
0.287781709102
0.237417684372
0.146904090413
0.0515241503885
0.00650809872142
0.0001873604036
8.40977960894e-07
3.67240737425e-10
1.19210342324e-13
1.0613538398e-15
0.600365619589
0.503689883686
0.487440609201
0.456513145595
0.413730106594
0.364073065914
0.32303236814
0.306901211046
0.306815984939
0.306730884724
0.298063615941
0.253603554191
0.167600277949
0.0681211638766
0.011027855808
0.00043228183729
2.912935037e-06
2.09572191805e-09
8.70571579267e-13
1.33081612733e-15
0.601755632066
0.491067679114
0.468179623319
0.429432011118
0.383082692072
0.33650204122
0.307069216107
0.30698066249
0.306901211046
0.312172515663
0.308641467968
0.26941454073
0.186597830307
0.084077727857
0.0165763484949
0.000860468324359
8.09257804584e-06
7.30553897062e-09
3.05708040485e-12
1.6827239691e-15
0.600149761403
0.480770184581
0.453813965746
0.415177302815
0.371067328876
0.329436765678
0.307158163828
0.307069216107
0.311259389704
0.327666608305
0.326038251931
0.292735040035
0.215155816136
0.108534402731
0.026384389175
0.00190449759794
2.71192280082e-05
3.20178658746e-08
4.46164330959e-12
1.4197406803e-15
0.59911624958
0.470399884532
0.444451651272
0.412712334723
0.371980362584
0.332908447772
0.312742876651
0.316372785488
0.333547323237
0.349283388521
0.348222895249
0.325826698828
0.264523752126
0.157556958919
0.0498509537825
0.00536049572876
0.000128848152236
4.26181587075e-07
3.0317932409e-12
2.01537384658e-15
0.582290140488
0.463441710302
0.444622854033
0.419965529583
0.385319688474
0.351454666044
0.337789742828
0.344886581975
0.35863726166
0.359282613198
0.35588867282
0.351456469159
0.325401178437
0.236688809943
0.10258737954
0.0172766713029
0.00074258072718
5.97510465621e-06
1.03223667646e-09
4.32554427388e-14
0.554192096981
0.469744035503
0.468595511355
0.45673309413
0.426199293092
0.390924377368
0.374705931237
0.373079258719
0.36945972045
0.359407205846
0.35328251504
0.352678283948
0.352137835044
0.311946718293
0.187777366126
0.0504253422016
0.00388497178648
6.53717230403e-05
1.02031954838e-07
2.90658780639e-12
0.544897866935
0.507072783488
0.527743111696
0.52448894205
0.48803722108
0.439229259833
0.408704772497
0.390257045722
0.369237096226
0.350194258684
0.340982157384
0.347438055015
0.352037279689
0.350427322549
0.268674975756
0.110333181368
0.0152000855517
0.000515047158868
3.21119426493e-06
9.07519162858e-11
0.554660140093
0.564987589704
0.595435661392
0.590866543664
0.547476284979
0.484328066718
0.435593643462
0.399705661732
0.364605449302
0.331284916939
0.317669570056
0.330151039565
0.349030555077
0.350360495859
0.311058791264
0.175548534526
0.0406289096942
0.0025639576319
3.39568578364e-05
8.66359418624e-09
0.584326382752
0.611985391107
0.63290237116
0.628611031808
0.590028641264
0.522308588605
0.458425764057
0.405895158098
0.356436134638
0.311261685465
0.299318045857
0.309324762627
0.333799908964
0.347369409941
0.322983308533
0.221429036618
0.0764169139223
0.00822405842541
0.000193571138319
5.51888247801e-07
0.620602597446
0.638130776788
0.646241275707
0.643198735154
0.612364064911
0.547847475929
0.47548658875
0.408964869637
0.347489680639
0.300071576408
0.29374503557
0.298355975099
0.313565174142
0.332772324931
0.320880868733
0.250153982517
0.113415005113
0.0186052286068
0.000715928343533
4.8880587505e-06
0.64704288385
0.650916714344
0.654133001236
0.650354311846
0.622272159164
0.560237508319
0.483641611039
0.408396505843
0.337132734908
0.295115819613
0.293160490618
0.294154968035
0.300966308393
0.312835421537
0.31573989932
0.271658820219
0.148795776063
0.0336437502742
0.00196223488303
2.23917300684e-05
0.668978847373
0.656777117559
0.657184505768
0.654023444718
0.626302767752
0.563920910117
0.484328112987
0.402379135513
0.324180849363
0.293248033366
0.292918982549
0.2932259501
0.295095079051
0.302283974507
0.315660367973
0.292517155004
0.185971329228
0.0541417272399
0.00452646053763
7.83092671215e-05
0.688671144448
0.658126335852
0.657816420952
0.65430028835
0.62558832286
0.561811100131
0.478571495869
0.388501659144
0.311135187642
0.292936692556
0.292660496687
0.292929749035
0.293307999154
0.298044160576
0.321269692705
0.316935267114
0.227296753196
0.0820379724396
0.00962494280409
0.000246483847295
0.69217407759
0.65555281742
0.656079404107
0.650139312313
0.617170215649
0.549349208231
0.46078084511
0.367235392029
0.300461766803
0.292630634045
0.292355043601
0.292721454301
0.292976074957
0.295045692
0.331264174897
0.343512955611
0.267121016018
0.117137500648
0.0189437822989
0.000709238832351
0.694977773575
0.647923963655
0.647085028822
0.635732838499
0.596005933998
0.523701626499
0.432576775846
0.341323281839
0.293938180808
0.292352753499
0.292174810113
0.292361944883
0.292784682933
0.294126026038
0.343022544426
0.36483445982
0.298805097411
0.15323546104
0.0328091591147
0.00175686360354
0.693103407654
0.636436986824
0.630336996928
0.610469276147
0.563534713136
0.488123830527
0.398284174406
0.316130111386
0.292527739019
0.292174810113
0.291906653799
0.292174810113
0.292425179165
0.298309504448
0.358457234455
0.364858816226
0.317176914581
0.182963502513
0.0489846721652
0.00360849732822
0.698393188249
0.621570691269
0.607110521605
0.576285862714
0.521812911182
0.444854317621
0.359931537876
0.297453273408
0.292174810113
0.291853754086
0.291989103751
0.291797990794
0.292254122986
0.311432667766
0.364841773882
0.364886610481
0.325546011656
0.202878093664
0.0648502619076
0.00632776328491
0.693884856408
0.602985133831
0.576285908309
0.53336999746
0.472232460196
0.39647538713
0.321573788022
0.292322082435
0.291883143734
0.291989103751
0.291524699133
0.291989103751
0.292247055149
0.333553202746
0.364886610481
0.364919909794
0.329465849599
0.218444842034
0.0809754609109
0.0100410285716
0.698700800639
0.57795891619
0.534824308472
0.480834662893
0.417295394727
0.349134958007
0.296114132929
0.291877511586
0.291989103751
0.291331297555
0.291660740855
0.291549608308
0.299091577976
0.355051264841
0.364919909794
0.364953209018
0.334701394657
0.237986764637
0.10067525305
0.0151748265957
0.693884856408
0.542966927003
0.479847259753
0.418302167873
0.360496370527
0.308581610263
0.291873847325
0.291989103751
0.29116221841
0.291660740855
0.291236853617
0.291660740855
0.318256661761
0.361447469076
0.364953209018
0.364986508151
0.347870052169
0.268335054724
0.127453472265
0.0225742976559
1e-15
1e-15
1e-15
1e-15
1e-15
1e-15
1e-15
1e-15
1e-15
1e-15
1e-15
1e-15
1e-15
1e-15
1e-15
1e-15
1e-15
1e-15
1e-15
1e-15
1e-15
1e-15
1e-15
1e-15
1e-15
1e-15
1e-15
1e-15
1e-15
1e-15
1e-15
1e-15
1e-15
1e-15
1e-15
1e-15
1e-15
1e-15
1e-15
1e-15
1e-15
1e-15
1e-15
1e-15
1e-15
1e-15
1e-15
1e-15
1e-15
1e-15
1e-15
1e-15
1e-15
1e-15
1e-15
1e-15
1e-15
1e-15
1e-15
1e-15
1e-15
1e-15
1e-15
1e-15
1e-15
1e-15
1e-15
1e-15
1e-15
1e-15
1e-15
1e-15
1e-15
1e-15
1e-15
1e-15
1e-15
1e-15
1e-15
1e-15
1e-15
1e-15
1e-15
1e-15
1e-15
1e-15
1e-15
1e-15
1e-15
1e-15
1e-15
1e-15
1e-15
1e-15
1e-15
1e-15
1.00379430181e-15
1e-15
1e-15
1e-15
1e-15
1e-15
1e-15
1e-15
1e-15
1e-15
1e-15
1e-15
1e-15
1e-15
1e-15
1e-15
1e-15
1e-15
1e-15
1e-15
1.00577949152e-15
1e-15
1e-15
1.03273220061e-15
1e-15
1e-15
1e-15
1e-15
1e-15
1e-15
1.00007886592e-15
1.00030539824e-15
1.00053631516e-15
1.00068823795e-15
1.00066004055e-15
1.00024340975e-15
1e-15
1e-15
1e-15
1.00307792114e-15
1.00576887195e-15
1e-15
1e-15
1.08088578588e-15
1.00070665935e-15
1.00104527524e-15
1.0010626034e-15
1.00103950486e-15
1.00111963512e-15
1.00132027189e-15
1.00166452851e-15
1.00205398721e-15
1.00248568668e-15
1.00290135227e-15
1.00277286677e-15
1.00181419397e-15
1e-15
1e-15
1.00188507744e-15
1.01280487994e-15
1.00407591331e-15
1e-15
1e-15
1.12297361529e-15
1.00209730702e-15
1.00246058753e-15
1.00254215898e-15
1.00261040945e-15
1.00280426386e-15
1.00313971845e-15
1.00365118123e-15
1.00418779456e-15
1.00499907806e-15
1.00546510935e-15
1.00523482967e-15
1.00365439515e-15
1.001296567e-15
1.00062035077e-15
1.00819114728e-15
1.01283557158e-15
1.00030007052e-15
1e-15
1e-15
1.16029647037e-15
1.00251471947e-15
1.00318427661e-15
1.00348971777e-15
1.00375358333e-15
1.0041438544e-15
1.00467477107e-15
1.00540426475e-15
1.00700473714e-15
1.00836530152e-15
1.00754261983e-15
1.00714876412e-15
1.0049415102e-15
1.00240310592e-15
1.00332270383e-15
1.01718333091e-15
1.01271767285e-15
1e-15
1e-15
1e-15
1.19232108379e-15
1.00252816813e-15
1.00348971945e-15
1.00412013027e-15
1.00464676812e-15
1.0052840595e-15
1.00604719388e-15
1.00716160401e-15
1.01077263477e-15
1.01214381421e-15
1.00958750583e-15
1.00848925936e-15
1.00582813156e-15
1.00371911173e-15
1.01159684802e-15
1.01766204439e-15
1.01135702316e-15
1e-15
1e-15
1e-15
1.22029000134e-15
1.00254161679e-15
1.00386069759e-15
1.0047920915e-15
1.00556063854e-15
1.00641325601e-15
1.00740939446e-15
1.00945175051e-15
1.01346487467e-15
1.01406001022e-15
1.01179861019e-15
1.00942369283e-15
1.00658446458e-15
1.0054199983e-15
1.01758549367e-15
1.01765667629e-15
1.00857221912e-15
1e-15
1e-15
1e-15
1.24498839271e-15
1.00255506546e-15
1.00481070068e-15
1.00592013083e-15
1.00682590454e-15
1.00780995517e-15
1.00911790796e-15
1.01210639134e-15
1.01432604171e-15
1.01447826581e-15
1.01339331645e-15
1.01022151723e-15
1.00743318111e-15
1.00816756521e-15
1.01802599005e-15
1.01708965788e-15
1.00514339237e-15
1e-15
1.0108738009e-15
1e-15
1.26390277958e-15
1.00457460785e-15
1.00688025893e-15
1.00791929649e-15
1.00877311388e-15
1.00977091826e-15
1.01140057568e-15
1.01403215409e-15
1.01473572039e-15
1.01473053584e-15
1.01417259907e-15
1.01120132204e-15
1.0087226415e-15
1.01508406706e-15
1.01802676056e-15
1.01589570714e-15
1.00078533893e-15
1e-15
1.01699629261e-15
1e-15
1.44443081888e-15
1.00864015417e-15
1.01040981827e-15
1.01106648573e-15
1.01162393809e-15
1.01244707865e-15
1.01388708371e-15
1.01519563197e-15
1.01526661524e-15
1.01515314257e-15
1.01472844303e-15
1.01241135502e-15
1.0102900251e-15
1.01813157884e-15
1.01791881236e-15
1.01382874984e-15
1e-15
1e-15
1.01741124539e-15
1e-15
1.56602928896e-15
1.01439938402e-15
1.01520250481e-15
1.01510583228e-15
1.01509444229e-15
1.01544607023e-15
1.01603934376e-15
1.01619722827e-15
1.01604095111e-15
1.01581296536e-15
1.01535207591e-15
1.01363381995e-15
1.01210732277e-15
1.01813464314e-15
1.01763895482e-15
1.01108232659e-15
1e-15
1e-15
1.01753243178e-15
1e-15
1.57235905172e-15
1.02051062049e-15
1.01970671452e-15
1.01859780123e-15
1.01783578542e-15
1.01755214165e-15
1.0174355687e-15
1.01711524675e-15
1.01681260668e-15
1.0164692751e-15
1.01597218483e-15
1.01464045844e-15
1.0140653742e-15
1.01813508681e-15
1.01721788285e-15
1.00803540378e-15
1e-15
1.00033381627e-15
1.01755854584e-15
1.00005671194e-15
1.56602928896e-15
1.02383280416e-15
1.02172177454e-15
1.01993988973e-15
1.01869603902e-15
1.01809169342e-15
1.01781584856e-15
1.0175432439e-15
1.0171334594e-15
1.01674970986e-15
1.01629455935e-15
1.01521204545e-15
1.01575260341e-15
1.01813464314e-15
1.01635325407e-15
1.00366868964e-15
1e-15
1.00291915978e-15
1.01755904384e-15
1.00149391833e-15
1.57232966669e-15
1.02398199599e-15
1.02157920903e-15
1.01964969965e-15
1.01826652806e-15
1.01760871338e-15
1.01743545357e-15
1.01742845061e-15
1.01702791022e-15
1.01666463276e-15
1.01625832727e-15
1.01537618115e-15
1.01689658801e-15
1.01810269583e-15
1.01417196226e-15
1e-15
1e-15
1.00291961023e-15
1.01752360953e-15
1.00469825636e-15
1.56602928896e-15
1.02169472782e-15
1.01918693965e-15
1.01729327022e-15
1.01586909368e-15
1.01522373328e-15
1.01561496946e-15
1.01648095465e-15
1.01634264643e-15
1.01606052788e-15
1.01567654168e-15
1.01530119997e-15
1.01756755212e-15
1.01773098962e-15
1.01026455296e-15
1e-15
1e-15
1.00226251739e-15
1.01739080986e-15
1.0048098274e-15
1.57206541997e-15
1.0153255053e-15
1.01355343761e-15
1.01219782084e-15
1.01115846511e-15
1.01077247474e-15
1.01226887275e-15
1.01426751084e-15
1.01427501615e-15
1.01469655482e-15
1.01447977778e-15
1.01491295121e-15
1.0178588691e-15
1.01692599556e-15
1.00522930556e-15
1e-15
1e-15
1.0012499335e-15
1.01717383199e-15
1.00493175901e-15
1.56602928896e-15
1.00685488081e-15
1.00642782486e-15
1.00610112498e-15
1.00552967166e-15
1.00597551759e-15
1.00831591826e-15
1.01081755891e-15
1.01422708384e-15
1.01317522179e-15
1.01318252018e-15
1.01460981431e-15
1.01801613544e-15
1.01490494359e-15
1e-15
1e-15
1e-15
1.00058981498e-15
1.01684561094e-15
1.00492247925e-15
1.57170561589e-15
1.00013534168e-15
1.00015590649e-15
1.00017307075e-15
1.00031528774e-15
1.00267737817e-15
1.00606606269e-15
1.01450056647e-15
1.02859976094e-15
1.02078963253e-15
1.01317522179e-15
1.01485211994e-15
1.01830259384e-15
1.0114705504e-15
1e-15
1e-15
1e-15
1.00057607263e-15
1.01664119241e-15
1.00505292836e-15
1.56602928896e-15
1.0228579277e-15
1e-15
1e-15
1e-15
1.00184008764e-15
1.00709135973e-15
1.03018753162e-15
1.03731556987e-15
1.03482762997e-15
1.01529310653e-15
1.01636902271e-15
1.01884756847e-15
1.00750270977e-15
1e-15
1e-15
1e-15
1.00129529697e-15
1.01695453598e-15
1.00493867967e-15
1.57130111515e-15
2.38271697834e-15
1e-15
1e-15
1e-15
1.00428196629e-15
1.01897002826e-15
1.03664455707e-15
1.03821763099e-15
1.03812061289e-15
1.03039711746e-15
1.01981706229e-15
1.01923640231e-15
1.00410171904e-15
1e-15
1e-15
1e-15
1.00302187089e-15
1.01838081906e-15
1.00511708097e-15
1.56602928896e-15
3.206565158e-14
1e-15
1e-15
1.00491035677e-15
1.01137532771e-15
1.03322791136e-15
1.03819024498e-15
1.03846614223e-15
1.03821763099e-15
1.03692113786e-15
1.02479934884e-15
1.01908330032e-15
1.00261952866e-15
1e-15
1e-15
1e-15
1.00522613091e-15
1.02115610595e-15
1.00696729752e-15
1.57089662708e-15
3.57938298057e-13
1e-15
1.00251568208e-15
1.01491680319e-15
1.01856428861e-15
1.0367186125e-15
1.03854013662e-15
1.03821763099e-15
1.03851597359e-15
1.03765791703e-15
1.02888000553e-15
1.0191511115e-15
1.00254873215e-15
1e-15
1e-15
1e-15
1.00749943505e-15
1.02426262625e-15
1.02306531065e-15
1.56602928896e-15
2.11208680759e-11
1e-15
1.00150528987e-15
1.01842652283e-15
1.02392079854e-15
1.03837038678e-15
1.03821763099e-15
1.03881946196e-15
1.03821763099e-15
1.0383028884e-15
1.03153545286e-15
1.01967548191e-15
1.00300067879e-15
1e-15
1e-15
1e-15
1.00978424396e-15
1.02704015644e-15
1.03042874973e-15
1.57055994597e-15
8.55427598743e-10
1e-15
1e-15
1.01784363794e-15
1.03184021184e-15
1.03818697164e-15
1.03903706317e-15
1.03821763099e-15
1.03873766839e-15
1.03821763099e-15
1.03383275531e-15
1.02047508093e-15
1.00385006131e-15
1e-15
1e-15
1e-15
1.01210681702e-15
1.02949741938e-15
1.03408497114e-15
1.56602928896e-15
4.85865057895e-08
1e-15
1e-15
1.01134867081e-15
1.03803514303e-15
1.03899826151e-15
1.03821763099e-15
1.03909415632e-15
1.03821763099e-15
1.03841981525e-15
1.03576653428e-15
1.02106731383e-15
1.00495744496e-15
1e-15
1e-15
1.0039950944e-15
1.01422490198e-15
1.03170974931e-15
1.03654124677e-15
1.57033895482e-15
5.3171384193e-07
1e-15
1e-15
1.00315468168e-15
1.03853535966e-15
1.03821763099e-15
1.03934247403e-15
1.03821763099e-15
1.03882267505e-15
1.03821763099e-15
1.03662351858e-15
1.02097956993e-15
1.00662696001e-15
1.00030307452e-15
1.00159818597e-15
1.00944999771e-15
1.01582831165e-15
1.0333124164e-15
1.03808068008e-15
1.56602928896e-15
2.96665922118e-06
1e-15
1e-15
1.00231866293e-15
1.03821442969e-15
1.03933989478e-15
1.03821763099e-15
1.0391076863e-15
1.03821763099e-15
1.03843928692e-15
1.0366153937e-15
1.01953459242e-15
1.00838308717e-15
1.00789338121e-15
1.00903769506e-15
1.01156891279e-15
1.01689989838e-15
1.0340315421e-15
1.03872201994e-15
1.57013860255e-15
1.19118399122e-05
1e-15
1e-15
1.00276298089e-15
1.03868580488e-15
1.03821763099e-15
1.03938536487e-15
1.03821763099e-15
1.03878347785e-15
1.03821763099e-15
1.03535795838e-15
1.01693213477e-15
1.00996627491e-15
1.01023667136e-15
1.01114925501e-15
1.01299266171e-15
1.01755324861e-15
1.03400148484e-15
1.0387718285e-15
1.56602928896e-15
3.65462106409e-05
1e-15
1e-15
1.00020715852e-15
1.03821763099e-15
1.03945223718e-15
1.03821763099e-15
1.0391402847e-15
1.03821763099e-15
1.03842335552e-15
1.03182244036e-15
1.01461284775e-15
1.01089128351e-15
1.011013336e-15
1.01182726807e-15
1.01367839411e-15
1.01777566661e-15
1.0332903724e-15
1.03819427825e-15
1.56995138044e-15
9.08237537057e-05
1e-15
1e-15
1e-15
1.03856767422e-15
1.03821763099e-15
1.03944312384e-15
1.03821763099e-15
1.03873672105e-15
1.03821763099e-15
1.0266674722e-15
1.0128316549e-15
1.01088816639e-15
1.01090451643e-15
1.01163736535e-15
1.01346931697e-15
1.01741165191e-15
1.03197904417e-15
1.03642126924e-15
1.56602928896e-15
0.000192003055229
1e-15
1e-15
1e-15
1.03514881483e-15
1.03926243901e-15
1.03821763099e-15
1.03903132021e-15
1.03821763099e-15
1.03828603585e-15
1.02120422827e-15
1.01093985172e-15
1.00972087133e-15
1.00956751028e-15
1.0102062886e-15
1.01203733173e-15
1.0160197414e-15
1.03002128806e-15
1.03261650559e-15
1.56969560367e-15
0.000360893666037
4.74551620634e-10
1e-15
1.00115627127e-15
1.03050950534e-15
1.03821763099e-15
1.03924641041e-15
1.03821763099e-15
1.0385006089e-15
1.03732727389e-15
1.01535415557e-15
1.00827420734e-15
1.00723738778e-15
1.00705672438e-15
1.00760685037e-15
1.00925232631e-15
1.01340644277e-15
1.02739758519e-15
1.0273166225e-15
1.56602928896e-15
0.000648372982321
8.83022138266e-08
1e-15
)
;

boundaryField
{
    emptyPatch
    {
        type            empty;
    }
    minY
    {
        type            fixedValue;
        value           uniform 1e-15;
    }
    maxY
    {
        type            inletOutlet;
        phi             phi.gas;
        inletValue      nonuniform List<scalar> 0();
        value           nonuniform List<scalar> 0();
    }
    water_to_cooler
    {
        type            zeroGradient;
    }
    water_to_heater
    {
        type            zeroGradient;
    }
    procBoundary2to3
    {
        type            processor;
        value           nonuniform List<scalar> 
41
(
0.696926802144
0.49328096995
0.417396185628
0.354887899919
0.313966506036
0.29194001987
0.291989103751
0.291114942429
0.291660740855
0.291028520943
0.2914429633
0.293978555715
0.327633499394
0.355110221097
0.359638807839
0.365545158128
0.371366530861
0.308492139165
0.164893872438
0.0343793372495
1e-15
1e-15
1.03858472764e-15
1.03821763099e-15
1.03864023575e-15
1.03821763099e-15
1.0294871958e-15
1.00918455195e-15
1.0053166885e-15
1.00459521617e-15
1.00452064089e-15
1.00496333176e-15
1.00622256198e-15
1.00977049368e-15
1.02461116512e-15
1.02181135758e-15
1.56944870464e-15
0.00122973936842
1.08814868837e-06
1e-15
1e-15
)
;
    }
}


// ************************************************************************* //
