/*--------------------------------*- C++ -*----------------------------------*\
| =========                 |                                                 |
| \\      /  F ield         | OpenFOAM: The Open Source CFD Toolbox           |
|  \\    /   O peration     | Version:  2312                                  |
|   \\  /    A nd           | Website:  www.openfoam.com                      |
|    \\/     M anipulation  |                                                 |
\*---------------------------------------------------------------------------*/
FoamFile
{
    version     2.0;
    format      ascii;
    arch        "LSB;label=32;scalar=64";
    class       volScalarField;
    location    "0.845/water";
    object      d.gas;
}
// * * * * * * * * * * * * * * * * * * * * * * * * * * * * * * * * * * * * * //

dimensions      [0 1 0 0 0 0 0];

internalField   nonuniform List<scalar> 
1503
(
0.0049782230062
0.00497828526068
0.00497830161393
0.00497831442309
0.00497832548406
0.00497833553027
0.0049783448938
0.0049783535695
0.00497836148963
0.00497836867786
0.00497837515641
0.0049783809691
0.00497838618418
0.00497839086684
0.00497839506879
0.00497839883051
0.00497840218129
0.00497840514061
0.00497840771724
0.0049784099123
0.00497853199266
0.00497856211567
0.0049785597714
0.00497856009977
0.00497856535453
0.00497857035031
0.00497857527087
0.00497858018991
0.00497858521619
0.00497859023678
0.00497859502543
0.0049785994943
0.00497860367302
0.00497860759476
0.00497861126518
0.00497861467236
0.00497861779624
0.00497862061483
0.00497862310431
0.00497862524118
0.00497880642195
0.00497883771714
0.0049788258011
0.00497881704387
0.00497881552873
0.00497881478484
0.00497881472175
0.00497881548238
0.00497881698202
0.00497881909282
0.00497882159383
0.0049788242258
0.00497882684957
0.0049788294384
0.0049788319867
0.00497883447465
0.00497883686625
0.00497883911713
0.00497884117909
0.0049788430074
0.00497904239637
0.00497906390225
0.00497905083914
0.00497904518103
0.00497904607405
0.00497904643666
0.00497904626187
0.0049790462182
0.00497904658301
0.0049790474123
0.00497904866709
0.0049790501981
0.00497905184112
0.0049790535154
0.004979055201
0.00497905688964
0.00497905856258
0.00497906018972
0.00497906173233
0.00497906315218
0.00497927583027
0.00497929014682
0.00497927265274
0.00497926683166
0.00497926861102
0.00497927025306
0.00497927096855
0.00497927136978
0.00497927193258
0.00497927276739
0.00497927386353
0.00497927514964
0.00497927650725
0.00497927785023
0.00497927915143
0.00497928041262
0.00497928163654
0.00497928281851
0.00497928394497
0.00497928500066
0.00497949244394
0.00497950826175
0.00497949185138
0.00497948589584
0.00497948739555
0.00497949006147
0.00497949227251
0.00497949387953
0.00497949528907
0.00497949673628
0.00497949822198
0.0049794997084
0.00497950112979
0.00497950242883
0.00497950359074
0.00497950463127
0.00497950557313
0.00497950643559
0.00497950723047
0.00497950796707
0.00497971512658
0.00497973720108
0.00497972236396
0.0049797153529
0.00497971461632
0.00497971586452
0.00497971776532
0.00497971966034
0.00497972136584
0.00497972301747
0.00497972458449
0.00497972600012
0.00497972723579
0.00497972827708
0.00497972913047
0.00497972982422
0.00497973039349
0.00497973087208
0.00497973128758
0.0049797316668
0.00497995082284
0.00497997839259
0.00497996649948
0.00497995836477
0.00497995537426
0.00497995409463
0.0049799537464
0.00497995391221
0.00497995423813
0.00497995469543
0.00497995521642
0.00497995564237
0.00497995592586
0.00497995608274
0.0049799561331
0.0049799561022
0.0049799560189
0.00497995591267
0.0049799558106
0.00497995573762
0.00498020990239
0.00498023533007
0.00498021662733
0.00498020728579
0.00498020340313
0.00498020013593
0.00498019734227
0.00498019499964
0.00498019286841
0.00498019087679
0.00498018918339
0.00498018768175
0.00498018626653
0.00498018495049
0.0049801837537
0.00498018267841
0.00498018172451
0.00498018089641
0.00498018019998
0.00498017964185
0.00498048372472
0.00498049921105
0.00498047137549
0.00498045905871
0.0049804528815
0.00498044705959
0.00498044118588
0.00498043578601
0.00498043088467
0.00498042620408
0.00498042194268
0.0049804182571
0.0049804150378
0.0049804122387
0.00498040984503
0.00498040781908
0.00498040611775
0.00498040470862
0.00498040356782
0.00498040267782
0.00498069147122
0.00498070327262
0.0049806823451
0.00498067558769
0.0049806731969
0.00498066995326
0.00498066552055
0.00498066065513
0.00498065580308
0.00498065097151
0.00498064617391
0.00498064177023
0.00498063791624
0.00498063461904
0.00498063185155
0.00498062956512
0.00498062770184
0.00498062621329
0.00498062506076
0.00498062421272
0.00498089364519
0.00498090855077
0.00498088871575
0.00498088057121
0.0049808777847
0.00498087520827
0.00498087210813
0.00498086879581
0.00498086563348
0.00498086259014
0.00498085938855
0.00498085610727
0.00498085309456
0.0049808505798
0.00498084856245
0.00498084697474
0.00498084576497
0.0049808448919
0.00498084431925
0.00498084401476
0.00498105025999
0.0049810739646
0.00498106774409
0.00498106519023
0.00498106615914
0.00498106672981
0.00498106660108
0.00498106620003
0.00498106572859
0.00498106508915
0.00498106415715
0.00498106290154
0.00498106167832
0.00498106089148
0.0049810605597
0.00498106053309
0.00498106073713
0.00498106114285
0.00498106172233
0.00498106244762
0.00498125715167
0.00498128306833
0.00498126849177
0.00498126214069
0.00498126114493
0.00498126119719
0.00498126190057
0.00498126299166
0.00498126403238
0.00498126464709
0.00498126489479
0.00498126520186
0.00498126595862
0.00498126745396
0.00498126950423
0.00498127173284
0.00498127396692
0.00498127617909
0.00498127835253
0.00498128046745
0.00498142473772
0.00498145594011
0.00498144626512
0.00498144398464
0.00498144670255
0.00498145003802
0.00498145385973
0.00498145805592
0.00498146145456
0.00498146326237
0.00498146410176
0.00498146553372
0.00498146843075
0.00498147271864
0.00498147782356
0.00498148289427
0.00498148760545
0.00498149193978
0.00498149591807
0.0049814995479
0.00498162715272
0.00498166364891
0.00498164840628
0.00498164259591
0.00498164423373
0.0049816482833
0.00498165411017
0.00498166048753
0.0049816652264
0.00498166741303
0.00498166837517
0.00498167033658
0.00498167488478
0.00498168174449
0.00498168989385
0.00498169779612
0.00498170488057
0.00498171115488
0.00498171669444
0.0049817215561
0.00498181550902
0.0049818584833
0.00498184931156
0.00498184699892
0.00498185266043
0.00498186102679
0.00498187074881
0.00498187923043
0.00498188436582
0.00498188649361
0.00498188729328
0.00498188899164
0.00498189367582
0.00498190174048
0.00498191171518
0.00498192133684
0.00498192971889
0.00498193693452
0.00498194311708
0.00498194837108
0.00498204673837
0.00498209913935
0.00498209393764
0.00498209283064
0.00498209986377
0.00498210901169
0.00498211818834
0.00498212517293
0.00498212889102
0.00498212984182
0.00498212946027
0.00498212945646
0.0049821321234
0.00498213898285
0.00498214849041
0.00498215767575
0.00498216532652
0.00498217166385
0.00498217690895
0.00498218119399
0.00498232227455
0.0049823726645
0.00498236462612
0.00498236462614
0.00498237220595
0.00498238099289
0.00498238969207
0.00498239612076
0.00498239891242
0.00498239897096
0.00498239731039
0.00498239483845
0.00498239378889
0.00498239650081
0.00498240236093
0.00498240825347
0.00498241261626
0.00498241577771
0.00498241812654
0.00498241981578
0.00498261097177
0.00498266383425
0.00498265602816
0.0049826579629
0.00498266700709
0.00498267663362
0.00498268488894
0.00498268957474
0.00498269052533
0.00498268886321
0.00498268536625
0.00498268068478
0.00498267621319
0.00498267286833
0.00498267125889
0.0049826705121
0.00498266899062
0.00498266680055
0.0049826644519
0.00498266211759
0.00498294929126
0.00498300638177
0.00498299620031
0.00498299359884
0.00498299607137
0.00498299763728
0.00498299703334
0.00498299342564
0.00498298744627
0.0049829806664
0.00498297411239
0.00498296798916
0.00498296209567
0.00498295510327
0.00498294567077
0.00498293623901
0.00498292736313
0.00498291881573
0.00498291099728
0.00498290407641
0.00498330634549
0.00498335596843
0.0049833363625
0.00498332484329
0.00498331706014
0.00498330733693
0.00498329546188
0.00498328182581
0.00498326760043
0.00498325499229
0.00498324483083
0.00498323588181
0.00498322708908
0.00498321870656
0.00498320769575
0.00498319262079
0.00498317761513
0.00498316377745
0.00498315145413
0.00498314075489
0.00498358999873
0.00498361868926
0.00498359896132
0.00498358719198
0.0049835781386
0.00498356602912
0.00498355046144
0.004983532913
0.00498351521598
0.00498349906832
0.00498348508848
0.00498347280163
0.00498346186464
0.0049834524946
0.0049834427219
0.00498342832783
0.00498341121674
0.00498339498054
0.00498338060029
0.00498336813344
0.00498380601532
0.00498381002057
0.00498378659276
0.00498377744954
0.00498377212765
0.00498376394605
0.00498375145352
0.0049837362027
0.00498372016527
0.00498370491857
0.00498369200898
0.0049836803634
0.00498366970503
0.00498365909907
0.00498364937702
0.00498363877567
0.00498362444632
0.0049836096209
0.00498359623719
0.0049835845251
0.00498395204412
0.00498395134164
0.00498392988962
0.00498392485475
0.00498392390475
0.00498392070044
0.00498391349441
0.00498390362229
0.0049838925087
0.0049838829124
0.00498387542088
0.00498386623615
0.00498385713072
0.00498384730275
0.00498383810809
0.00498383026684
0.00498382053016
0.00498380971219
0.00498379976427
0.00498379093265
0.00498410156328
0.00498410017392
0.00498407723575
0.00498407149288
0.00498407072568
0.0049840689745
0.00498406452943
0.00498405805336
0.00498405163833
0.00498404921111
0.00498404448034
0.00498403894669
0.00498403278449
0.00498402560709
0.00498401787599
0.00498401177932
0.00498400614292
0.0049840001359
0.00498399488407
0.00498399017915
0.00498422473711
0.00498422951571
0.00498421348549
0.00498421020397
0.00498421114233
0.00498421148349
0.00498420937405
0.00498420566394
0.00498420515656
0.00498420742144
0.00498420744728
0.00498420442173
0.00498420224076
0.00498419985171
0.00498419524361
0.00498419071172
0.00498418785991
0.0049841862791
0.00498418589466
0.00498418569321
0.00498437079693
0.00498437993261
0.00498436555761
0.00498436047845
0.00498435989365
0.00498435924396
0.00498435698923
0.00498435582189
0.00498436151988
0.00498436917187
0.00498436842068
0.00498437002149
0.00498437189757
0.00498437334864
0.00498437471455
0.00498437139779
0.00498437014071
0.00498437227832
0.00498437638611
0.0049843805422
0.00498450363901
0.00498451513821
0.0049845001267
0.00498449735845
0.00498449922037
0.00498450115423
0.00498450270013
0.00498450833816
0.00498452146223
0.00498452760707
0.00498453414425
0.00498453744891
0.00498454363099
0.00498455539679
0.00498456016641
0.0049845567031
0.00498455614708
0.00498456111714
0.00498456894907
0.00498457706512
0.00498466752823
0.00498468100365
0.00498465809474
0.00498465301974
0.00498465448188
0.00498465697138
0.00498466110733
0.00498467275559
0.00498468693099
0.00498469865224
0.00498470425818
0.00498471475836
0.00498472665716
0.00498474111564
0.004984748921
0.00498474426917
0.00498474574725
0.00498475347544
0.00498476462338
0.00498477661116
0.00498480964584
0.00498482969934
0.00498480991251
0.00498480762549
0.00498481235643
0.00498481864546
0.0049848284829
0.0049848461351
0.00498486432662
0.00498487246514
0.00498488508938
0.00498489490179
0.00498491001533
0.00498493641318
0.00498493721525
0.00498493723115
0.00498493982767
0.00498494949215
0.00498496406926
0.0049849803823
0.0049849783089
0.00498500805612
0.00498498658593
0.00498498251741
0.00498498751877
0.00498499590078
0.00498501092443
0.00498503359936
0.00498504662312
0.00498506213918
0.00498507284118
0.00498508768844
0.00498512077698
0.00498513516954
0.00498513705611
0.00498513762827
0.00498514105029
0.00498515220225
0.00498517032453
0.00498519120509
0.0049851242764
0.00498516786859
0.00498515796426
0.00498515904391
0.00498516957038
0.00498518467277
0.00498520774343
0.00498522966149
0.00498525000576
0.00498526393084
0.00498528307602
0.00498530733493
0.00498533085295
0.00498534285979
0.00498534759557
0.00498535303145
0.0049853561612
0.00498536786479
0.0049853887272
0.00498541347124
0.00498531193476
0.00498536872185
0.00498535391986
0.00498535747889
0.00498537348768
0.00498539496165
0.00498542086729
0.00498544721891
0.00498546388213
0.00498548604232
0.00498550765228
0.00498553792905
0.0049855657611
0.00498557090111
0.00498558206691
0.0049855864513
0.00498559027748
0.00498560214179
0.00498562443968
0.00498565163356
0.00498550990879
0.00498558035371
0.00498556966551
0.00498557863294
0.00498560094429
0.00498562630104
0.00498565532381
0.00498567941235
0.00498570647674
0.0049857349493
0.00498576614878
0.00498580437403
0.00498581272489
0.00498582589362
0.00498583661232
0.00498584435715
0.00498585000161
0.00498586172873
0.00498588293465
0.00498591013364
0.00498569216361
0.00498578971654
0.00498580012756
0.00498581728469
0.00498584438807
0.00498587464014
0.00498591005107
0.00498594811757
0.0049859860865
0.00498601849411
0.00498605320943
0.00498607061005
0.00498608682321
0.00498610381702
0.00498612022647
0.00498613223653
0.00498614319455
0.00498615401128
0.00498617008673
0.00498619322788
0.00498592047718
0.00498606006293
0.00498608610559
0.0049861067
0.00498613865384
0.00498618020139
0.00498622731396
0.00498626839674
0.00498629913319
0.00498632683066
0.00498635121844
0.00498637409892
0.00498639792575
0.00498642102887
0.00498644241005
0.00498646186732
0.00498647707507
0.00498648359672
0.00498649104145
0.00498650408223
0.0049864032573
0.0049865837778
0.00498659929486
0.00498659652528
0.00498660883049
0.00498663722461
0.00498666687218
0.00498668801706
0.00498670503572
0.00498672326763
0.00498674317335
0.00498676366695
0.00498678321133
0.00498680101468
0.00498681903171
0.00498683600705
0.0049868444984
0.00498684569338
0.00498684438989
0.00498684181497
0.0049784116769
0.00497841295629
0.00497841377214
0.00497841417791
0.00497841421518
0.00497841391525
0.00497841330007
0.00497841238449
0.00497841117676
0.00497840968003
0.00497840789191
0.00497840580367
0.00497840339613
0.00497840063409
0.00497839746586
0.00497839386271
0.00497838987788
0.00497838542396
0.0049783793548
0.00497831791853
0.00497862696563
0.00497862821826
0.00497862901786
0.00497862942069
0.00497862947389
0.00497862921635
0.00497862868059
0.00497862789522
0.0049786268852
0.00497862567208
0.00497862427162
0.00497862269096
0.00497862092588
0.0049786189682
0.00497861683988
0.00497861464008
0.00497861248768
0.00497861035429
0.00497860794953
0.00497860783707
0.00497884453717
0.00497884570068
0.00497884649757
0.00497884697539
0.00497884718173
0.00497884715967
0.00497884694778
0.00497884658081
0.00497884608828
0.00497884549358
0.00497884481206
0.00497884405198
0.00497884322171
0.00497884235069
0.00497884151707
0.00497884083284
0.00497884035493
0.00497884000037
0.00497883959824
0.00497884129687
0.00497906440023
0.00497906541375
0.00497906617463
0.00497906671506
0.00497906707199
0.00497906727954
0.00497906736738
0.00497906736031
0.00497906727658
0.0049790671278
0.00497906691952
0.00497906665638
0.00497906635255
0.00497906604667
0.00497906580165
0.00497906565885
0.00497906556665
0.00497906537018
0.00497906507323
0.00497906656174
0.00497928596589
0.00497928679588
0.00497928746555
0.00497928799516
0.00497928840847
0.00497928872643
0.00497928896558
0.00497928913796
0.00497928925008
0.00497928930422
0.00497928930084
0.004979289245
0.00497928915488
0.00497928906801
0.00497928902722
0.00497928903471
0.00497928901006
0.00497928886711
0.00497928878504
0.00497929007579
0.00497950865527
0.00497950927174
0.00497950979402
0.00497951023545
0.00497951060891
0.00497951092422
0.00497951118732
0.00497951140083
0.00497951156394
0.00497951167459
0.00497951173262
0.00497951174574
0.00497951173496
0.00497951173444
0.00497951177019
0.00497951181727
0.00497951178551
0.00497951167983
0.00497951171044
0.00497951270762
0.00497973203717
0.00497973239332
0.00497973271678
0.00497973301089
0.00497973327815
0.0049797335187
0.00497973373004
0.00497973390803
0.00497973404734
0.00497973414401
0.00497973419849
0.00497973422032
0.0049797342307
0.00497973425748
0.00497973430969
0.0049797343415
0.00497973428159
0.00497973422412
0.0049797343173
0.00497973508073
0.00497995572568
0.0049799557788
0.00497995587037
0.00497995598735
0.00497995611898
0.00497995625485
0.00497995638437
0.00497995649763
0.00497995658588
0.00497995664396
0.00497995667264
0.00497995668197
0.00497995669137
0.00497995672094
0.00497995676397
0.00497995676262
0.00497995669016
0.00497995668571
0.00497995679816
0.00497995738598
0.00498017924752
0.00498017901395
0.004980178895
0.00498017885587
0.00498017887014
0.00498017891625
0.0049801789758
0.00498017903385
0.00498017907896
0.00498017910504
0.00498017911292
0.00498017911226
0.00498017911967
0.00498017914682
0.00498017917296
0.00498017914014
0.00498017907792
0.00498017911856
0.00498017922835
0.00498017969083
0.00498040204799
0.00498040165776
0.004980401438
0.00498040133425
0.00498040130695
0.00498040132588
0.00498040136725
0.00498040141317
0.00498040145106
0.00498040147491
0.00498040148598
0.00498040149352
0.00498040151112
0.00498040154203
0.00498040155445
0.00498040150547
0.00498040147333
0.00498040154701
0.00498040164833
0.00498040202194
0.00498062366272
0.00498062336981
0.00498062324993
0.00498062324127
0.00498062330026
0.00498062339496
0.00498062350151
0.00498062360313
0.00498062368912
0.00498062375561
0.0049806238056
0.00498062384883
0.00498062389621
0.00498062394326
0.0049806239522
0.00498062390942
0.00498062391977
0.00498062401681
0.00498062411242
0.00498062442387
0.00498084395752
0.00498084408601
0.00498084431594
0.0049808445966
0.00498084489385
0.00498084518402
0.00498084545062
0.00498084568353
0.00498084587795
0.00498084603503
0.00498084616149
0.00498084626876
0.0049808463658
0.00498084644175
0.00498084646043
0.00498084644583
0.00498084650327
0.00498084661886
0.00498084671406
0.00498084698317
0.0049810632795
0.0049810641348
0.00498106494469
0.00498106568879
0.00498106635658
0.00498106694322
0.00498106744744
0.0049810678715
0.00498106822065
0.00498106850388
0.0049810687335
0.00498106892375
0.00498106908211
0.00498106919352
0.00498106923304
0.00498106926128
0.00498106936318
0.00498106949541
0.00498106959458
0.00498106983606
0.00498128246489
0.00498128424486
0.00498128577203
0.0049812870739
0.0049812881763
0.00498128910239
0.00498128987269
0.00498129050643
0.00498129102192
0.00498129143785
0.00498129177313
0.00498129204501
0.00498129225962
0.00498129240077
0.00498129246432
0.00498129253783
0.00498129267505
0.0049812928214
0.0049812929263
0.00498129315069
0.0049815027646
0.00498150547164
0.0049815076891
0.00498150950615
0.00498151099373
0.00498151220856
0.00498151319631
0.0049815139949
0.00498151463638
0.00498151514899
0.00498151555752
0.00498151588105
0.00498151612392
0.0049815162727
0.00498151635077
0.00498151645751
0.00498151661456
0.00498151676868
0.00498151687729
0.00498151709117
0.00498172569216
0.00498172903915
0.00498173168902
0.00498173379429
0.00498173547025
0.00498173680523
0.00498173786735
0.00498173871025
0.00498173937655
0.00498173990095
0.00498174031094
0.0049817406246
0.00498174084348
0.00498174096115
0.00498174102957
0.00498174114391
0.00498174129956
0.00498174144994
0.0049817415562
0.00498174176237
0.00498195268045
0.00498195603835
0.00498195860452
0.00498196057456
0.00498196209175
0.00498196326261
0.0049819641666
0.0049819648638
0.00498196539958
0.00498196580841
0.00498196611482
0.00498196633146
0.00498196645569
0.00498196649163
0.0049819665142
0.00498196660114
0.00498196673005
0.00498196686076
0.0049819669552
0.00498196715277
0.00498218453595
0.00498218699213
0.00498218875778
0.00498219002641
0.00498219093582
0.00498219158536
0.00498219204626
0.00498219236981
0.00498219259218
0.0049821927381
0.00498219282162
0.00498219284475
0.0049821927991
0.00498219270101
0.00498219263725
0.00498219265994
0.00498219273653
0.00498219283031
0.00498219290208
0.00498219308742
0.00498242088353
0.00498242143491
0.00498242164066
0.00498242162821
0.00498242148435
0.00498242126811
0.00498242101807
0.00498242075853
0.00498242050282
0.00498242025567
0.00498242001307
0.00498241976164
0.00498241948625
0.00498241921443
0.00498241903123
0.00498241896048
0.00498241896469
0.00498241900742
0.00498241904724
0.00498241921526
0.00498265982761
0.00498265768898
0.00498265577127
0.00498265406933
0.00498265257379
0.00498265127198
0.0049826501478
0.00498264918298
0.00498264835697
0.00498264764672
0.00498264702505
0.00498264646058
0.00498264593167
0.00498264547378
0.00498264515783
0.00498264498154
0.00498264490535
0.00498264489108
0.00498264489462
0.00498264504091
0.00498289806432
0.00498289302499
0.00498288887156
0.00498288542867
0.00498288256672
0.00498288018578
0.00498287820519
0.00498287655794
0.00498287518602
0.00498287403683
0.00498287305958
0.00498287220589
0.00498287145005
0.00498287083116
0.00498287039781
0.00498287012726
0.0049828699794
0.00498286991387
0.00498286988421
0.00498287000691
0.00498313171211
0.00498312435124
0.00498311843934
0.00498311365124
0.00498310975151
0.00498310656413
0.00498310395296
0.00498310180997
0.00498310004628
0.00498309858563
0.00498309735884
0.0049830963057
0.00498309540137
0.00498309468472
0.00498309417955
0.00498309385013
0.00498309365694
0.00498309355846
0.00498309350686
0.00498309360812
0.00498335766738
0.0049833492372
0.00498334253814
0.00498333716957
0.00498333284043
0.00498332933401
0.00498332648466
0.00498332416298
0.00498332226452
0.00498332070128
0.00498331939533
0.00498331828333
0.00498331734798
0.00498331662538
0.0049833161174
0.00498331578303
0.00498331558468
0.00498331548152
0.00498331542584
0.00498331551189
0.00498357463796
0.00498356668106
0.00498356038034
0.00498355535696
0.0049835513296
0.00498354808673
0.00498354546637
0.00498354334239
0.00498354161341
0.00498354019397
0.0049835390087
0.00498353800169
0.00498353716971
0.00498353654511
0.00498353611437
0.00498353583771
0.00498353568114
0.00498353560659
0.00498353556815
0.00498353564849
0.00498378337741
0.00498377727505
0.00498377245211
0.00498376862731
0.00498376558273
0.00498376315075
0.00498376120167
0.00498375963413
0.00498375836605
0.00498375732691
0.00498375645436
0.0049837557102
0.00498375510997
0.00498375468233
0.00498375440644
0.00498375424842
0.00498375417955
0.00498375416632
0.00498375416632
0.00498375425198
0.00498398608435
0.00498398277943
0.00498398020324
0.00498397820516
0.00498397665788
0.00498397545943
0.00498397452942
0.00498397380459
0.00498397323242
0.0049839727656
0.00498397236295
0.00498397201223
0.00498397174928
0.00498397160009
0.00498397154401
0.00498397155589
0.00498397161359
0.00498397168958
0.00498397174626
0.00498397184828
0.00498418552348
0.00498418547495
0.00498418556012
0.00498418575243
0.00498418601659
0.00498418632047
0.00498418663791
0.00498418694822
0.00498418723244
0.00498418747049
0.00498418764817
0.00498418778432
0.00498418793358
0.00498418812101
0.00498418833199
0.00498418855134
0.0049841887644
0.00498418895042
0.00498418907765
0.00498418920591
0.0049843843061
0.0049843876152
0.00498439050097
0.00498439303337
0.00498439525502
0.00498439719658
0.00498439888267
0.00498440033363
0.00498440156369
0.00498440258163
0.00498440340421
0.00498440408331
0.00498440468891
0.00498440524755
0.00498440575442
0.0049844062046
0.00498440659128
0.00498440690079
0.00498440710784
0.00498440727068
0.00498458456064
0.00498459115038
0.00498459682817
0.00498460172662
0.00498460594706
0.00498460957209
0.00498461267088
0.00498461530126
0.00498461750922
0.00498461933383
0.00498462082618
0.00498462207053
0.00498462314862
0.00498462409137
0.0049846249057
0.00498462559673
0.0049846261654
0.00498462660501
0.00498462689688
0.0049846271011
0.0049847878114
0.0049847976715
0.00498480614001
0.00498481340635
0.00498481962597
0.00498482493111
0.00498482943446
0.00498483323123
0.00498483640054
0.00498483901534
0.00498484116478
0.00498484296351
0.0049848445026
0.00498484582037
0.00498484693606
0.00498484786425
0.00498484861316
0.00498484918245
0.00498484955981
0.00498484981068
0.00498499558254
0.00498500884561
0.00498502014122
0.00498502975874
0.00498503793053
0.00498504485116
0.00498505068458
0.00498505556868
0.00498505962113
0.00498506295495
0.00498506570098
0.00498506800138
0.00498506995546
0.00498507161129
0.00498507299977
0.00498507414399
0.00498507505845
0.00498507574799
0.00498507620582
0.00498507650643
0.00498521049635
0.0049852270925
0.00498524106449
0.00498525284355
0.00498526276226
0.00498527109042
0.00498527805078
0.00498528382952
0.00498528858878
0.00498529248754
0.00498529569936
0.00498529838928
0.00498530066392
0.00498530258152
0.00498530418272
0.0049853054973
0.00498530654428
0.0049853073317
0.00498530785669
0.00498530820644
0.004985436243
0.00498545554188
0.00498547160687
0.00498548501465
0.00498549619442
0.004985505488
0.00498551317504
0.00498551949035
0.00498552464308
0.00498552883988
0.00498553229272
0.0049855351821
0.00498553761956
0.00498553967117
0.00498554138371
0.0049855427907
0.00498554391289
0.00498554475853
0.00498554532615
0.00498554571875
0.00498567663692
0.00498569740821
0.0049857144711
0.00498572855492
0.00498574016341
0.0049857496922
0.00498575746622
0.00498576376294
0.00498576883551
0.00498577293277
0.00498577629376
0.00498577910376
0.00498578147403
0.00498578347301
0.00498578514825
0.00498578653258
0.00498578764454
0.0049857884886
0.004985789061
0.00498578948243
0.00498593532971
0.00498595564321
0.00498597200217
0.00498598531537
0.00498599612085
0.00498600483089
0.00498601179131
0.00498601730665
0.00498602166106
0.00498602512941
0.00498602795823
0.00498603032295
0.00498603232548
0.00498603402799
0.00498603547141
0.00498603668196
0.00498603767084
0.00498603843374
0.00498603895986
0.00498603938736
0.00498621542996
0.00498623246524
0.00498624569554
0.00498625623242
0.0049862645782
0.00498627109246
0.00498627609522
0.00498627988485
0.004986282747
0.00498628495215
0.0049862867259
0.00498628821454
0.00498628949726
0.00498629061824
0.00498629160257
0.00498629246243
0.00498629319564
0.00498629378347
0.00498629420244
0.00498629460492
0.00498651840638
0.0049865283128
0.00498653528711
0.00498654055254
0.00498654445367
0.00498654717961
0.00498654894432
0.00498654998136
0.00498655052755
0.00498655080419
0.00498655098035
0.00498655115019
0.00498655135331
0.00498655160254
0.00498655189666
0.00498655222574
0.00498655256779
0.00498655288429
0.00498655313334
0.00498655347555
0.00498684177666
0.0049868400719
0.00498683743582
)
;

boundaryField
{
    emptyPatch
    {
        type            empty;
    }
    minY
    {
        type            calculated;
        value           nonuniform List<scalar> 
40
(
0.00497813391211
0.00497818913484
0.00497819766686
0.0049782081288
0.00497821852723
0.00497822843743
0.00497823777779
0.00497824644971
0.00497825436891
0.00497826155651
0.00497826803451
0.0049782738467
0.00497827906133
0.00497828374358
0.00497828794517
0.00497829170657
0.00497829505706
0.00497829801613
0.00497830059253
0.00497830278741
0.00497830455185
0.00497830583113
0.00497830664691
0.00497830705265
0.00497830708992
0.00497830679001
0.00497830617489
0.00497830525938
0.00497830405176
0.00497830255516
0.0049783007672
0.00497829867913
0.0049782962718
0.00497829351
0.00497829034204
0.0049782867392
0.00497828275471
0.00497827830117
0.00497827223253
0.00497821080156
)
;
    }
    maxY
    {
        type            calculated;
        value           nonuniform List<scalar> 0();
    }
    water_to_cooler
    {
        type            calculated;
        value           nonuniform List<scalar> 
37
(
0.00497831791853
0.00497860783707
0.00497884129687
0.00497906656174
0.00497929007579
0.00497951270762
0.00497973508073
0.00497995738598
0.00498017969083
0.00498040202194
0.00498062442387
0.00498084698317
0.00498106983606
0.00498129315069
0.00498151709117
0.00498174176237
0.00498196715277
0.00498219308742
0.00498241921526
0.00498264504091
0.00498287000691
0.00498309360812
0.00498331551189
0.00498353564849
0.00498375425198
0.00498397184828
0.00498418920591
0.00498440727068
0.0049846271011
0.00498484981068
0.00498507650643
0.00498530820644
0.00498554571875
0.00498578948243
0.00498603938736
0.00498629460492
0.00498655347555
)
;
    }
    water_to_heater
    {
        type            calculated;
        value           nonuniform List<scalar> 
61
(
0.00497822300008
0.00497850080908
0.00497854231605
0.00497878560549
0.00497882706357
0.00497903190656
0.00497907337288
0.00497927567277
0.00497949225607
0.004979678131
0.00497972717018
0.00497992560557
0.00497997554348
0.00498019714737
0.0049802470375
0.00498048340173
0.00498069110026
0.00498085959907
0.004980904456
0.00498102761521
0.00498107202303
0.00498124546919
0.00498129030805
0.00498142422683
0.0049816266104
0.0049817814853
0.00498182607672
0.00498202366664
0.0049820685834
0.00498231040045
0.00498235529519
0.00498261029565
0.0049829486011
0.0049832690246
0.00498331781193
0.00498356684617
0.00498361155528
0.00498379531865
0.00498383461794
0.00498395112671
0.00498410061445
0.004984195884
0.0049842330347
0.00498435100028
0.00498438855092
0.00498449331743
0.00498453033878
0.00498466643136
0.00498480850449
0.00498494900155
0.00498498651655
0.00498510452171
0.00498514159977
0.00498530129353
0.0049853388795
0.00498550862423
0.00498569085555
0.00498588279324
0.00498593137817
0.00498637377676
0.0049864304191
)
;
    }
    procBoundary2to3
    {
        type            processor;
        value           nonuniform List<scalar> 
41
(
0.00498745117114
0.00498758305668
0.00498749672813
0.00498744074147
0.0049873971789
0.00498736145223
0.00498733150216
0.00498730741659
0.00498728953967
0.00498727728604
0.004987268687
0.00498726052025
0.00498725122313
0.00498724289118
0.00498723814737
0.00498723564318
0.00498722844096
0.00498722224901
0.00498721163171
0.00498719511725
0.00498683485817
0.00498683235077
0.00498682977355
0.00498682712757
0.00498682450113
0.00498682201876
0.00498681980043
0.00498681792303
0.00498681640534
0.00498681523129
0.00498681436928
0.00498681378273
0.00498681343201
0.00498681327016
0.00498681323481
0.00498681326067
0.00498681350658
0.00498717603087
0.00498715922967
0.00498683485817
0.00498714459155
)
;
    }
}

