/*--------------------------------*- C++ -*----------------------------------*\
| =========                 |                                                 |
| \\      /  F ield         | OpenFOAM: The Open Source CFD Toolbox           |
|  \\    /   O peration     | Version:  2312                                  |
|   \\  /    A nd           | Website:  www.openfoam.com                      |
|    \\/     M anipulation  |                                                 |
\*---------------------------------------------------------------------------*/
FoamFile
{
    version     2.0;
    format      ascii;
    arch        "LSB;label=32;scalar=64";
    class       volScalarField;
    location    "0.18/water";
    object      alphat.gas;
}
// * * * * * * * * * * * * * * * * * * * * * * * * * * * * * * * * * * * * * //

dimensions      [1 -1 -1 0 0 0 0];

internalField   nonuniform List<scalar> 
1497
(
1.42091306501e-06
1.11806254675e-06
9.11370230191e-07
7.92576465666e-07
7.25887315106e-07
6.65875382161e-07
5.77353746598e-07
4.47825631018e-07
3.01199939794e-07
1.79795883537e-07
1.01679136531e-07
5.81078815094e-08
3.51398705924e-08
2.37019146564e-06
3.69663355639e-06
3.7741268598e-06
3.16535784688e-06
2.63212843854e-06
2.20983778074e-06
1.79936779985e-06
1.43502543231e-06
1.14550734073e-06
9.44608391796e-07
8.24135258193e-07
7.51395068087e-07
6.86711361465e-07
5.99727718767e-07
4.78743987147e-07
3.42043954946e-07
2.23126533469e-07
1.38743655868e-07
8.52581475359e-08
5.31315275081e-08
2.31860469094e-06
3.66266114636e-06
3.80074812909e-06
3.20737638615e-06
2.63904628473e-06
2.19514217838e-06
1.79155252305e-06
1.44348789286e-06
1.16666161055e-06
9.70606222734e-07
8.48442915655e-07
7.71797368525e-07
7.05091458268e-07
6.20689670702e-07
5.0815059115e-07
3.81943954768e-07
2.67844009107e-07
1.79597504203e-07
1.16726832284e-07
7.40760335849e-08
2.27376886079e-06
3.66160959056e-06
3.83614173377e-06
3.2281280073e-06
2.61835092594e-06
2.15493688536e-06
1.76185108684e-06
1.43195548479e-06
1.17025062028e-06
9.82495249755e-07
8.63380113022e-07
7.87425593361e-07
7.21109605682e-07
6.39391113968e-07
5.34505342622e-07
4.1870539595e-07
3.10866295939e-07
2.20708623227e-07
1.49175970562e-07
9.49066766534e-08
2.25979009785e-06
3.73086174153e-06
3.90679308674e-06
3.238475773e-06
2.569238933e-06
2.08325970196e-06
1.70211562193e-06
1.39309967884e-06
1.15102543224e-06
9.78568533539e-07
8.69694196457e-07
7.99115212632e-07
7.34478007118e-07
6.54703919139e-07
5.56416902693e-07
4.50300087433e-07
3.48881596043e-07
2.57815254191e-07
1.78110284662e-07
1.11364513359e-07
2.25355430435e-06
3.83482903649e-06
4.02185119185e-06
3.27595503187e-06
2.51304922528e-06
1.98399647109e-06
1.60992554158e-06
1.32522206493e-06
1.11117354441e-06
9.63246623892e-07
8.712106607e-07
8.08243535587e-07
7.444466944e-07
6.65315760695e-07
5.7248779749e-07
4.74388295259e-07
3.78486605818e-07
2.86494170681e-07
1.98432215575e-07
1.18709602166e-07
2.2078892706e-06
3.84991751224e-06
4.1567268673e-06
3.35574029256e-06
2.4771225784e-06
1.87463030102e-06
1.49657853798e-06
1.24191244094e-06
1.06456049548e-06
9.4742119313e-07
8.73685509864e-07
8.15516464744e-07
7.49265767947e-07
6.69358578206e-07
5.80294432216e-07
4.8853598656e-07
3.9709916384e-07
3.02695300815e-07
2.04881954773e-07
1.12720863146e-07
2.13449888957e-06
3.88251003457e-06
4.24647516484e-06
3.42082683935e-06
2.46275489473e-06
1.78744060974e-06
1.39668498483e-06
1.17074121566e-06
1.03101726651e-06
9.42117432536e-07
8.79485185488e-07
8.18149514414e-07
7.4580758899e-07
6.63944648083e-07
5.7817691117e-07
4.92500065025e-07
4.02726990118e-07
3.02061190337e-07
1.92527138191e-07
9.19740474716e-08
2.01003670298e-06
3.79498908173e-06
4.14040738905e-06
3.36171278729e-06
2.42073601497e-06
1.72563978319e-06
1.33270326589e-06
1.1326171806e-06
1.02226479796e-06
9.48108938242e-07
8.82176636451e-07
8.1009375409e-07
7.30791077948e-07
6.48571071508e-07
5.68082505297e-07
4.85803973693e-07
3.9187193292e-07
2.8013197954e-07
1.58819526368e-07
6.04637119354e-08
1.80653282913e-06
3.41433892608e-06
3.81573613413e-06
3.15890164396e-06
2.31730594806e-06
1.67122099308e-06
1.30533771857e-06
1.12957439928e-06
1.03150912577e-06
9.51593624528e-07
8.70673158063e-07
7.87336882824e-07
7.04911005117e-07
6.26812902721e-07
5.50536431868e-07
4.65280961897e-07
3.60401967435e-07
2.33643847302e-07
1.07381307029e-07
2.83211238934e-08
1.70916068267e-06
2.98416973143e-06
3.39986734768e-06
2.8702041878e-06
2.1703962519e-06
1.62296171454e-06
1.30680903424e-06
1.14547633768e-06
1.03650215634e-06
9.35999808112e-07
8.40167226098e-07
7.52230951407e-07
6.73479393459e-07
6.00544715375e-07
5.22674295474e-07
4.26725035256e-07
3.04206400872e-07
1.6321895151e-07
5.26083638451e-08
7.71916694324e-09
1.8043157779e-06
2.71959778416e-06
3.01957677904e-06
2.6007149262e-06
2.05163523453e-06
1.60708625253e-06
1.3265962477e-06
1.15283428859e-06
1.01525131026e-06
8.95758448081e-07
7.95510886376e-07
7.12383849088e-07
6.4024067601e-07
5.67634351102e-07
4.80014030377e-07
3.64657150973e-07
2.20443887182e-07
8.31882519034e-08
1.55031979139e-08
1.03407976831e-09
1.96763907003e-06
2.65869608358e-06
2.81414666282e-06
2.48374189542e-06
2.03400945103e-06
1.62921063216e-06
1.33546509274e-06
1.12523821614e-06
9.6181634281e-07
8.38722617114e-07
7.46839449387e-07
6.73359226203e-07
6.04153863234e-07
5.2341328344e-07
4.15609694012e-07
2.73356783303e-07
1.19326628304e-07
2.58093246681e-08
2.3970658079e-09
1.89014490069e-10
2.25318326956e-06
2.86444605779e-06
2.9499500732e-06
2.60927759028e-06
2.12116212477e-06
1.66471239617e-06
1.31940577296e-06
1.06804590628e-06
8.91966465352e-07
7.78549921584e-07
7.00708742814e-07
6.34406909834e-07
5.59874144437e-07
4.59643301251e-07
3.21874321856e-07
1.59010049233e-07
4.03474363954e-08
4.64965820734e-09
4.63201917821e-10
9.73766698143e-11
2.93657014687e-06
3.49391437927e-06
3.43884168858e-06
2.90581167205e-06
2.25255832439e-06
1.69930494946e-06
1.2937932827e-06
1.0067370931e-06
8.26718704402e-07
7.26813176401e-07
6.61315095516e-07
5.94534563383e-07
5.02341629048e-07
3.69631479391e-07
2.02932035473e-07
6.26495747525e-08
9.32594792506e-09
1.04326648074e-09
2.18541886849e-10
7.08416394871e-11
3.89400907558e-06
4.35035029533e-06
4.06900002398e-06
3.25848708408e-06
2.42176158163e-06
1.78351107946e-06
1.30944591312e-06
9.77840187067e-07
7.85991439477e-07
6.91149389757e-07
6.29990199424e-07
5.53843447613e-07
4.34629744967e-07
2.68240995832e-07
1.02625834202e-07
2.01464064753e-08
2.56675183173e-09
4.94810708556e-10
1.65780103357e-10
6.42210710141e-11
4.55083319125e-06
4.90408031375e-06
4.52771919978e-06
3.58269360575e-06
2.68519573251e-06
1.98862067786e-06
1.42140139927e-06
1.01855126697e-06
7.87683475198e-07
6.77257417354e-07
6.10836329948e-07
5.22962147585e-07
3.78449249654e-07
1.92915390181e-07
5.32229819769e-08
8.05656804277e-09
1.19009314233e-09
4.04039641746e-10
1.58774371918e-10
6.73540157753e-11
3.79257473604e-06
4.92921282337e-06
4.77288703794e-06
3.92849829885e-06
3.02820047855e-06
2.26283713885e-06
1.59259167295e-06
1.11931348709e-06
8.3653918808e-07
6.92290957681e-07
6.11592794415e-07
5.15292425267e-07
3.54956420638e-07
1.59585193996e-07
3.59550349461e-08
4.6864432462e-09
8.95914665913e-10
4.12689821205e-10
1.7242348516e-10
8.02274949284e-11
3.45473523416e-06
5.05355870722e-06
5.08196657887e-06
4.24619997264e-06
3.33721926932e-06
2.51255625155e-06
1.75251741884e-06
1.21882834708e-06
9.00382596899e-07
7.28805657363e-07
6.31136928474e-07
5.29817517553e-07
3.63489184509e-07
1.58458816965e-07
3.22373793712e-08
3.71858461102e-09
8.65069920107e-10
4.62895382903e-10
2.07947205724e-10
1.04165436142e-10
3.42562172125e-06
5.20094189381e-06
5.34033415363e-06
4.49751543686e-06
3.57644084991e-06
2.70308016418e-06
1.88621761383e-06
1.30588818399e-06
9.55231855033e-07
7.66866292108e-07
6.61369439012e-07
5.57167528434e-07
3.91189048784e-07
1.77009370739e-07
3.53027922585e-08
3.55297198728e-09
9.4344476956e-10
5.52451748437e-10
2.6980561401e-10
1.45414855472e-10
3.42377063538e-06
5.26875301789e-06
5.50273836877e-06
4.68375117377e-06
3.76333978735e-06
2.86024237645e-06
2.01416026422e-06
1.40184359414e-06
1.01375164653e-06
8.04667913999e-07
6.96456774325e-07
5.9100357573e-07
4.27295270119e-07
2.0630817877e-07
4.32971940188e-08
3.84564297605e-09
1.10054459303e-09
6.87522258961e-10
3.70350536766e-10
2.12708101518e-10
3.4440655088e-06
5.32112427571e-06
5.60987084918e-06
4.82407252436e-06
3.9141182024e-06
2.99929824092e-06
2.14156970295e-06
1.50922792287e-06
1.0911933092e-06
8.53364168153e-07
7.35980893661e-07
6.28641590957e-07
4.66388214645e-07
2.39852762699e-07
5.51116030392e-08
4.64175879655e-09
1.33584690609e-09
8.79928275299e-10
5.21437382933e-10
3.17610559372e-10
3.48937556541e-06
5.38954193062e-06
5.71034367931e-06
4.9519694352e-06
4.05432938906e-06
3.14026925392e-06
2.27899911382e-06
1.63205143447e-06
1.1945384096e-06
9.19553957643e-07
7.80086445996e-07
6.68176333306e-07
5.06171926571e-07
2.73854949463e-07
6.88440279119e-08
6.08782657077e-09
1.69099060097e-09
1.13743467778e-09
7.37554174632e-10
4.67812779307e-10
3.52748719007e-06
5.45469340475e-06
5.80632953239e-06
5.07687884417e-06
4.19284500561e-06
3.29545275732e-06
2.44106560646e-06
1.78164882672e-06
1.3255916309e-06
1.00150230492e-06
8.27294901319e-07
7.07214461117e-07
5.44992947126e-07
3.06874329182e-07
8.26155381756e-08
8.33200180381e-09
2.25536287497e-09
1.47489688443e-09
1.02987562457e-09
6.77999878976e-10
3.567095318e-06
5.51487502076e-06
5.90142070459e-06
5.20484911025e-06
4.3344242033e-06
3.46096154394e-06
2.61724070503e-06
1.94096524857e-06
1.45657698275e-06
1.09495237797e-06
8.77794649406e-07
7.43147236614e-07
5.79977695259e-07
3.37703199341e-07
9.58076458225e-08
1.14503058026e-08
3.09648928685e-09
1.90971299099e-09
1.40465536649e-09
9.76582278883e-10
3.58907461178e-06
5.55978889937e-06
5.99341688383e-06
5.33880167508e-06
4.47972241972e-06
3.62592195892e-06
2.79393246203e-06
2.10024578003e-06
1.58418196127e-06
1.19040803801e-06
9.32236723429e-07
7.73730815233e-07
6.07074863757e-07
3.63293681475e-07
1.08471894833e-07
1.53506881731e-08
4.13737446812e-09
2.44316928393e-09
1.85117199433e-09
1.36965515315e-09
3.60714454185e-06
5.5949225608e-06
6.07701939989e-06
5.46946175135e-06
4.6212272519e-06
3.78029218835e-06
2.95890544798e-06
2.24922928555e-06
1.70223551387e-06
1.28070820778e-06
9.8953062134e-07
8.0158214937e-07
6.22835330854e-07
3.77059271165e-07
1.19032839622e-07
1.97476262372e-08
5.19720627181e-09
3.03909210531e-09
2.34433524005e-09
1.82207904145e-09
3.61060944944e-06
5.61443521318e-06
6.14415109322e-06
5.5833623185e-06
4.74730863987e-06
3.91395290146e-06
3.0997136035e-06
2.37516700618e-06
1.80023991823e-06
1.35731595776e-06
1.04273660962e-06
8.27764492176e-07
6.30475531577e-07
3.75794173012e-07
1.20561636366e-07
2.29260824324e-08
6.14809462387e-09
3.64613623143e-09
2.85883019556e-09
2.27884175865e-09
3.61284981405e-06
5.62347086879e-06
6.18926813333e-06
5.67071069918e-06
4.8469473555e-06
4.0173885819e-06
3.20593247471e-06
2.46791550898e-06
1.87184392415e-06
1.41714809199e-06
1.08746151291e-06
8.48716832794e-07
6.28910243525e-07
3.60590700398e-07
1.1310473536e-07
2.32874147719e-08
6.87135007176e-09
4.24395784109e-09
3.37707231958e-09
2.69953061598e-09
3.59670062415e-06
5.61916397362e-06
6.21594026182e-06
5.72924634031e-06
4.91461085911e-06
4.08633128484e-06
3.2757717926e-06
2.52990058174e-06
1.92431163048e-06
1.46528711852e-06
1.12420475326e-06
8.62247822703e-07
6.16540504734e-07
3.31839317486e-07
9.91249907056e-08
2.19581238519e-08
7.27083393345e-09
4.85297538305e-09
3.8846113279e-09
3.07881788294e-09
3.57129120722e-06
5.61059989576e-06
6.23295928063e-06
5.76663152351e-06
4.95591980513e-06
4.12628425538e-06
3.31840626594e-06
2.57604880202e-06
1.97423001509e-06
1.51022187525e-06
1.15553231057e-06
8.68066045619e-07
5.93154323109e-07
2.92423950837e-07
8.24861102229e-08
2.00000954643e-08
7.53549491933e-09
5.4799706164e-09
4.39442559648e-09
3.43890360807e-09
3.52979447882e-06
5.60295732707e-06
6.25597064386e-06
5.80615181168e-06
4.99185494728e-06
4.15222857906e-06
3.34637466142e-06
2.61712091062e-06
2.02438798007e-06
1.55552492877e-06
1.18235437389e-06
8.66747959315e-07
5.60376895011e-07
2.48195708454e-07
6.67638200614e-08
1.79871719543e-08
7.93999044457e-09
6.17017216085e-09
4.96771127162e-09
3.81424386485e-09
3.47014514865e-06
5.58315113204e-06
6.27686742726e-06
5.85657816672e-06
5.04095389263e-06
4.18401989237e-06
3.37679408484e-06
2.66225781433e-06
2.07296530163e-06
1.59558170395e-06
1.20170744914e-06
8.58671916734e-07
5.20598640291e-07
2.0592267509e-07
5.42072634029e-08
1.6460645016e-08
8.72702863931e-09
7.0463872568e-09
5.71227196383e-09
4.22683403417e-09
3.3588737761e-06
5.49012578831e-06
6.24352247007e-06
5.88620960306e-06
5.09182850973e-06
4.22135651257e-06
3.4057431474e-06
2.69583039191e-06
2.10545766704e-06
1.61892774016e-06
1.20798162225e-06
8.42079941094e-07
4.75418146799e-07
1.69817130344e-07
4.52671558152e-08
1.60598767872e-08
1.00989012144e-08
8.33487557248e-09
6.73173212907e-09
4.66287722598e-09
3.16266376485e-06
5.25883702919e-06
6.0795709704e-06
5.82404156686e-06
5.08895972548e-06
4.22762551037e-06
3.4070715959e-06
2.69596902634e-06
2.104688839e-06
1.61369042368e-06
1.19436740925e-06
8.12444419045e-07
4.25735618396e-07
1.40305693505e-07
3.9274588086e-08
1.72739192202e-08
1.23705985458e-08
1.03738568828e-08
8.06102004009e-09
5.06156797103e-09
2.97364553825e-06
4.91261952697e-06
5.74598561127e-06
5.60270902215e-06
4.95758763802e-06
4.13839764018e-06
3.33481502134e-06
2.63434201046e-06
2.05271990155e-06
1.56932449108e-06
1.15443412214e-06
7.64812171683e-07
3.72265222293e-07
1.16702721273e-07
3.65692985556e-08
2.05247099737e-08
1.61602244259e-08
1.34623409917e-08
9.5977969704e-09
5.32740467176e-09
3.007651953e-06
4.55838177674e-06
5.30315071432e-06
5.22601361938e-06
4.66383829833e-06
3.90789387753e-06
3.15089135974e-06
2.48801683339e-06
1.93824555698e-06
1.4813090837e-06
1.08548699903e-06
6.97121681539e-07
3.15604602112e-07
9.82333848791e-08
3.80365775519e-08
2.65605414556e-08
2.22560667452e-08
1.75919256079e-08
1.1099668945e-08
5.37749682406e-09
3.24479380611e-06
4.40920592643e-06
4.94697856492e-06
4.79291586719e-06
4.24735885745e-06
3.54680018052e-06
2.85747987894e-06
2.26071940237e-06
1.76842063796e-06
1.35771944287e-06
9.9214644102e-07
6.12248748334e-07
2.58861451431e-07
8.62065444776e-08
4.48029783624e-08
3.65932391545e-08
3.10898399017e-08
2.23826103435e-08
1.22869453647e-08
5.20546929036e-09
2.31648985547e-08
1.55589657792e-08
9.08171699641e-09
3.96526336964e-09
1.03096192565e-09
1.39704382055e-10
4.3213749001e-11
5.45616542103e-11
7.8038072149e-11
1.04303748987e-10
9.61619407803e-11
1.53609557665e-10
1.2742373848e-07
1.08221377979e-06
2.08188996138e-06
3.13819905627e-06
4.35411988253e-06
5.42009023137e-06
5.19904607228e-06
3.07071175656e-06
3.40672933997e-08
2.1050761018e-08
1.08072489161e-08
3.88374953256e-09
7.24015773816e-10
8.00220822366e-11
3.78348760421e-11
5.8487431935e-11
9.10628034593e-11
1.28909934804e-10
1.39365446717e-10
2.52312662961e-10
9.90639323161e-08
1.07908561527e-06
2.08705715803e-06
3.14185203414e-06
4.44014266015e-06
5.85725527023e-06
6.2588171286e-06
4.10911416456e-06
4.5709750137e-08
2.54974556976e-08
1.11233862902e-08
3.08045280872e-09
3.67406518369e-10
4.59131763677e-11
3.50208242162e-11
6.33571482076e-11
1.08849719639e-10
1.54054674063e-10
1.83452538771e-10
4.13855583996e-10
9.47995175044e-08
1.08456855422e-06
2.07763119067e-06
3.07594794876e-06
4.30349284808e-06
5.81118751224e-06
6.98772784567e-06
5.73982699153e-06
5.53475873508e-08
2.72100553433e-08
9.68499450887e-09
1.88865625556e-09
1.44343245459e-10
2.91114146282e-11
3.23403818365e-11
7.016353385e-11
1.29815102023e-10
1.83188967437e-10
2.26682563716e-10
6.79342486911e-10
1.18518657374e-07
1.09385703094e-06
2.04301721504e-06
2.97259714821e-06
4.09434592474e-06
5.48439368533e-06
6.98996040609e-06
7.75289854441e-06
5.98052561839e-08
2.51020188743e-08
6.8628351837e-09
7.99847866498e-10
5.84583654745e-11
2.16964418348e-11
2.88152630824e-11
7.74812493617e-11
1.51946657063e-10
2.14637089377e-10
3.2079228837e-10
1.20526407873e-09
1.73549784422e-07
1.10762926638e-06
1.97653524311e-06
2.828199829e-06
3.85538577138e-06
5.1366775781e-06
6.40846875206e-06
8.5927039096e-06
5.66702590117e-08
1.93020081353e-08
3.56523572909e-09
2.32683415524e-10
2.78941040127e-11
1.71375695793e-11
2.73439779209e-11
8.72523758184e-11
1.75260913473e-10
2.44065901176e-10
3.83486383407e-10
2.33764292418e-09
2.48582995025e-07
1.11794519911e-06
1.89234283565e-06
2.66239113289e-06
3.60534579319e-06
4.85895226695e-06
5.89203730973e-06
7.05982686792e-06
4.54236188889e-08
1.13823488132e-08
1.15120487779e-09
6.58191853916e-11
1.56540103724e-11
1.24811502493e-11
2.88400232621e-11
1.00274415574e-10
1.99082354665e-10
2.63894762877e-10
4.10644978102e-10
4.5702881996e-09
3.2530284415e-07
1.12031419157e-06
1.81034575484e-06
2.50785142507e-06
3.37640546293e-06
4.63745130373e-06
5.70409620387e-06
6.0416320715e-06
2.8697390818e-08
4.36465312994e-09
2.32270771208e-10
2.43548965748e-11
1.08911678156e-11
9.349631197e-12
3.41635306e-11
1.15964788567e-10
2.15725468954e-10
2.7684883433e-10
4.3674648283e-10
8.16126321486e-09
3.89889397186e-07
1.11667357932e-06
1.74380727807e-06
2.38413133491e-06
3.20141921945e-06
4.51936787714e-06
5.71280371312e-06
5.75195211448e-06
1.24112630304e-08
9.12055558511e-10
4.9512909388e-11
1.26791857053e-11
7.26847556221e-12
8.49671567988e-12
4.48792302366e-11
1.32675161792e-10
2.23180422114e-10
2.86110678671e-10
4.54124776266e-10
1.31052482691e-08
4.39156522585e-07
1.11188618526e-06
1.6982403541e-06
2.30532362506e-06
3.1165845999e-06
4.51262820333e-06
5.83365849139e-06
5.86012121611e-06
2.9746602885e-09
1.24459700439e-10
1.85269264436e-11
8.44898436818e-12
5.20619718146e-12
9.54868606803e-12
6.18302219912e-11
1.5031124637e-10
2.24356861101e-10
2.79652620527e-10
4.5575109177e-10
1.95241032674e-08
4.76294183193e-07
1.11786505202e-06
1.69232641814e-06
2.2814077709e-06
3.07299241483e-06
4.54956016222e-06
6.01010599872e-06
6.25181404863e-06
3.58413950286e-10
3.36831402983e-11
1.24017021401e-11
5.58410038519e-12
4.63413211353e-12
1.32024525897e-11
8.45755171491e-11
1.66155363732e-10
2.21988522988e-10
2.6151622466e-10
4.44540070787e-10
2.75949357151e-08
5.14801539031e-07
1.14846078833e-06
1.71098640485e-06
2.27739980476e-06
3.08922971237e-06
4.66870979364e-06
6.2125229824e-06
6.87825887037e-06
7.38177762555e-11
2.23042350133e-11
8.3902148835e-12
4.43430240241e-12
5.09462651319e-12
2.15678866195e-11
1.0987212942e-10
1.77752928036e-10
2.1638566138e-10
2.44595611985e-10
4.36220235902e-10
3.96664448781e-08
5.6374081302e-07
1.19080403077e-06
1.75225438982e-06
2.32973820006e-06
3.23876150433e-06
4.78228372678e-06
6.41374997056e-06
7.70071401746e-06
4.45418052728e-11
1.5520727759e-11
6.5534920695e-12
4.23383874761e-12
6.81207030471e-12
3.81323543506e-11
1.3320950473e-10
1.84225750923e-10
2.07058602283e-10
2.27519456489e-10
4.47089658034e-10
5.86294278965e-08
6.21475276871e-07
1.26209287543e-06
1.85018939665e-06
2.4987388065e-06
3.45695843473e-06
4.75356155201e-06
6.5923845166e-06
8.6772924733e-06
3.15785018354e-11
1.26076023722e-11
5.93262321085e-12
4.75019736093e-12
1.07470193343e-11
6.55047320409e-11
1.53068625778e-10
1.85426986771e-10
1.94265597177e-10
2.16557143447e-10
5.00964083581e-10
8.92276732103e-08
7.043925216e-07
1.38427653668e-06
2.04075963585e-06
2.75553590634e-06
3.51560949826e-06
4.6636666539e-06
6.73102323674e-06
9.7550705327e-06
2.73343937744e-11
1.18478968852e-11
6.00417073262e-12
6.28722696056e-12
1.92929681793e-11
1.00011821103e-10
1.66979715127e-10
1.82369247516e-10
1.78966658794e-10
2.15411385672e-10
6.69126983583e-10
1.4197371335e-07
8.28764816147e-07
1.57345779886e-06
2.3017265963e-06
2.89899243973e-06
3.46834998002e-06
4.56218401344e-06
6.81442057352e-06
1.08613367363e-05
2.73123508421e-11
1.26157025805e-11
6.9219739624e-12
9.77012985915e-12
3.71346287298e-11
1.32270131806e-10
1.7726678964e-10
1.77057321938e-10
1.62496976084e-10
2.01920568435e-10
1.17033815531e-09
2.30998437092e-07
1.00776616305e-06
1.82053137908e-06
2.48997453095e-06
2.91731576752e-06
3.4177556783e-06
4.45336354166e-06
6.82972961053e-06
1.18942596663e-05
3.1212831135e-11
1.46332753809e-11
9.42692028668e-12
1.74025536979e-11
6.80430508543e-11
1.57404049108e-10
1.86828605894e-10
1.72020668571e-10
1.465665948e-10
1.78831115665e-10
2.81732227433e-09
3.65313162854e-07
1.23381498104e-06
2.02620069861e-06
2.5499618432e-06
2.91987585079e-06
3.37196377016e-06
4.33792025134e-06
6.72505908423e-06
1.2025764273e-05
3.92018132808e-11
1.85417536393e-11
1.50993916323e-11
3.36857903729e-11
1.05130232288e-10
1.77213840962e-10
1.98340835832e-10
1.70066957344e-10
1.35371220365e-10
1.750366148e-10
8.74645680041e-09
5.2820981608e-07
1.42038921122e-06
2.10957087224e-06
2.57741616031e-06
2.92264816582e-06
3.32984263779e-06
4.2134065793e-06
6.4584038157e-06
1.12327225301e-05
5.32323292829e-11
2.66431652511e-11
2.73280293103e-11
6.29311441694e-11
1.34861069634e-10
1.94345536655e-10
2.13708164522e-10
1.73922393374e-10
1.52193645746e-10
2.26276716022e-10
2.65493726101e-08
6.54026240829e-07
1.50035322237e-06
2.14648489292e-06
2.60053569994e-06
2.92507830538e-06
3.29073588633e-06
4.08966432453e-06
6.16843152356e-06
1.05378577068e-05
7.50704457903e-11
4.41623610484e-11
5.23507483357e-11
9.86398439688e-11
1.5395966875e-10
2.10034968071e-10
2.33415287774e-10
1.85855794787e-10
1.70176964512e-10
4.02532760172e-10
5.49270102997e-08
7.13692653002e-07
1.53651788726e-06
2.17519809145e-06
2.62023155583e-06
2.92689822626e-06
3.25401226438e-06
3.97026716423e-06
5.89100028395e-06
1.00235806541e-05
1.1103906156e-10
8.16958365206e-11
9.48115244745e-11
1.26904269462e-10
1.66122548167e-10
2.2475730655e-10
2.56757865064e-10
2.07099243141e-10
1.86771661336e-10
6.75511594172e-10
7.57823572287e-08
7.45710815155e-07
1.56300266357e-06
2.19901118132e-06
2.63748602486e-06
2.92856663518e-06
3.21928416396e-06
3.85383923408e-06
5.62110922319e-06
9.65291845841e-06
1.78685116521e-10
1.55674542447e-10
1.4615123339e-10
1.45091059429e-10
1.75231787734e-10
2.39088705682e-10
2.81382958427e-10
2.33236994919e-10
2.07030751854e-10
7.28633294093e-10
8.58770941369e-08
7.69649626607e-07
1.58461962983e-06
2.22017876431e-06
2.6540960741e-06
2.93118806413e-06
3.18669909704e-06
3.73934273112e-06
5.34776327393e-06
9.37484629767e-06
3.09337499574e-10
2.72232061067e-10
1.9334591701e-10
1.57847609349e-10
1.83698724217e-10
2.52846913377e-10
3.06566386902e-10
2.63195964738e-10
2.31179188886e-10
7.05194447038e-10
9.10458229314e-08
7.91123486837e-07
1.60533094606e-06
2.24170845505e-06
2.67216068341e-06
2.93612835256e-06
3.15697844749e-06
3.62645526722e-06
5.06152286123e-06
9.12033611018e-06
5.29497222711e-10
4.11728604799e-10
2.35313308255e-10
1.69145970385e-10
1.92214473741e-10
2.66065665845e-10
3.31784509514e-10
2.96962369249e-10
2.62512008058e-10
6.47918925661e-10
9.4196715978e-08
8.13809218512e-07
1.62861287886e-06
2.26609999417e-06
2.69331011186e-06
2.94450063663e-06
3.13121576148e-06
3.51693298148e-06
4.7583565812e-06
8.78469381741e-06
8.20879223e-10
5.53179368627e-10
2.74507572688e-10
1.8067665296e-10
2.00885006225e-10
2.78944188201e-10
3.56271541766e-10
3.3285462674e-10
2.91540562669e-10
5.80654631746e-10
9.67446440112e-08
8.40280163157e-07
1.65695595265e-06
2.29509207018e-06
2.71862557425e-06
2.95710005089e-06
3.1105325337e-06
3.41379290137e-06
4.44398352729e-06
8.22470599228e-06
1.13127359563e-09
6.85506438941e-10
3.11401466956e-10
1.92304596405e-10
2.09582678101e-10
2.91648073093e-10
3.79518710239e-10
3.68197484026e-10
3.00411856996e-10
5.20760869539e-10
1.00224740877e-07
8.727120216e-07
1.69227676715e-06
2.32993909233e-06
2.74880092241e-06
2.97444164313e-06
3.09590320129e-06
3.32049694772e-06
4.13770227974e-06
7.3141860393e-06
1.42299795324e-09
8.02042531169e-10
3.44582650283e-10
2.02874109523e-10
2.1798586117e-10
3.043379511e-10
4.01410292685e-10
4.005055698e-10
3.11389847579e-10
4.97331171487e-10
1.06557294056e-07
9.12965399981e-07
1.7358385684e-06
2.37130832827e-06
2.78404609611e-06
2.9966457226e-06
3.08791351001e-06
3.23949772469e-06
3.86389173711e-06
6.33033197256e-06
1.67969441019e-09
8.97772530127e-10
3.71138145526e-10
2.11143784374e-10
2.25600720179e-10
3.17055855361e-10
4.22201341615e-10
4.27814864539e-10
3.36789497027e-10
5.29564216677e-10
1.18574109066e-07
9.62315750579e-07
1.7879397695e-06
2.41905176219e-06
2.82397270972e-06
3.02337410395e-06
3.08667172816e-06
3.17175342267e-06
3.62797212661e-06
5.51107674429e-06
1.8948659829e-09
9.67837507485e-10
3.87968598269e-10
2.16230208302e-10
2.31879831348e-10
3.29611263914e-10
4.42588757482e-10
4.48902282161e-10
3.6361023746e-10
6.33360655011e-10
1.40382781985e-07
1.02112875107e-06
1.84784680776e-06
2.47217680196e-06
2.86763256114e-06
3.05388724522e-06
3.0918500474e-06
3.11736952441e-06
3.42838094688e-06
4.8474279832e-06
2.06987743558e-09
1.00953031507e-09
3.9374050811e-10
2.17740766858e-10
2.36345328305e-10
3.41570370939e-10
4.63237810787e-10
4.64551744926e-10
3.97581165316e-10
8.33858275793e-10
1.77827001214e-07
1.08871760859e-06
1.91375237186e-06
2.52897669205e-06
2.9136605043e-06
3.08717676745e-06
3.10279458227e-06
3.07584417478e-06
3.26209151883e-06
4.31828330118e-06
2.21009858247e-09
1.02314585497e-09
3.89121817202e-10
2.15802227798e-10
2.38738133126e-10
3.52431697704e-10
4.84482332527e-10
4.76450105818e-10
4.61129770336e-10
1.25642104887e-09
2.32845877871e-07
1.16279666436e-06
1.98294080835e-06
2.58728335764e-06
2.96052380847e-06
3.12218424909e-06
3.11872057999e-06
3.04630379152e-06
3.12545411851e-06
3.8997541716e-06
2.31801387985e-09
1.01109493848e-09
3.76110166523e-10
2.10964752047e-10
2.39033288396e-10
3.61769186471e-10
5.06654890573e-10
4.85940791779e-10
5.03705461432e-10
2.20751985828e-09
3.0448088516e-07
1.2395770286e-06
2.05235287894e-06
2.64495640238e-06
3.00687245086e-06
3.15802628336e-06
3.13888064862e-06
3.02771701923e-06
3.01471693807e-06
3.5691575157e-06
2.38813058659e-09
9.76328159838e-10
3.56836397739e-10
2.03807517877e-10
2.37429075374e-10
3.69382785767e-10
5.28932288624e-10
4.94639548693e-10
5.06002105788e-10
4.16721468213e-09
3.82651229169e-07
1.31615140238e-06
2.1196112046e-06
2.7004654854e-06
3.0518322427e-06
3.1941050685e-06
3.16261795338e-06
3.01902689067e-06
2.92641351423e-06
3.30695533541e-06
2.40607931568e-09
9.21232790543e-10
3.3267690353e-10
1.94781793906e-10
2.34326337179e-10
3.75265310418e-10
5.49311582969e-10
5.06700600377e-10
5.06268489845e-10
7.63609767869e-09
4.55898678779e-07
1.38947000781e-06
2.18333913005e-06
2.75312270511e-06
3.09504685331e-06
3.2300620421e-06
3.18931874313e-06
3.01920197618e-06
2.85763272616e-06
3.09762028286e-06
2.35343267692e-09
8.47827819592e-10
3.04202703372e-10
1.84394482473e-10
2.30309772567e-10
3.79430264393e-10
5.66468568823e-10
5.29383465236e-10
5.20935709881e-10
1.28997895706e-08
5.18571033104e-07
1.45723166676e-06
2.24313544284e-06
2.80294546459e-06
3.13651539658e-06
3.26564376685e-06
3.21833662713e-06
3.02724030528e-06
2.80613316692e-06
2.92962941471e-06
2.2203019176e-09
7.58170943508e-10
2.71993433052e-10
1.73381156015e-10
2.25865869718e-10
3.81648292425e-10
5.79665221297e-10
5.69595865703e-10
5.55639878652e-10
2.01406189476e-08
5.71172665632e-07
1.52022872877e-06
2.29960873156e-06
2.85037230312e-06
3.1763991314e-06
3.30061391031e-06
3.248965154e-06
3.04215805637e-06
2.77032530407e-06
2.79491540826e-06
2.01575553935e-09
6.55581947739e-10
2.37310934883e-10
1.62481877306e-10
2.20987407992e-10
3.80946636007e-10
5.88358731947e-10
6.29918933116e-10
6.27337804338e-10
3.04459507457e-08
6.17974707312e-07
1.5806313729e-06
2.35376759896e-06
2.89594216152e-06
3.21485586113e-06
3.33469128631e-06
3.28040371393e-06
3.06288166243e-06
2.74902291944e-06
2.68797337051e-06
1.76811382806e-09
5.46964406354e-10
2.02073320062e-10
1.52149681748e-10
)
;

boundaryField
{
    emptyPatch
    {
        type            empty;
    }
    minY
    {
        type            zeroGradient;
    }
    maxY
    {
        type            calculated;
        value           nonuniform List<scalar> 0();
    }
    maxX
    {
        type            compressible::alphatPhaseChangeJayatillekeWallFunction;
        Prt             0.85;
        Cmu             0.09;
        kappa           0.41;
        E               9.8;
        dmdt            uniform 0;
        value           uniform 0;
    }
    water_to_heater
    {
        type            compressible::alphatWallBoilingWallFunction;
        phaseType       vapor;
        relax           constant 1;
        partitioningModel
        {
            type            Lavieville;
            alphaCrit       0.2;
        }
        otherPhase      liquid;
        dmdt            uniform 0;
        dDep            uniform 1e-05;
        qQuenching      uniform 0;
        alphatConv      uniform 0;
        value           nonuniform List<scalar> 
60
(
5.6411975242e-06
5.6411975242e-06
5.62860408359e-06
5.62860408359e-06
5.64340224833e-06
5.64340224833e-06
5.62860408359e-06
5.63362592048e-06
5.62571212741e-06
5.62571212741e-06
5.62614807028e-06
5.62614807028e-06
5.62091295817e-06
5.62091295817e-06
5.60249264997e-06
5.11609738259e-06
3.00839882142e-06
3.00839882142e-06
9.66878674114e-07
9.66878674114e-07
1.11089054294e-07
1.11089054294e-07
7.95276685887e-09
5.0804476772e-09
4.14759617338e-08
4.14759617338e-08
2.83441999537e-06
2.83441999537e-06
5.7610933278e-06
5.7610933278e-06
5.76405715278e-06
5.76551710942e-06
5.76413651138e-06
5.76413651138e-06
5.76555253975e-06
5.76555253975e-06
5.76413651138e-06
5.76413651138e-06
5.76554688982e-06
5.76404241189e-06
5.76536602153e-06
5.76536602153e-06
5.76389148307e-06
5.76389148307e-06
5.76512763742e-06
5.76512763742e-06
5.76385346391e-06
5.76479101248e-06
5.76373137538e-06
5.76373137538e-06
5.76417305023e-06
5.76417305023e-06
5.76361385226e-06
5.76361385226e-06
5.75377024357e-06
5.52790532504e-06
3.94545485537e-06
3.94545485537e-06
1.6253447685e-06
1.6253447685e-06
)
;
    }
    procBoundary1to0
    {
        type            processor;
        value           nonuniform List<scalar> 
41
(
3.46358184807e-06
4.42533280118e-06
4.64554956665e-06
4.33475872995e-06