/*--------------------------------*- C++ -*----------------------------------*\
| =========                 |                                                 |
| \\      /  F ield         | OpenFOAM: The Open Source CFD Toolbox           |
|  \\    /   O peration     | Version:  2312                                  |
|   \\  /    A nd           | Website:  www.openfoam.com                      |
|    \\/     M anipulation  |                                                 |
\*---------------------------------------------------------------------------*/
FoamFile
{
    version     2.0;
    format      ascii;
    arch        "LSB;label=32;scalar=64";
    class       volScalarField;
    location    "0.535/water";
    object      k.gas;
}
// * * * * * * * * * * * * * * * * * * * * * * * * * * * * * * * * * * * * * //

dimensions      [0 2 -2 0 0 0 0];

internalField   nonuniform List<scalar> 
6000
(
0.0350066859083
0.00826547930257
0.00225101911735
0.00087886103762
0.000974488225758
0.00117784400588
0.00124837168232
0.00126679543561
0.00127183598476
0.00127121898129
0.00126753956382
0.00126234412478
0.00125685734942
0.00125181754579
0.00124757594933
0.00124422080652
0.00124169114179
0.00123986115082
0.00123859404632
0.00123777119088
0.477272899128
0.149449674605
0.0413062834968
0.0134257087364
0.00367390637614
0.00168034025416
0.00117854314439
0.0012264368297
0.00127341145884
0.00128244487087
0.0012810509849
0.00127639161198
0.00127019400397
0.00126347496154
0.00125697601626
0.00125119134181
0.00124637618127
0.0012425939864
0.00123978663529
0.00123784186194
0.67488028782
0.253831612542
0.0911311632779
0.0307037046172
0.0109409416212
0.0035425986934
0.00159017638882
0.00118260550931
0.00125006899075
0.00128588400407
0.0012907900895
0.00128878991424
0.00128403988015
0.00127776703144
0.00127078414579
0.00126378332968
0.00125732425532
0.00125178240395
0.00124734240894
0.00124404002463
0.830432849613
0.33149500456
0.131678209177
0.0502569569318
0.021081670257
0.00670575766746
0.00249486037263
0.00131045376373
0.00121112729623
0.00127821026795
0.00129454417129
0.00129592104728
0.0012934233608
0.0012887125669
0.0012825742514
0.00127565142789
0.00126858751099
0.00126196942396
0.00125624070182
0.001251665028
0.907096301688
0.381100442057
0.16086430677
0.0672140053293
0.026246472162
0.0117310266576
0.00355006193668
0.00158275344878
0.00118823130305
0.00125871455104
0.00129406401012
0.00129934558896
0.00129932014859
0.00129658029895
0.00129191916853
0.00128588071777
0.0012790450952
0.00127205691637
0.00126552991275
0.0012599453032
0.914759237268
0.405090904201
0.180646362589
0.0803762756503
0.0344866459235
0.0133559962129
0.00576959080132
0.00181259129366
0.0011628540005
0.00122079564804
0.00129028110528
0.00130098481719
0.00130305205181
0.00130220853831
0.00129910298766
0.00129420105616
0.001287985742
0.00128106365882
0.00127411667651
0.00126778174937
0.899069796963
0.411402016112
0.191082501152
0.0892210598693
0.0409239394455
0.0176727808529
0.00663337938477
0.00261836755933
0.00103203400291
0.00110680427774
0.00127664936178
0.00130280158457
0.00130606234366
0.00130667908147
0.00130487863779
0.00130099643135
0.00129543346169
0.00128872947846
0.00128156596668
0.0012746652896
0.901863588849
0.412792243697
0.1952735076
0.0942907975364
0.0455228939742
0.0212726067301
0.00901448444574
0.0033527041064
0.00117064820227
0.000818970625231
0.00120331744776
0.00130416344926
0.00130935901129
0.00131057200146
0.00130963195302
0.00130647179754
0.00130140358893
0.00129490145572
0.00128761163647
0.00128028246538
0.900830586324
0.412260560768
0.196348127766
0.0969741418438
0.0487424721551
0.0242017764936
0.0112325602024
0.00446116194571
0.00174907749067
0.000643903169223
0.000941661555767
0.00128877429972
0.00131367237159
0.00131412399205
0.00131339673366
0.00131057597026
0.00130578254307
0.0012994134187
0.00129206036942
0.00128447284308
0.89431782513
0.407907851185
0.195022442578
0.0981762398336
0.0510126243059
0.0264577409018
0.0130686753743
0.00578234198986
0.00209452409868
0.000863467485474
0.000590949555773
0.00118236738778
0.00131772622059
0.00131755950075
0.00131610578883
0.00131319156366
0.00130846444592
0.00130219742626
0.00129489735169
0.0012872332833
0.880160495612
0.399652471988
0.192823747362
0.099063895813
0.052807946747
0.028124247665
0.0144526638935
0.00690185342449
0.00286880830221
0.00102280085551
0.000510181996674
0.00089580998413
0.00131025822026
0.00132137670749
0.00131787742757
0.0013144146661
0.00130961735967
0.00130347690181
0.00129635142466
0.00128879279416
0.862556957856
0.393376213332
0.19297505572
0.100843109636
0.0544204596751
0.0292680018509
0.015383236903
0.00781802456064
0.00363354788431
0.00139338636527
0.000683820742537
0.000598727931135
0.00125521749927
0.00132687414527
0.00131952734606
0.00131488947049
0.00130987141928
0.00130386373233
0.00129699116992
0.00128964762456
0.864774760428
0.400107796719
0.198814207673
0.104193817983
0.0559019431758
0.0299914382603
0.0160797189707
0.00865433727296
0.00441122893451
0.0019367761933
0.000804495857056
0.000512174714565
0.00109223610229
0.00133514289165
0.00132315095062
0.00131598226468
0.00131039826782
0.00130438700668
0.00129768505366
0.00129049129514
0.903881809872
0.426834205823
0.21176127078
0.108755590776
0.0570416291402
0.0305338360206
0.0168222551385
0.00952933482046
0.00529891219673
0.00261151247454
0.00107275095017
0.000646003897225
0.000790630839496
0.00132770277496
0.00133254247455
0.00131971981169
0.00131269621228
0.00130625495542
0.0012993825367
0.00129202918495
1.00812804851
0.474037821607
0.227844689664
0.112584533165
0.0579275825188
0.0313158430628
0.0178091948839
0.0105593396451
0.00630472293452
0.00339838500096
0.00149728200784
0.000726454303273
0.000567443256271
0.00116619601095
0.00134874219104
0.00132826791932
0.00131804335789
0.0013104309945
0.00130280623424
0.00129476557282
1.17013742467
0.5198199361
0.240592872189
0.116687165809
0.0598840523013
0.0327602614578
0.0190650657119
0.0116853611297
0.00731811671206
0.00426522929858
0.00199244072475
0.000956596055719
0.000713604420118
0.000690085620038
0.00132194651459
0.00134296681715
0.00132703335984
0.00131731724424
0.00130826273513
0.00129890811594
1.23676666072
0.547072756475
0.252422059051
0.122146367406
0.0627352545938
0.0345273421723
0.0203581360297
0.0127516413817
0.00825095464125
0.00506339343983
0.00251367382866
0.0012239684112
0.000758655822337
0.000533387479996
0.00101603236302
0.00135648190291
0.00133957776208
0.00132676782315
0.0013156908849
0.00130444437026
1.25703586417
0.558202356783
0.259028970223
0.126004625843
0.0650151086428
0.0359641369354
0.0213909167279
0.0136099084259
0.00903218858187
0.00574049052979
0.0029519864421
0.00144121382625
0.000960088345688
0.000636610521503
0.000536044537775
0.00130745930387
0.00135475645747
0.00133838774508
0.00132486747699
0.00131129830923
1.26525409879
0.563050265493
0.261903955264
0.127900427316
0.066257491302
0.0368084575666
0.0220494705202
0.014229856142
0.00966870470632
0.00630996935784
0.00328946246185
0.00159188730937
0.00109280135897
0.000736923057555
0.000439375945275
0.00106063957097
0.00136801034493
0.00135176422531
0.0013355460736
0.00131940795879
1.27245737496
0.565927525121
0.263232370335
0.128490133961
0.0666350387299
0.0371592240613
0.0224464368717
0.0147366402555
0.0102422173832
0.00678369600154
0.00355238252461
0.0016873507268
0.00117878135878
0.000864394109965
0.000543488857589
0.000717027014494
0.00136698173352
0.00136625697744
0.00134735120069
0.00132862428753
1.28310451422
0.570555805569
0.26494713612
0.128991573691
0.0668767793084
0.037439710252
0.0228625761598
0.0153127555851
0.0107788149554
0.00717379295485
0.00379709870148
0.00178867164614
0.00125492605842
0.000953281351461
0.000582018275093
0.000523220320799
0.00134416023415
0.00138110843342
0.00135961960075
0.00133853229482
1.30282767569
0.578058686733
0.267979917653
0.130314812329
0.0676201179487
0.0380365110076
0.0235219495427
0.0159423616244
0.0112370965367
0.00754480785465
0.00410189386591
0.00194185009032
0.00135120896211
0.00104312111472
0.00062020334101
0.00047349768745
0.00130908233255
0.00139565284046
0.00137131600064
0.00134833144858
1.32943028517
0.58792866544
0.272164357092
0.132537117608
0.0689842428531
0.039028586385
0.0243347952611
0.0165042737231
0.0116456912365
0.00794100685977
0.00450490306261
0.00216854101827
0.00148088461943
0.00116469232397
0.000739463123442
0.000510530657253
0.00125944172808
0.00141069592822
0.00138150755935
0.00135700359305
1.3620002319
0.59926420393
0.276700502403
0.135143640359
0.0707366045926
0.0402554879227
0.0251165049768
0.0169625178165
0.0120051387156
0.00833713004714
0.0049425902252
0.0024228661891
0.00161787491552
0.00133712628454
0.00092976035414
0.000632479729566
0.00115238788539
0.0014300537871
0.00139027388156
0.00136377976148
1.38419437969
0.606182377419
0.279656183142
0.13745308625
0.0725994187414
0.0414898151533
0.0257502632089
0.0172775585565
0.0122373345828
0.00860052490434
0.00522230686104
0.00265129910503
0.00173728179437
0.0015293410635
0.00117214338168
0.000841013954978
0.000910702070515
0.00145375502008
0.00139902485651
0.00136854625806
1.37875405471
0.601274316646
0.280035070557
0.139916717436
0.0748539143238
0.042739291253
0.0261623469791
0.0173258206583
0.0122010232604
0.00853240489821
0.00534621429484
0.00283299462061
0.00181507273097
0.00163059332595
0.00141007753769
0.000887389811111
0.000670259284832
0.00144399012339
0.00141037782163
0.0013719867625
1.33048166923
0.588807571906
0.281316474577
0.143929485108
0.0776620190768
0.043675687291
0.0260538423961
0.0169158329955
0.0117731642992
0.00827911237215
0.00539537739521
0.00294835732496
0.00184000874654
0.00166648447838
0.00153067198077
0.0011221773181
0.000730846067057
0.00125808050097
0.0014263096883
0.00137532760383
1.28481720981
0.585880049664
0.288196887087
0.149986722117
0.0800531247065
0.0435003224291
0.0253377011666
0.0162726439787
0.0112828830374
0.0080305714237
0.00538881956864
0.00301212100606
0.00182654495699
0.00165072920133
0.00154900431633
0.00127438348324
0.00078047582413
0.000834459314157
0.00143531280135
0.0013798394334
1.27806482046
0.602520496268
0.302374244342
0.15721346358
0.0810834296462
0.0432880840944
0.0249321938498
0.0158505500325
0.0109692153243
0.00788503667001
0.00540857365036
0.00307146344271
0.00179142699888
0.00159444903621
0.00152488354118
0.00134348709146
0.000883514680512
0.000586387059349
0.00137130144329
0.00138640211104
1.31479371917
0.635506916847
0.321462253589
0.164635884451
0.0836388678118
0.0442545269933
0.0251970921682
0.0158513086761
0.0109244249687
0.00792217936284
0.00554125591864
0.00318247373048
0.00176128428798
0.00151737832987
0.00148422647541
0.00136075068331
0.00101490367225
0.000655555930694
0.00111769317762
0.00139367199346
1.37802740585
0.676259048348
0.342580919672
0.174814838111
0.0886659825045
0.0465098735641
0.0261627324362
0.016262380794
0.0111483850498
0.00815538700329
0.00581240357042
0.00338936098436
0.0017695122046
0.00144433312677
0.00144447206649
0.00136712905835
0.00111547286757
0.000694220978461
0.000730016766676
0.00139120401652
1.46488485316
0.719576450996
0.364569118705
0.18837678725
0.0955507194019
0.0495577613234
0.0275565588611
0.0169639784275
0.0115876751566
0.00854377337953
0.00619187545074
0.00369216363444
0.00183966331954
0.00139587293583
0.00141912937615
0.00139219026599
0.00120429526031
0.000769398233963
0.000505394656044
0.00133400436669
1.57140264811
0.766818455794
0.387409919123
0.202555350059
0.102460455471
0.0525099797718
0.029009442887
0.0178011684762
0.0121631692768
0.00902575323012
0.00662684890001
0.00404923630849
0.00196979028224
0.00138271322392
0.00141502921229
0.00142386435894
0.0012699963994
0.000908044946034
0.000535470742873
0.00111976519826
1.6884918018
0.821908069499
0.412455354986
0.2151341193
0.107583180691
0.0546742806986
0.0302699367286
0.0186568311954
0.0128045289542
0.00954057227901
0.00705598410331
0.00440394676293
0.00213382236734
0.00140447953584
0.0014260309005
0.00144988239712
0.0013105245111
0.00102474910248
0.000623079020376
0.000740203396947
1.84959819613
0.882479772175
0.434407391108
0.222748742288
0.109588048484
0.0556521537464
0.0311554316713
0.019427136454
0.0134453259976
0.0100376085228
0.00743193319407
0.00470985409072
0.00231077361971
0.00145337072554
0.00144706227945
0.00147314372633
0.0013456342723
0.00111268001773
0.000656702101489
0.000470420985539
2.24625443355
0.92582839206
0.438923483488
0.222955777249
0.108068546429
0.0553833627693
0.0315673515329
0.0200260414555
0.0140215907802
0.0104769065074
0.00773019620263
0.00493093864805
0.00247284342606
0.00152032692497
0.00147358059883
0.0014960243343
0.0013797574721
0.00117517410127
0.000779318294955
0.000423700503869
2.67410588751
1.06205221441
0.461639203518
0.221353106212
0.106514181015
0.0552042700847
0.0319795275995
0.0206043486775
0.0145629679669
0.010861373274
0.00796397603115
0.00509026275311
0.00260931385942
0.00159528884736
0.00150398533286
0.00152150423013
0.00141767482899
0.00121944000936
0.000877143272602
0.000503634940047
3.0113328401
1.24023052897
0.518100020091
0.23104908698
0.109349034633
0.056593441728
0.0329096297901
0.0213432069276
0.0151224141311
0.0112128444749
0.00815639665309
0.00521983806567
0.00273993811485
0.00167819312366
0.00153820440718
0.00155205049052
0.00146638479051
0.00127399142489
0.000964877143706
0.000582853908659
3.22942606326
1.38391746521
0.596119348283
0.258712335553
0.11861269382
0.0601370953799
0.0345704768789
0.0223314432123
0.0157347025192
0.0115511769766
0.008329303427
0.0053449130259
0.00288028989201
0.00176995433707
0.00157680277644
0.00159102542549
0.00153421770145
0.00135262322911
0.00106057380504
0.000591040187453
3.33429617983
1.47915697559
0.655059850007
0.286854471161
0.13020970093
0.0649435175644
0.0367811945129
0.0235236817757
0.0163814441622
0.0118676004025
0.00848439854227
0.00547025879817
0.00302876941314
0.0018653252162
0.00162082032828
0.00164289970166
0.00162701867884
0.00146355421768
0.001175757808
0.00068827517905
3.38784985092
1.50879445116
0.677415052524
0.302541746045
0.139244147316
0.069608890507
0.0391677638155
0.0247800517779
0.0169875431676
0.0121249838767
0.00860354700257
0.00558148756609
0.00316723472389
0.00195598765032
0.00167221951647
0.00171407836702
0.00174547743646
0.00160524322701
0.00131079967825
0.00080343484949
3.44394474617
1.48303275421
0.666783979386
0.303035546185
0.143169344867
0.0729570176357
0.0412790022273
0.0258814386759
0.0174295277106
0.0122649224463
0.00865537992313
0.0056530916259
0.00327319047036
0.00203839690855
0.00173623418062
0.00180878916003
0.00188289792151
0.00176328177774
0.00145883102117
0.000921196418925
3.4546532296
1.44322417997
0.635234512223
0.292076435926
0.142151763096
0.0744842722012
0.0426857551721
0.0265209034411
0.0175391592071
0.012214536648
0.00860028878296
0.00565770039059
0.00334120850168
0.00211767654789
0.00181738702839
0.00192280724157
0.00202571900731
0.00192421890114
0.00158683686114
0.00104381800626
3.32741069278
1.36703367018
0.594530098444
0.276933451762
0.138606470871
0.0746812238621
0.0431786329926
0.0264485839528
0.0172204371151
0.011939220532
0.00841997836399
0.00559383626167
0.00338694588225
0.00220510264393
0.00191547525958
0.00204433661134
0.0021657190581
0.00208800572374
0.00172759292195
0.00117393907397
3.11729090617
1.2613360289
0.549853002859
0.260565453849
0.133890706464
0.0736509498855
0.0424272821498
0.025510004957
0.0164672845066
0.0114513776791
0.00813280944407
0.00548640891051
0.00342650941007
0.00230109273723
0.00201972749962
0.00215983422527
0.00230467881818
0.00226113013611
0.00189968717307
0.00131763937652
2.85284827238
1.14643182391
0.505240904776
0.244764625034
0.128882573737
0.0713165791298
0.0403706690395
0.0238452147188
0.0153958205457
0.0108282939476
0.00779405245695
0.00536489393774
0.00346396044922
0.00239135202712
0.00210910547842
0.00225514322903
0.00243930157138
0.00243393786379
0.00210097797322
0.00148242864014
2.55070198488
1.02151791551
0.460690272687
0.231632113038
0.124599716781
0.0681881184497
0.0374974614758
0.0218091899289
0.0142351010508
0.0101960922686
0.00746544563228
0.00525636764123
0.00350659503233
0.00246816524509
0.00216371723378
0.0023098790222
0.00254279459707
0.00258122365659
0.00229154466293
0.00168207354142
2.18945150032
0.895646921339
0.431648862927
0.228277528766
0.123254235519
0.0650740389954
0.0343947435933
0.0199334405286
0.0132798066662
0.00967633520602
0.00719096009204
0.00516708374473
0.00353809696806
0.00251306948059
0.00217230180602
0.00229191325224
0.00256991421949
0.00266235797633
0.00242380928337
0.0018500798226
1.81219126759
0.849887225634
0.448056355674
0.241631459355
0.125865246145
0.0631908866229
0.0326112510756
0.0190738425576
0.0128320572951
0.00936930350213
0.00699090718925
0.00508104652296
0.0035322894361
0.00249730427023
0.00209896747375
0.00217864177501
0.00246929094645
0.00263872284577
0.00246350819572
0.00196557630445
1.77850298647
0.965859676018
0.524838711309
0.275142914709
0.135938079778
0.0653256634918
0.0333699081523
0.0195336540535
0.0129891447306
0.00932993370152
0.00689095487321
0.00501060179959
0.00349853524847
0.00243128134248
0.00193812584643
0.00196803538566
0.00222270675872
0.00246917583687
0.00238490328774
0.00199549991312
2.32146942478
1.27122015306
0.657300704389
0.323864013034
0.154655743242
0.0744897281495
0.0384586187402
0.0221983013207
0.0142305710582
0.00982180946737
0.00705134000045
0.00506053501951
0.00350121319976
0.00236150265819
0.0017547695641
0.00166368825395
0.0018816116954
0.00215900050761
0.00220598802185
0.00194667847026
3.36128724575
1.67774441554
0.783854109269
0.375377838251
0.183505889306
0.0928621686934
0.0495445384078
0.0281578038643
0.0171755812887
0.0111906830698
0.00768027056638
0.00536365286745
0.00362620720012
0.00233541967269
0.00159843289279
0.00137738953441
0.00151610620645
0.00179040391514
0.00196485796642
0.00183966193637
4.251181829
1.8411987646
0.87003128998
0.432069390747
0.218947780844
0.115878793814
0.0638718763564
0.0362355691279
0.0216249326998
0.0134796463513
0.00884478208664
0.00599128014869
0.00394568350129
0.00241445678758
0.00150416569856
0.00117964737702
0.00120790031891
0.00146716824374
0.00171318015722
0.00172029786932
4.32550229798
1.85040860011
0.878179247819
0.449314340011
0.243242374643
0.137150479631
0.078291010128
0.043877372341
0.0260326342279
0.0161234174955
0.0103661520001
0.00689162552614
0.00446472191415
0.00263495354009
0.00151035728264
0.00107575082917
0.00103533586591
0.00122625600349
0.00151350960673
0.00162801143405
4.15070709284
1.79484831131
0.848949812622
0.439917565475
0.247332022459
0.147694317471
0.0899415575894
0.0501515570518
0.0295138310088
0.0183796402161
0.0118831874984
0.00788732183497
0.00508884497535
0.00295863547613
0.00161272711249
0.00105904796244
0.000960095577648
0.00108968898121
0.00139278585788
0.00157627601812
4.02702167027
1.7293588707
0.804462671355
0.415892625107
0.238348500721
0.147246651429
0.0929787858156
0.0533255586831
0.0318266312373
0.0200422462656
0.013130746183
0.00879077620279
0.00569051108458
0.00330785435935
0.00177386751878
0.00110697027023
0.000951276779713
0.00104661625283
0.00133965889397
0.00156394663665
4.01565994666
1.67441070275
0.753199147331
0.383305629931
0.220466963583
0.138043397258
0.087129707557
0.0521751811175
0.0322999853741
0.0208219641288
0.0139184459225
0.00945032079525
0.00615471384921
0.00360903221254
0.00195399004979
0.00119592582841
0.000986039565505
0.00104992516628
0.00131900120018
0.00158562690923
4.14430567061
1.64180778702
0.708302116722
0.35290855215
0.202049101722
0.124805327682
0.0778517603204
0.0489352649958
0.0314771099281
0.0208444538007
0.0142387049514
0.00979327777091
0.00640052671059
0.00378976590183
0.00209979360732
0.0012983015827
0.00104914557117
0.00108314881253
0.00133100155184
0.00163056085416
4.44084546367
1.65246699792
0.67977745272
0.330034037287
0.186200385862
0.111581740025
0.0705954537465
0.0456314576111
0.0301517674106
0.0204497900275
0.0142418763152
0.00986100054022
0.00644071779216
0.00385368231243
0.00219937372562
0.00139647415621
0.00112602122588
0.0011366503356
0.00136218608104
0.00168719365427
4.94617258032
1.74028671264
0.699197098095
0.335371872779
0.181081192614
0.107297676818
0.0671039350272
0.0434479151067
0.0289913781824
0.0199835189854
0.0140571789792
0.00969763019002
0.00632134989957
0.00383763698837
0.00226907401098
0.00149094648134
0.00121065099906
0.00120068992782
0.00140783060473
0.00174535136787
5.55107417181
1.9399644944
0.807186535082
0.384477709009
0.204327280557
0.115873325052
0.0691344555268
0.0432759578304
0.0285076474119
0.0196356917634
0.0137169833997
0.00936212191342
0.006116033702
0.00379369798048
0.00233310012383
0.00158730567924
0.0013001196497
0.00127037239342
0.00145963285387
0.00180665158807
5.85312031371
2.19089955343
0.965529238071
0.475206546202
0.249330173166
0.136028864351
0.0766058904294
0.0453566028476
0.0288002249196
0.0193322176911
0.013210846205
0.00895106408607
0.00590779223455
0.00377118697939
0.00241251491417
0.00168982737884
0.00139181449745
0.00134045128472
0.00151084876825
0.00186914978242
5.58250896233
2.31279594084
1.09652133829
0.554851953308
0.293501042873
0.158358592294
0.086196711429
0.0485197207186
0.0292086847864
0.0188080484207
0.0126164604592
0.00856710446505
0.00576433456849
0.00380292981881
0.00251885497135
0.00180013924197
0.00148208993891
0.001406727619
0.00155338778955
0.00192838726488
4.99966736861
2.32728981939
1.1488392321
0.595865259485
0.320115166771
0.173615980775
0.0933698247792
0.0505117720948
0.0289020002944
0.0180829366377
0.0120739701751
0.0082974480023
0.00572669693686
0.00390209270226
0.00265557155705
0.00191630441204
0.00156681280392
0.00146694120935
0.00158166118969
0.00197873491431
4.29867493698
2.13810523311
1.09724229926
0.583673976265
0.319083638864
0.174954737093
0.0937039136211
0.0494519571137
0.0277532691857
0.017340077095
0.0116803228548
0.0081777343497
0.00579699224211
0.00406181981066
0.00281626802379
0.00203473515374
0.00164221842838
0.0015121143419
0.00159716316078
0.00201222263212
3.69329844678
1.86991945248
0.979212974025
0.530006246429
0.293508202435
0.162315874363
0.0867866945294
0.0458797662442
0.0262542943153
0.0167284765421
0.011452333225
0.00818397111975
0.00594236634089
0.00425553588625
0.0029875859774
0.00214993879215
0.0017078887512
0.00154455908436
0.00160299450995
0.00202461934544
3.17553158431
1.58539558503
0.83454836561
0.456520214652
0.255271925535
0.141925001828
0.0764209868785
0.0417406546992
0.0249293822523
0.0162968527383
0.0113422701388
0.00825526672017
0.00610730564634
0.00444694886121
0.00315005044055
0.00225797722002
0.00176305780516
0.00156651759989
0.0015979944771
0.00198406815138
2.71648606391
1.33794918693
0.707467625557
0.389772909586
0.218653640975
0.121783664477
0.067039898734
0.0386060160802
0.0240991668723
0.0160605978168
0.0113097979832
0.00833686088365
0.0062477256248
0.00460598961059
0.00328979945245
0.0023345610688
0.00178650523497
0.00156612876749
0.00157799936623
0.00189151324149
2.36501032975
1.19244811216
0.63758727973
0.350270259074
0.194775071828
0.108885855238
0.0624590597072
0.0380194228755
0.0243395155805
0.0162344775366
0.011409573486
0.00842014765309
0.00633812101635
0.00470254472957
0.00336091483367
0.00235491415702
0.0017603649323
0.00152080977692
0.00151962826139
0.00177559279717
2.28755147312
1.20953108633
0.649926016378
0.354498702979
0.195417625394
0.11050371001
0.0657881599169
0.041044514167
0.0260887191568
0.0170310118299
0.011754157701
0.00856587287945
0.0064104243452
0.00475032553812
0.00337198479314
0.00231237779156
0.00167656336432
0.00141691511505
0.00140419759141
0.00163420888751
2.61509923188
1.41584171183
0.757021342719
0.401225532546
0.214953167669
0.121888109158
0.0746451919733
0.0474383897546
0.0299607961093
0.0190843390372
0.0127881469967
0.00904550958617
0.00663163864348
0.00486088740563
0.00340217958243
0.00225098928136
0.00155361323852
0.00126650145785
0.00123841360931
0.00144340041641
3.29458596647
1.7110846511
0.86779318323
0.437188005024
0.227398293693
0.130730370999
0.083099251403
0.0548669129105
0.0356118613728
0.0225943566582
0.014831048396
0.0101514440371
0.00721392805457
0.00520319697767
0.00359341974274
0.00227396177938
0.00145455362747
0.00111623511531
0.0010631840647
0.00123263806907
3.785682962
1.71791199225
0.811839208902
0.407440936545
0.221848699506
0.134448440513
0.0896419312195
0.0622150980942
0.0423001485175
0.0271402663
0.0175267010579
0.011781187226
0.0082181853899
0.00586414010706
0.00404484307194
0.00248753407696
0.00146774380931
0.00103091661523
0.000933788005944
0.00105700484084
3.70481600715
1.58281052797
0.731935625661
0.369650840682
0.20949989466
0.13383855614
0.0938262063463
0.0681972738209
0.0485489586543
0.0320950207771
0.0203689177022
0.0135717853009
0.00943857227809
0.00676246827125
0.00472579992404
0.00291892155627
0.00164817492401
0.00105627564972
0.0008861126714
0.000956993659343
3.49849254992
1.48745729912
0.67492219749
0.341173135355
0.19830266821
0.131237949263
0.0950446287482
0.0710076550309
0.0517641105437
0.0349863323855
0.022650074568
0.0151971060999
0.0106364607173
0.00771611114866
0.00549645463076
0.003488357661
0.00197859720571
0.0011972044197
0.000923859110864
0.000936741345378
3.39960640473
1.42539525295
0.634951805558
0.321177233752
0.189740510672
0.128016852382
0.0941464996189
0.0711022365343
0.0521812688039
0.0354712031258
0.023719522158
0.0162564751838
0.0115741201681
0.00854825629863
0.00621018058841
0.00405313478376
0.00235955835661
0.00140569584399
0.00102064399864
0.000968169988306
3.3973929815
1.39379454614
0.612863019817
0.312112249502
0.186255980012
0.126269840684
0.0928153258962
0.0697637227535
0.0505506760637
0.0347525929611
0.023919305929
0.0168157241234
0.0122548382409
0.00924123466233
0.00682017490966
0.0045434652346
0.00272172731235
0.00163652338468
0.00115032787387
0.00102923727585
3.44613406569
1.38071920831
0.609221682585
0.31350450402
0.187452477686
0.126374621436
0.0918159939952
0.0677629537549
0.0481257067893
0.0337592568829
0.0238065942079
0.01713967358
0.0128118717125
0.00984797801012
0.00732837209321
0.00495035692234
0.00304890888158
0.00187341496797
0.00130132437044
0.00110994466695
3.49342223339
1.3683185921
0.608778791003
0.314128721455
0.187688677927
0.126026740044
0.0903534608975
0.0650773720316
0.046370648233
0.0330325907918
0.023723958553
0.0174619796566
0.0133675526606
0.0103980332065
0.00774950633583
0.00530006684297
0.00335918617986
0.00212364825329
0.00147576264017
0.00120986044512
3.46984937102
1.33057467561
0.585528281349
0.300115125639
0.180993075367
0.122441544149
0.0871572913367
0.0626400150046
0.0450285091198
0.0324770435607
0.0237176724574
0.0178744919957
0.0139444696147
0.0108832238507
0.00812604107163
0.00564176410955
0.00368936267168
0.00240779535221
0.00168453809953
0.00133447436355
3.54650473238
1.32970308507
0.574264797863
0.284814549449
0.170998225036
0.116498958346
0.0830200215302
0.0599013415739
0.0434757258954
0.0318032285704
0.0237443072562
0.0183463927175
0.0144923393646
0.0113374620655
0.00852455066725
0.00603536776417
0.00407956885202
0.00274675292574
0.0019376061805
0.0014893243992
3.56501980947
1.42169934556
0.612438736229
0.291991002382
0.166290379832
0.1098890077
0.0777089988401
0.0563872813286
0.0414683413349
0.0309888184536
0.0238177544868
0.018826328627
0.0150153834697
0.0118488010813
0.00902666087825
0.00654100476464
0.00455975621802
0.00314586610171
0.00223102136954
0.0016694938739
3.09605956289
1.3404087214
0.595295798872
0.283765131334
0.157999103911
0.102299778444
0.0719381369175
0.0525793105852
0.0393789922902
0.0302960989209
0.0239791742024
0.0193089745941
0.0156319339639
0.0125317922731
0.00972182579435
0.00720825967155
0.00513410542428
0.00357748790416
0.00252823457376
0.00184803798808
2.55668434159
1.16395919814
0.535368016303
0.262291637153
0.14783009861
0.095661909029
0.0672856704804
0.0496202223263
0.0379410385601
0.0300207368081
0.0243279179942
0.0199906341091
0.0165327161004
0.013527517299
0.0106976260952
0.00805680918345
0.00575445660776
0.00395364686974
0.00273529239792
0.00195458187895
2.203475695
1.02713016575
0.486268310226
0.246425747011
0.142246744519
0.0928597942166
0.0655076528391
0.0486486858969
0.0377622365893
0.0304851612972
0.0252219935016
0.0212158914456
0.0179434141746
0.0149610278829
0.0119617077098
0.00895693387657
0.00619970679635
0.00410259552973
0.00281451356736
0.00201849797032
2.07376098151
0.971648236369
0.470244273129
0.244693924434
0.144335240643
0.0953131215603
0.0675448758161
0.0503459879569
0.0393876131614
0.0321890195872
0.0271210303231
0.0232515256142
0.0199608445466
0.0166493197617
0.0130189905203
0.00927175281691
0.0061840358904
0.00414986255168
0.00291405352555
0.00207934438756
2.06642782702
0.970910171846
0.473876106198
0.252983311662
0.152764080264
0.102165780603
0.0728444077433
0.0544579225735
0.042775495326
0.0351779223905
0.0299164549044
0.0258006045372
0.021913045909
0.0174368872032
0.0129446744077
0.00899769178357
0.006095062661
0.00423409907127
0.00303515045619
0.00215222112335
2.04083897905
0.94843005133
0.470667928902
0.260206339858
0.161834777322
0.109666041358
0.0784982620934
0.0587079547422
0.046100513482
0.0379753965597
0.0322939068747
0.0276171233516
0.022710412699
0.0171739158619
0.0124343253735
0.00869745734911
0.00605674090995
0.004344517477
0.00317253008411
0.00223740938363
1.76084584748
0.804434109282
0.409585509217
0.236698881498
0.153498246941
0.107578722678
0.0789052111294
0.0599945963848
0.0475304766922
0.039361175494
0.0335461641828
0.0285961580892
0.0232520007785
0.0167488021217
0.0119426185289
0.00844497354797
0.00604342082573
0.00446723424521
0.00332242939871
0.00233464556741
1.45778260878
0.664122590003
0.34328715392
0.201958772996
0.13294233061
0.0949823767182
0.071670152008
0.0564691638346
0.0463316501403
0.0394362027463
0.0342315627402
0.0294345977103
0.0239511003423
0.0163548495367
0.0114932134776
0.0082356995089
0.00605088071376
0.00459095319574
0.00346666200617
0.00243030608209
1.28454317315
0.599643811895
0.311073502918
0.17792196357
0.114106703462
0.0814086973077