/*--------------------------------*- C++ -*----------------------------------*\
| =========                 |                                                 |
| \\      /  F ield         | OpenFOAM: The Open Source CFD Toolbox           |
|  \\    /   O peration     | Version:  2312                                  |
|   \\  /    A nd           | Website:  www.openfoam.com                      |
|    \\/     M anipulation  |                                                 |
\*---------------------------------------------------------------------------*/
FoamFile
{
    version     2.0;
    format      ascii;
    arch        "LSB;label=32;scalar=64";
    class       volScalarField;
    location    "0.06/water";
    object      p;
}
// * * * * * * * * * * * * * * * * * * * * * * * * * * * * * * * * * * * * * //

dimensions      [1 -1 -2 0 0 0 0];

internalField   nonuniform List<scalar> 
750
(
101662.986387
101660.397318
101658.86662
101658.944874
101658.814697
101658.629956
101658.458021
101658.305602
101658.162905
101658.023619
101657.885591
101657.742918
101657.584485
101657.415425
101657.271358
101657.188361
101657.169769
101657.158556
101657.03083
101656.710858
101603.846206
101616.11384
101607.092898
101606.69766
101607.083452
101607.465354
101607.66237
101607.533715
101607.112104
101606.763671
101606.854542
101607.275816
101607.801249
101608.4066
101608.736929
101608.330626
101607.328511
101606.442734
101606.875108
101607.901161
101578.162333
101590.67302
101581.212502
101580.457475
101580.678898
101580.804915
101580.68036
101580.342047
101580.107856
101580.318934
101580.774549
101581.169036
101581.390588
101581.016686
101580.071289
101580.022965
101580.482477
101581.161378
101581.701574
101581.778031
101549.822741
101561.857447
101552.433724
101551.598631
101551.817761
101551.971814
101551.990099
101551.855615
101551.611738
101551.404974
101551.41757
101551.790333
101552.329895
101552.516796
101551.937509
101551.009397
101552.178041
101552.651113
101552.86693
101552.951666
101511.305889
101521.550601
101513.900813
101513.198151
101513.785281
101513.906361
101514.040501
101514.108041
101514.161675
101514.179286
101514.24186
101514.393698
101514.499485
101514.463248
101514.266792
101513.96927
101513.744061
101513.584919
101513.22581
101512.766976
101490.534714
101496.344258
101489.706711
101489.993898
101490.40541
101490.363043
101490.342869
101490.30392
101490.328423
101490.432032
101490.557165
101490.423348
101490.478042
101490.170315
101490.422714
101490.487334
101490.795972
101491.007206
101491.176444
101491.088376
101476.307837
101479.453976
101476.0958
101476.270611
101476.414044
101476.55107
101476.694552
101476.813546
101476.802864
101476.414192
101475.431098
101474.267092
101473.688009
101474.280687
101475.458176
101476.418029
101477.059266
101476.89706
101476.007603
101475.483207
101442.268203
101442.091748
101442.047443
101442.043925
101442.043013
101442.042307
101442.031326
101442.002268
101441.957131
101441.901962
101441.845599
101441.794916
101441.751589
101441.709153
101441.646789
101441.518773
101441.425397
101441.566752
101441.763173
101442.024505
101425.523327
101425.352762
101425.310835
101425.307808
101425.307005
101425.306615
101425.306495
101425.305909
101425.305039
101425.303881
101425.302574
101425.301145
101425.299863
101425.2992
101425.299481
101425.303605
101425.324382
101425.257689
101424.98051
101424.399415
101369.857761
101369.173275
101368.617585
101368.716709
101368.623622
101368.327758
101367.835837
101367.213575
101366.592997
101366.185563
101366.063225
101366.047938
101366.0465
101366.083351
101366.187487
101366.394706
101366.738566
101367.165986
101367.462286
101367.331311
101327.251904
101326.25188
101325.197908
101325.165985
101324.78484
101324.153239
101323.330254
101322.331042
101321.509305
101320.015743
101319.193079
101317.44036
101315.867338
101314.689956
101315.604212
101316.966945
101317.534197
101317.970481
101318.439848
101318.862215
101292.054524
101291.880521
101291.836283
101291.833563
101291.804633
101291.667908
101291.323955
101290.658884
101289.583748
101288.214582
101286.714227
101286.068268
101284.887167
101284.520005
101283.493139
101282.619846
101282.812198
101283.681863
101284.474731
101284.98514
101255.531172
101255.38349
101255.347351
101255.345321
101255.344612
101255.343433
101255.342467
101255.292269
101255.071804
101254.632032
101254.033093
101253.365007
101252.687344
101252.014904
101251.299445
101250.642182
101250.201205
101250.041551
101250.270815
101250.722054
101227.150577
101227.589191
101227.019967
101226.803425
101226.520971
101226.190112
101225.816651
101225.405077
101224.957412
101224.473362
101223.968254
101223.465915
101222.97819
101222.503812
101222.032362
101221.519291
101220.972587
101221.075368
101221.006759
101221.379466
101195.468412
101201.977698
101195.517854
101195.25398
101195.934092
101195.843025
101195.545097
101195.196785
101194.942717
101194.752028
101195.088348
101196.311401
101196.193443
101192.30492
101188.567049
101193.636679
101198.787333
101200.320816
101200.774276
101201.145755
101169.099025
101181.456746
101168.333457
101165.925361
101165.499883
101164.856128
101164.032133
101163.204342
101162.593005
101162.064875
101161.571665
101161.044396
101160.365475
101159.659228
101158.812155
101158.164214
101157.931011
101156.944465
101153.742622
101153.124966
101160.86691
101181.143211
101168.948177
101167.060305
101167.266614
101167.266597
101167.707211
101168.60686
101169.079783
101168.594413
101167.362596
101166.164464
101166.158756
101166.653794
101166.909768
101167.052089
101167.122384
101167.040639
101166.722324
101165.91624
101128.332863
101154.27713
101137.945845
101133.762005
101134.692156
101138.291378
101139.660246
101138.662234
101137.206275
101135.416916
101133.547916
101132.072827
101131.439791
101131.407585
101131.405958
101131.040712
101130.422192
101130.37833
101130.31222
101129.990622
101056.892217
101073.01839
101062.493848
101058.861336
101059.292852
101065.350642
101067.487071
101066.119212
101064.405941
101062.939834
101061.654789
101060.348956
101059.141592
101058.324545
101058.069942
101058.03707
101058.052781
101058.109094
101058.208594
101058.284077
100975.422812
100987.868133
100979.808746
100976.48389
100976.368519
100975.488548
100974.823822
100974.042059
100973.570844
100972.633304
100961.44644
100934.484949
100942.578783
100984.667725
100984.771736
100984.798977
100984.796442
100984.753822
100984.529021
100983.887635
100745.905546
100762.594
100756.776959
100752.14855
100752.370033
100752.45751
100752.525026
100752.382121
100752.121473
100751.69525
100750.847674
100749.248767
100746.337247
100742.939827
100740.032036
100738.035095
100735.362185
100725.761166
100711.56788
100725.29645
100845.431742
100877.596809
100860.663508
100853.8577
100853.028577
100852.753213
100853.763793
100855.72884
100856.828592
100856.610136
100856.281129
100856.000944
100855.821557
100855.75084
100855.786399
100855.897676
100855.748615
100854.092595
100850.497795
100847.103182
100765.650911
100778.814945
100750.674206
100755.529101
100781.026994
100781.119416
100781.149492
100781.13773
100769.216881
100768.901138
100773.699419
100774.897447
100774.663076
100774.320622
100774.045464
100773.762956
100773.464579
100773.128316
100772.704937
100772.022617
100626.585674
100613.882633
100620.724763
100669.478333
100669.606661
100669.64849
100669.641618
100660.443049
100647.944137
100654.235792
100658.557274
100659.08232
100659.145955
100658.992283
100658.723779
100658.284633
100657.691448
100656.929034
100655.975156
100653.186942
100191.569894
100235.000081
100249.840311
100249.911965
100249.936471
100249.940399
100249.933342
100249.899212
100256.792087
100262.53348
100264.385284
100263.661477
100261.518547
100259.375777
100259.133244
100261.349752
100264.495897
100267.018878
100268.606914
100267.160073
100042.963305
100042.899667
100042.896766
100042.902581
100042.906385
100042.905382
100042.898571
100042.88842
100042.874847
100042.866021
100042.862413
100042.860582
100042.859407
100042.858342
100042.617204
100041.78047
100040.444011
100039.238339
100039.395569
100040.566944
100038.349025
100038.328968
100038.325753
100038.328239
100038.329799
100038.329888
100038.328416
100038.325566
100038.322867
100038.320217
100038.318051
100038.316761
100038.316102
100038.315679
100038.315139
100038.314664
100038.314383
100038.314582
100038.315932
100038.319236
100037.133305
100037.120978
100037.119293
100037.120188
100037.120854
100037.120828
100037.120106
100037.118922
100037.117383
100037.115776
100037.114289
100037.113059
100037.112137
100037.111466
100037.11099
100037.110647
100037.110436
100037.110383
100037.110508
100037.110875
100035.992087
100035.981931
100035.980225
100035.980755
100035.981123
100035.981149
100035.98084
100035.980227
100035.979387
100035.978407
100035.977415
100035.976514
100035.975762
100035.975176
100035.974741
100035.974428
100035.974203
100035.974045
100035.973936
100035.973897
100034.717114
100034.707352
100034.705504
100034.705809
100034.706081
100034.706148
100034.706011
100034.705682
100034.705185
100034.704577
100034.703921
100034.703282
100034.702713
100034.702237
100034.701846
100034.701519
100034.701242
100034.701003
100034.700806
100034.700727
100033.730651
100033.720828
100033.718799
100033.718963
100033.719167
100033.719249
100033.719205
100033.719037
100033.718756
100033.718387
100033.717969
100033.717549
100033.71716
100033.716809
100033.716483
100033.716197
100033.715941
100033.715721
100033.715525
100033.715321
100032.701346
100032.689701
100032.68712
100032.687163
100032.687316
100032.687394
100032.687393
100032.687312
100032.687151
100032.686924
100032.686654
100032.686369
100032.686082
100032.685793
100032.685524
100032.685273
100032.685048
100032.684842
100032.68465
100032.68438
100031.608319
100031.592988
100031.589445
100031.589371
100031.589487
100031.589561
100031.589588
100031.589564
100031.589482
100031.589347
100031.589172
100031.588972
100031.588757
100031.588539
100031.588324
100031.588124
100031.587936
100031.587779
100031.587653
100031.587484
100030.4494
100030.432872
100030.428997
100030.428869
100030.428964
100030.429037
100030.429091
100030.429116
100030.429102
100030.429046
100030.428954
100030.428834
100030.428698
100030.428554
100030.428409
100030.428267
100030.428142
100030.428041
100030.427988
100030.427892
100029.219572
100029.203028
100029.199121
100029.198971
100029.199055
100029.199126
100029.199191
100029.199243
100029.199271
100029.199268
100029.199232
100029.19917
100029.19909
100029.199002
100029.198911
100029.198821
100029.19874
100029.198683
100029.198653
100029.198559
100027.960013
100027.94346
100027.939532
100027.939368
100027.939443
100027.939513
100027.939586
100027.939656
100027.939714
100027.939746
100027.939749
100027.939727
100027.939686
100027.939633
100027.939573
100027.939508
100027.939445
100027.939388
100027.939325
100027.939139
100026.760593
100026.744031
100026.740088
100026.739907
100026.739972
100026.74004
100026.740118
100026.740197
100026.740264
100026.740305
100026.740316
100026.7403
100026.740262
100026.740205
100026.74013
100026.740039
100026.739945
100026.739852
100026.739734
100026.739446
101654.524126
101612.124169
101581.295488
101551.477936
101514.11559
101489.742363
101474.766342
101443.760913
101421.129987
101366.100942
)
;

boundaryField
{
    emptyPatch
    {
        type            empty;
    }
    minY
    {
        type            calculated;
        value           nonuniform List<scalar> 
21
(
101668.556325
101666.308565
101665.328541
101665.937929
101666.278993
101666.50106
101666.689149
101666.860853
101667.011977
101667.139485
101667.246355
101667.333125
101667.383989
101667.388563
101667.37968
101667.422118
101667.564706
101667.791066
101667.940832
101667.760498
101665.849195
)
;
    }
    maxY
    {
        type            calculated;
        value           nonuniform List<scalar> 0();
    }
    maxX
    {
        type            calculated;
        value           nonuniform List<scalar> 0();
    }
    water_to_heater
    {
        type            calculated;
        value           nonuniform List<scalar> 
59
(
101662.986527
101610.730233
101601.552047
101582.911635
101573.414301
101552.216828
101542.643993
101511.306914
101490.535976
101481.401512
101474.612452
101443.972796
101440.567127
101426.362989
101423.011829
101369.860374
101327.254816
101294.579077
101291.216499
101257.060334
101254.007025
101228.248348
101223.873081
101195.471537
101169.102362
101168.407143
101158.358788
101133.100301
101123.574276
101059.5884
101048.820678
100975.426653
100745.909546
100853.443767
100842.767389
100771.202685
100760.108994
100629.366927
100618.263604
100191.577585
100042.96679
100039.732079
100037.891331
100037.947877
100036.32325
100036.3808
100034.834633
100034.71927
100033.732834
100033.891602
100032.307615
100032.455689
100030.765755
100030.88189
100029.161974
100029.222161
100027.962666
100028.053293
100026.333324
)
;
    }
    procBoundary0to1
    {
        type            processor;
        value           nonuniform List<scalar> 
38
(
101321.105797
101287.165543
101253.282519
101225.489953
101203.155958
101176.990121
101161.252418
101128.350538
101057.953388
100978.92426
100881.314217
100833.499266
100767.004944
100627.423473
100246.258907
100041.867762
100038.33894
100037.113282
100035.973655
100034.700348
100033.713999
100032.682375
100031.585853
100030.426552
100029.197233
100027.937383
100026.737108
101653.201509
101612.907661
101580.971482
101551.45353
101520.103619
101493.385625
101474.960365
101444.199305
101417.898004
101366.2819
101321.105797
)
;
    }
    procBoundary0to3
    {
        type            processor;
        value           nonuniform List<scalar> 
20
(
100025.692065
100025.675487
100025.671517
100025.67131
100025.671348
100025.671383
100025.671418
100025.671444
100025.671451
100025.671429
100025.671374
100025.671285
100025.671171
100025.671037
100025.670884
100025.670715
100025.670542
100025.670364
100025.670154
100025.669781
)
;
    }
}


// ************************************************************************* //
