/*--------------------------------*- C++ -*----------------------------------*\
| =========                 |                                                 |
| \\      /  F ield         | OpenFOAM: The Open Source CFD Toolbox           |
|  \\    /   O peration     | Version:  2312                                  |
|   \\  /    A nd           | Website:  www.openfoam.com                      |
|    \\/     M anipulation  |                                                 |
\*---------------------------------------------------------------------------*/
FoamFile
{
    version     2.0;
    format      ascii;
    arch        "LSB;label=32;scalar=64";
    class       volVectorField;
    location    "0.725/water";
    object      U.gas;
}
// * * * * * * * * * * * * * * * * * * * * * * * * * * * * * * * * * * * * * //

dimensions      [0 1 -1 0 0 0 0];

internalField   nonuniform List<vector> 
1497
(
(0.119942940933 1.18152482252 0)
(0.118281855631 1.10981675898 0)
(0.118983133112 1.07240076078 0)
(0.117150919492 1.06304226242 0)
(0.114329212097 1.07312196806 0)
(0.115736579187 1.0728429044 0)
(0.119814886107 1.03666533025 0)
(0.120887361206 0.958507584979 0)
(0.119270570719 0.866845378347 0)
(0.119146728155 0.788935081825 0)
(0.122820743815 0.730032748034 0)
(0.130178611118 0.684953049368 0)
(0.140387582366 0.647684708406 0)
(0.0514877256723 0.980525954908 0)
(0.10767925457 1.30525063141 0)
(0.116180225743 1.40848944546 0)
(0.124029223699 1.45503386732 0)
(0.130490265636 1.46299700429 0)
(0.130523139629 1.4215485222 0)
(0.125889038414 1.29803123596 0)
(0.124654935519 1.18133613335 0)
(0.128283590316 1.09934687478 0)
(0.133195769154 1.05472090448 0)
(0.136261303139 1.04093197979 0)
(0.137954028273 1.04953581424 0)
(0.140937537758 1.04921319647 0)
(0.143792468675 1.01683060551 0)
(0.144132838464 0.946719535574 0)
(0.144235783502 0.859262031953 0)
(0.146761483939 0.780337231498 0)
(0.151567859612 0.718530644086 0)
(0.158075364457 0.670976381177 0)
(0.166355746126 0.632421465903 0)
(0.0445826678385 0.868410187787 0)
(0.0903946536807 1.20977557727 0)
(0.0938843644317 1.33612193187 0)
(0.0993332325784 1.3942239269 0)
(0.10532846648 1.41979222915 0)
(0.109842138779 1.4087862651 0)
(0.114942802636 1.28973402372 0)
(0.123545915183 1.17269710257 0)
(0.134082750993 1.08983611477 0)
(0.143139758064 1.04301757196 0)
(0.147813429342 1.02618824223 0)
(0.149340083812 1.03225037597 0)
(0.151219411376 1.03111531897 0)
(0.152817633275 1.0015406834 0)
(0.153695877022 0.93735465973 0)
(0.156746569607 0.855049244416 0)
(0.162676991889 0.777807094605 0)
(0.169601256149 0.715113672213 0)
(0.176597532264 0.666009988151 0)
(0.184266947768 0.626111535463 0)
(0.0409204143553 0.812979453716 0)
(0.0814893119423 1.14859628402 0)
(0.081375674262 1.28477499244 0)
(0.083013784435 1.3483253102 0)
(0.0864571867322 1.37966784616 0)
(0.0932587259506 1.37076728406 0)
(0.105659056748 1.25217136692 0)
(0.120920539569 1.15007360676 0)
(0.134999683508 1.07499649381 0)
(0.145346111026 1.03072610313 0)
(0.149838103796 1.0133151915 0)
(0.150267722108 1.01714288725 0)
(0.150454991908 1.01493155156 0)
(0.151073750824 0.986013447603 0)
(0.153225089408 0.925649973691 0)
(0.159261662729 0.849155712786 0)
(0.168210786391 0.776057070794 0)
(0.177357060659 0.715131705072 0)
(0.185593655156 0.666540758723 0)
(0.19354039566 0.626231512172 0)
(0.039342134362 0.782260201934 0)
(0.0755383672529 1.11838878654 0)
(0.0690111565749 1.26357309689 0)
(0.0638134687697 1.32664061785 0)
(0.0624572551535 1.34994718925 0)
(0.0739050403629 1.29777235779 0)
(0.0940274018457 1.20071104646 0)
(0.112393495211 1.1195329934 0)
(0.128752567123 1.05701794385 0)
(0.139828391291 1.01889687028 0)
(0.144029001999 1.00360941908 0)
(0.142866967457 1.00627939795 0)
(0.140799284332 1.00173787874 0)
(0.141101385244 0.971052988874 0)
(0.145738237186 0.912891242548 0)
(0.155221398521 0.842410186815 0)
(0.167098791135 0.775103032751 0)
(0.178395802445 0.718207279151 0)
(0.187872411027 0.671745538516 0)
(0.195807891201 0.631475812255 0)
(0.0264327532513 0.834662641528 0)
(0.0489492913307 1.13062226018 0)
(0.042868773341 1.26376704165 0)
(0.0412031217137 1.31610442003 0)
(0.049317726724 1.30249285173 0)
(0.0648028406245 1.22454458095 0)
(0.0824066159876 1.1555297318 0)
(0.101685340872 1.09054682772 0)
(0.118131249106 1.04078892164 0)
(0.128542392192 1.01021617157 0)
(0.131567946104 0.998584912033 0)
(0.1288973571 1.00065604529 0)
(0.126382898523 0.992872676741 0)
(0.128548930423 0.959489240703 0)
(0.136532535173 0.903106994349 0)
(0.149177041836 0.838315209027 0)
(0.163290661414 0.77748447484 0)
(0.175661942829 0.72559132639 0)
(0.184775606546 0.681083075704 0)
(0.190788838366 0.640184595577 0)
(0.0126887335116 1.03682978634 0)
(0.0227351927827 1.16880560819 0)
(0.0211402383447 1.2552638419 0)
(0.0281774730117 1.28239314251 0)
(0.0405800617074 1.24379940323 0)
(0.0551351844785 1.18102787526 0)
(0.0728067748768 1.12153579774 0)
(0.0909911353438 1.06869651394 0)
(0.105501298028 1.03002968203 0)
(0.113909399154 1.00674153656 0)
(0.115365876971 0.99887889354 0)
(0.112697665086 0.999782006228 0)
(0.112337281477 0.98809203754 0)
(0.117726111829 0.952412724205 0)
(0.128764799551 0.898098934276 0)
(0.143541366073 0.839079390652 0)
(0.158175445934 0.784724484685 0)
(0.16874204339 0.736582658386 0)
(0.1743849429 0.692355556743 0)
(0.177016794739 0.650059631565 0)
(0.0113963428749 1.30978562664 0)
(0.0195060337711 1.21908287887 0)
(0.0168136230011 1.24336748573 0)
(0.0219197488856 1.24425474425 0)
(0.0330399919594 1.20725825622 0)
(0.0479100378881 1.15082953879 0)
(0.0648728801239 1.09892002385 0)
(0.0807611566014 1.05640764208 0)
(0.0924789598589 1.02719560207 0)
(0.0985351686828 1.01003737618 0)
(0.0990818582917 1.00467911353 0)
(0.0981403295128 1.00270426716 0)
(0.101002817494 0.986430413759 0)
(0.109246707047 0.949353307641 0)
(0.122211851855 0.898270755885 0)
(0.137027552551 0.84526444533 0)
(0.148381887201 0.79547137041 0)
(0.153449061732 0.748344563079 0)
(0.154671863321 0.703390352633 0)
(0.155102292187 0.659795799017 0)
(0.0205313554252 1.52473343024 0)
(0.0370951528434 1.28702062373 0)
(0.0293983472008 1.2564458586 0)
(0.0272615068849 1.2366923963 0)
(0.0339184046017 1.19071430484 0)
(0.0461968242939 1.13561942519 0)
(0.0606142574526 1.09034420702 0)
(0.0730084676569 1.05709599617 0)
(0.0809887299562 1.03527870037 0)
(0.0843094278286 1.02184745912 0)
(0.0845152541151 1.01629617299 0)
(0.0857671180178 1.00934907179 0)
(0.0912423685354 0.988269277537 0)
(0.101034298259 0.95073618937 0)
(0.113411732354 0.903580500663 0)
(0.123841044007 0.854886923461 0)
(0.128258223494 0.806430844725 0)
(0.128079453229 0.759058754021 0)
(0.127080288094 0.713589207529 0)
(0.126696899243 0.668955571568 0)
(0.0326846391616 1.64108030643 0)
(0.0620885963958 1.37173008652 0)
(0.0500299430646 1.30802994722 0)
(0.0389160045949 1.26592781156 0)
(0.0394072624225 1.20053392558 0)
(0.0477452269258 1.1401646763 0)
(0.0581515103106 1.09927278955 0)
(0.0656056098515 1.07359135192 0)
(0.0689564571623 1.05607370438 0)
(0.0694792183009 1.04290650955 0)
(0.0696454197026 1.03356898078 0)
(0.0723678340823 1.01998702325 0)
(0.0785989640492 0.994196505756 0)
(0.0872817014307 0.956362410743 0)
(0.095094318321 0.911675190024 0)
(0.0984084749438 0.864266774206 0)
(0.0975432625855 0.81580899205 0)
(0.0953488972222 0.768486672874 0)
(0.0937724020414 0.722745628248 0)
(0.0931124158402 0.677161947265 0)
(0.0406298478735 1.70908546914 0)
(0.0785867431335 1.47504033741 0)
(0.0629575233864 1.39971881901 0)
(0.0440408693193 1.33292703013 0)
(0.0387425931349 1.235280395 0)
(0.042400267629 1.16390122657 0)
(0.0470199970187 1.12471633505 0)
(0.0489615775026 1.10310386017 0)
(0.0493732449381 1.08605685213 0)
(0.0493962021958 1.06998651222 0)
(0.0499558602572 1.05380059942 0)
(0.0523950205455 1.03227637805 0)
(0.0568335944841 1.00157321597 0)
(0.061433607776 0.962545485069 0)
(0.0636243319902 0.918258068771 0)
(0.0629176506139 0.87106491559 0)
(0.0607595299489 0.823006668633 0)
(0.0586050374577 0.776046130919 0)
(0.0572045513713 0.730329117556 0)
(0.0563569404381 0.684251111593 0)
(0.0428268532782 1.79244615775 0)
(0.0786662226564 1.60377544587 0)
(0.0548670982739 1.53227400713 0)
(0.0291686593129 1.43100007688 0)
(0.0180584151281 1.2910845192 0)
(0.0154589683059 1.20473826499 0)
(0.0146149707774 1.16269120278 0)
(0.0145547151403 1.13885499664 0)
(0.0157758737956 1.11761121326 0)
(0.0171419371796 1.09552092739 0)
(0.0183679238918 1.07063994918 0)
(0.0202762409815 1.04059144554 0)
(0.0227950390643 1.00491628292 0)
(0.0245380816833 0.96436578128 0)
(0.0247804226207 0.92020971562 0)
(0.0240780626791 0.873830408036 0)
(0.0230238640704 0.826654103445 0)
(0.0220237936702 0.780570860672 0)
(0.021129708948 0.735655026707 0)
(0.0199973003297 0.690309063796 0)
(0.0444511569932 1.89819946742 0)
(0.0681526831189 1.758199 0)
(0.0283005462952 1.68840368159 0)
(-0.00152197079099 1.53799704912 0)
(-0.018572396292 1.35842163492 0)
(-0.0291106575582 1.25596044412 0)
(-0.0350189788587 1.20474288568 0)
(-0.0356358425343 1.17095822857 0)
(-0.0324291790554 1.14054266937 0)
(-0.0284061680253 1.10999721066 0)
(-0.0247603463533 1.07602889058 0)
(-0.0211318886427 1.03807716964 0)
(-0.0177510981365 0.998441761396 0)
(-0.015275516399 0.957606532222 0)
(-0.0133669685418 0.914740049571 0)
(-0.0115553518039 0.870078412418 0)
(-0.0100481680544 0.824661096951 0)
(-0.00911449931703 0.780454914689 0)
(-0.00898398585214 0.737699403956 0)
(-0.0102474167699 0.694839838519 0)
(0.0540318900188 1.90028939138 0)
(0.0755054517077 1.91912881296 0)
(0.0283756150702 1.80703061817 0)
(0.00253668651258 1.61556230974 0)
(-0.0210456540203 1.41960714282 0)
(-0.0447342892443 1.30471333373 0)
(-0.063619345597 1.2398342282 0)
(-0.0733253057097 1.18951786758 0)
(-0.0739268732766 1.14536698114 0)
(-0.0694283476227 1.10563790472 0)
(-0.0632513416055 1.06399906247 0)
(-0.0568216412177 1.01980006462 0)
(-0.0509826867093 0.977645524051 0)
(-0.0459174909791 0.938863486688 0)
(-0.0409246021105 0.899209427688 0)
(-0.0358159777112 0.85784269268 0)
(-0.0313849481775 0.815609833377 0)
(-0.0282190110345 0.774671982151 0)
(-0.0267833344752 0.735534205786 0)
(-0.0283797968518 0.69639474966 0)
(0.0608216372648 1.66238572382 0)
(0.119946526004 1.92898036165 0)
(0.108489226457 1.85340948192 0)
(0.0817518318174 1.68287077002 0)
(0.0447880417989 1.49328310392 0)
(0.00479425469912 1.36817132964 0)
(-0.0315805325537 1.28076488919 0)
(-0.0580095036787 1.20279850495 0)
(-0.0711659134675 1.13659681485 0)
(-0.0732465396128 1.0858185893 0)
(-0.0694226406601 1.03803386005 0)
(-0.0635837833577 0.990019947607 0)
(-0.0578074629067 0.945976225122 0)
(-0.0523055577411 0.910684487401 0)
(-0.0462400149046 0.876061116897 0)
(-0.0396937896706 0.839491200413 0)
(-0.033958399118 0.801678333542 0)
(-0.0299251603362 0.76505793301 0)
(-0.0286139542158 0.730178719983 0)
(-0.0317349172497 0.694763797672 0)
(0.0497367956984 1.33832442716 0)
(0.111219547764 1.75515470953 0)
(0.130114357293 1.78985642564 0)
(0.134970908207 1.70320474407 0)
(0.117919365532 1.57784991223 0)
(0.0807344165254 1.47948587944 0)
(0.0325768694856 1.38720424606 0)
(-0.00858354243443 1.24737587714 0)
(-0.0300426090194 1.13603717628 0)
(-0.0375381047164 1.06879714803 0)
(-0.03811339274 1.01422238327 0)
(-0.0354694684073 0.963510837717 0)
(-0.0320973988289 0.917797498204 0)
(-0.0289056515717 0.884471561021 0)
(-0.0250142325012 0.854513775953 0)
(-0.0202983517427 0.822668871702 0)
(-0.0162184031229 0.78918202513 0)
(-0.0141206085408 0.756675833182 0)
(-0.0157127504182 0.725288812077 0)
(-0.0220161412885 0.692494452604 0)
(0.0371260984173 1.13636502344 0)
(0.0800034272924 1.58636161118 0)
(0.0889720536374 1.6796143611 0)
(0.0918837426394 1.66816226721 0)
(0.0869085075494 1.62509626546 0)
(0.0750836414944 1.5726936379 0)
(0.0592306797429 1.49789291441 0)
(0.0336815007507 1.34490629292 0)
(0.0126201760732 1.15426605432 0)
(0.00725663485053 1.0685498855 0)
(0.00655291856811 1.00672532027 0)
(0.00816249796788 0.953232713937 0)
(0.0104352573879 0.906139173256 0)
(0.0122997196978 0.872334467746 0)
(0.0137881797978 0.844499971637 0)
(0.0150958070926 0.815417045863 0)
(0.0155046738389 0.784646030358 0)
(0.0133265844494 0.754644720617 0)
(0.00648509461648 0.724546619024 0)
(-0.0038696933899 0.69282879781 0)
(0.0279124907712 1.05868419571 0)
(0.0552682951862 1.50019730236 0)
(0.0544654108143 1.62425025908 0)
(0.0531014210147 1.6502197963 0)
(0.0485747022409 1.64451885496 0)
(0.0409152080413 1.61152680701 0)
(0.0335381593169 1.54097794845 0)
(0.0380962444539 1.37812922641 0)
(0.0453152913172 1.17464143138 0)
(0.0451465182497 1.08059893604 0)
(0.0465543921317 1.01464514804 0)
(0.0492554094259 0.959623566109 0)
(0.0524911908252 0.912001504038 0)
(0.0551999096758 0.877405022259 0)
(0.0560802209872 0.849530418959 0)
(0.0548000152941 0.820880507662 0)
(0.0514546630113 0.790838479549 0)
(0.0438852280767 0.761021929278 0)
(0.0309260612208 0.729417427137 0)
(0.016803516839 0.697446896423 0)
(0.0214427165004 1.06689091916 0)
(0.037614085801 1.48878656308 0)
(0.0300297880348 1.61159138458 0)
(0.025644540354 1.65291119179 0)
(0.0211215893878 1.66350154047 0)
(0.0189045686834 1.62659832698 0)
(0.0336368820084 1.49804226833 0)
(0.056444855495 1.32568964657 0)
(0.0675171964251 1.1831087101 0)
(0.0722946034304 1.0950162971 0)
(0.0765848671061 1.03026196485 0)
(0.0816177165312 0.976495180365 0)
(0.0874554617621 0.930615904564 0)
(0.0924707663304 0.896931730282 0)
(0.0936775092481 0.86805828758 0)
(0.0906017185198 0.838236453685 0)
(0.0837254248709 0.807327293846 0)
(0.0700298851002 0.774984797556 0)
(0.0514117967154 0.739834349135 0)
(0.0345309463953 0.706509841392 0)
(0.00902708906371 1.19440995388 0)
(0.0131190046722 1.53627898512 0)
(0.00579777960794 1.63068704618 0)
(0.00303087632217 1.66647793818 0)
(0.00453615057336 1.66987635024 0)
(0.0218301668763 1.56746785782 0)
(0.0481039922306 1.41048598315 0)
(0.0666056450402 1.28862555743 0)
(0.0793803277387 1.18490011477 0)
(0.0887653009429 1.10928906578 0)
(0.0974170230561 1.05053811226 0)
(0.106874260111 1.00155277197 0)
(0.116685786862 0.960702899265 0)
(0.122927282959 0.928458163809 0)
(0.122617397218 0.897485552725 0)
(0.117543862558 0.865663516597 0)
(0.106607074713 0.83230889718 0)
(0.0864611388857 0.794380765788 0)
(0.0638685006965 0.754979068771 0)
(0.0455882475456 0.719272623614 0)
(-0.0198941441188 1.55753429958 0)
(-0.0377233589906 1.59290505123 0)
(-0.0271475750137 1.61955088533 0)
(-0.00646748512827 1.62882192256 0)
(0.0202239702299 1.61480663645 0)
(0.0435528220864 1.48707642356 0)
(0.0600383966288 1.36773169084 0)
(0.0751355260475 1.27179011631 0)
(0.0890942716188 1.1896269192 0)
(0.102186571689 1.12680926569 0)
(0.115877461838 1.07734769801 0)
(0.12975036834 1.0362689754 0)
(0.139807069206 1.00072632433 0)
(0.142509117202 0.967971451247 0)
(0.139635638566 0.934916967613 0)
(0.132828469816 0.900917691474 0)
(0.116358707526 0.862763908398 0)
(0.0904380098455 0.816696213531 0)
(0.0665160310496 0.773145191942 0)
(0.0484111262733 0.73443377811 0)
(0.00563747412894 1.92206973105 0)
(0.0118531522981 1.63465888829 0)
(0.0155617992773 1.58540525757 0)
(0.0254381163887 1.56762506408 0)
(0.0405523667959 1.54449194749 0)
(0.0569716771074 1.45488277043 0)
(0.0725382278143 1.3537968118 0)
(0.0875387557509 1.26962315051 0)
(0.102847871706 1.20220922401 0)
(0.119215052821 1.15198320497 0)
(0.135110571611 1.11296638409 0)
(0.145983905964 1.07856342291 0)
(0.149707116595 1.04542501909 0)
(0.148938900908 1.01244487068 0)
(0.145630600003 0.978809755151 0)
(0.13543755417 0.942218776585 0)
(0.111084706091 0.894822351524 0)
(0.0814915125247 0.839408689102 0)
(0.0594960448862 0.79210897833 0)
(0.0431282126663 0.750306625071 0)
(0.0239801545057 2.07712137593 0)
(0.0492627362002 1.68610229726 0)
(0.0492204351982 1.59226662926 0)
(0.051114633269 1.55719323167 0)
(0.0604073035458 1.5265710146 0)
(0.0737313183319 1.4462993815 0)
(0.0885260428787 1.35520758646 0)
(0.104046937568 1.28070666253 0)
(0.120579636568 1.22612679103 0)
(0.135583438827 1.1874264585 0)
(0.144381225888 1.15543055115 0)
(0.147002341328 1.12471329756 0)
(0.147319867701 1.09402629119 0)
(0.146662513063 1.06316044476 0)
(0.141776847166 1.02950825414 0)
(0.121564094791 0.985509895917 0)
(0.0881947824049 0.924290584276 0)
(0.0611824236285 0.859908167502 0)
(0.0443036106318 0.80937243015 0)
(0.030391246591 0.764140886842 0)
(0.0408527794646 2.13723935069 0)
(0.0860036421892 1.75622449223 0)
(0.0828702696382 1.64366366395 0)
(0.0738745546358 1.59511422841 0)
(0.0753690758656 1.54716414996 0)
(0.0850859330736 1.46153580287 0)
(0.0996091156923 1.37236654623 0)
(0.115406137905 1.30696450098 0)
(0.128501247887 1.26346985003 0)
(0.134558014854 1.23144017379 0)
(0.135269059884 1.20301894374 0)
(0.135574817596 1.17615820997 0)
(0.136780616571 1.14963203125 0)
(0.134387153417 1.12052246797 0)
(0.116508397562 1.0813010035 0)
(0.081547907744 1.02262998845 0)
(0.0504816654728 0.946773657882 0)
(0.033634611661 0.874355287871 0)
(0.022259646094 0.821221988693 0)
(0.0111737375209 0.772214212501 0)
(0.0489729713111 2.16374401203 0)
(0.104600871594 1.84980929019 0)
(0.0980535916096 1.73937334635 0)
(0.0778362547016 1.68066062097 0)
(0.0713038912248 1.60142675133 0)
(0.0776581821898 1.49512962373 0)
(0.0904858146619 1.40128034363 0)
(0.102100779328 1.34511754894 0)
(0.107337029835 1.30811695079 0)
(0.107753207972 1.27878743853 0)
(0.10864774377 1.25359077339 0)
(0.110758168291 1.23030842998 0)
(0.107329221976 1.20556409669 0)
(0.0875683787574 1.17199141394 0)
(0.0531229183537 1.12064720677 0)
(0.0234874456981 1.04517318701 0)
(0.0094371131751 0.955968154903 0)
(0.00279125690464 0.878178466227 0)
(-0.00383687006137 0.823240738968 0)
(-0.0112831110878 0.771444408461 0)
(0.0534237433974 2.21302118649 0)
(0.106909928497 1.97033359741 0)
(0.087274026725 1.87777344669 0)
(0.0554245672502 1.80282987493 0)
(0.0409410401429 1.6765623792 0)
(0.0414198729802 1.54022463345 0)
(0.0473611121701 1.43789681747 0)
(0.0516564791433 1.38573570359 0)
(0.0527263664391 1.34942102201 0)
(0.0533869087849 1.31941786993 0)
(0.0534301065339 1.29461855863 0)
(0.0461746356302 1.27168432754 0)
(0.0260481883186 1.2441446368 0)
(-0.000982637700765 1.2016423108 0)
(-0.0207545405812 1.13517753221 0)
(-0.0270128407721 1.04411191817 0)
(-0.0264608629948 0.946240492159 0)
(-0.0266124219149 0.868696327527 0)
(-0.0285406629131 0.813232921187 0)
(-0.0314208620572 0.760855897227 0)
(0.0587246809133 2.25087873163 0)
(0.0975689476496 2.0875011901 0)
(0.0549409367395 2.02203001454 0)
(0.0192045582925 1.91577950321 0)
(0.000270696161928 1.74457144168 0)
(-0.00941571547776 1.58471611026 0)
(-0.0173813531611 1.47625199734 0)
(-0.0268082051301 1.42108223635 0)
(-0.0366674952022 1.38046510634 0)
(-0.0451009124842 1.34474828438 0)
(-0.0538371992474 1.31577750886 0)
(-0.0652522327719 1.28870914033 0)
(-0.0762361654618 1.25284516343 0)
(-0.0797009011468 1.19725632706 0)
(-0.0735385638608 1.11516941052 0)
(-0.0628350698423 1.01457345208 0)
(-0.0534130413963 0.917902324562 0)
(-0.047918624529 0.846427775574 0)
(-0.0452213983789 0.792648002555 0)
(-0.0438256739878 0.742238554504 0)
(0.0690445494312 2.10148066367 0)
(0.102914267006 2.16184133192 0)
(0.0521744047627 2.09276235016 0)
(0.0276085790015 1.95058997123 0)
(0.00784043266795 1.77138053534 0)
(-0.0172199657899 1.61301452798 0)
(-0.0487688278292 1.5079062078 0)
(-0.0844878448871 1.45057379832 0)
(-0.118969141701 1.40419232817 0)
(-0.145273318906 1.35891931481 0)
(-0.158247255456 1.31639232437 0)
(-0.157126276405 1.27395249909 0)
(-0.14449273706 1.22169016582 0)
(-0.124361938022 1.15083387733 0)
(-0.101330143349 1.06013736491 0)
(-0.0800673581245 0.96226348511 0)
(-0.0644503190339 0.877602429176 0)
(-0.0547684117959 0.815702028969 0)
(-0.0486847296758 0.766304570098 0)
(-0.0451393037177 0.720243808066 0)
(0.0442724408241 1.74896428616 0)
(0.0871615442111 2.10095270167 0)
(0.0854418595165 2.04705009037 0)
(0.0819238534477 1.90819599121 0)
(0.0679698996992 1.76803647314 0)
(0.037781135445 1.64742466712 0)
(-0.00625055706106 1.55939886 0)
(-0.0574701828686 1.50179232036 0)
(-0.109120788494 1.44422867357 0)
(-0.151417001678 1.37130082162 0)
(-0.172329394086 1.29066794391 0)
(-0.169359052318 1.22230436181 0)
(-0.149887895673 1.15241247116 0)
(-0.122791701389 1.07399047663 0)
(-0.0948951035516 0.985642013551 0)
(-0.071139987748 0.901743461797 0)
(-0.0543750639579 0.834910309647 0)
(-0.0434160363207 0.783876565461 0)
(-0.0366732368966 0.741126869093 0)
(-0.034172936083 0.701216589217 0)
(0.0206605057467 1.44604793235 0)
(0.0477032293062 1.95334907658 0)
(0.0587278997585 1.94647897511 0)
(0.0674780563597 1.83567386624 0)
(0.0717386171036 1.74231349542 0)
(0.0667986799266 1.67178846943 0)
(0.0510892197275 1.61606347348 0)
(0.0255703032649 1.57053259849 0)
(-0.00774746998276 1.51212632342 0)
(-0.0478062773846 1.4214635002 0)
(-0.0809946898362 1.27435060593 0)
(-0.0924239667943 1.15911190368 0)
(-0.0855775765403 1.07426515605 0)
(-0.0688422773071 0.994322976683 0)
(-0.0497436080952 0.914734058526 0)
(-0.0336697252476 0.848156777858 0)
(-0.0214520879391 0.798476070141 0)
(-0.0129349244238 0.758445857043 0)
(-0.00890398421014 0.723543992616 0)
(-0.0105029766729 0.691051125418 0)
(0.0101650425866 1.30431325729 0)
(0.0229514676502 1.86114474093 0)
(0.0291750617403 1.86845012748 0)
(0.0374922987223 1.76792688769 0)
(0.04567579236 1.70097218039 0)
(0.0505945193561 1.66196771331 0)
(0.0516824333807 1.63413791416 0)
(0.0497954206296 1.60524681157 0)
(0.0458654416165 1.55611984282 0)
(0.0400411136604 1.46971849345 0)
(0.024378744451 1.30733196568 0)
(0.0104150566503 1.11886768268 0)
(0.0100110468568 1.01845397589 0)
(0.0151174907037 0.937672732194 0)
(0.0225950740022 0.866263391581 0)
(0.0289844990392 0.812075107625 0)
(0.0337939674774 0.774906555572 0)
(0.0366280214356 0.744612154845 0)
(0.0352495603618 0.717815456465 0)
(0.0275386626848 0.693827162296 0)
(0.00241512929117 1.27295744954 0)
(0.00254484534819 1.83683936724 0)
(0.000613224301875 1.8303762646 0)
(0.00326910746468 1.72661959049 0)
(0.00867928845757 1.66891706624 0)
(0.0154191710894 1.64082875932 0)
(0.0233861157325 1.61968239077 0)
(0.0330758018695 1.59187828705 0)
(0.0449170258789 1.54015050454 0)
(0.0583458008582 1.45117548172 0)
(0.0751580154576 1.30095585437 0)
(0.0878173643349 1.09499866389 0)
(0.0925223358493 0.989742605417 0)
(0.0966263693908 0.910006872096 0)
(0.10095985863 0.844308309071 0)
(0.104471714284 0.797001223601 0)
(0.105876529066 0.76708595446 0)
(0.103921509167 0.744273798929 0)
(0.0968705962307 0.725367768905 0)
(0.0831751140262 0.711037474266 0)
(-0.00539487360991 1.33792899928 0)
(-0.0183544419472 1.88734817817 0)
(-0.0300862034726 1.84530387338 0)
(-0.0367966852773 1.7281308448 0)
(-0.040153038825 1.66505856361 0)
(-0.0394625437894 1.62998797571 0)
(-0.0324841587596 1.59339862188 0)
(-0.0148954344851 1.53882973612 0)
(0.0179345829793 1.45247929223 0)
(0.066542606171 1.33708115743 0)
(0.115086582257 1.20334925199 0)
(0.143279946568 1.06538430051 0)
(0.155800604702 0.972988517621 0)
(0.165139208299 0.899283183053 0)
(0.173739136752 0.839420953972 0)
(0.181448522078 0.797401698403 0)
(0.185672386977 0.771964378701 0)
(0.183659189342 0.754268258684 0)
(0.175240205134 0.742304626462 0)
(0.160593926588 0.738804507992 0)
(-0.010493694005 1.4852458096 0)
(-0.0307043922826 2.00396023637 0)
(-0.0473318851494 1.91411949092 0)
(-0.0606799830351 1.77964725466 0)
(-0.0713222109815 1.69973979574 0)
(-0.0697917824015 1.6157005197 0)
(-0.0373934026395 1.48169935763 0)
(0.020645285538 1.39330977173 0)
(0.0796489809688 1.29872468336 0)
(0.125592363445 1.19800898943 0)
(0.157845671664 1.10997994346 0)
(0.182815074865 1.0289870102 0)
(0.202888312149 0.955883632803 0)
(0.22049893362 0.892977550766 0)
(0.237930803498 0.841476741173 0)
(0.254741828373 0.805212483491 0)
(0.266017766034 0.781700014143 0)
(0.268851939629 0.765488316991 0)
(0.266714602576 0.757744200153 0)
(0.261706924436 0.765162177518 0)
(-0.00859553632611 1.64991862588 0)
(-0.0218865189329 2.12618969483 0)
(-0.0289980698568 1.98871477785 0)
(-0.0321218329718 1.82896090195 0)
(-0.018492378676 1.66623004265 0)
(0.0220423934261 1.4925460993 0)
(0.0640376477874 1.32518195099 0)
(0.0948838504753 1.23777862423 0)
(0.125302969273 1.17167555176 0)
(0.156286986971 1.11447756447 0)
(0.186388416449 1.05329809181 0)
(0.214202286301 0.993008619581 0)
(0.240488124162 0.937001249542 0)
(0.266931764581 0.887020970456 0)
(0.294367977207 0.844614222397 0)
(0.318895500836 0.811574784217 0)
(0.334766788842 0.785626370876 0)
(0.344737016331 0.766683934173 0)
(0.356635536559 0.75986303355 0)
(0.370013155437 0.781737729379 0)
(-0.0049295101158 1.77314543548 0)
(-0.00700310644585 2.19151572665 0)
(0.000243373110646 2.01372239218 0)
(0.0244035740276 1.75644777226 0)
(0.062497986756 1.52881073624 0)
(0.0915128630216 1.34351626817 0)
(0.112934399349 1.23109831524 0)
(0.135551009017 1.15707133718 0)
(0.160404349732 1.10109465551 0)
(0.187289511918 1.05362048044 0)
(0.215753738486 1.00770309801 0)
(0.245506937846 0.963338473755 0)
(0.276931627063 0.920427715291 0)
(0.30966929433 0.879918019199 0)
(0.339519421931 0.841930041037 0)
(0.361443816841 0.807370621159 0)
(0.377589375159 0.777157215959 0)
(0.397169488101 0.755169843233 0)
(0.422743297974 0.754581753464 0)
(0.41014072111 0.803184533651 0)
(-2.17737120462e-05 1.83799953765 0)
(0.00842276621993 2.1811538892 0)
(0.0430400348749 1.89463316122 0)
(0.0850027644855 1.60429494328 0)
(0.111470602311 1.40756553697 0)
(0.131638600159 1.26753141954 0)
(0.150502559026 1.16725723589 0)
(0.170344916676 1.09900610367 0)
(0.192982115351 1.04991977608 0)
(0.219107370718 1.01108193782 0)
(0.248826561399 0.975597226435 0)
(0.281370913844 0.940463696006 0)
(0.313601504206 0.903996622546 0)
(0.340943647643 0.866275851549 0)
(0.361919024186 0.828421607349 0)
(0.379383650097 0.792295821961 0)
(0.400021987026 0.761013033163 0)
(0.430212434446 0.743511921336 0)
(0.418016878805 0.763915551676 0)
(0.29117498573 0.883823840915 0)
(0.0091262160111 1.81461919789 0)
(0.0394568009465 2.06600169949 0)
(0.0803057708899 1.69411408453 0)
(0.113661158355 1.48173968445 0)
(0.138328335719 1.32535729424 0)
(0.158988586072 1.20640396575 0)
(0.178657754322 1.1205976195 0)
(0.199965790385 1.06030121931 0)
(0.224740181151 1.01770758363 0)
(0.253714681928 0.984260601836 0)
(0.284434623038 0.952887463869 0)
(0.311695602149 0.919507656428 0)
(0.333251771065 0.883756857713 0)
(0.351303675375 0.84652325617 0)
(0.368263300654 0.809370739335 0)
(0.387335009965 0.774555958349 0)
(0.417289933095 0.747786096317 0)
(0.413033177485 0.741604319569 0)
(0.292804563535 0.834090605361 0)
(0.0701971056706 1.15814633046 0)
(0.15223014075 0.61302512066 0)
(0.164203455582 0.579281172487 0)
(0.175749916978 0.546312767731 0)
(0.185971052468 0.514327003682 0)
(0.192931821942 0.48210972606 0)
(0.196589095564 0.448840988453 0)
(0.19820306305 0.411256534153 0)
(0.197973564014 0.369819106882 0)
(0.195148192542 0.32764504512 0)
(0.192604647423 0.285952086364 0)
(0.198634857924 0.245617857907 0)
(0.204707567347 0.211793466425 0)
(0.175917072999 0.197333273768 0)
(0.109073931518 0.28236999394 0)
(0.0533455442007 0.395656742133 0)
(0.0241606103923 0.426576955821 0)
(0.0152611455245 0.122373799044 0)
(0.0182809747988 -0.0322943495766 0)
(0.00556032186419 -0.103893785042 0)
(-0.00362900142123 -0.145159040367 0)
(0.175921400843 0.597462236037 0)
(0.185381379953 0.563555661816 0)
(0.194501901717 0.529105191702 0)
(0.203526835478 0.494149683126 0)
(0.210544047647 0.459777719881 0)
(0.213136931506 0.426304315447 0)
(0.211924564494 0.393452355629 0)
(0.208972277131 0.35836350242 0)
(0.205514032107 0.321617024073 0)
(0.206719341192 0.284789215911 0)
(0.214812774821 0.252384227542 0)
(0.200124110186 0.234319366035 0)
(0.140345713451 0.313693334239 0)
(0.0786366765203 0.473056543264 0)
(0.0376135787761 0.534719633933 0)
(0.0158804017205 0.489584768522 0)
(0.0182602972604 0.114767538893 0)
(0.0234471612413 -0.0206360007872 0)
(0.00555463314784 -0.0895860064061 0)
(-0.00632100588334 -0.127665212847 0)
(0.192572842037 0.590357260636 0)
(0.20024607509 0.555830161805 0)
(0.207272506433 0.520463774502 0)
(0.214683046287 0.484018054366 0)
(0.222036980611 0.447242679014 0)
(0.226315375856 0.412097393973 0)
(0.224313565632 0.380280686025 0)
(0.21753089971 0.350530765423 0)
(0.212759482447 0.318755935814 0)
(0.216904189132 0.287462608805 0)
(0.21718237405 0.265247829779 0)
(0.183179775245 0.288539368291 0)
(0.119598702887 0.515353368235 0)
(0.058624337529 0.663945748725 0)
(0.0120164179959 0.681532881536 0)
(0.00469516792769 0.466889466871 0)
(0.0229214782877 0.104462636142 0)
(0.0279149641967 -0.00302565515446 0)
(0.000911203471109 -0.0706636784544 0)
(-0.012712171743 -0.101153755954 0)
(0.201128377687 0.589782577694 0)
(0.207400688387 0.554305146601 0)
(0.213045100302 0.518005384694 0)
(0.21920492674 0.480691042945 0)
(0.226265439608 0.442723456966 0)
(0.232366818366 0.405554117458 0)
(0.231608535361 0.372184488148 0)
(0.223299382163 0.34450728563 0)
(0.218211311555 0.31699370805 0)
(0.222890262517 0.292886987451 0)
(0.212120551189 0.286142983063 0)
(0.157128837285 0.414336188733 0)
(0.0895726744325 0.72860348529 0)
(0.0374956080978 0.860288075516 0)
(-0.00379053670174 0.82204447916 0)
(-0.000843900906861 0.368662972586 0)
(0.0253429129153 0.0894123401726 0)
(0.0258224070406 0.014979441064 0)
(-0.0146783367505 -0.0490722015174 0)
(-0.0247334227288 -0.0724459205646 0)
(0.20199624169 0.593971150427 0)
(0.206625387532 0.557047840707 0)
(0.211342360338 0.519541777935 0)
(0.217011544838 0.481192550654 0)
(0.223620599698 0.442342325228 0)
(0.230152278014 0.403953381148 0)
(0.230851699338 0.368729666509 0)
(0.22409627503 0.33998879611 0)
(0.221596681712 0.31572531457 0)
(0.223225906053 0.301143886062 0)
(0.196534081437 0.325095094179 0)
(0.12725340486 0.623321233567 0)
(0.063982750447 0.910700906086 0)
(0.026926167966 1.01078856838 0)
(-0.00272765798984 0.938415093741 0)
(0.00114680387771 0.258768998221 0)
(0.024092456672 0.0721498991767 0)
(0.0176731604891 0.0232902996393 0)