/*--------------------------------*- C++ -*----------------------------------*\
| =========                 |                                                 |
| \\      /  F ield         | OpenFOAM: The Open Source CFD Toolbox           |
|  \\    /   O peration     | Version:  2312                                  |
|   \\  /    A nd           | Website:  www.openfoam.com                      |
|    \\/     M anipulation  |                                                 |
\*---------------------------------------------------------------------------*/
FoamFile
{
    version     2.0;
    format      ascii;
    arch        "LSB;label=32;scalar=64";
    class       volScalarField;
    location    "0.09/water";
    object      nut.gas;
}
// * * * * * * * * * * * * * * * * * * * * * * * * * * * * * * * * * * * * * //

dimensions      [0 2 -1 0 0 0 0];

internalField   nonuniform List<scalar> 
750
(
4.71515019353e-07
3.72981561162e-07
2.71257972638e-07
2.31031268581e-07
2.72320338906e-07
2.71951261481e-07
2.41107010136e-07
1.98365914572e-07
1.49350875561e-07
1.01364930314e-07
1.08280046665e-06
4.88884246897e-07
7.22936221936e-08
2.14607333983e-08
1.36940375516e-08
1.30707955922e-08
2.09854929281e-08
4.7477688526e-08
1.0060106108e-07
2.30098203805e-07
2.78504694796e-07
3.54623967423e-07
4.9229217495e-07
6.10648808841e-07
6.64367984274e-07
7.04962137596e-07
9.72422033974e-07
1.39617075894e-06
1.76058899906e-06
1.78034011109e-06
6.49275467819e-07
3.9203508801e-07
6.97989390848e-08
2.27745870391e-08
1.57046833564e-08
1.49461339848e-08
2.30754727975e-08
5.13716604445e-08
1.05642643007e-07
2.24934640389e-07
2.54659662009e-07
3.29099891075e-07
4.73033596365e-07
6.17999765787e-07
6.95567470104e-07
7.41736693654e-07
1.14196103015e-06
1.41967168776e-06
1.81483801861e-06
1.73552259843e-06
6.44598130467e-07
2.74262371417e-07
5.64344144272e-08
2.01607497564e-08
1.56346584416e-08
1.51028119036e-08
2.14182751677e-08
4.57669406718e-08
1.10405586715e-07
2.16618944451e-07
2.24976603491e-07
2.97321595581e-07
4.35384644287e-07
6.06329478138e-07
7.16319914322e-07
7.78796300686e-07
1.20422436134e-06
1.45154654896e-06
1.84891472318e-06
1.71352057865e-06
7.14869225244e-07
2.15285082444e-07
5.14239919512e-08
2.34804931933e-08
1.73310826242e-08
1.95042984329e-08
2.90748016896e-08
5.34257474803e-08
1.13667498521e-07
2.17495034213e-07
2.07647049667e-07
2.69085690458e-07
3.92882880707e-07
5.83798843949e-07
7.30960644766e-07
8.20225626866e-07
1.26548386311e-06
1.50447432504e-06
1.89806338986e-06
1.71778846556e-06
6.52974681578e-07
1.99320524138e-07
3.71833451789e-08
3.1831731752e-08
2.36770843771e-08
2.86805663478e-08
4.27299497491e-08
6.8756940236e-08
1.15070587405e-07
1.97576620865e-07
2.01282773729e-07
2.42538685482e-07
3.47656103167e-07
5.46687865314e-07
7.35840908065e-07
8.69264407886e-07
1.33454811577e-06
1.56826611242e-06
1.94714146342e-06
1.72950645455e-06
5.19696786359e-07
2.07369340811e-07
4.63353019825e-08
3.13826176725e-08
3.8857291838e-08
4.21487894723e-08
5.95362963608e-08
8.55737173204e-08
1.21979244063e-07
1.63282358591e-07
1.89435135606e-07
2.17377873417e-07
3.00779452665e-07
4.88129848692e-07
7.21350229857e-07
9.1623273882e-07
1.41237481512e-06
1.64190519071e-06
1.99498834797e-06
1.73335984322e-06
2.86075074373e-07
9.85654896201e-08
4.82638524959e-08
5.02080631787e-08
5.229964424e-08
6.04088290628e-08
7.37697275083e-08
9.73065281054e-08
1.26502125268e-07
1.56204888307e-07
1.74705797094e-07
1.97950623605e-07
2.6016971538e-07
4.15270395278e-07
6.76895133176e-07
9.29129853517e-07
1.49578639485e-06
1.74259758062e-06
2.08582170814e-06
1.77520785326e-06
3.61975731428e-07
8.46256603179e-08
4.63417279816e-08
5.18740569537e-08
6.5505309761e-08
6.8285257564e-08
7.73453900132e-08
9.71901953274e-08
1.23580451291e-07
1.47619756965e-07
1.65877647351e-07
1.8785133211e-07
2.34090763833e-07
3.49414349521e-07
6.05233138919e-07
9.03703345917e-07
1.55734166145e-06
1.84704854484e-06
2.2141532365e-06
1.8846139137e-06
3.81758539958e-07
9.95624625708e-08
7.0118776309e-08
6.99033191067e-08
6.59651015258e-08
6.05422950076e-08
7.05411193769e-08
9.36497050647e-08
1.19663595927e-07
1.42184436053e-07
1.63006285544e-07
1.878157372e-07
2.24843728823e-07
3.06795318421e-07
5.26908639805e-07
8.78752868552e-07
1.53035520155e-06
1.93710420342e-06
2.32139049549e-06
2.00651222649e-06
3.6336712715e-07
1.10495139284e-07
8.43508466042e-08
6.10348376517e-08
4.67954968029e-08
4.54031088859e-08
5.92351014329e-08
8.63304642141e-08
1.19559854251e-07
1.55280216338e-07
1.65227792807e-07
1.9151850058e-07
2.25914368883e-07
2.87006403375e-07
4.55783726008e-07
8.17877638385e-07
1.20336072625e-06
2.04331317366e-06
2.42660245435e-06
2.09920893973e-06
2.58864989385e-07
1.12609183187e-07
6.83250178712e-08
5.2815912633e-08
4.30199330584e-08
3.38113866462e-08
6.35292235491e-08
1.3531808715e-07
2.3590479356e-07
2.32360794421e-07
2.29183536094e-07
1.89168026559e-07
2.20229232853e-07
2.70669956492e-07
3.83479465327e-07
6.8828476887e-07
1.15831854802e-06
1.58972054578e-06
2.35818790829e-06
2.21632032683e-06
2.86871375468e-07
1.14262117765e-07
8.84011480855e-08
9.30780479229e-08
1.1475832027e-07
2.17580733423e-07
5.1077601566e-07
7.35349737728e-07
9.53560804484e-07
7.24070280187e-07
3.87837164825e-07
2.82704583139e-07
2.0727292558e-07
2.35464157997e-07
3.06501820988e-07
4.80370407111e-07
9.17256326077e-07
1.55037559264e-06
2.15507565477e-06
2.59440892508e-06
3.42542084853e-07
1.53189938043e-07
9.09164965332e-08
1.23946347084e-07
2.1281632775e-07
2.06582445671e-07
1.14258134166e-06
1.01169105551e-06
1.59168897793e-06
2.07953096565e-06
2.04692713035e-06
1.60439096455e-06
8.72479147011e-07
4.16503680128e-07
2.82013739762e-07
3.52371422156e-07
6.21955694242e-07
1.28091006777e-06
2.18475856677e-06
2.98406529232e-06
3.20387102396e-07
1.96901689528e-07
1.11326298876e-07
1.23839334765e-07
2.63764877168e-07
2.05069698249e-07
1.4136732825e-06
9.76819143389e-07
1.50113609181e-06
2.43280232777e-06
2.82200244069e-06
2.85759003662e-06
2.66677574595e-06
2.21968758038e-06
8.68892521034e-07
3.34551477578e-07
4.61368934576e-07
9.70607624798e-07
1.99162554552e-06
3.0966329779e-06
2.80898435048e-07
2.18097423445e-07
1.40116800508e-07
1.3206855811e-07
3.08464948712e-07
2.71263101894e-07
1.36353895408e-06
9.51196381696e-07
1.35703025119e-06
2.45186798834e-06
3.00040815112e-06
3.13098898133e-06
3.03349708576e-06
2.79324168821e-06
2.35762634795e-06
6.58225706224e-07
4.09277964298e-07
7.51331583781e-07
1.69830495482e-06
3.06543648851e-06
2.44493379538e-07
2.15941381583e-07
1.57059414963e-07
1.38254308604e-07
3.52145130264e-07
3.20747712362e-07
8.17024216845e-07
9.6417905298e-07
1.23741207996e-06
2.40390171582e-06
3.06647441078e-06
3.25288448236e-06
3.20073073167e-06
3.03960692396e-06
2.81072848168e-06
1.92657346743e-06
4.57909147394e-07
6.36467188652e-07
1.38957482304e-06
2.8043496117e-06
2.0800776101e-07
1.97546928316e-07
1.60747325138e-07
1.40486828831e-07
3.6840730854e-07
3.37174566704e-07
4.24770676599e-07
1.04207467697e-06
1.13900431778e-06
2.30288663281e-06
3.07840472408e-06
3.31438302718e-06
3.29464888869e-06
3.18651513852e-06
3.07536905875e-06
2.76627613537e-06
7.11041738733e-07
6.11725006071e-07
1.18832175797e-06
2.46052114664e-06
1.76461102247e-07
1.75526478128e-07
1.57185550811e-07
1.41275267274e-07
2.95675732327e-07
3.00864213942e-07
1.99356557211e-07
8.47278233106e-07
9.83766660219e-07
2.11957273939e-06
3.03917125536e-06
3.33889276967e-06
3.34646833153e-06
3.27008629272e-06
3.23412018015e-06
3.17707823741e-06
1.60860476004e-06
6.39530474528e-07
1.09370578621e-06
2.19157591664e-06
1.52384114212e-07
1.5614485052e-07
1.48551835273e-07
1.38373114282e-07
2.65915908982e-07
3.39923404847e-07
1.75668559071e-07
6.31605828265e-07
8.14613484427e-07
1.92016519197e-06
2.97588521682e-06
3.34649940298e-06
3.37562446467e-06
3.31647388304e-06
3.33585049775e-06
3.4535745241e-06
2.88539210695e-06
6.99449256308e-07
1.07653594078e-06
2.00573287572e-06
1.35151879497e-07
1.41257613599e-07
1.39594799148e-07
1.34673506758e-07
2.42906686092e-07
3.69459363529e-07
2.73114075305e-07
6.77605475632e-07
7.61047865565e-07
1.79065754728e-06
2.94135166591e-06
3.36320269538e-06
3.41002724563e-06
3.36982607942e-06
3.44291177461e-06
3.68572154959e-06
3.40702055997e-06
9.10057172861e-07
1.09000520318e-06
1.87197683354e-06
1.19006163684e-07
1.29475048449e-07
1.31635956583e-07
1.31170923485e-07
2.24326514963e-07
4.08988900789e-07
4.00929886357e-07
1.31748175781e-06
9.11379579072e-07
1.6500831499e-06
2.89486236519e-06
3.38752573726e-06
3.46444777082e-06
3.45196267639e-06
3.56482689156e-06
3.84972684642e-06
3.1029798231e-06
8.08398587372e-07
1.06133407965e-06
1.70709932377e-06
1.02201292352e-07
1.17907769624e-07
1.23699295135e-07
1.27267987114e-07
1.9201972727e-07
3.30865515603e-07
3.45815135903e-07
3.08863610134e-07
8.49706872915e-07
1.13258341742e-06
2.53001883459e-06
3.36076464339e-06
3.56108472726e-06
3.58505391081e-06
3.67479232175e-06
3.89733101834e-06
3.5187229678e-06
9.34530846385e-07
9.74788788423e-07
1.48337997012e-06
9.0584121053e-08
1.084189032e-07
1.16597395519e-07
1.23316987194e-07
1.74773508142e-07
2.94353180003e-07
4.1118144914e-07
2.96132287784e-07
9.63160942961e-07
1.01615398969e-06
2.30817952452e-06
3.3811400946e-06
3.70644116039e-06
3.74872752141e-06
3.78631222241e-06
3.93233263651e-06
3.89834211932e-06
1.01919616458e-06
9.44919014976e-07
1.3785731926e-06
8.56949960546e-08
1.04098008585e-07
1.1267180615e-07
1.2102360417e-07
1.65139585433e-07
2.7219575776e-07
4.53231653529e-07
4.47503902426e-07
1.20662001153e-06
1.20258985006e-06
2.17122695506e-06
3.44377358268e-06
3.88277462178e-06
3.94541380444e-06
3.95405291896e-06
4.05925168786e-06
4.07560963563e-06
1.02024917684e-06
9.30588499114e-07
1.32587981381e-06
9.59267956773e-08
1.07344977872e-07
1.12195604988e-07
1.20454899784e-07
1.61047156963e-07
2.59288119565e-07
4.83726496005e-07
5.70182191441e-07
7.73775581871e-07
1.76341306646e-06
1.94740153406e-06
3.37575657663e-06
4.05501767093e-06
4.17286589478e-06
4.18649079973e-06
4.29212408519e-06
4.31174651169e-06
1.04234021865e-06
9.22762463348e-07
1.27569839247e-06
1.0822266275e-07
1.10212199718e-07
1.11216893852e-07
1.18956763176e-07
1.53187829658e-07
2.32535071377e-07
4.00163352586e-07
4.60541477984e-07
3.73740960487e-07
1.78356500357e-06
1.93316840921e-06
3.35356999135e-06
4.21856062377e-06
4.41060840627e-06
4.440866964e-06
4.54627241958e-06
4.51635317273e-06
1.0591550032e-06
9.26703813158e-07
1.27032505022e-06
1.29548305994e-07
1.15954267581e-07
1.1183578581e-07
1.19064742233e-07
1.51383208034e-07
2.2490211864e-07
3.78123082712e-07
5.86043912884e-07
4.88703314805e-07
1.64821905553e-06
2.05614652708e-06
3.46708928236e-06
4.41468390413e-06
4.64978361992e-06
4.70997838972e-06
4.82601006939e-06
4.40480426324e-06
1.04814000453e-06
9.62418080443e-07
1.31765575476e-06
1.63388711942e-07
1.26805892159e-07
1.16071285795e-07
1.21490592783e-07
1.52048347795e-07
2.21509938227e-07
3.67922895552e-07
6.94240435615e-07
6.1092743107e-07
1.30124665926e-06
2.24846725771e-06
3.6380187691e-06
4.63934107532e-06
4.91767219012e-06
5.02931562755e-06
5.0939616893e-06
2.8558803122e-06
8.06317758943e-07
1.00534805309e-06
1.36379953544e-06
1.78752886759e-07
1.36032774155e-07
1.22488063402e-07
1.26054979673e-07
1.54008466705e-07
2.2100873196e-07
3.71057598378e-07
8.25007319583e-07
7.05725414663e-07
1.02563165703e-06
2.51076232428e-06
3.89251321013e-06
4.91189183098e-06
5.25478947614e-06
5.37995834099e-06
5.04641626074e-06
1.18741610651e-06
8.3454089815e-07
1.04027101575e-06
1.39736367422e-06
1.8082885619e-07
1.43168792342e-07
1.29958817553e-07
1.32475411978e-07
1.57365463075e-07
2.20989915754e-07
3.80963317912e-07
9.45110209009e-07
7.49966040743e-07
8.23980240596e-07
2.82471886872e-06
4.24470795894e-06
5.24717438513e-06
5.62620970254e-06
5.70336508234e-06
3.06442215798e-06
1.02958807622e-06
8.76385293685e-07
1.07842646866e-06
1.42706945572e-06
1.81002023073e-07
1.49942858479e-07
1.38077614354e-07
1.4014935327e-07
1.62250906596e-07
2.21439978206e-07
4.00926729699e-07
1.0527651382e-06
7.5420184452e-07
7.26352519279e-07
3.17475189458e-06
4.66761647206e-06
5.61891238724e-06
5.99978515081e-06
5.79846569151e-06
1.27818359214e-06
8.25249012507e-07
9.31230565565e-07
1.13523074035e-06
1.47872905755e-06
1.82429776754e-07
1.56983874942e-07
1.4667896656e-07
1.48846189049e-07
1.68920276885e-07
2.2590019863e-07
4.31599834712e-07
1.12914622206e-06
7.22271017959e-07
6.80863003778e-07
3.56362820878e-06
5.10579005239e-06
5.98160491891e-06
6.31755655121e-06
3.75652891562e-06
1.1348808158e-06
8.90332537233e-07
1.00843757655e-06
1.22662664721e-06
1.57891046578e-06
1.85230754545e-07
1.64035444721e-07
1.55803967396e-07
1.58841794937e-07
1.78285793013e-07
2.4027918181e-07
4.82455684227e-07
1.12677098721e-06
6.60212282176e-07
6.98533094926e-07
3.98304095126e-06
5.49786454447e-06
6.28795539749e-06
6.52941869258e-06
2.05347075664e-06
1.07548969986e-06
9.61328567042e-07
1.10043919777e-06
1.35303655608e-06
1.7532531823e-06
1.89516518404e-07
1.71190477466e-07
1.65500263565e-07
1.70648407447e-07
1.9297636003e-07
2.72030568992e-07
5.63856324046e-07
1.02681248019e-06
5.9645324676e-07
9.09820113009e-07
4.37778736442e-06
5.78746957852e-06
6.49793664424e-06
6.71358580647e-06
1.89313806808e-06
1.12853931682e-06
1.03328077462e-06
1.19883356831e-06
1.49521444643e-06
1.97851736052e-06
1.95539516759e-07
1.78813215944e-07
1.75734545224e-07
1.84384814233e-07
2.16114610588e-07
3.3094177761e-07
6.82629076152e-07
8.72582116024e-07
5.56432326391e-07
1.87063965719e-06
4.64375108216e-06
5.94512874056e-06
6.58516147534e-06
6.86112015014e-06
2.22411511064e-06
1.24796713494e-06
1.09411898795e-06
1.28640079676e-06
1.62756016696e-06
2.20318645157e-06
2.03991066258e-07
1.86872944665e-07
1.85244387492e-07
1.95835342444e-07
2.35575287306e-07
3.82723224545e-07
8.15350456142e-07
7.1330502228e-07
5.1831576237e-07
3.30317554337e-06
4.78378684097e-06
6.00339518462e-06
6.5560353644e-06
6.90434451026e-06
3.99186766098e-06
1.36040928789e-06
1.12546495984e-06
1.34716432195e-06
1.74314230542e-06
2.39597077571e-06
2.09377341828e-07
1.96325734613e-07
1.93679302914e-07
2.03577845382e-07
2.47198354846e-07
4.21771761124e-07
8.55767256514e-07
5.80048672354e-07
1.030370042e-06
3.56491590207e-06
4.94211268195e-06
6.04971674048e-06
6.4694507172e-06
6.79200755693e-06
6.8689591144e-06
1.66465129496e-06
1.12235385875e-06
1.36896003808e-06
1.82067056869e-06
2.56330141998e-06
)
;

boundaryField
{
    emptyPatch
    {
        type            empty;
    }
    minY
    {
        type            calculated;
        value           nonuniform List<scalar> 0();
    }
    maxY
    {
        type            calculated;
        value           nonuniform List<scalar> 
20
(
2.09376404259e-07
1.9632487797e-07
1.93678481013e-07
2.03577007338e-07
2.47197368319e-07
4.21770123424e-07
8.55763971316e-07
5.80060008913e-07
1.03037872432e-06
3.56487385121e-06
4.94201604914e-06
6.04957008392e-06
6.46926678072e-06
6.79178814567e-06
6.86871058011e-06
1.66458345606e-06
1.12230496323e-06
1.36890425912e-06
1.82060882708e-06
2.56318569686e-06
)
;
    }
    maxX
    {
        type            nutkWallFunction;
        blending        stepwise;
        value           uniform 0;
    }
    water_to_heater
    {
        type            nutkWallFunction;
        blending        stepwise;
        value           nonuniform List<scalar> 0();
    }
    procBoundary2to1
    {
        type            processor;
        value           nonuniform List<scalar> 
20
(
1.23738942682e-06
4.18193151979e-07
5.91761211622e-08
1.811802571e-08
1.09498709687e-08
1.01003140483e-08
1.67367312072e-08
4.09847997644e-08
9.66837857162e-08
2.35538159054e-07
2.92851469592e-07
3.73470705365e-07
4.99720647417e-07
5.92610208125e-07
6.26962649754e-07
6.67289689488e-07
8.12282649409e-07
1.36370740839e-06
1.56465211338e-06
1.85913243396e-06
)
;
    }
    procBoundary2to3
    {
        type            processor;
        value           nonuniform List<scalar> 
39
(
5.56020156537e-07
3.72863044859e-07
4.34877144596e-07
4.55787576477e-07
4.62837600745e-07
3.86626423491e-07
3.02898786623e-07
4.74923766278e-07
5.1554142026e-07
6.27960080948e-07
4.64212127985e-07
4.64212127985e-07
4.7102461516e-07
3.6268203562e-07
2.4159919181e-07
2.01939894872e-07
2.55743937674e-07
2.66721978623e-07
2.47413061836e-07
2.10086518073e-07
1.53302346904e-07
9.70431473198e-08
7.83668679059e-08
7.83668679059e-08
8.12581509386e-08
7.70290576108e-08
7.42340675988e-08
8.04898537531e-08
1.00631043328e-07
1.38172145987e-07
1.61363484619e-07
1.63478329372e-07
1.57686056307e-07
1.55303774924e-07
1.58288709181e-07
1.66809187548e-07
1.82892556672e-07
2.12089588444e-07
1.96754209008e-07
)
;
    }
}


// ************************************************************************* //
