/*--------------------------------*- C++ -*----------------------------------*\
| =========                 |                                                 |
| \\      /  F ield         | OpenFOAM: The Open Source CFD Toolbox           |
|  \\    /   O peration     | Version:  2312                                  |
|   \\  /    A nd           | Website:  www.openfoam.com                      |
|    \\/     M anipulation  |                                                 |
\*---------------------------------------------------------------------------*/
FoamFile
{
    version     2.0;
    format      ascii;
    arch        "LSB;label=32;scalar=64";
    class       volScalarField;
    location    "0.91/water";
    object      alpha.gas;
}
// * * * * * * * * * * * * * * * * * * * * * * * * * * * * * * * * * * * * * //

dimensions      [0 0 0 0 0 0 0];

internalField   nonuniform List<scalar> 
1504
(
0.631385578596
0.655468098163
0.657990597022
0.655468098163
0.656491381807
0.638896885319
0.575504997389
0.48700720332
0.400742153163
0.322947593402
0.273132067223
0.266535582484
0.266481638685
0.268637621218
0.281154290248
0.335569686091
0.364463505863
0.364514631206
0.266075131023
0.0946795082066
0.635853623468
0.656634168688
0.655468098163
0.657957236738
0.655468098163
0.650670948289
0.599415800744
0.510573253281
0.415242906959
0.327861517496
0.272990708364
0.266419205735
0.26641329366
0.266483219431
0.272943437746
0.31642578785
0.363918869461
0.371372069539
0.295217595798
0.134131309097
0.6407050687
0.655468098163
0.658092314891
0.655468098163
0.656877909938
0.654997008318
0.60683728519
0.517003181928
0.417369453494
0.326777606314
0.271384791296
0.26641329366
0.266214358453
0.266270500379
0.26735896715
0.300245150867
0.359470415284
0.373770949595
0.314699813631
0.169715161684
0.648526703398
0.656130884153
0.655468098163
0.657674147609
0.655468098163
0.655597147722
0.606869406583
0.515651015245
0.412797609868
0.318528607582
0.268333525163
0.266228453337
0.266270500379
0.266098735837
0.266241943749
0.289909248892
0.35122091096
0.374459870987
0.330118836357
0.202865120649
0.654568431979
0.655323526928
0.657099450232
0.655468098163
0.656656077454
0.653733220902
0.600426307887
0.504153985156
0.395803766071
0.302054050255
0.266423131889
0.266270500379
0.266094748177
0.266241943749
0.265977814633
0.283372538757
0.342232870919
0.374885965611
0.344643951014
0.234996773746
0.654536940134
0.649070862048
0.655468098163
0.656993778457
0.655468098163
0.646560118681
0.581966815215
0.478452130628
0.367741891969
0.283775128882
0.266270500379
0.266094748177
0.266241943749
0.26591107528
0.266199157683
0.27883118991
0.333992210728
0.375752577739
0.359037418783
0.265197223944
0.653776118324
0.63566456326
0.655973396843
0.655468098163
0.65606294157
0.632882374585
0.553181261783
0.443487740997
0.335443042509
0.270884826849
0.266094748177
0.266241943749
0.26588224234
0.266199157683
0.265886267972
0.275617221105
0.325998898196
0.376610617004
0.372094655142
0.291226833861
0.649596689029
0.620494811169
0.653947188958
0.656060985109
0.655468098163
0.612246936891
0.517722893465
0.404606379512
0.304655157263
0.266351812481
0.266241943749
0.26584149135
0.266199157683
0.265861956826
0.266128715044
0.272539851416
0.317107184612
0.376601154027
0.383111699182
0.311499070016
0.642957356058
0.609976734725
0.64476578947
0.655468098163
0.646354764804
0.582194921584
0.477572363425
0.364442887637
0.28078245381
0.266219259657
0.265869900742
0.266199157683
0.265842163222
0.266128715044
0.265827952559
0.269384450707
0.307078138162
0.375778853769
0.391464715679
0.325747564956
0.636761981788
0.60895022987
0.627073747389
0.64528274534
0.621490595232
0.543569430764
0.433883222403
0.325627484077
0.268711230787
0.265996554334
0.266218844857
0.265838296387
0.266199157683
0.270249197324
0.266033558837
0.26327609532
0.297375883612
0.374430159412
0.395416619066
0.33598863598
0.624222590007
0.608720228003
0.611478816632
0.625096665337
0.589036160797
0.50084560416
0.389529653261
0.293949481478
0.265997792746
0.266067345832
0.265956132285
0.266215615522
0.274157203828
0.279124477105
0.261795163175
0.252385142456
0.290197704921
0.373314031411
0.39748485059
0.345676586795
0.609426481551
0.608892583237
0.608652225343
0.610962032736
0.558462707112
0.458881056498
0.349068596968
0.274862175232
0.265930347881
0.265981329862
0.266061214747
0.276120276005
0.298623168825
0.28183608957
0.246430388935
0.239862696861
0.284850943644
0.372297428961
0.403065359632
0.358217128224
0.608892583237
0.608557071237
0.617890588348
0.607223810159
0.534546583776
0.425141898635
0.319148722314
0.267960426879
0.265877144113
0.265926139144
0.27865996015
0.317940585981
0.315398501614
0.273047125536
0.227217878434
0.229892765715
0.283445972126
0.37336798724
0.405365734192
0.374536501539
0.667105506171
0.649529566454
0.636197020046
0.604621711793
0.522632912467
0.410737800108
0.307736448211
0.265774522981
0.26582538112
0.274940456368
0.329267385279
0.348345343523
0.314838544844
0.252320849985
0.221977240139
0.226540698374
0.283514445119
0.374489061946
0.405218539474
0.399734509319
0.776445930928
0.702574145706
0.649242357532
0.603133979894
0.521192675169
0.41112709285
0.30796958428
0.265278197945
0.267634321765
0.312388295925
0.359151679038
0.351930655024
0.303019855091
0.234380869973
0.22197725424
0.227111942619
0.286424543188
0.37568217665
0.405517220385
0.405218539474
0.810894755265
0.706298238754
0.652511872155
0.599229237811
0.517620803036
0.41021787342
0.307906356467
0.265190745373
0.279652723726
0.338352980846
0.359326379632
0.345846891582
0.282407304441
0.225027313374
0.221977240139
0.232782231742
0.294941263841
0.374120642713
0.405218539474
0.405516914656
0.806643708168
0.700730534285
0.64267713419
0.579164015816
0.494813342322
0.391123681382
0.296113445689
0.262885473391
0.282574571014
0.337681069984
0.355530066739
0.327397050162
0.257504144828
0.223000839777
0.221992568609
0.247625026915
0.303296371646
0.366855302554
0.404362202665
0.405218539474
0.81183584832
0.6787820504
0.605389298951
0.527872461917
0.437446675907
0.337254357552
0.260619675997
0.251569446155
0.278277270248
0.330423198524
0.334997392847
0.295474216874
0.236491042154
0.222991301647
0.230616317245
0.263563556643
0.302745149704
0.352767449548
0.398218976787
0.405410917911
0.806643708168
0.628677683435
0.534147814333
0.441975543894
0.3480814066
0.262385593796
0.224841254757
0.230867796102
0.264985664486
0.30670982418
0.299441554322
0.259009709481
0.229371839282
0.226985153131
0.243518486667
0.266123066579
0.291302191185
0.332678303515
0.38915577432
0.405218539474
0.811388115274
0.556079102659
0.437466840233
0.331727774699
0.253556150879
0.222953244687
0.220717175957
0.220995987531
0.237240227615
0.265688453548
0.26010747655
0.23760859139
0.229277551199
0.233899488828
0.246637138226
0.256871705767
0.267589998295
0.312909258982
0.384924749646
0.405472637225
0.807038126441
0.476506289622
0.336504522866
0.237915433103
0.22148559026
0.220599594293
0.220995987531
0.22003454893
0.220995987531
0.225389958611
0.233956482436
0.231510691755
0.23080439571
0.235216577611
0.239191851569
0.233333452033
0.242069439557
0.302308312583
0.384008664564
0.405218539474
0.808586634922
0.391093952766
0.249925480885
0.220995987531
0.22002766747
0.220995987531
0.21905013915
0.220995987531
0.219414587722
0.220995987531
0.220844772763
0.228501654634
0.230599141341
0.230305932583
0.222290692632
0.212267007288
0.226593735298
0.296428505654
0.381825502708
0.405386545818
0.771588492214
0.281448709591
0.220995987531
0.219761285247
0.220995987531
0.218178658846
0.220995987531
0.218259006648
0.220995987531
0.219461146934
0.220995987531
0.224947599992
0.225968928047
0.219529796923
0.21076296373
0.207405471811
0.217520676146
0.285133180725
0.374355714394
0.405218539474
0.641619656549
0.23131702615
0.220153103279
0.220995987531
0.218075265476
0.220995987531
0.21790301965
0.220995987531
0.218442712982
0.220995987531
0.22004908686
0.221745365355
0.218344586223
0.21243481845
0.208735307646
0.207313160918
0.209493868565
0.260924429078
0.355832988857
0.404141130247
0.50216140243
0.265439119442
0.243157571959
0.230592487493
0.224199594061
0.22143503036
0.223148038834
0.22368816531
0.225194706441
0.223878340164
0.221295084286
0.21722814081
0.212865361514
0.210250136323
0.208329596926
0.207317334528
0.207284939083
0.226827699468
0.319995282814
0.396544486245
0.503926814484
0.433418568989
0.395594801377
0.356494005796
0.323456967761
0.300895517177
0.279934651904
0.261343279353
0.244782525788
0.230689781002
0.219426144089
0.212504702977
0.210051744384
0.209030297904
0.20791321805
0.207295873254
0.207317334528
0.207761938319
0.266610811031
0.373290766679
0.618458472493
0.668552343808
0.619404110246
0.57581151811
0.530858382237
0.480105454537
0.413177236695
0.342323740505
0.284146510569
0.243292533424
0.219963986131
0.210153121534
0.208262267633
0.208037070719
0.207547451431
0.207317334528
0.207152810204
0.207317334528
0.218232390616
0.330072453806
0.746271861668
0.756972104882
0.730875269041
0.707997432209
0.681407537372
0.642727154521
0.572606006411
0.470685871656
0.369365690624
0.287138489602
0.231888000319
0.209811594592
0.207373093717
0.207426817543
0.207477313395
0.207275208619
0.207317334528
0.207051817663
0.207317334528
0.276042586818
0.766358513388
0.762436434632
0.750752854051
0.746724862357
0.733734974405
0.709478028112
0.660375918589
0.567987309889
0.45631763196
0.351087381645
0.260934078437
0.210373257327
0.207296581465
0.207317334528
0.207389319832
0.207336232174
0.207083215788
0.207317334528
0.207012687916
0.227913913067
0.766586551844
0.759479251575
0.753739729932
0.753407925684
0.751951579094
0.732416511562
0.691823791335
0.613030153297
0.505249638761
0.393784016678
0.289376372782
0.214632159588
0.207317334528
0.207249512951
0.207322380949
0.207297791248
0.207317334528
0.206935747272
0.207317334528
0.207133988033
0.756577401419
0.750866800604
0.753407925684
0.753936765954
0.75323067063
0.742187535623
0.706293486915
0.634554443724
0.53162365644
0.417250847705
0.305972712356
0.22189732132
0.207198364607
0.207317334528
0.207177915546
0.20733354432
0.207172630337
0.207317334528
0.206849229424
0.207317334528
0.75011576653
0.74365169529
0.751767760243
0.75323067063
0.753907388259
0.746660206892
0.713944351425
0.64638350356
0.547457194254
0.432413441942
0.316899123026
0.227721099831
0.207317334528
0.207068944185
0.207317334528
0.207115855117
0.207345341807
0.207076380803
0.207317334528
0.206882723245
0.749757913336
0.73874168147
0.748283567984
0.753835630345
0.753021808001
0.74826325218
0.716498961651
0.651125982576
0.555384693129
0.441521140506
0.324327023927
0.231734378665
0.207231709325
0.207317334528
0.206972951173
0.207317334528
0.207086256358
0.207332494578
0.206985050148
0.207317334528
0.749626788767
0.730567531244
0.742660219955
0.753021808001
0.753238588898
0.74733403205
0.71483952303
0.649935116572
0.555608661254
0.442932579946
0.325763943269
0.232403882513
0.207317334528
0.207077045578
0.207317334528
0.206914961143
0.207317334528
0.207043188499
0.207317334528
0.20693131358
0.749047414226
0.711594059805
0.73132919607
0.74792150488
0.749437881879
0.739484137259
0.704444364648
0.639226496561
0.546723416694
0.435723666125
0.319406198074
0.228573719948
0.207235408071
0.207317334528
0.206893289013
0.207317334528
0.206888416278
0.207320076307
0.206996439635
0.207317334528
0.748953054702
0.680759839001
0.711336467613
0.727499525355
0.729389297811
0.716006085183
0.677588787889
0.610779946814
0.51918203604
0.409941284109
0.296584878988
0.217684333056
0.207317334528
0.206954770258
0.207317334528
0.206771221348
0.207317334528
0.206886003824
0.207317334528
0.20739744495
0.741761923059
0.651661675404
0.678516069795
0.688512194532
0.687402249701
0.670151614282
0.627770640941
0.558890109307
0.467275048402
0.359829007405
0.255573965655
0.208051977309
0.207125800538
0.207317334528
0.206759343073
0.207317334528
0.206759640202
0.207317334528
0.212159427549
0.219963707245
0.722831100775
0.617133962643
0.633945064351
0.63144846571
0.621750528462
0.596383248649
0.549011725925
1e-15
1e-15
1.00020474111e-15
1.00571484483e-15
1.00511669161e-15
1e-15
1e-15
1e-15
1e-15
1e-15
1e-15
1e-15
1e-15
1.00998924433e-15
1.02866377809e-15
1.0420813261e-15
1.63431015326e-15
0.00944291238152
0.000124361669266
1.04909955003e-15
1e-15
1e-15
1.00417270738e-15
1.00762024246e-15
1.00750785104e-15
1e-15
1e-15
1e-15
1e-15
1e-15
1e-15
1e-15
1e-15
1.0146048149e-15
1.03403038092e-15
1.05122203413e-15
1.64600151397e-15
0.0213286915799
0.000616900684656
4.60244388937e-07
1e-15
1e-15
1.00792339908e-15
1.01026334812e-15
1.01064925529e-15
1.00414398186e-15
1e-15
1e-15
1e-15
1e-15
1e-15
1e-15
1e-15
1.01920702611e-15
1.03971924623e-15
1.05915271555e-15
1.66010793685e-15
0.0385906772769
0.00203155617432
7.47812166899e-06
1.00960438457e-15
1.00221687255e-15
1.01223510248e-15
1.01378825223e-15
1.01356986566e-15
1.0110947388e-15
1e-15
1e-15
1e-15
1e-15
1e-15
1e-15
1.00504513965e-15
1.02366290066e-15
1.04541831621e-15
1.0667375338e-15
1.68342500947e-15
0.060318122786
0.0049585840318
4.43861188434e-05
1.02524411189e-15
1.00343169694e-15
1.01678090743e-15
1.01744805645e-15
1.01667085216e-15
1.01532424022e-15
1.00873389218e-15
1e-15
1e-15
1e-15
1e-15
1.00192426899e-15
1.0167223948e-15
1.02775010556e-15
1.05078992186e-15
1.07483023335e-15
1.72181080606e-15
0.0852343533364
0.00977036734944
0.000157871543491
1.00127000488e-15
1.00126831602e-15
1.0185335175e-15
1.02037288634e-15
1.01955026051e-15
1.01832249445e-15
1.015598231e-15
1.00433765495e-15
1e-15
1.00162759266e-15
1.00653758173e-15
1.01512658016e-15
1.02144894391e-15
1.03122321168e-15
1.05548398727e-15
1.08482778253e-15
1.76489510463e-15
0.111221859957
0.01645893746
0.000412875381993
2.723030111e-08
1.00067306751e-15
1.01640614361e-15
1.02198408398e-15
1.02165678833e-15
1.02070546807e-15
1.0175702237e-15
1.01363385724e-15
1.01211748427e-15
1.01395944246e-15
1.01689062364e-15
1.0201432508e-15
1.02463909152e-15
1.03393649932e-15
1.05924765646e-15
1.09712379457e-15
1.79364903589e-15
0.135803359489
0.0246906393548
0.000892072793183
8.06021103331e-07
1.00073500079e-15
1.00465846934e-15
1.02267560832e-15
1.02286364954e-15
1.02228729363e-15
1.01867398492e-15
1.01640179785e-15
1.01692989162e-15
1.01816796541e-15
1.01997852923e-15
1.02265946898e-15
1.02715730348e-15
1.03591969163e-15
1.06199466363e-15
1.10930272023e-15
1.808533267e-15
0.157571751236
0.0341176869433
0.00170069862616
4.53552696753e-06
1e-15
1e-15
1.02137366457e-15
1.02288752284e-15
1.0228352037e-15
1.01916603819e-15
1.017819884e-15
1.01853831357e-15
1.0198175166e-15
1.02166245922e-15
1.02440885582e-15
1.0288690731e-15
1.03717058114e-15
1.06380619556e-15
1.11852184212e-15
1.81876701037e-15
0.176703924482
0.0448044378206
0.00298941656086
1.6655673793e-05
1e-15
1e-15
1.01277991331e-15
1.02279066012e-15
1.02249344576e-15
1.01914825829e-15
1.01850001118e-15
1.01933963647e-15
1.02075079851e-15
1.02268320866e-15
1.02544968248e-15
1.02975652597e-15
1.03761173039e-15
1.06498309405e-15
1.12539596413e-15
1.8287167491e-15
0.195038157742
0.0574299372841
0.00502658282957
5.02459413682e-05
1e-15
1e-15
1.00046050355e-15
1.02073671967e-15
1.02097932742e-15
1.01873193459e-15
1.01856682691e-15
1.01962213397e-15
1.02116215381e-15
1.02313884066e-15
1.02577670965e-15
1.02991707626e-15
1.03755264122e-15
1.06589102137e-15
1.1323379222e-15
1.83941989104e-15
0.215162854054
0.0731768462077
0.00826637637776
0.000134838311383
1e-15
1e-15
1e-15
1.01654175451e-15
1.01886048098e-15
1.01815839134e-15
1.0184578409e-15
1.01966582012e-15
1.0212651541e-15
1.0231891961e-15
1.02574565572e-15
1.02975242596e-15
1.03704962168e-15
1.06688682863e-15
1.14119736826e-15
1.85081440553e-15
0.239208426816
0.0935019782817
0.0134855393281
0.0003365626505
1.88472891836e-08
1e-15
1e-15
1.00888146981e-15
1.01637045489e-15
1.01769100811e-15
1.01845860611e-15
1.01975889931e-15
1.0213454662e-15
1.0231809902e-15
1.02557158369e-15
1.0292825044e-15
1.03618313123e-15
1.06825936974e-15
1.15277440134e-15
1.86274737365e-15
0.269568767436
0.120456652574
0.0219330096369
0.000807136639965
8.34176289781e-07
1e-15
1e-15
1.00267004445e-15
1.0148533807e-15
1.01789399108e-15
1.01890851298e-15
1.02018496246e-15
1.02164818553e-15
1.02330892138e-15
1.0254437649e-15
1.02880735795e-15
1.03517689645e-15
1.07011734594e-15
1.1663040789e-15
1.87558794468e-15
0.30952887211
0.155715175716
0.0350686285586
0.00186389625842
6.19414126787e-06
1e-15
1e-15
1e-15
1.01355400867e-15
1.0189060685e-15
1.02000710935e-15
1.02106238273e-15
1.02226277111e-15
1.02364269073e-15
1.02544567889e-15
1.02844737492e-15
1.03444201713e-15
1.07245756299e-15
1.17951452686e-15
1.89021277613e-15
0.343977457469
0.194673768804
0.0535458129367
0.00406272083015
3.11101596957e-05
1e-15
1e-15
1e-15
1.00959636658e-15
1.01911378652e-15
1.02115452992e-15
1.02189678657e-15
1.02275516892e-15
1.02381998003e-15
1.0252880009e-15
1.02788779091e-15
1.0342763353e-15
1.07471931301e-15
1.18991898558e-15
1.9073764844e-15
0.362965867606
0.226272079915
0.0747403117672
0.007953581799
0.000118084678295
1e-15
1e-15
1.00090767791e-15
1.00299648182e-15
1.01806908555e-15
1.02147355861e-15
1.02200744589e-15
1.02262505124e-15
1.02340235321e-15
1.02449154771e-15
1.0266851364e-15
1.03405646225e-15
1.07600416764e-15
1.19712432448e-15
1.92724913e-15
0.371621479988
0.248885090605
0.0955721480405
0.0135954925404
0.000343462730223
2.44135760271e-08
1e-15
1e-15
1e-15
1.01511759615e-15
1.02025072279e-15
1.02092549091e-15
1.02135780335e-15
1.02189326227e-15
1.02270304446e-15
1.02450930225e-15
1.03280101157e-15
1.0758927917e-15
1.19970212717e-15
1.94979621872e-15
0.380927013939
0.271006535539
0.116837958524
0.0208939686759
0.000824437150541
1.58837509952e-06
1e-15
1e-15
1e-15
1.00546947289e-15
1.01647355052e-15
1.01832749818e-15
1.01880020187e-15
1.01924175956e-15
1.01982765428e-15
1.02120827556e-15
1.02949703625e-15
1.07366813476e-15
1.19965668701e-15
1.9759275122e-15
0.399123566793
0.298965916085
0.141851389806
0.0309825443461
0.00188241595347
1.35642495756e-05
1e-15
1e-15
1e-15
1.00085340487e-15
1.01220040603e-15
1.01459913815e-15
1.01514140341e-15
1.01551814233e-15
1.01587884629e-15
1.01676862051e-15
1.02363666267e-15
1.06859740653e-15
1.19763965033e-15
2.0072901581e-15
0.405218539474
0.324811620733
0.173559519415
0.0468983860449
0.00431814205862
8.07700249131e-05
4.23373652758e-08
1e-15
1e-15
1e-15
1.00347052154e-15
1.00975272979e-15
1.01068959213e-15
1.01106057292e-15
1.01120016501e-15
1.01153748888e-15
1.01562507512e-15
1.06128491991e-15
1.19245011311e-15
2.04889778028e-15
0.405517393349
0.346438172097
0.211571889251
0.0713373950169
0.00963645092393
0.000392769656357
2.85171630345e-06
1e-15
1e-15
1e-15
1e-15
1.0053974292e-15
1.00632699181e-15
1.00667016996e-15
1.00666800317e-15
1.0065661883e-15
1.00792761018e-15
1.05137639892e-15
1.18313007977e-15
2.10817377431e-15
0.405218539474
0.366743012513
0.251676720107
0.104218637788
0.0199569954629
0.0015176028217
3.35028945375e-05
2.04198448207e-08
1e-15
1e-15
1e-15
1.00052741525e-15
1.00284930226e-15
1.00339567051e-15
1.00335040861e-15
1.00285241543e-15
1.00278633599e-15
1.03814967244e-15
1.16774803501e-15
2.22532136615e-15
0.405560605428
0.39179081323
0.291723047545
0.143910481025
0.0379198402263
0.00469063550257
0.000236769618277
1.95678849062e-06
1e-15
1e-15
1e-15
1.00013407573e-15
1.00064858213e-15
1.00119153057e-15
1.00125983269e-15
1.00066910635e-15
1.00031893274e-15
1.02548850472e-15
1.14065438899e-15
2.36918650817e-15
0.405218539474
0.405393321955
0.325301278908
0.189074803746
0.0665712257047
0.0123275551171
0.0011625359597
3.35593628539e-05
9.53854154513e-09
1e-15
1e-15
1e-15
1e-15
1.00007262209e-15
1.00016443804e-15
1.00008195166e-15
1e-15
1.01844903003e-15
1.09298575811e-15
2.3827716904e-15
0.405508220945
0.405218539474
0.352005881976
0.23668175239
0.107158879357
0.0283755536526
0.0042301685863
0.000292225270884
3.44996253271e-06
1e-15
1e-15
1e-15
1e-15
1e-15
1e-15
1e-15
1e-15
1.01841612094e-15
1.03559118461e-15
2.38263070546e-15
0.405218539474
0.405518440264
0.375443385191
0.28251504132
0.157444912624
0.0572778819651
0.0125697891197
0.00159745097938
7.43888630702e-05
1.72651932028e-07
1e-15
1e-15
1e-15
1e-15
1e-15
1e-15
1.01249348646e-15
1.06303688502e-15
1.03195826603e-15
2.38327083289e-15
0.402872750161
0.405218539474
0.40029985758
0.326249877966
0.212956720033
0.10110126392
0.0316174761707
0.00624207097084
0.000699859524419
2.48109050513e-05
8.43988691947e-09
1e-15
1e-15
1e-15
1e-15
1e-15
1.04636387535e-15
1.0629324254e-15
1.03232293096e-15
2.38351035801e-15
0.387233609446
0.405511343205
0.405218539474
0.361749954727
0.266796049842
0.155685663114
0.0667070548185
0.0194882306863
0.00372903225255
0.000376257638025
8.6526752127e-06
6.17849315216e-10
1e-15
1e-15
1e-15
1e-15
1.04238582725e-15
1.05001235433e-15
1.03081762209e-15
2.38410537048e-15
0.35034400395
0.405218539474
0.40543270806
0.384630447121
0.310679366316
0.21291686317
0.118609704381
0.0492079222696
0.014028180558
0.00252054038786
0.00020267603309
2.60245995915e-06
5.07075540175e-10
5.65904270834e-14
2.67181609464e-15
2.85890696413e-15
1.27900615581e-15
1.05047890813e-15
1.03232293096e-15
2.41755716424e-15
0.300390827766
0.394405095255
0.405218539474
0.393049974876
0.34380880983
0.271537508792
0.187058338594
0.102333699103
0.0402480017612
0.0105732760401
0.00168564345442
0.000119409000614
1.56273394743e-06
1.70423188963e-09
1.2777108657e-12
4.62080503365e-13
1.41570133929e-13
2.10398596056e-14
1.14231599684e-14
4.11705209796e-14
0.257849564794
0.362426815109
0.397182423478
0.390265435225
0.374401827607
0.343785081159
0.278493807272
0.184144892743
0.0935674692797
0.0346724636861
0.00897809578871
0.00152527937345
0.000133158193536
2.69718715046e-06
1.1635187237e-08
1.27687352981e-10
5.51609708369e-11
1.40676266478e-11
1.05178583735e-11
6.16465427808e-11
0.231030843693
0.31621332371
0.36688143945
0.384498877589
0.407565752808
0.415715506422
0.380606697954
0.294518039603
0.186669651257
0.0950716512896
0.0378691862047
0.0115794019226
0.00261859664441
0.00037630187554
2.71257995706e-05
8.47626735305e-07
1.71295071707e-08
4.32170847447e-09
1.87091262065e-09
1.02619882813e-08
0.216151324799
0.271522664295
0.323776064964
0.371904383793
0.424996920104
0.445846187815
0.441819789864
0.403579824165
0.323810157095
0.223790892955
0.131410336555
0.0658168416784
0.02980211186
0.0127934982336
0.00492463846829
0.00082765454342
2.45230103032e-05
2.93451471508e-06
2.4805124578e-07
2.42431543076e-07
0.2088465835
0.240441039224
0.284182565752
0.349538826557
0.422919886857
0.447328901191
0.446885542806
0.447240151024
0.440676597519
0.41341224345
0.357752285653
0.282689986055
0.20689289576
0.150349957279
0.106389765122
0.0443313587611
0.0048284380596
0.000719509841754
7.10683979941e-05
1.51441735447e-06
0.208736878791
0.225280598821
0.253900967861
0.319067211931
0.409135638883
0.446885542806
0.447678905072
0.447453040857
0.45010954585
0.447621441916
0.449861169936
0.448210133977
0.450300179687
0.448393996366
0.416833773985
0.254321584607
0.0843568728962
0.0219476044768
0.00563151960311
1.79531704202e-05
0.2141950939
0.218887322309
0.232939171423
0.285353765339
0.376149259662
0.437360595407
0.447334146755
0.449146960089
0.447621441916
0.450426329788
0.448210133977
0.451051248638
0.448393996366
0.450747093581
0.448472762436
0.393399498905
0.217390766521
0.100518466001
0.0678517131865
0.000405009878411
0.219396665219
0.217283922884
0.22265789625
0.256197864216
0.330996844916
0.40566429822
0.439153812251
0.447621441916
0.448686642725
0.448171976407
0.450542891843
0.448393996366
0.450747093581
0.448884454686
0.449843030839
0.430750163117
0.242340285106
0.135938618211
0.186308549799
0.00342581340645
)
;

boundaryField
{
    emptyPatch
    {
        type            empty;
    }
    minY
    {
        type            fixedValue;
        value           nonuniform List<scalar> 0();
    }
    maxY
    {
        type            inletOutlet;
        phi             phi.gas;
        inletValue      nonuniform List<scalar> 0();
        value           nonuniform List<scalar> 0();
    }
    water_to_cooler
    {
        type            zeroGradient;
    }
    water_to_heater
    {
        type            zeroGradient;
    }
    procBoundary3to1
    {
        type            processor;
        value           nonuniform List<scalar> 
41
(
0.478018104498
0.386676236348
0.286064983275
0.215341344451
0.20718597948
0.207317334528
0.206773272971
0.207317334528
0.206680286487
0.207317334528
0.216712299664
0.230405940945
0.22832105214
0.699825209214
0.569189736437
0.573787687447
0.554640637479
0.528354495769
0.490864801914
0.478018104498
0.43772311487
0.220489784022
0.217290711991
0.218690543949
0.235203606209
0.283358283693
0.352215362249
0.403826990666
0.430874176996
0.447504848125
0.44829989193
0.448210133977
0.449588717339
0.448393996366
0.449773289741
0.448472762436
0.400364511789
0.194547389553
0.197484731748
0.197718755991
0.00621483224549
)
;
    }
    procBoundary3to2
    {
        type            processor;
        value           nonuniform List<scalar> 
41
(
0.613781063279
0.654311185831
0.655468098163
0.656898062211
0.654943415546
0.606197145284
0.524353853741
0.44429570703
0.373750567142
0.311973969595
0.272867271412
0.266734456199
0.268154375769
0.272922762489
0.291322130238
0.347833495948
0.36441238043
0.348772019567
0.219689103352
0.0552469761723
1e-15
1e-15
1e-15
1.00464464402e-15
1.00456424669e-15
1e-15
1e-15
1e-15
1e-15
1e-15
1e-15
1e-15
1e-15
1.00445557848e-15
1.02378250697e-15
1.02774118182e-15
1.62283713179e-15
0.0030819916936
1.47589572586e-05
1.03008277018e-15
1.03008277018e-15
)
;
    }
}


// ************************************************************************* //
