/*--------------------------------*- C++ -*----------------------------------*\
| =========                 |                                                 |
| \\      /  F ield         | OpenFOAM: The Open Source CFD Toolbox           |
|  \\    /   O peration     | Version:  2312                                  |
|   \\  /    A nd           | Website:  www.openfoam.com                      |
|    \\/     M anipulation  |                                                 |
\*---------------------------------------------------------------------------*/
FoamFile
{
    version     2.0;
    format      ascii;
    arch        "LSB;label=32;scalar=64";
    class       surfaceScalarField;
    location    "0.985/water";
    object      phi;
}
// * * * * * * * * * * * * * * * * * * * * * * * * * * * * * * * * * * * * * //

dimensions      [0 3 -1 0 0 0 0];

oriented        oriented;

internalField   nonuniform List<scalar> 
2929
(
1.72276338274e-07
5.11139091417e-07
1.39174458236e-07
4.40449109973e-07
1.04447849178e-07
4.69350800065e-07
6.88507972688e-08
4.98724897522e-07
4.08731410137e-08
5.13144119756e-07
1.92801986551e-08
5.19253399999e-07
1.04932750172e-09
5.25698594352e-07
-1.46155910295e-08
5.3136378467e-07
-2.64132536038e-08
5.3140824525e-07
-3.480928562e-08
5.27533104004e-07
-4.03231836413e-08
5.22892356568e-07
-4.16097950913e-08
5.18393118856e-07
-3.80886614508e-08
5.133007187e-07
-3.16799541805e-08
5.10425069371e-07
-2.71528104184e-08
5.14502463792e-07
-3.10753709884e-08
5.26125763738e-07
-3.80352886577e-08
5.15660244923e-07
-6.23125054164e-08
4.80490244769e-07
-8.32912033587e-08
3.96858762283e-07
3.31796875692e-07
-8.74354706099e-08
1.54360893803e-07
5.07928266413e-07
9.42317039427e-08
4.8745664472e-07
3.2261923432e-08
5.26907601557e-07
-2.66102170001e-08
5.56458029843e-07
-6.33919407482e-08
5.49751479633e-07
-8.5484183139e-08
5.41294260529e-07
-1.00158894464e-07
5.40330738713e-07
-1.08400393106e-07
5.39556429118e-07
-1.10793346164e-07
5.33749737212e-07
-1.09228998554e-07
5.25914033078e-07
-1.06077552423e-07
5.19683352387e-07
-1.01357779432e-07
5.13611687958e-07
-9.43479479158e-08
5.06222998718e-07
-8.37222748786e-08
4.99722693921e-07
-7.1711373923e-08
5.02400370458e-07
-6.42663906646e-08
5.18574338011e-07
-6.209785647e-08
5.13372973485e-07
-7.00428812089e-08
4.88308791208e-07
-8.71831779233e-08
4.13910682692e-07
3.39994195226e-07
-9.54044794505e-08
1.26643758985e-07
5.34801666028e-07
2.86949689987e-08
5.74591993405e-07
-6.57698662354e-08
6.1872022764e-07
-1.47234088361e-07
6.37951529625e-07
-1.93025765965e-07
5.95657849847e-07
-2.13445009157e-07
5.61740274439e-07
-2.16477363985e-07
5.43352424825e-07
-2.08775271924e-07
5.31824610249e-07
-1.96419996161e-07
5.21353869739e-07
-1.82585359065e-07
5.1203307988e-07
-1.69267992239e-07
5.06315523138e-07
-1.57234566306e-07
5.01523067997e-07
-1.45291002495e-07
4.94218677323e-07
-1.3148685753e-07
4.8585087028e-07
-1.13827223192e-07
4.84660144486e-07
-9.48025932429e-08
4.9944745151e-07
-8.48199756454e-08
5.03277364345e-07
-7.88280084841e-08
4.82194968853e-07
-8.82358871023e-08
4.23213700345e-07
3.5000296135e-07
-9.82861272454e-08
1.10990698675e-07
5.83750740339e-07
-1.39941349793e-08
6.9250989772e-07
-1.04785535312e-07
7.12774083775e-07
-1.85694164684e-07
7.21198323612e-07
-2.45174983259e-07
6.55829347349e-07
-2.76452652919e-07
5.93170529134e-07
-2.78890919751e-07
5.45819609368e-07
-2.64135081178e-07
5.17062072118e-07
-2.435203305e-07
5.00715990756e-07
-2.21912882701e-07
4.90393748685e-07
-2.01460120285e-07
4.85825708362e-07
-1.83545130854e-07
4.83565438801e-07
-1.67782851654e-07
4.78407476334e-07
-1.52585434926e-07
4.70597994388e-07
-1.34170666649e-07
4.66181384329e-07
-1.09449834309e-07
4.74645012117e-07
-9.27186629365e-08
4.86450698868e-07
-8.17274579066e-08
4.71095527812e-07
-8.49630569611e-08
4.2635073607e-07
3.59167588669e-07
-9.41827826329e-08
1.47655610935e-07
5.87853556999e-07
6.96818473864e-08
7.56067748923e-07
-8.68178943625e-09
7.88521494464e-07
-7.9963293089e-08
7.92618946457e-07
-1.59553380636e-07
7.35941559724e-07
-2.14984808373e-07
6.48937356409e-07
-2.33453062592e-07
5.64380761584e-07
-2.28600557864e-07
5.12229057362e-07
-2.13861783264e-07
4.85973395144e-07
-1.95951596787e-07
4.724690916e-07
-1.77185356885e-07
4.67038978002e-07
-1.60780087813e-07
4.67133400612e-07
-1.47134487119e-07
4.64728218154e-07
-1.35102215093e-07
4.58525030131e-07
-1.223569606e-07
4.53389110402e-07
-1.02414156352e-07
4.54643005075e-07
-8.29183315408e-08
4.66877186627e-07
-7.30163508443e-08
4.61109400323e-07
-7.42927178961e-08
4.2753681641e-07
3.67676845208e-07
-8.28640263967e-08
1.88673257231e-07
5.34013486624e-07
2.12257426632e-07
7.10286935919e-07
2.15945101717e-07
7.74938410869e-07
1.93226471889e-07
8.12109076188e-07
1.06491544726e-07
8.21866268377e-07
-4.51909751892e-08
8.00519693384e-07
-9.59348209515e-08
6.15174329084e-07
-1.14817319435e-07
5.31141645005e-07
-1.17017307915e-07
4.88180889761e-07
-1.12646396441e-07
4.6809376259e-07
-1.04948045346e-07
4.59330123364e-07
-9.73238147366e-08
4.59493356139e-07
-9.14859128668e-08
4.58868439894e-07
-8.68348506728e-08
4.53845588931e-07
-8.27486490306e-08
4.49268532869e-07
-7.44346144633e-08
4.4628761442e-07
-5.94824621045e-08
4.51866239065e-07
-5.34542597251e-08
4.55006536812e-07
-5.6417599967e-08
4.30422742489e-07
3.77602709905e-07
-6.64054121682e-08
1.76511194536e-07
4.94001669406e-07
1.87365403867e-07
6.7783383348e-07
1.92843044296e-07
7.59251128672e-07
1.90103665153e-07
8.10881887082e-07
1.65585531218e-07
8.45054035583e-07
1.18952102829e-07
8.46786887992e-07
3.80216299362e-08
6.96038140044e-07
6.62549226112e-09
5.6252501045e-07
-7.50734246832e-09
5.02308258098e-07
-1.46429417463e-08
4.75222160064e-07
-1.83523903603e-08
4.63030086664e-07
-2.06469410574e-08
4.61775670131e-07
-2.34855825225e-08
4.61690978363e-07
-2.67539494625e-08
4.57093566049e-07
-3.03836630398e-08
4.52873446735e-07
-3.30416245919e-08
4.48915297695e-07
-2.83546853659e-08
4.47137989583e-07
-2.67651231169e-08
4.53361008635e-07
-3.3838593641e-08
4.37432358006e-07
3.9076712434e-07
-4.70607454415e-08
1.63143371072e-07
4.68360938532e-07
1.68888334249e-07
6.51718080508e-07
1.80269633263e-07
7.38137328155e-07
1.91596017181e-07
7.95373873375e-07
1.94966901521e-07
8.40068524951e-07
1.8613536694e-07
8.5506997463e-07
1.17012997975e-07
7.65017796799e-07
9.3560448505e-08
5.85935857881e-07
7.82759214959e-08
5.17574665992e-07
6.68175931797e-08
4.86668287879e-07
5.70714137409e-08
4.72765362244e-07
4.81567224859e-08
4.70678877178e-07
3.93716448606e-08
4.70462345804e-07
3.04159614192e-08
4.66033273271e-07
2.12429512688e-08
4.62025920379e-07
1.15879914779e-08
4.58546714924e-07
5.90291519207e-09
4.52791895305e-07
1.94950687875e-09
4.57270127796e-07
-1.00762371017e-08
4.494042854e-07
4.07624404337e-07
-2.69859537508e-08
1.49578918182e-07
4.5937750133e-07
1.43088368177e-07
6.39878932534e-07
1.44017908879e-07
7.28666301614e-07
1.46071437181e-07
7.89674681954e-07
1.43827168415e-07
8.40909007056e-07
1.35258109918e-07
8.63165254483e-07
1.5828690992e-07
7.41837764855e-07
1.49377248437e-07
5.94786203511e-07
1.37723250188e-07
5.2920071865e-07
1.26101564867e-07
4.98272137021e-07
1.1429749871e-07
4.84555391446e-07
1.01872472359e-07
4.83090694466e-07
8.97856871428e-08
4.82536409151e-07
7.76445826479e-08
4.78157848771e-07
6.51776666812e-08
4.74476466932e-07
5.18569628367e-08
4.71846199382e-07
3.90389757512e-08
4.65583719634e-07
2.85412307256e-08
4.67733585073e-07
1.22952863321e-08
4.65604309818e-07
4.27748654084e-07
-7.87613889916e-09
1.41481408833e-07
4.58124666153e-07
1.28217867588e-07
6.35841233025e-07
1.22532795025e-07
7.26592930918e-07
1.20426124456e-07
7.88581663058e-07
1.20282394597e-07
8.39852397904e-07
1.31096422558e-07
8.51946742303e-07
1.80186059953e-07
6.92607572144e-07
1.84345912029e-07
5.90563082221e-07
1.78118979618e-07
5.35395133775e-07
1.6838516042e-07
5.07985578817e-07
1.55995492214e-07
4.96929997912e-07
1.41701119921e-07
4.97372693606e-07
1.27800087173e-07
4.96421631443e-07
1.1381900849e-07
4.9212509466e-07
9.95187890304e-08
4.88760829313e-07
8.43160894039e-08
4.8703196662e-07
6.77474266235e-08
4.82136556519e-07
5.14644041533e-08
4.83986992118e-07
3.17291907529e-08
4.85299398286e-07
4.50714439404e-07
8.72102098366e-09
1.36582692462e-07
4.64167054081e-07
1.17393644238e-07
6.39860139973e-07
1.05269943595e-07
7.32761348735e-07
9.91066715879e-08
7.92709666529e-07
1.03119169903e-07
8.35237785222e-07
1.59029109308e-07
7.95858003031e-07
1.96503935404e-07
6.55022205542e-07
2.07453979744e-07
5.79551840872e-07
2.05775137859e-07
5.37039602114e-07
1.97962429191e-07
5.1577610587e-07
1.84721260381e-07
5.10154756558e-07
1.69766002949e-07
5.12310826166e-07
1.55083071065e-07
5.11092174572e-07
1.40245853078e-07
5.06949042687e-07
1.24965898918e-07
5.04029963766e-07
1.08814703583e-07
5.03169801012e-07
9.0613610363e-08
5.00313710423e-07
7.04769396685e-08
5.04096752965e-07
4.77964132153e-08
5.07945033883e-07
4.76386425842e-07
2.20864599347e-08
1.24280247829e-07
4.82397249308e-07
9.3631221544e-08
6.57525219283e-07
7.11749896521e-08
7.5107224014e-07
5.995012967e-08
8.0291060972e-07
7.85655709664e-08
8.16387546941e-07
1.80084028829e-07
6.94174426364e-07
2.14656010016e-07
6.20338008373e-07
2.26549542738e-07
5.67594870345e-07
2.26183962693e-07
5.37368822838e-07
2.18103042751e-07
5.23833088641e-07
2.03608650848e-07
5.24630404207e-07
1.88664045071e-07
5.2724252913e-07
1.73851962024e-07
5.25887550525e-07
1.5873839858e-07
5.22049295986e-07
1.4314543523e-07
5.19607215198e-07
1.26719006536e-07
5.19578296659e-07
1.08148556448e-07
5.1887343122e-07
8.60813310786e-08
5.26138597583e-07
6.12683061836e-08
5.32727247945e-07
5.0479105769e-07
3.28294894686e-08
1.13406690254e-07
5.14623352898e-07
7.23120320246e-08
6.89594172114e-07
4.83392634512e-08
7.73778624027e-07
5.15113075356e-08
7.99913520882e-07
1.54734147939e-07
7.1304188712e-07
2.04683430475e-07
6.44018917369e-07
2.32610075693e-07
5.92283195035e-07
2.42470218022e-07
5.57665958174e-07
2.41066575162e-07
5.38734888289e-07
2.30402047526e-07
5.344737473e-07
2.15497019289e-07
5.39519290241e-07
2.00764020225e-07
5.41955179125e-07
1.86073994036e-07
5.40563260259e-07
1.7104033625e-07
5.37067667784e-07
1.55561304136e-07
5.35072101016e-07
1.39450190042e-07
5.35679055194e-07
1.21030155768e-07
5.37272296626e-07
9.86099383848e-08
5.48540891654e-07
7.27813125566e-08
5.58529087264e-07
5.35743168574e-07
4.17983091171e-08
9.87372584068e-08
5.62018259222e-07
5.07797538318e-08
7.32783482732e-07
4.22255605925e-08
7.83870692298e-07
1.26172108815e-07
7.16074668915e-07
1.88013117447e-07
6.50731264781e-07
2.26916419905e-07
6.04795630715e-07
2.47689430276e-07
5.71346706653e-07
2.54323031835e-07
5.50954601166e-07
2.49722483779e-07
5.43295792435e-07
2.36096606482e-07
5.48074738723e-07
2.21405700002e-07
5.54184260313e-07
2.06927385209e-07
5.56416875486e-07
1.92492011337e-07
5.5497887152e-07
1.7767438606e-07
5.51868109467e-07
1.62550837232e-07
5.50182234813e-07
1.47140673917e-07
5.5107664852e-07
1.29562809242e-07
5.54851443572e-07
1.0821336661e-07
5.69871208412e-07
8.27100344155e-08
5.8400753601e-07
5.68708877535e-07
4.97150255264e-08
9.36258120327e-08
6.16462290653e-07
5.16813856327e-08
7.70887153847e-07
1.17192198703e-07
7.17896163107e-07
1.75025575859e-07
6.56831679075e-07
2.15296038701e-07
6.09517582013e-07
2.43430915229e-07
5.76191654068e-07
2.5804925144e-07
5.56525101392e-07
2.60195834271e-07
5.48721008719e-07
2.50159238494e-07
5.53290151618e-07
2.35457372218e-07
5.62743565628e-07
2.20935624291e-07
5.68687473082e-07
2.06769318117e-07
5.70560825882e-07
1.92584091519e-07
5.69147959128e-07
1.78047278112e-07
5.66394031157e-07
1.63368358552e-07
5.64853503097e-07
1.48823796519e-07
5.65625607171e-07
1.32494190216e-07
5.71165417579e-07
1.13385055381e-07
5.88964410364e-07
8.96829592893e-08
6.07686745096e-07
6.01809342029e-07
5.65540622958e-08
1.02103069332e-07
6.60559557381e-07
1.33320122124e-07
7.31267658228e-07
1.73871743918e-07
6.72148808726e-07
2.09002653263e-07
6.18727885333e-07
2.37931579877e-07
5.79160782763e-07
2.56871171858e-07
5.5665757011e-07
2.64144074629e-07
5.49022708295e-07
2.58025452012e-07
5.54748814479e-07
2.43482340894e-07
5.67784271553e-07
2.28338717688e-07
5.77863186183e-07
2.13794058944e-07
5.83206708741e-07
1.99683701579e-07
5.84654295908e-07
1.85568202705e-07
5.83249608382e-07
1.71128639129e-07
5.80822640292e-07
1.56793043018e-07
5.79189658032e-07
1.4299800742e-07
5.79412323326e-07
1.28262714757e-07
5.85903666774e-07
1.11858161836e-07
6.05352837328e-07
9.08381609188e-08
6.28684667772e-07
6.32098760107e-07
6.0520703502e-08
1.33475930397e-07
6.70431402241e-07
1.7338044524e-07
6.74849586378e-07
2.05082400977e-07
6.31463526114e-07
2.33271385311e-07
5.86279351286e-07
2.53582472082e-07
5.57082007752e-07
2.63526613207e-07
5.46053437666e-07
2.60087165624e-07
5.52228353121e-07
2.45602393311e-07
5.69139119823e-07
2.29101987891e-07
5.84245737809e-07
2.13414404211e-07
5.935190954e-07
1.98627210993e-07
5.97976092834e-07
1.8440008964e-07
5.98865499021e-07
1.7009367134e-07
5.97544881258e-07
1.55620806493e-07
5.95298312366e-07
1.41412429883e-07
5.93394361818e-07
1.28122245749e-07
5.92712465452e-07
1.15078800427e-07
5.98935282126e-07
1.01945218723e-07
6.1847228264e-07
8.43482626531e-08
6.46261070629e-07
6.5792692935e-07
5.84933414482e-08
1.5105996374e-07
6.60891150629e-07
1.84328745529e-07
6.20985892304e-07
2.17479788133e-07
5.87521430835e-07
2.42384951266e-07
5.56632493542e-07
2.55333893217e-07
5.42314478321e-07
2.5395445864e-07
5.46805678857e-07
2.39440003917e-07
5.66524184246e-07
2.21167532332e-07
5.87329593296e-07
2.03811652491e-07
6.01554600222e-07
1.87790508619e-07
6.09518670486e-07
1.72976504573e-07
6.12771561119e-07
1.58642126806e-07
6.13188027801e-07
1.44268901893e-07
6.11920457688e-07
1.29767657953e-07
6.09795787939e-07
1.15714607828e-07
6.07457091858e-07
1.02797932825e-07
6.05622425969e-07
9.16363793209e-08
6.10099240839e-07
8.26511231687e-08
6.27443967088e-07
6.97088886657e-08
6.59183778894e-07
6.78992101659e-07
4.8618130718e-08
1.39534673299e-07
6.65451589371e-07
1.77642953445e-07
5.62878107204e-07
2.11593965276e-07
5.4327393558e-07
2.31859356527e-07
5.3209368071e-07
2.34270592964e-07
5.38364000841e-07
2.20653412563e-07
5.5990600392e-07
2.00940431069e-07
5.86052999596e-07
1.81841328721e-07
6.0634949169e-07
1.64293830869e-07
6.19072318117e-07
1.48644319631e-07
6.25146569117e-07
1.34155920284e-07
6.27249337094e-07
1.20125309045e-07
6.27221826978e-07
1.05961140714e-07
6.26083333385e-07
9.180130574e-08
6.23970540474e-07
7.81754389077e-08
6.21081207545e-07
6.58837556756e-08
6.17928321855e-07
5.70999126321e-08
6.18876435453e-07
5.30178375539e-08
6.31513340411e-07
4.6919505171e-08
6.65263301379e-07
6.93523436945e-07
3.23637507421e-08
1.3680352697e-07
6.66536141631e-07
1.67538455033e-07
5.14776932008e-07
1.90945689019e-07
5.11834833509e-07
1.97307215972e-07
5.22669694576e-07
1.85907041143e-07
5.48678612866e-07
1.65802741925e-07
5.79626334375e-07
1.45344270478e-07
6.06374142695e-07
1.26053903375e-07
6.25596546534e-07
1.09124224756e-07
6.35978793702e-07
9.41675180404e-08
6.40095481178e-07
8.05043855775e-08
6.40917906743e-07
6.71315692867e-08
6.40595546051e-07
5.37097947491e-08
6.39523982213e-07
4.02929619722e-08
6.37391375388e-07
2.75341124436e-08
6.33861417481e-07
1.67698439967e-08
6.28688229523e-07
1.0901979636e-08
6.24737382168e-07
1.17074034734e-08
6.30695765307e-07
1.57494500897e-08
6.61203070754e-07
6.96963935743e-07
1.22861116428e-08
1.59300995663e-07
6.58359965632e-07
1.62767970658e-07
4.96541436816e-07
1.58841098382e-07
5.09792206883e-07
1.43749034806e-07
5.35586113587e-07
1.20932000455e-07
5.70745543022e-07
9.76486886352e-08
6.02677934927e-07
7.51547286959e-08
6.28806423263e-07
5.50473649263e-08
6.45686287575e-07
3.77712098373e-08
6.53252662459e-07
2.32534091538e-08
6.54624052568e-07
1.03398966329e-08
6.53839503076e-07
-1.6940199493e-09
6.52662559711e-07
-1.41934769754e-08
6.5202803576e-07
-2.58984306659e-08
6.49114726128e-07
-3.57961298938e-08
6.43749083468e-07
-4.29357562865e-08
6.35819530092e-07
-4.58654863733e-08
6.27657046477e-07
-4.1090793736e-08
6.25907697631e-07
-2.64949736309e-08
6.46588970624e-07
6.86182240985e-07
-1.57357600461e-08
1.72510340873e-07
6.42399375962e-07
1.36170853982e-07
5.19343464372e-07
9.83092403386e-08
5.42645826278e-07
6.07864824629e-08
5.71528361739e-07
2.9773253123e-08
6.01335621212e-07
2.03559416082e-09
6.30330732482e-07
-2.31019081477e-08
6.53945510135e-07
-4.45428710857e-08
6.67138496638e-07
-6.12394035296e-08
6.69969063994e-07
-7.36320712304e-08
6.67034192299e-07
-8.35726624612e-08
6.63815197894e-07
-9.25798689622e-08
6.6165426751e-07
-9.97481921072e-08
6.59194517225e-07
-1.0495887432e-07
6.54311141373e-07
-1.07864199984e-07
6.46649593058e-07
-1.08653504841e-07
6.36601111298e-07
-1.07333373257e-07
6.26326753968e-07
-9.93749007523e-08
6.17936718263e-07
-7.78223868485e-08
6.25019626612e-07
6.60195344639e-07
-5.18563930473e-08
1.54862734169e-07
6.39766990025e-07
7.65741993388e-08
5.84743475858e-07
-6.06520083417e-10
6.15830582704e-07
-7.07632758214e-08
6.40896371415e-07
-1.18153942635e-07
6.48686454236e-07
-1.51248931397e-07
6.63466127903e-07
-1.76092222638e-07
6.78823929092e-07
-1.94039870426e-07
6.85112168713e-07
-2.04122797481e-07
6.80066181926e-07
-2.08136591163e-07
6.71060880873e-07
-2.07701459222e-07
6.6336120435e-07
-2.04087012094e-07
6.58035964062e-07
-1.96830350085e-07
6.51933841202e-07
-1.88199962435e-07
6.45681130212e-07
-1.79339324837e-07
6.37784373579e-07
-1.70967040574e-07
6.28220678427e-07
-1.62633327224e-07
6.1798275909e-07
-1.51538230402e-07
6.06830077393e-07
-1.27961159731e-07
6.01428717575e-07
6.23127949765e-07
-9.09115221797e-08
1.44283201812e-07
6.54186132128e-07
4.81546159275e-08
6.69959743313e-07
-4.79521624035e-08
7.09670047416e-07
-1.42835424383e-07
7.36311832881e-07
-2.16802354731e-07
7.23220353366e-07
-2.71553809225e-07
7.18402632797e-07
-3.1408720771e-07
7.21439462808e-07
-3.422116635e-07
7.13265435457e-07
-3.52715920351e-07
6.90610502551e-07
-3.45914871174e-07
6.64265368633e-07
-3.28176448277e-07
6.45639243524e-07
-3.03590895823e-07
6.33458776722e-07
-2.7824834935e-07
6.26593507701e-07
-2.54225793325e-07
6.21657149875e-07
-2.32836761729e-07
6.16390803569e-07
-2.14421881727e-07
6.0979889852e-07
-1.98493783845e-07
6.02046510086e-07
-1.83904707345e-07
5.9223226923e-07
-1.6250929305e-07
5.80024263086e-07
5.84479813989e-07
-1.23872622071e-07
1.76084012393e-07
6.35081615669e-07
1.11552478734e-07
7.13389391693e-07
4.50390099521e-08
7.69275112843e-07
-2.99081897748e-08
8.10208827438e-07
-1.19177846998e-07
8.12782727648e-07
-2.0981978589e-07
8.09511005703e-07
-2.9304609187e-07
8.0497545639e-07
-3.57825551141e-07
7.78226792162e-07
-3.90034507398e-07
7.22922073617e-07
-3.87285365559e-07
6.61591291869e-07
-3.6412691063e-07
6.22528285516e-07
-3.3318099954e-07
6.02541861879e-07
-3.00685288021e-07
5.94117280188e-07
-2.70430796695e-07
5.91415966851e-07
-2.43638338739e-07
5.89606745275e-07
-2.20720719288e-07
5.8688552805e-07
-2.01688858758e-07
5.83016153292e-07
-1.85971451597e-07
5.76514808414e-07
-1.69973270874e-07
5.64024840193e-07
5.53158560326e-07
-1.38653300278e-07
2.47362157125e-07
5.23880760583e-07
2.34918647067e-07
6.98283893896e-07
2.17719362601e-07
7.74078047715e-07
1.94986358386e-07
8.28104845066e-07
1.41300839997e-07
8.64878366398e-07
5.42698612178e-08
8.96201130774e-07
-6.3826617042e-08
9.23135023088e-07
-1.85444076778e-07
8.99991947565e-07
-2.66915571159e-07
8.0457529895e-07
-2.90222304909e-07
6.85028746562e-07
-2.8647932936e-07
6.18869520029e-07
-2.70309949049e-07
5.86427229031e-07
-2.48199795784e-07
5.72046426637e-07
-2.25107415392e-07
5.68354532236e-07
-2.03967135562e-07
5.68491502117e-07
-1.8545921512e-07
5.68397480542e-07
-1.70176605083e-07
5.67749243317e-07
-1.58128828138e-07
5.64480251246e-07
-1.48349261441e-07
5.5425762293e-07
5.34695103059e-07
-1.29876191745e-07
1.88428975526e-07
4.73739270517e-07
1.97468381743e-07
6.65198092788e-07
2.06487988684e-07
7.53308160628e-07
2.15937787166e-07
8.13537814661e-07
2.14722505257e-07
8.63971846966e-07
1.99963367819e-07
9.10219573341e-07
1.69234770255e-07
9.5368469001e-07
8.79562867732e-08
9.81310029229e-07
-6.48842867817e-08
9.57533153744e-07
-1.23559060302e-07
7.43828460309e-07
-1.47099006064e-07
6.42513918265e-07
-1.52531497093e-07
5.91935115195e-07
-1.48937031096e-07
5.68504631157e-07
-1.40541132396e-07
5.59998837904e-07
-1.31528894883e-07
5.59514226334e-07
-1.2300850004e-07
5.59908335053e-07
-1.15916134113e-07
5.60684316851e-07
-1.10996692086e-07
5.5958477212e-07
-1.07865797995e-07
5.51146517908e-07
5.2926588338e-07
-1.02415862095e-07
1.68233211064e-07
4.48433130986e-07
1.69223547762e-07
6.42279545773e-07
1.78458081762e-07
7.33903952682e-07
1.89554461987e-07
7.97729362658e-07
1.97110413371e-07
8.54483728935e-07
1.96861999658e-07
9.09704901176e-07
1.86468723915e-07
9.63857508953e-07
1.56700280714e-07
1.01107588983e-06
9.75298583873e-08
1.01679116469e-06
2.50386216577e-08
8.16426586523e-07
-1.11179299425e-08
6.78769042198e-07
-3.05925168829e-08
6.11488707719e-07
-4.15412162723e-08
5.79512792058e-07
-4.71632076262e-08
5.6566457362e-07
-5.03976856051e-08
5.62786970568e-07
-5.25671255334e-08
5.62114419389e-07
-5.45082888712e-08
5.62660378546e-07
-5.74622510682e-08
5.62570825515e-07
-6.15821144113e-08
5.55297860227e-07
5.33590773048e-07
-6.58785772385e-08
1.58098144105e-07
4.32946769958e-07
1.55235664917e-07
6.24608596451e-07
1.62322296384e-07
7.17281125705e-07
1.73087971282e-07
7.82873263925e-07
1.83458467663e-07
8.42337663423e-07
1.91419132373e-07
9.01072013536e-07
1.95439201049e-07
9.59616703493e-07
1.93043209269e-07
1.01345456083e-06
1.76753533156e-07
1.03315032271e-06
1.17002600586e-07
8.76274007689e-07
8.75556492582e-08
7.08309627322e-07
6.60098291431e-08
6.33113371388e-07
4.92152869625e-08
5.96368652225e-07
3.54292736641e-08
5.79495968248e-07
2.3588780285e-08
5.74667334153e-07
1.31084678983e-08
5.72635006036e-07
3.61896995357e-09
5.72191044956e-07
-6.11181153359e-09
5.72342825158e-07
-1.6627492899e-08
5.65850295245e-07
5.44978324408e-07
-2.79793844223e-08
1.54367628879e-07
4.23521595627e-07
1.46821923903e-07
6.12177342859e-07
1.50116149782e-07
7.05396545637e-07
1.57349015338e-07
7.719277026e-07
1.64786139676e-07
8.33447405792e-07
1.70524593805e-07
8.94763669757e-07
1.73044947475e-07
9.56930718339e-07
1.70814222741e-07
1.01567904508e-06
1.63737411512e-07
1.04029369685e-06
1.70959713497e-07
8.69138941763e-07
1.53670088964e-07
7.25684650831e-07
1.35249628561e-07
6.51607169885e-07
1.17641085455e-07
6.14034983954e-07
1.00661293074e-07
5.9651932809e-07
8.40969111678e-08
5.91271415891e-07
6.86016946751e-08
5.88172092732e-07
5.41039835758e-08
5.86732543738e-07
3.96163793941e-08
5.86874185167e-07
2.42156835297e-08
5.81296248065e-07
5.61746773932e-07
7.49364297508e-09
1.51523409866e-07
4.16377986895e-07
1.41620380971e-07
6.02814471757e-07
1.42883434772e-07
6.96111596272e-07
1.47719953376e-07
7.64060115603e-07
1.53017235288e-07
8.26989498989e-07
1.57170649753e-07
8.90228430152e-07
1.60483818555e-07
9.53519762677e-07
1.63967778283e-07
1.01222006621e-06
1.80917699616e-07
1.02341989164e-06
2.02650955734e-07
8.47493295579e-07
1.98154658713e-07
7.30262734292e-07
1.85273919488e-07
6.6455765699e-07
1.6936975762e-07
6.29994230746e-07
1.51394283267e-07
6.14536714456e-07
1.3224912337e-07
6.1045690064e-07
1.13958394441e-07
6.065075455e-07
9.64664005374e-08
6.04272532532e-07
7.91209424692e-08
6.04270392089e-07
6.05764580451e-08
5.99890661375e-07
5.81870855846e-07
4.05040665436e-08
1.50976764144e-07
4.11675260188e-07
1.42365498424e-07
5.92541428219e-07
1.42580138364e-07
6.88594950738e-07
1.4469041688e-07
7.59369441893e-07
1.45616067974e-07
8.25274564727e-07
1.4545495995e-07
8.90170505042e-07
1.44699622695e-07
9.542656265e-07
1.48637487422e-07
1.0083450451e-06
1.96535500549e-07
9.75613658498e-07
2.243785815e-07
8.19736007717e-07
2.28739244106e-07
7.25978820062e-07
2.21502908758e-07
6.71858280095e-07
2.08228448691e-07
6.43318390148e-07
1.89870719181e-07
6.32932917155e-07
1.69923902951e-07
6.30445737058e-07
1.50609038178e-07
6.25868280104e-07
1.31913056348e-07
6.23018402623e-07
1.13212040346e-07
6.23026186057e-07
9.35522570612e-08
6.1960909019e-07
6.02964887422e-07
7.25152943621e-08
1.50765462471e-07
4.06922572868e-07
1.54140817204e-07
5.69459594698e-07
1.5780481685e-07
6.75885564792e-07
1.54922444451e-07
7.59058301357e-07
1.48261825982e-07
8.30973641038e-07
1.38744017396e-07
8.99477791802e-07
1.29913720436e-07
9.63102382727e-07
1.34981217395e-07
1.00335190581e-06
2.174711765e-07
8.93209410476e-07
2.45866255834e-07
7.91419150743e-07
2.53346416861e-07
7.18567074038e-07
2.49064617306e-07
6.76195831049e-07
2.36981046634e-07
6.55443584683e-07
2.18274512057e-07
6.51675871048e-07
1.98870519552e-07
6.49889012401e-07
1.7985966566e-07
6.44925437956e-07
1.61543966252e-07
6.41385986232e-07
1.42883573328e-07
6.41742923784e-07
1.24044032529e-07
6.38508141498e-07
6.22775108016e-07
1.04291026588e-07
1.65694260236e-07
3.85816296673e-07
1.90726261339e-07
5.20373157587e-07
2.02583396444e-07
6.52373510733e-07
1.92386097971e-07
7.64294201838e-07
1.74735715076e-07
8.47068118503e-07
1.57943470183e-07
9.15907710077e-07
1.49773650026e-07
9.71265140156e-07
1.94236395897e-07
9.58961184938e-07
2.40624174055e-07
8.46894657906e-07
2.65657628527e-07
7.66452926759e-07
2.73093519558e-07
7.11190126128e-07
2.69526177761e-07
6.79810031667e-07
2.56920681652e-07
6.68083688535e-07
2.38782875099e-07
6.69847353728e-07
2.20496085982e-07
6.68218861422e-07
2.02644853211e-07
6.62824923242e-07
1.85590119235e-07
6.58493059392e-07
1.68223218528e-07
6.59173548644e-07
1.52032236984e-07
6.54763886306e-07
6.39218328493e-07
1.35650818654e-07
1.10641834503e-07
4.24337961713e-07
1.15423784549e-07
5.00609417793e-07
1.59549024371e-07
6.00804728091e-07
1.64977443197e-07
7.55145253261e-07
1.49257078991e-07
8.6140038211e-07
1.31790212442e-07
9.33035063722e-07
1.39173764101e-07
9.63875908394e-07
2.18375744828e-07
8.79807080875e-07
2.5799279547e-07
8.07337041145e-07
2.78918805685e-07
7.45585467175e-07
2.85425482694e-07
7.04734948187e-07
2.81533574966e-07
6.83741739084e-07
2.67829818485e-07
6.81819241785e-07
2.5121213969e-07
6.86505182364e-07
2.34441884712e-07
6.85032209811e-07
2.18268877086e-07
6.79046824844e-07
2.02046781766e-07
6.74773713552e-07
1.86830760214e-07
6.74453839755e-07
1.74751552888e-07
6.66909935673e-07
6.50671897354e-07
1.63359055222e-07
8.98297438594e-08
4.89194699815e-07
8.43555277247e-08
4.94242029663e-07
9.8750388616e-08
5.81635184326e-07
1.26899493717e-07
7.24533539123e-07
1.12194512463e-07
8.75056484893e-07
1.13365291856e-07
9.31597210266e-07
1.84656274514e-07
8.92546984378e-07
2.30832109586e-07
8.33655560749e-07
2.64174961835e-07
7.74041175377e-07
2.82136113698e-07
7.27674850546e-07
2.87980227101e-07
6.98935829398e-07
2.8320021674e-07
6.88556353834e-07
2.69743841441e-07
6.95311547602e-07
2.54936414908e-07
7.01348749282e-07
2.39908092016e-07
7.00103140156e-07
2.25318915823e-07
6.9368681817e-07
2.07807022046e-07
6.92339287291e-07
1.9556183785e-07
6.8677028618e-07
1.88507519558e-07
6.74032911699e-07
6.57108153521e-07
1.82132530614e-07
1.22905726846e-07
5.22498226979e-07
9.27382742442e-08
5.09664749716e-07
8.49230123094e-08
5.84455835073e-07
7.93704265018e-08
7.2811818709e-07
8.60652441704e-08
8.67522847545e-07
1.3693541007e-07
8.80463838471e-07
1.87263144352e-07
8.42172291019e-07
2.29598613095e-07
2.58003773407e-07
2.73842099866e-07
2.79114209402e-07
2.73357272914e-07
2.62378946059e-07
2.50084243781e-07
2.36838491471e-07
2.19028653352e-07
2.00956603473e-07
1.9306688249e-07
1.91644450607e-07
1.90008517915e-07
1.41604259289e-07
9.97648217649e-08
6.96403018268e-08
4.12930609351e-08
5.74385192958e-08
1.08633569821e-07
-5.94164719612e-08
2.65083967513e-07
-5.5724732288e-08
2.51000190777e-07
-5.20496194952e-08
2.37193055235e-07
-4.82161335536e-08
2.23117806832e-07
-4.40311445367e-08
2.08098988805e-07
-3.94123531955e-08
1.91610940376e-07
-3.45017411149e-08
1.73748085875e-07
-2.9572846623e-08
1.55283558933e-07
-2.48436907569e-08
1.37093621495e-07
-2.04294671822e-08
1.19728491914e-07
-1.63798093813e-08
1.03421442172e-07
-1.27109122746e-08
8.82066574539e-08
-9.42392152062e-09
7.40004298322e-08
-6.51232268225e-09
6.06559744779e-08
-3.96145805635e-09
4.80577654446e-08
-1.76475014958e-09
3.63620311299e-08
2.61493190972e-08
-8.18069323165e-08
3.07301690375e-07
-7.60161807778e-08
2.89766928734e-07
-7.07263477313e-08
2.7454293524e-07
-6.58240753678e-08
2.60181710608e-07
-6.11969036893e-08
2.46373016854e-07
-5.66838583735e-08
2.32680022771e-07
-5.20722341152e-08
2.18506178271e-07
-4.71665157467e-08
2.0319328254e-07
-4.1925272488e-08
1.8636969249e-07
-3.65252428627e-08
1.68348068006e-07
-3.12225000514e-08
1.49980811605e-07
-2.61966230047e-08
1.32067755808e-07
-2.15362302076e-08
1.15068095332e-07
-1.72756022286e-08
9.91608248895e-08
-1.3421818827e-08
8.43528706678e-08
-9.97000774546e-09
7.05486366755e-08
-6.91035574951e-09
5.75963101114e-08
-4.22514084497e-09
4.53725610739e-08
-1.89745616834e-09
3.40343559498e-08
2.42518627729e-08
-8.96923230624e-08
3.01588379536e-07
-8.26565217513e-08
2.82731143137e-07
-7.63174415868e-08
2.68203857665e-07
-7.05399960592e-08
2.5440428246e-07
-6.51606410429e-08
2.40993661174e-07
-5.99700444576e-08
2.27489440847e-07
-5.47245160246e-08
2.13260648779e-07
-4.92393542824e-08
1.97708133715e-07
-4.35184686685e-08
1.80648807024e-07
-3.77616505048e-08
1.62591260153e-07
-3.21997084208e-08
1.44418872059e-07
-2.69776372739e-08
1.26845691905e-07
-2.21618158235e-08
1.10252278761e-07
-1.77738595477e-08
9.47728718772e-08
-1.38130219379e-08
8.03920377391e-08
-1.02692202346e-08
6.70048249855e-08
-7.12955826428e-09
5.44566612072e-08
-4.37468332037e-09
4.26176802242e-08
-1.97809726867e-09
3.16377655121e-08
2.22737656267e-08
-9.41335063192e-08
2.97431929181e-07
-8.63145855789e-08
2.7491218751e-07
-7.92580698607e-08
2.61147343829e-07
-7.29155199408e-08
2.48061748558e-07
-6.70599288939e-08
2.35138067428e-07
-6.14324460921e-08
2.21861970613e-07
-5.576842298e-08
2.07596621948e-07
-4.99079594448e-08
1.91847680696e-07
-4.39021156215e-08
1.74642959786e-07
-3.79628254694e-08
1.56651978786e-07
-3.22928557617e-08
1.38748900366e-07
-2.70080302256e-08