/*--------------------------------*- C++ -*----------------------------------*\
| =========                 |                                                 |
| \\      /  F ield         | OpenFOAM: The Open Source CFD Toolbox           |
|  \\    /   O peration     | Version:  2312                                  |
|   \\  /    A nd           | Website:  www.openfoam.com                      |
|    \\/     M anipulation  |                                                 |
\*---------------------------------------------------------------------------*/
FoamFile
{
    version     2.0;
    format      ascii;
    arch        "LSB;label=32;scalar=64";
    class       volScalarField;
    location    "0.9/water";
    object      epsilon.gas;
}
// * * * * * * * * * * * * * * * * * * * * * * * * * * * * * * * * * * * * * //

dimensions      [0 2 -3 0 0 0 0];

internalField   nonuniform List<scalar> 
1497
(
13.5357028125
8.54728796414
5.21593236454
3.08310085271
1.78649604074
1.04351953564
0.633870647603
0.409458159113
0.282280637598
0.21231034846
0.178307496118
0.165738298692
0.165381507452
3048.34822123
846.917723278
283.442435408
112.851352748
54.1887517326
31.0343026755
19.9978874829
13.4652830883
8.94169138908
5.70609849749
3.49571453223
2.07764376102
1.2303085848
0.750259345005
0.480903704595
0.324683904183
0.234393760356
0.18713981965
0.166844931196
0.162624463349
2557.99550665
703.135791135
232.346534708
92.3316789622
45.0262754031
26.5724508763
17.7310583457
12.3488746446
8.47256398077
5.59024395752
3.52825860666
2.15171470682
1.30372055525
0.81324682969
0.531057669994
0.36206089232
0.260108312997
0.204195307005
0.178207535713
0.170550999105
2302.99399631
616.070085687
197.166473644
76.6168724142
37.0914881856
22.048551542
14.9440613358
10.5990849503
7.41550297219
5.01759993255
3.24753226329
2.03122569465
1.26627285685
0.816258929061
0.550511513191
0.384702904886
0.280825083969
0.222191969724
0.193879705371
0.184385508097
2346.18789956
580.692521874
173.503482236
64.6233332074
30.5414126162
17.934912735
12.1325381509
8.64117167681
6.10965470808
4.21150490599
2.78458288787
1.78972933668
1.15682442937
0.777844433907
0.545603749728
0.393020859557
0.294891324687
0.23880154111
0.211206667136
0.201296254695
2893.12229187
626.012346137
177.000455322
62.2131440618
27.152407147
15.0439613316
9.82676151852
6.89062380683
4.87286559082
3.38858839094
2.28401772567
1.51676698302
1.02672399844
0.72436853865
0.527776062742
0.391879485857
0.304421999515
0.254369256579
0.229258795731
0.219365772431
4114.06609442
793.911522105
213.112763166
71.0905748439
28.4877571354
13.9687216054
8.30957563664
5.54633159584
3.86121623988
2.69310985026
1.8561029859
1.28453551948
0.915387087241
0.67359588291
0.504359171528
0.386467840613
0.312218692268
0.269495833672
0.246951031559
0.236361606727
5883.03166755
1069.63211534
279.195922699
89.5693822705
33.0638710191
14.314711276
7.55042905173
4.66978809174
3.14792506213
2.1957142028
1.55445198119
1.12349613506
0.832403791742
0.626970933179
0.479063924884
0.380523875678
0.319517516132
0.28324521503
0.261938033527
0.249296542535
7604.30559825
1402.43038818
369.294308212
116.089124011
40.8032094775
16.0447165499
7.52563781697
4.24816085616
2.73661319699
1.89990119082
1.3737288659
1.01847805536
0.765310262518
0.581308183766
0.455342593813
0.374922678159
0.324727176815
0.292768048325
0.271217295029
0.254571813786
8481.39201134
1684.00872652
457.952756369
142.146949797
48.503330254
18.1936897881
7.93002089711
4.14808932799
2.54883387511
1.74594119859
1.26622835112
0.938863666494
0.703785791877
0.540422054226
0.434163089249
0.367326851791
0.324242774853
0.293480002131
0.269054733478
0.249250212017
8045.49177824
1718.91703464
478.687407795
148.505429084
50.6785056549
19.1119198469
8.19471255031
4.13851024524
2.46921822612
1.6651531205
1.19388253943
0.875299475678
0.653990389922
0.506706079845
0.413054691676
0.352959010086
0.312241607656
0.282305122591
0.257680130651
0.236944922802
6438.69713203
1467.38642197
421.85359054
134.456153494
47.3543816848
18.5024617097
8.10442952683
4.11791565759
2.45907502294
1.64529542812
1.15897816067
0.83362688848
0.616001734341
0.475267220894
0.385721449451
0.328815218296
0.29082417736
0.263034119714
0.240010986029
0.220175005077
4653.69985127
1181.62327062
354.827181406
117.66080579
43.0270091736
17.4632750289
7.98171526341
4.23557314862
2.56613847066
1.69001289596
1.15406936223
0.8045708342
0.580127004107
0.438512974499
0.35237740674
0.298966721044
0.263426685592
0.238400580568
0.218254776643
0.199981052926
3527.95749516
1003.73574524
316.988521197
108.575435028
40.7554678917
17.382468704
8.40662404423
4.62141377565
2.80358417685
1.78767026423
1.16493154588
0.776043513847
0.539135647951
0.399085093507
0.318201836507
0.267676016882
0.234205134568
0.211816240745
0.194546131795
0.178752237797
3098.03430332
964.2385558
316.583002903
109.939890256
42.9912653887
19.0009615047
9.52856394007
5.35251271586
3.19087159643
1.92586852655
1.17703074432
0.743055201546
0.49965709846
0.365475418107
0.288749152628
0.240524944046
0.20821289797
0.187389068323
0.172804539195
0.160839992262
3242.09399348
1022.50480866
336.59019181
118.003368967
47.0841735561
21.4043775159
11.0604749306
6.30615840675
3.65452621255
2.06299548131
1.18729727614
0.722237106524
0.476617061991
0.344483830135
0.270141353115
0.223000759968
0.190495205352
0.170072737877
0.157648019628
0.149559202497
3522.21637496
1063.73819897
349.103756627
127.427144711
51.3703878333
23.3547518443
12.3628076341
7.18635567069
4.09082480773
2.19173222727
1.21736214194
0.726334424126
0.474298994323
0.34081912497
0.266901247674
0.219238895046
0.184880969908
0.163466201701
0.151824793655
0.146331197553
3328.64284669
973.273565268
319.765792209
120.635464446
51.9568170872
25.380085831
14.1571530939
8.45773788651
4.54317263402
2.3059418492
1.25446968516
0.745745066485
0.488910004151
0.355128817872
0.280784665013
0.230751312273
0.192632287488
0.168673085341
0.156079377336
0.151280001575
2898.61131407
829.77139225
272.083276791
105.883877543
49.6067297767
27.4718487651
17.1367587027
10.5268305889
4.94759756157
2.37319271826
1.28220172437
0.771003679843
0.515467643701
0.384418696062
0.31048050028
0.25626619024
0.212557245688
0.184604404632
0.169563571743
0.163720404152
2827.57421294
789.792532927
253.909059099
100.534785775
50.7053188372
31.4220834987
21.2521931936
12.9550246733
5.20408327901
2.39634677622
1.30473117474
0.801717860523
0.552363053926
0.426597036231
0.353495924803
0.293258528749
0.242334108177
0.208938945135
0.190239400321
0.182115361702
2875.677529
798.710396005
257.016204045
104.112632108
55.4689488216
36.9950859721
26.5752949022
15.5530311679
5.52634132955
2.48548663019
1.35825195811
0.849631368007
0.604307358598
0.482710432636
0.407860374477
0.339848001417
0.279960760838
0.239116410435
0.2153564967
0.204102622521
3018.01552456
819.850429556
272.56462591
114.841794696
63.7758506761
44.1761744546
32.7397292603
18.3854853079
6.34770537671
2.77267631026
1.48370941715
0.932829175259
0.679651840584
0.554126474806
0.472372673322
0.395741896088
0.324519585291
0.272909026366
0.241916795871
0.226788171596
3305.60662343
856.98748017
277.043047536
124.123373918
72.1436300753
51.8544069501
39.2675762805
20.3333269652
7.32619736905
3.17796143046
1.66974254099
1.0528417243
0.776878835811
0.638024202277
0.54852384824
0.462999674943
0.376674808823
0.30885264758
0.267152302228
0.247109966514
3342.08909672
903.770860622
286.840992271
126.505607279
77.2853014866
58.8366389986
45.2478747286
20.3301193701
7.96507096749
3.5530715265
1.88296168529
1.20042710866
0.890312670783
0.735733251231
0.640299528207
0.546210605336
0.439081756399
0.346482523252
0.288955523372
0.262447517017
3061.64351378
884.775784335
286.414594935
126.181851027
81.3572755784
65.1841184718
48.817542604
19.9792576183
8.24287892295
3.8443880303
2.10352129129
1.36809962855
1.0235736004
0.855210812355
0.755286309729
0.65097351989
0.515762552164
0.386334072666
0.305920218373
0.271175688535
2914.71094016
871.164971625
283.933775835
124.908758854
85.9641525386
71.3275119485
46.445474392
19.1645385623
8.41778319549
4.15476443075
2.36747057746
1.57427160171
1.19131611677
1.00650075431
0.901628881333
0.785088229831
0.609629094364
0.427611730925
0.316844865542
0.273796804404
3247.19674726
940.09600237
292.563006575
124.650553145
90.7351746785
74.9884501589
41.3707550464
18.6410699618
8.88780033065
4.65704062161
2.75321487977
1.86178224161
1.41788498264
1.20215588517
1.08390260871
0.948824478987
0.7149292038
0.460359776953
0.319305172435
0.276286970079
3989.18920123
1098.16258559
295.295783393
119.056303609
87.0994676098
68.1657347607
36.8188886219
18.5758021824
9.75617671131
5.46928493149
3.35494701851
2.28854984274
1.73152232302
1.44754832876
1.28227265171
1.09629114879
0.774395631109
0.463601644493
0.322626390261
0.288185382745
4185.28941176
1198.47534842
350.373990602
122.218299819
76.1132171635
54.0518750821
32.0113984899
18.4048647939
10.8106298261
6.5804514486
4.21550197569
2.87235572644
2.11458652196
1.68135663545
1.38006055955
1.09823820207
0.744861547963
0.461418184266
0.341958451359
0.317556764799
4316.56925445
1239.16355545
371.099687532
128.615935638
66.3384668009
42.5259236263
27.5210957967
17.7704851582
11.6323255517
7.69182928141
5.10101079684
3.42466861167
2.39672445146
1.76493589345
1.32996246837
1.00984102089
0.702348739252
0.474262715549
0.380093693895
0.369734633986
4689.35052134
1241.45501021
361.598460564
133.318458326
63.9100637089
36.9395007549
23.9139268319
16.4339181291
11.6654153626
8.17411507546
5.51482758369
3.66283784515
2.48997764419
1.76112426691
1.27316659942
0.945847940704
0.682235627371
0.501738999492
0.438837109344
0.451293689561
5399.98178554
1288.31370717
392.292422916
144.331914339
62.4143119036
32.2444034969
19.8124791837
13.8367621295
10.2884982427
7.43999969803
5.14550078245
3.4945505418
2.41981396149
1.72544469547
1.2434228565
0.915125178008
0.680440053284
0.547101678385
0.528994402092
0.574584529497
5677.73282644
1371.42904297
394.085716711
134.308587599
53.6762488067
25.5251269669
14.8471626846
10.3301451172
7.84105076591
5.88132667993
4.27145992691
3.0766962457
2.24384671494
1.64668561141
1.19883243802
0.893285611501
0.702223053728
0.631615162852
0.675110977183
0.758850350849
5402.72924368
1317.01859274
369.384383097
119.325668873
44.2614635603
19.3281160739
10.549363114
7.19708278569
5.49517803157
4.35079575305
3.40349224193
2.6413108451
2.03478897205
1.53754595504
1.15410448467
0.904058030434
0.781536944949
0.797309076487
0.914036254561
1.01609699035
5048.09505741
1262.37688883
353.854168543
110.919646707
38.8079156973
15.6115677672
7.85416054453
5.11722961518
3.88962771752
3.22889913059
2.74277564245
2.2995784138
1.86902550555
1.47241444882
1.17434387412
1.00251216465
0.972793864978
1.09437568277
1.28638891596
1.31005368426
4403.47888363
1159.4615025
336.702857338
106.810739368
36.7554118363
14.1269937112
6.618682323
4.06361085771
3.05293025797
2.6122984023
2.36613549356
2.11720906368
1.82167477426
1.53414027899
1.32959401185
1.25036330828
1.33349294975
1.58468277543
1.77561378531
1.45454240046
3546.2746076
997.142144148
306.981504871
101.11391317
35.3764145703
13.6520569696
6.31609782086
3.78997469557
2.83420684318
2.4607977601
2.30912218431
2.16235490458
1.966236491
1.77655150262
1.66306502697
1.68986513734
1.91168671091
2.2737877471
2.16667898857
1.24352542641
2849.11413454
861.726278171
280.309642015
95.2115511964
33.9805149394
13.5829814115
6.61420168916
4.11055039771
3.11083884189
2.70679605788
2.5581836962
2.42950518685
2.27627369446
2.15931321489
2.13603748337
2.28171028774
2.63720292075
2.83934527479
2.0695783048
0.961508644675
0.172977552278
0.187935806874
0.213274619324
0.254298823067
0.315189402383
0.398023515512
0.501007649633
0.602020457342
0.690966875831
0.765512004892
0.823569393533
0.897338008198
1.06793231665
1.48167111824
2.52675457607
5.95698823946
26.1549001913
30.1263551363
3.10546168703
12.2452815874
0.168501422418
0.181966468729
0.203274252352
0.234712953016
0.278835815838
0.336974240597
0.411353107106
0.507912942761
0.623061422733
0.714279943843
0.806679673698
1.02893843121
1.59553069785
2.92111762787
7.01215365363
21.7443791583
65.9206475637
88.7297393773
7.95770895217
14.7444587887
0.174528365512
0.18663087161
0.205640430967
0.232197878054
0.267651873127
0.312879542684
0.368851497997
0.436970121412
0.516761758981
0.620001047404
0.830797779588
1.38937691712
2.66124308993
7.19159095635
25.3276023926
65.1901396713
94.7201257568
83.9425945973
8.66249831812
14.5950221054
0.186978466086
0.197785211849
0.214835137966
0.237984696389
0.26786964692
0.304842873497
0.348354005938
0.395277701378
0.450458781928
0.579328409655
0.975646240867
2.0187282111
5.16173820993
23.5219572757
59.2738261381
82.9122184099
97.1062652423
79.17791228
8.94199400245
13.7637525716
0.202852118062
0.212053122512
0.226681957304
0.246537674195
0.271885452344
0.302213240685
0.334818510051
0.368398178873
0.431514206465
0.64489304878
1.29995892501
3.16982668156
13.3032493875
52.7698956262
76.8700958974
89.6199269337
93.9521472471
72.5415152277
8.73451954379
12.472510263
0.219518192955
0.226222912343
0.237662928055
0.254243271183
0.275675100091
0.299969895547
0.323095579881
0.350911533468
0.447250722204
0.827089948782
1.96149800752
6.48409267197
34.8694840325
69.4955251585
82.2727248714
87.4204175788
86.6884333496
65.8743632044
8.15595980255
10.8133684612
0.233964448001
0.237034035588
0.245125768121
0.25913609553
0.277509982026
0.296001549174
0.309797275584
0.341185113956
0.530435715303
1.25440332285
3.75794202319
19.7927035452
53.9179726495
71.0086589415
76.4292059057
77.8141884847
75.4437176121
56.4516279784
7.02306845974
8.91439281786
0.243250323596
0.241716349606
0.247598105563
0.259914785191
0.275069808945
0.285625215645
0.290532276944
0.354575319867
0.773623757675
2.13904611309
13.2773390138
36.8471782176
53.9318179425
61.2730456995
63.1600111581
63.2939251272
60.4304593506
44.9284881959
5.32605451043
7.07507488554
0.243818829778
0.239139587085
0.244192004502
0.254091908854
0.262766014371
0.26153150338
0.268593996913
0.429235416426
1.19873344158
9.01885280167
25.8592139084
38.4280103819
46.5067807188
48.7867794816
48.9300373282
47.5944441275
43.652500946
32.6510297008
3.2429895319
5.58938289209
0.235640895728
0.23066737036
0.23336155383
0.237801308242
0.235389788021
0.225424586718
0.267600742622
0.609080203224
3.10112183107
20.2429933393
30.5934638879
37.7380990724
40.4657031186
40.3188835207
38.1048522664
35.4808308869
29.4088873842
14.3868056138
1.29227507588
4.57275672352
0.222021928359
0.215895217604
0.214076029584
0.209933205178
0.197669856333
0.201698248775
0.32139670086
1.00187228897
5.63489957101
29.2399147389
36.9950138614
39.9513034744
40.4119013884
38.2280923609
32.3712648078
21.6891399165
13.1332017828
2.92168612792
0.471441122837
3.92456972682
0.204543606191
0.195455103885
0.188102760338
0.176843768333
0.170508554577
0.202134151323
0.410453752709
1.47861016087
7.78747142108
36.0080639516
41.561121105
43.1424604501
42.2499856915
37.1888383565
26.0350368528
7.67721338743
2.74632998591
0.548950862354
0.296188528086
3.50037933299
0.184212120458
0.172846903525
0.162545858465
0.154369454529
0.159100196387
0.223992653764
0.519622788685
1.86752112476
9.01166968866
39.6840386752
44.2599892058
44.7808078456
42.8884997627
34.7636547786
12.8834866478
2.06812004853
0.662638849278
0.275293846198
0.254894162376
3.1496203132
0.165145703099
0.154348608142
0.146700878334
0.145965019868
0.164339349004
0.255958954632
0.599518865805
2.03364388151
8.93422280485
38.6455997084
42.9988565691
42.9773467648
39.3452660146
28.2348854326
4.43195357304
0.911315246109
0.364897872608
0.220594827901
0.23346703449
2.80088576003
0.151239898522
0.14397536712
0.141641329206
0.148536779659
0.179270028613
0.280318741031
0.616252501861
1.90192617321
7.53676094956
32.7005395086
39.528066881
38.8730928368
33.3322200945
14.3268206265
2.08701064589
0.611255591613
0.302949775678
0.200607276962
0.217396448437
2.45378769636
0.144423181964
0.141467327799
0.145030170964
0.159169781596
0.196686329341
0.290725055781
0.571583865243
1.55221035054
5.33794824022
21.783685604
37.4592023802
36.1777613789
23.1106765982
5.86234291974
1.27150617985
0.479118750338
0.272736406484
0.190231375658
0.204812437316
2.13379007529
0.144666305201
0.145188919166
0.153647861319
0.174179847717
0.214389015452
0.291617156022
0.500724480284
1.18773351171
3.48648483566
11.9172842201
32.3253650123
32.5471287856
12.8809723074
3.08883878027
0.892188042644
0.39598422449
0.25239611322
0.183205831968
0.246156365484
1.87411691623
0.15102801813
0.1534604935
0.165808111119
0.191304257493
0.232173255308
0.289394287754
0.427773758035
0.886174758789
2.30962353091
6.84057376668
20.5587676598
24.3019421499
8.05992891712
1.95085846211
0.656109280313
0.337695826674
0.23639058459
0.175416098971
0.28295249303
1.68999944088
0.162490141196
0.165605102968
0.18138135172
0.209763365547
0.250120104526
0.290016204314
0.367586055488
0.657449816388
1.53418846815
4.11334416395
11.3232052026
15.8157654008
5.33353656651
1.29086720841
0.489539392476
0.292513734534
0.222093532136
0.168900674631
0.495136529402
1.58875253718
0.17817693745
0.182041314617
0.201594069641
0.229743247474
0.2680092542
0.297032434562
0.32874320463
0.507504844612
1.03212817096
2.53767684907
6.5898480888
9.88369871648
3.30360863098
0.832596423771
0.367068595905
0.252785878197
0.208078114664
0.165101630298
0.747214080933
1.54725773665
0.197160545131
0.203470274461
0.228052885566
0.251043244824
0.284341011741
0.310687693133
0.310088742465
0.423389683255
0.735897989935
1.63431868798
4.05680468117
6.00625212187
1.84181657163
0.530830472082
0.271247277022
0.215472092375
0.194896356737
0.164935402762
0.868663863642
1.54837329699
0.218165795825
0.22969573416
0.259983729221
0.272227761933
0.296419963986
0.3284199773
0.306480081669
0.386927626535
0.5914726282
1.14968789419
2.65818958043
3.46497611354
0.969289027509
0.339974378807
0.194547690992
0.178874062723
0.182856171011
0.168420274266
0.899667726119
1.57932426476
0.238545222867
0.257683369002
0.29316214375
0.29138194689
0.30208492823
0.345406679341
0.313720979201
0.37834188347
0.534692130122
0.927432980562
1.88349640168
1.87472341644
0.528676124889
0.21489786754
0.142312959728
0.147466460835
0.170682929883
0.170490472655
0.87382314998
1.62545045593
0.255472276045
0.28321783694
0.321642428742
0.30659576422
0.301392965225
0.357619770115
0.330609183707
0.384993864012
0.527929953104
0.863472985444
1.41864728301
0.982024255664
0.300562514329
0.143195899622
0.109038687924
0.12287190406
0.158205594439
0.171561336708
0.758392882366
1.67341882879
0.266714644464
0.301562059433
0.340849858714
0.315800278669
0.295626833131
0.365251969775
0.357394990168
0.404582020034
0.554960720546
0.86187012277
1.06341939606
0.535020046243
0.169151517565
0.103055445549
0.103281125202
0.105389107766
0.146610006417
0.172277681994
0.60078514632
1.71332786958
0.272833227998
0.311427643698
0.349212754351
0.317472458025
0.287184766384
0.372419461804
0.393978474591
0.44368392927
0.62482291201
0.829120804429
0.752383692639
0.311386144349
0.101358917432
0.0849365548088
0.112934610126
0.0943562216458
0.137440521226
0.172878051375
0.466926019131
1.74193234432
0.278979826714
0.317261941883
0.349309217141
0.312798383587
0.281231562828
0.384944324187
0.443068300814
0.510333137709
0.716391319375
0.762120117536
0.515312022992
0.172087886754
0.0668334554528
0.0977753598506
0.181731251544
0.0879796245369
0.13166174418
0.174758804537
0.388599210877
1.76275034142
0.294599444682
0.329251596262
0.349302157843
0.308144177136
0.285968697079
0.410974170355
0.515393483129
0.616381057294
0.737088840541
0.657502266761
0.353892894569
0.0905234334415
0.0567815003054
0.115274976791
0.408236824715
0.0848941872048
0.130124855609
0.17990814655
0.35546509603
1.78198175147
0.3294378998
0.357521550499
0.361211627753
0.313871137426
0.310687822956
0.464864486549
0.615806440625
0.719642521814
0.732252518609
0.531470470411
0.240729667114
0.0500740235366
0.0625270479414
0.255121362112
0.515050995179
0.0873349145781
0.133484956395
0.190290010095
0.354207646311
1.81443487375
0.390338490462
0.412849696652
0.393080140771
0.339601102197
0.367821957975
0.563686175983
0.735715905592
0.800811402068
0.70476859104
0.415853458357
0.142426472933
0.0325844208711
0.0792388672524
0.443376068736
0.536907610897
0.0993232890118
0.139169720431
0.203739307379
0.319319073134
1.868685017
0.483621151863
0.497570024325
0.443879026942
0.392140867421
0.472718550146
0.719518226782
0.874519498509
0.860388808987
0.636759663942
0.319725838378
0.0728992007253
0.0352752222489
0.172550475195
0.491363467546
0.555411140799
0.117693722027
0.146115745827
0.217753554288
0.283776767187
1.93894215709
0.616311007587
0.603722635492
0.503070544824
0.478368027799
0.643731975209
0.931985172593
1.01379764406
0.894570249592
0.534019083092
0.226965292852
0.0363211356942
0.0406684886206
0.290514893724
0.49504418917
0.575483719313
0.130863822212
0.155189425329
0.230098544393
0.292126616823
1.9978437531
0.788073430985
0.694699834596
0.558469027518
0.613263769529
0.900038827994
1.18473781252
1.13675532626
0.874170452127
0.427099079731
0.127240164905
0.0281424126787
0.099298233712
0.306590078637
0.504545678787
0.606163330267
0.151919085682
0.168386577713
0.24144004038
0.292059172994
2.0250797534
0.960059333403
0.715283959586
0.612944868621
0.813027169492
1.25019057137
1.45125510815
1.22633342524
0.779835138374
0.325221746272
0.0600486994981
0.0270324695041
0.190398745828
0.294015717271
0.525534134788
0.650211579829
0.188347077859
0.185965986416
0.25059741573
0.286491775343
2.03319190636
0.994919638224
0.660056427059
0.684706373829
1.09674249485
1.673696406
1.69988162449
1.26347841471
0.63534047872
0.211636584059
0.0344040344606
0.063496038572
0.209337599508
0.290585877087
0.559179478241
0.710562214282
0.236138491282
0.205431866063
0.255543836331
0.279441004127
2.03948923407
0.839428072852
0.588132429692
0.78274724165
1.444472917
2.08397510972
1.88434622524
1.22725502373
0.483422177558
0.119275167715
0.0295323820158
0.119753416988
0.201589350227
0.290703593115
0.601604509551
0.786456818873
0.335042664012
0.223366840133
0.256112814863
0.273851525983
2.05263771077
0.649066573698
0.533208348166
0.873085962175
1.71247547012
2.32681357293
1.93720135184
1.09250178097
0.347429491524
0.0724614877749
0.040104663831
0.140383805229
0.190461491085
0.287624896094
0.637605967963
0.86730255855
0.500635250811
0.238917902688
0.25377870752
0.270535152994
2.07156007848
0.512642261585
0.487133983369
0.879290559732
1.73337922918
)
;

boundaryField
{
    emptyPatch
    {
        type            empty;
    }
    minY
    {
        type            fixedValue;
        value           nonuniform List<scalar> 0();
    }
    maxY
    {
        type            inletOutlet;
        inletValue      nonuniform List<scalar> 0();
        value           nonuniform List<scalar> 0();
    }
    water_to_cooler
    {
        type            epsilonWallFunction;
        blending        stepwise;
        value           nonuniform List<scalar> 
37
(
105.133098227
105.608369549
97.4407148482
86.9022385496
74.5214397531
60.8812714159
47.4332414158
36.1897435428
28.5392106202
24.2017465305
21.3422840676
19.3413792158
17.8386831512
16.5146794208
15.3322829091
14.3472312513
13.6489534611
13.2528064672
13.1321760957
13.2143282793
13.4380713125
13.7660419923
14.1456655738
14.5226167999
14.8547276691
15.1329636862
15.4011641545
15.7333633909
16.1768798821
16.6458486675
17.0243070471
17.1376054085
16.9755062803
16.7576779824
16.666601998
16.7519642901
16.9631268283
)
;
    }
    water_to_heater
    {
        type            epsilonWallFunction;
        blending        stepwise;
        value           nonuniform List<scalar> 
60
(
12444.0101963
12444.0101963
10591.1357239
10591.1357239
9511.97413169
9511.97413169
9537.70866708
10931.5747389
13976.3972583
13976.3972583
18689.0111761
18689.0111761
23634.3428367
23634.3428367
26210.5843801
24746.8594913
18864.8603492
18864.8603492
12868.1569908
12868.1569908
9746.81883112
9746.81883112
9141.21636412
10130.8009645
11151.3751309
11151.3751309
10540.1423479
10540.1423479
9447.69155084
9447.69155084
9223.58100622
9400.8510109
9868.51044853
9868.51044853
10488.8776397
10488.8776397
10382.5997887
10382.5997887
9684.96805492
9472.92138923
10763.0249164
10763.0249164
13664.6365116
13664.6365116
14905.5424018
14905.5424018
15441.6574515
16207.2310796
17339.5737596
17339.5737596
17360.1356737
17360.1356737
16510.4614809
16510.4614809
15320.5791578
13033.4648322
10178.753876
10178.753876
8178.64731156
8178.64731156
)
;
    }
    procBoundary1to0
    {
        type            processor;
        value           nonuniform List<scalar> 
41
(
2554.18664794
820.727854265
275.040253957
94.3078157113
34.5539566921
14.7130980988
7.691815384
4.98048559534
3.82035166319
3.30584801152
3.05636203517
2.83178424957
2.62953353945
2.53828020144
2.5856811616
2.77833731628
3.01540165543
2.85786522788
1.82265175753
0.75314998505
2.2745585493
1.79833224031
0.861906419121
0.243749157408
0.0551037069532
0.0705293997541
0.148545288616
0.180179735728
0.278682055508
0.655428617213
0.935371222634
0.726124748046
0.254082037233
0.250991868885
0.269375049714
2.08986427857
0.417949875685
0.426315707594
0.760523257242
2.2745585493
1.47655259597
)
;
    }
    procBoundary1to3
    {
        type            processor;
        value           nonuniform List<scalar> 
41
(
12.2169209994
7.18747343987
4.16458330074
2.38355821793
1.36656895508
0.806672145231
0.508383189499
0.345947560129
0.25596511588
0.20993958444
0.189878986996
0.183683361825
0.185254467852
3673.08716987
1061.07003421
357.613431622
139.900762256
64.3944154229
34.8432926676
21.1932275027
21.1932275027
0.193231558117
0.210088890547
0.244340766059
0.307019502085
0.402690020452
0.515653303737
0.608583223093
0.678116134561
0.730698108484
0.771127993432
0.795447070175
0.806708783625
0.828160379718
0.910979021114
1.19046759464
2.31841682816
8.13392324686
4.00858624186
1.73502584669
9.56119696198
)
;
    }
}


// ************************************************************************* //
